                         Program Version 4.2.0 -  RELEASE  -
|  1> # ORCA input file
|  2> # SCF done       -194.607157780024          0.000801186961
|  3> ! CAM-B3LYP def2-SVP def2/J RIJCOSX Grid4 TightSCF
|  4> %maxcore 5000
|  5> %tddft
|  6>     Mode sTDDFT
|  7>     Ethresh 5.0
|  8>     maxcore 5000
|  9> end
| 10>
| 11> %pal
| 12>   nprocs 6
| 13>   end
| 14> * xyz 0 1
| 15>    C       -8.48900        -1.87261        -1.68292
| 16>    C       -8.60703        -2.87598        -0.75969
| 17>    C       -9.00420        -4.18758        -1.08853
| 18>    N       -9.33547        -5.26117        -1.32256
| 19>    C       -8.30509        -2.73376         0.61193
| 20>    N       -8.05256        -2.69043         1.73055
| 21>    C       -8.68573        -2.00068        -3.12070
| 22>    C       -8.24443        -0.80762        -3.74280
| 23>    C       -8.31691        -0.60629        -5.09980
| 24>    C       -8.89308        -1.61563        -5.87631
| 25>    C       -9.35578        -2.79435        -5.24449
| 26>    C       -9.24409        -3.01454        -3.87739
| 27>    S      -10.09881        -3.87407        -6.38427
| 28>    C       -9.77645        -2.74827        -7.67836
| 29>    C       -9.14508        -1.62021        -7.27517
| 30>   Br      -10.29981        -3.16986        -9.42053
| 31>    C       -7.81427         0.15546        -2.71360
| 32>    O       -7.42459         1.28821        -2.91674
| 33>    C       -8.06738        -0.50741        -1.41234
| 34>    C       -8.17553         0.12905        -0.21103
| 35>    C       -7.79036         1.47584         0.06940
| 36>    C       -6.65630         2.12754        -0.42700
| 37>    C       -6.43532         3.51308        -0.26364
| 38>    N       -5.23698         3.94726        -0.74398
| 39>    C       -4.54979         2.99594        -1.24002
| 40>    S       -5.28181         1.41564        -1.20165
| 41>    C       -7.36182         4.34178         0.41016
| 42>    C       -8.38005         3.64999         1.07622
| 43>    C       -8.60200         2.26323         0.91790
| 44>    N       -9.69482         1.79408         1.57904
| 45>    C      -10.29199         2.71488         2.22749
| 46>    S       -9.61823         4.31882         2.09450
| 47>    C       -7.25894         5.76767         0.39687
| 48>    C       -6.86141         6.47228        -0.70571
| 49>    C       -6.59548         7.86649        -0.81897
| 50>    C       -6.22410         8.26802        -2.06547
| 51>    C       -6.21439         7.22225        -3.01925
| 52>    S       -6.70869         5.71944        -2.28001
| 53>    C       -5.81336         7.18112        -4.33993
| 54>    C       -5.09865         8.09630        -5.14772
| 55>    C       -4.65681         7.55924        -6.31824
| 56>    C       -4.99299         6.18631        -6.50777
| 57>    S       -6.02079         5.66719        -5.18772
| 58>    C       -4.62976         5.39229        -7.55976
| 59>    C       -4.87758         3.99863        -7.74155
| 60>    C       -5.00512         3.00656        -6.75398
| 61>    C       -5.36531         1.66904        -7.05084
| 62>    N       -5.50226         0.87050        -5.95713
| 63>    C       -5.14995         1.46574        -4.88327
| 64>    S       -4.66050         3.11499        -5.05027
| 65>    C       -5.52328         1.20559        -8.37391
| 66>    C       -5.33503         2.18135        -9.35957
| 67>    C       -5.00547         3.52225        -9.06861
| 68>    N       -4.85169         4.30849       -10.17005
| 69>    C       -5.01930         3.65322       -11.25049
| 70>    S       -5.40911         1.96048       -11.07760
| 71>    C       -5.85230        -0.14148        -8.72337
| 72>    C       -5.66539        -1.28369        -8.01422
| 73>    C       -4.92525        -1.56397        -6.80105
| 74>    C       -3.71571        -1.02993        -6.44814
| 75>    C       -3.01175        -1.40165        -5.28680
| 76>    N       -2.42308        -1.65825        -4.33535
| 77>    C       -3.05854        -0.05415        -7.22377
| 78>    N       -2.50090         0.73641        -7.84140
| 79>    C       -5.55235        -2.72110        -6.17969
| 80>    C       -6.37195        -3.35717        -7.14670
| 81>    C       -6.41818        -2.52240        -8.36611
| 82>    O       -6.99905        -2.75116        -9.40156
| 83>    C       -7.02593        -4.53720        -6.88453
| 84>    C       -6.92876        -5.06514        -5.59159
| 85>    C       -6.16580        -4.37902        -4.61620
| 86>    C       -5.45173        -3.22053        -4.89740
| 87>    S       -6.22870        -5.18160        -3.07669
| 88>    C       -7.24568        -6.42598        -3.75798
| 89>    C       -7.53385        -6.24005        -5.06872
| 90>   Br       -7.80044        -7.85658        -2.69228
| 91>    H       -7.95607         0.30617        -5.54629
| 92>    H       -9.61833        -3.92638        -3.44215
| 93>    H       -8.87699        -0.81613        -7.93588
| 94>    H       -8.70610        -0.36285         0.59522
| 95>    H       -3.57314         3.12757        -1.66315
| 96>    H      -11.16238         2.54695         2.83084
| 97>    H       -7.57410         6.30643         1.28046
| 98>    H       -6.65090         8.51497         0.03774
| 99>    H       -5.95995         9.27757        -2.32700
|100>    H       -4.89365         9.10094        -4.82296
|101>    H       -4.05918         8.08616        -7.04091
|102>    H       -4.16981         5.87844        -8.41034
|103>    H       -5.15809         0.99719        -3.91960
|104>    H       -4.93194         4.08638       -12.22747
|105>    H       -6.36148        -0.26359        -9.67617
|106>    H       -7.59995        -5.04005        -7.64750
|107>    H       -4.86143        -2.73699        -4.13634
|108>    H       -8.14874        -6.90682        -5.64504
|109> *
|110>
|111>                          ****END OF INPUT****

CARTESIAN COORDINATES (ANGSTROEM)
---------------------------------
  C     -8.489000   -1.872610   -1.682920
  C     -8.607030   -2.875980   -0.759690
  C     -9.004200   -4.187580   -1.088530
  N     -9.335470   -5.261170   -1.322560
  C     -8.305090   -2.733760    0.611930
  N     -8.052560   -2.690430    1.730550
  C     -8.685730   -2.000680   -3.120700
  C     -8.244430   -0.807620   -3.742800
  C     -8.316910   -0.606290   -5.099800
  C     -8.893080   -1.615630   -5.876310
  C     -9.355780   -2.794350   -5.244490
  C     -9.244090   -3.014540   -3.877390
  S    -10.098810   -3.874070   -6.384270
  C     -9.776450   -2.748270   -7.678360
  C     -9.145080   -1.620210   -7.275170
  Br   -10.299810   -3.169860   -9.420530
  C     -7.814270    0.155460   -2.713600
  O     -7.424590    1.288210   -2.916740
  C     -8.067380   -0.507410   -1.412340
  C     -8.175530    0.129050   -0.211030
  C     -7.790360    1.475840    0.069400
  C     -6.656300    2.127540   -0.427000
  C     -6.435320    3.513080   -0.263640
  N     -5.236980    3.947260   -0.743980
  C     -4.549790    2.995940   -1.240020
  S     -5.281810    1.415640   -1.201650
  C     -7.361820    4.341780    0.410160
  C     -8.380050    3.649990    1.076220
  C     -8.602000    2.263230    0.917900
  N     -9.694820    1.794080    1.579040
  C    -10.291990    2.714880    2.227490
  S     -9.618230    4.318820    2.094500
  C     -7.258940    5.767670    0.396870
  C     -6.861410    6.472280   -0.705710
  C     -6.595480    7.866490   -0.818970
  C     -6.224100    8.268020   -2.065470
  C     -6.214390    7.222250   -3.019250
  S     -6.708690    5.719440   -2.280010
  C     -5.813360    7.181120   -4.339930
  C     -5.098650    8.096300   -5.147720
  C     -4.656810    7.559240   -6.318240
  C     -4.992990    6.186310   -6.507770
  S     -6.020790    5.667190   -5.187720
  C     -4.629760    5.392290   -7.559760
  C     -4.877580    3.998630   -7.741550
  C     -5.005120    3.006560   -6.753980
  C     -5.365310    1.669040   -7.050840
  N     -5.502260    0.870500   -5.957130
  C     -5.149950    1.465740   -4.883270
  S     -4.660500    3.114990   -5.050270
  C     -5.523280    1.205590   -8.373910
  C     -5.335030    2.181350   -9.359570
  C     -5.005470    3.522250   -9.068610
  N     -4.851690    4.308490  -10.170050
  C     -5.019300    3.653220  -11.250490
  S     -5.409110    1.960480  -11.077600
  C     -5.852300   -0.141480   -8.723370
  C     -5.665390   -1.283690   -8.014220
  C     -4.925250   -1.563970   -6.801050
  C     -3.715710   -1.029930   -6.448140
  C     -3.011750   -1.401650   -5.286800
  N     -2.423080   -1.658250   -4.335350
  C     -3.058540   -0.054150   -7.223770
  N     -2.500900    0.736410   -7.841400
  C     -5.552350   -2.721100   -6.179690
  C     -6.371950   -3.357170   -7.146700
  C     -6.418180   -2.522400   -8.366110
  O     -6.999050   -2.751160   -9.401560
  C     -7.025930   -4.537200   -6.884530
  C     -6.928760   -5.065140   -5.591590
  C     -6.165800   -4.379020   -4.616200
  C     -5.451730   -3.220530   -4.897400
  S     -6.228700   -5.181600   -3.076690
  C     -7.245680   -6.425980   -3.757980
  C     -7.533850   -6.240050   -5.068720
  Br    -7.800440   -7.856580   -2.692280
  H     -7.956070    0.306170   -5.546290
  H     -9.618330   -3.926380   -3.442150
  H     -8.876990   -0.816130   -7.935880
  H     -8.706100   -0.362850    0.595220
  H     -3.573140    3.127570   -1.663150
  H    -11.162380    2.546950    2.830840
  H     -7.574100    6.306430    1.280460
  H     -6.650900    8.514970    0.037740
  H     -5.959950    9.277570   -2.327000
  H     -4.893650    9.100940   -4.822960
  H     -4.059180    8.086160   -7.040910
  H     -4.169810    5.878440   -8.410340
  H     -5.158090    0.997190   -3.919600
  H     -4.931940    4.086380  -12.227470
  H     -6.361480   -0.263590   -9.676170
  H     -7.599950   -5.040050   -7.647500
  H     -4.861430   -2.736990   -4.136340
  H     -8.148740   -6.906820   -5.645040

 Total Charge           Charge          ....    0
 Multiplicity           Mult            ....    1
 Number of Electrons    NEL             ....  624
 Basis Dimension        Dim             .... 1222

ORBITAL ENERGIES
----------------

  NO   OCC          E(Eh)            E(eV)
   0   2.0000    -482.879900    -13139.8301
   1   2.0000    -482.872131    -13139.6187
   2   2.0000     -88.975666     -2421.1510
   3   2.0000     -88.971685     -2421.0426
   4   2.0000     -88.969585     -2420.9855
   5   2.0000     -88.969017     -2420.9700
   6   2.0000     -88.966386     -2420.8984
   7   2.0000     -88.966253     -2420.8948
   8   2.0000     -88.949935     -2420.4508
   9   2.0000     -88.945551     -2420.3315
  10   2.0000     -62.557495     -1702.2760
  11   2.0000     -62.549740     -1702.0650
  12   2.0000     -56.391450     -1534.4894
  13   2.0000     -56.388743     -1534.4157
  14   2.0000     -56.388696     -1534.4144
  15   2.0000     -56.383725     -1534.2792
  16   2.0000     -56.381002     -1534.2051
  17   2.0000     -56.380892     -1534.2021
  18   2.0000     -19.219835      -522.9983
  19   2.0000     -19.213225      -522.8184
  20   2.0000     -14.423700      -392.4888
  21   2.0000     -14.419605      -392.3774
  22   2.0000     -14.416052      -392.2807
  23   2.0000     -14.415952      -392.2780
  24   2.0000     -14.414152      -392.2290
  25   2.0000     -14.412921      -392.1955
  26   2.0000     -14.410186      -392.1211
  27   2.0000     -14.407653      -392.0522
  28   2.0000     -10.369463      -282.1674
  29   2.0000     -10.364500      -282.0324
  30   2.0000     -10.355893      -281.7982
  31   2.0000     -10.350964      -281.6640
  32   2.0000     -10.347994      -281.5832
  33   2.0000     -10.342991      -281.4471
  34   2.0000     -10.342722      -281.4398
  35   2.0000     -10.340802      -281.3875
  36   2.0000     -10.340222      -281.3718
  37   2.0000     -10.339067      -281.3403
  38   2.0000     -10.333430      -281.1869
  39   2.0000     -10.332010      -281.1483
  40   2.0000     -10.325668      -280.9757
  41   2.0000     -10.324540      -280.9450
  42   2.0000     -10.322567      -280.8913
  43   2.0000     -10.320212      -280.8273
  44   2.0000     -10.319492      -280.8076
  45   2.0000     -10.318966      -280.7933
  46   2.0000     -10.318946      -280.7928
  47   2.0000     -10.318891      -280.7913
  48   2.0000     -10.318763      -280.7878
  49   2.0000     -10.318619      -280.7839
  50   2.0000     -10.318259      -280.7741
  51   2.0000     -10.318134      -280.7707
  52   2.0000     -10.317592      -280.7559
  53   2.0000     -10.317183      -280.7448
  54   2.0000     -10.316693      -280.7315
  55   2.0000     -10.315353      -280.6950
  56   2.0000     -10.315263      -280.6926
  57   2.0000     -10.313327      -280.6399
  58   2.0000     -10.313071      -280.6329
  59   2.0000     -10.312125      -280.6072
  60   2.0000     -10.309757      -280.5428
  61   2.0000     -10.308982      -280.5217
  62   2.0000     -10.307394      -280.4784
  63   2.0000     -10.305824      -280.4357
  64   2.0000     -10.304897      -280.4105
  65   2.0000     -10.304524      -280.4004
  66   2.0000     -10.304361      -280.3959
  67   2.0000     -10.302702      -280.3508
  68   2.0000     -10.302142      -280.3355
  69   2.0000     -10.300800      -280.2990
  70   2.0000     -10.300016      -280.2777
  71   2.0000     -10.299642      -280.2675
  72   2.0000     -10.298055      -280.2243
  73   2.0000     -10.297108      -280.1985
  74   2.0000     -10.296450      -280.1806
  75   2.0000     -10.296381      -280.1788
  76   2.0000     -10.294787      -280.1354
  77   2.0000     -10.294146      -280.1179
  78   2.0000     -10.293324      -280.0956
  79   2.0000     -10.291295      -280.0404
  80   2.0000     -10.289757      -279.9985
  81   2.0000     -10.288912      -279.9755
  82   2.0000     -10.288352      -279.9603
  83   2.0000     -10.287371      -279.9336
  84   2.0000      -8.786909      -239.1040
  85   2.0000      -8.779169      -238.8933
  86   2.0000      -8.070819      -219.6181
  87   2.0000      -8.068129      -219.5450
  88   2.0000      -8.065400      -219.4707
  89   2.0000      -8.065070      -219.4617
  90   2.0000      -8.062170      -219.3828
  91   2.0000      -8.061862      -219.3744
  92   2.0000      -8.046695      -218.9617
  93   2.0000      -8.041739      -218.8268
  94   2.0000      -6.623248      -180.2277
  95   2.0000      -6.615659      -180.0212
  96   2.0000      -6.608676      -179.8312
  97   2.0000      -6.608356      -179.8225
  98   2.0000      -6.600824      -179.6176
  99   2.0000      -6.600575      -179.6108
 100   2.0000      -6.040527      -164.3711
 101   2.0000      -6.037424      -164.2867
 102   2.0000      -6.036274      -164.2554
 103   2.0000      -6.034778      -164.2147
 104   2.0000      -6.034695      -164.2124
 105   2.0000      -6.033374      -164.1765
 106   2.0000      -6.032146      -164.1430
 107   2.0000      -6.031492      -164.1252
 108   2.0000      -6.031258      -164.1189
 109   2.0000      -6.030583      -164.1005
 110   2.0000      -6.030513      -164.0986
 111   2.0000      -6.029900      -164.0819
 112   2.0000      -6.027234      -164.0094
 113   2.0000      -6.027151      -164.0071
 114   2.0000      -6.027053      -164.0044
 115   2.0000      -6.026321      -163.9845
 116   2.0000      -6.024095      -163.9240
 117   2.0000      -6.023686      -163.9128
 118   2.0000      -6.016351      -163.7132
 119   2.0000      -6.012192      -163.6001
 120   2.0000      -6.011553      -163.5827
 121   2.0000      -6.007582      -163.4746
 122   2.0000      -6.007370      -163.4689
 123   2.0000      -6.002465      -163.3354
 124   2.0000      -2.739166       -74.5365
 125   2.0000      -2.735026       -74.4238
 126   2.0000      -2.734812       -74.4180
 127   2.0000      -2.731477       -74.3273
 128   2.0000      -2.727385       -74.2159
 129   2.0000      -2.727159       -74.2098
 130   2.0000      -2.723206       -74.1022
 131   2.0000      -2.723197       -74.1019
 132   2.0000      -2.715377       -73.8892
 133   2.0000      -2.715372       -73.8890
 134   2.0000      -1.135533       -30.8994
 135   2.0000      -1.128453       -30.7068
 136   2.0000      -1.082218       -29.4487
 137   2.0000      -1.080693       -29.4072
 138   2.0000      -1.073082       -29.2001
 139   2.0000      -1.072335       -29.1797
 140   2.0000      -1.022943       -27.8357
 141   2.0000      -1.016517       -27.6608
 142   2.0000      -1.012079       -27.5401
 143   2.0000      -1.006013       -27.3750
 144   2.0000      -1.004933       -27.3456
 145   2.0000      -0.993617       -27.0377
 146   2.0000      -0.989423       -26.9236
 147   2.0000      -0.988184       -26.8898
 148   2.0000      -0.984065       -26.7778
 149   2.0000      -0.982563       -26.7369
 150   2.0000      -0.961931       -26.1755
 151   2.0000      -0.958926       -26.0937
 152   2.0000      -0.945384       -25.7252
 153   2.0000      -0.941454       -25.6183
 154   2.0000      -0.934392       -25.4261
 155   2.0000      -0.929486       -25.2926
 156   2.0000      -0.907131       -24.6843
 157   2.0000      -0.900875       -24.5140
 158   2.0000      -0.899770       -24.4840
 159   2.0000      -0.895974       -24.3807
 160   2.0000      -0.890807       -24.2401
 161   2.0000      -0.888332       -24.1727
 162   2.0000      -0.885820       -24.1044
 163   2.0000      -0.884752       -24.0753
 164   2.0000      -0.879216       -23.9247
 165   2.0000      -0.871214       -23.7070
 166   2.0000      -0.861128       -23.4325
 167   2.0000      -0.855163       -23.2702
 168   2.0000      -0.853841       -23.2342
 169   2.0000      -0.836015       -22.7491
 170   2.0000      -0.834507       -22.7081
 171   2.0000      -0.827931       -22.5291
 172   2.0000      -0.826481       -22.4897
 173   2.0000      -0.823859       -22.4183
 174   2.0000      -0.821558       -22.3557
 175   2.0000      -0.810550       -22.0562
 176   2.0000      -0.791446       -21.5364
 177   2.0000      -0.775323       -21.0976
 178   2.0000      -0.761617       -20.7246
 179   2.0000      -0.757405       -20.6100
 180   2.0000      -0.752358       -20.4727
 181   2.0000      -0.743477       -20.2310
 182   2.0000      -0.740352       -20.1460
 183   2.0000      -0.732076       -19.9208
 184   2.0000      -0.714341       -19.4382
 185   2.0000      -0.704376       -19.1671
 186   2.0000      -0.698853       -19.0168
 187   2.0000      -0.695130       -18.9154
 188   2.0000      -0.691826       -18.8256
 189   2.0000      -0.688466       -18.7341
 190   2.0000      -0.682276       -18.5657
 191   2.0000      -0.679009       -18.4768
 192   2.0000      -0.677171       -18.4268
 193   2.0000      -0.663938       -18.0667
 194   2.0000      -0.660692       -17.9784
 195   2.0000      -0.658867       -17.9287
 196   2.0000      -0.656310       -17.8591
 197   2.0000      -0.653574       -17.7847
 198   2.0000      -0.643906       -17.5216
 199   2.0000      -0.638840       -17.3837
 200   2.0000      -0.634458       -17.2645
 201   2.0000      -0.632186       -17.2027
 202   2.0000      -0.623782       -16.9740
 203   2.0000      -0.621701       -16.9173
 204   2.0000      -0.617894       -16.8137
 205   2.0000      -0.606151       -16.4942
 206   2.0000      -0.605707       -16.4821
 207   2.0000      -0.597044       -16.2464
 208   2.0000      -0.595059       -16.1924
 209   2.0000      -0.593104       -16.1392
 210   2.0000      -0.587112       -15.9761
 211   2.0000      -0.582467       -15.8497
 212   2.0000      -0.580872       -15.8063
 213   2.0000      -0.575208       -15.6522
 214   2.0000      -0.570751       -15.5309
 215   2.0000      -0.564451       -15.3595
 216   2.0000      -0.554843       -15.0981
 217   2.0000      -0.553688       -15.0666
 218   2.0000      -0.549117       -14.9422
 219   2.0000      -0.547386       -14.8951
 220   2.0000      -0.545348       -14.8397
 221   2.0000      -0.543313       -14.7843
 222   2.0000      -0.540800       -14.7159
 223   2.0000      -0.540209       -14.6998
 224   2.0000      -0.535842       -14.5810
 225   2.0000      -0.534590       -14.5469
 226   2.0000      -0.531416       -14.4606
 227   2.0000      -0.529047       -14.3961
 228   2.0000      -0.525574       -14.3016
 229   2.0000      -0.522092       -14.2069
 230   2.0000      -0.520236       -14.1564
 231   2.0000      -0.519912       -14.1475
 232   2.0000      -0.517465       -14.0810
 233   2.0000      -0.513755       -13.9800
 234   2.0000      -0.513270       -13.9668
 235   2.0000      -0.506935       -13.7944
 236   2.0000      -0.505167       -13.7463
 237   2.0000      -0.503952       -13.7132
 238   2.0000      -0.502966       -13.6864
 239   2.0000      -0.501467       -13.6456
 240   2.0000      -0.498528       -13.5656
 241   2.0000      -0.498010       -13.5516
 242   2.0000      -0.494999       -13.4696
 243   2.0000      -0.493709       -13.4345
 244   2.0000      -0.490903       -13.3581
 245   2.0000      -0.488165       -13.2837
 246   2.0000      -0.487829       -13.2745
 247   2.0000      -0.484589       -13.1863
 248   2.0000      -0.482867       -13.1395
 249   2.0000      -0.479661       -13.0522
 250   2.0000      -0.473598       -12.8872
 251   2.0000      -0.471429       -12.8282
 252   2.0000      -0.466538       -12.6951
 253   2.0000      -0.465251       -12.6601
 254   2.0000      -0.461842       -12.5674
 255   2.0000      -0.459520       -12.5042
 256   2.0000      -0.456727       -12.4282
 257   2.0000      -0.454861       -12.3774
 258   2.0000      -0.452188       -12.3047
 259   2.0000      -0.447957       -12.1895
 260   2.0000      -0.445911       -12.1339
 261   2.0000      -0.443904       -12.0792
 262   2.0000      -0.443150       -12.0587
 263   2.0000      -0.439534       -11.9603
 264   2.0000      -0.438456       -11.9310
 265   2.0000      -0.437908       -11.9161
 266   2.0000      -0.435979       -11.8636
 267   2.0000      -0.434835       -11.8324
 268   2.0000      -0.434504       -11.8235
 269   2.0000      -0.429443       -11.6857
 270   2.0000      -0.427417       -11.6306
 271   2.0000      -0.425676       -11.5832
 272   2.0000      -0.423269       -11.5177
 273   2.0000      -0.422066       -11.4850
 274   2.0000      -0.421234       -11.4624
 275   2.0000      -0.420106       -11.4317
 276   2.0000      -0.417196       -11.3525
 277   2.0000      -0.414733       -11.2854
 278   2.0000      -0.411490       -11.1972
 279   2.0000      -0.406752       -11.0683
 280   2.0000      -0.403769       -10.9871
 281   2.0000      -0.399375       -10.8675
 282   2.0000      -0.397756       -10.8235
 283   2.0000      -0.389415       -10.5965
 284   2.0000      -0.382179       -10.3996
 285   2.0000      -0.376841       -10.2544
 286   2.0000      -0.370764       -10.0890
 287   2.0000      -0.367970       -10.0130
 288   2.0000      -0.366521        -9.9735
 289   2.0000      -0.364638        -9.9223
 290   2.0000      -0.362882        -9.8745
 291   2.0000      -0.361918        -9.8483
 292   2.0000      -0.361080        -9.8255
 293   2.0000      -0.359263        -9.7761
 294   2.0000      -0.358172        -9.7463
 295   2.0000      -0.354863        -9.6563
 296   2.0000      -0.342493        -9.3197
 297   2.0000      -0.337532        -9.1847
 298   2.0000      -0.334241        -9.0952
 299   2.0000      -0.331857        -9.0303
 300   2.0000      -0.324353        -8.8261
 301   2.0000      -0.317388        -8.6366
 302   2.0000      -0.315104        -8.5744
 303   2.0000      -0.311175        -8.4675
 304   2.0000      -0.309968        -8.4347
 305   2.0000      -0.306999        -8.3539
 306   2.0000      -0.305860        -8.3229
 307   2.0000      -0.290856        -7.9146
 308   2.0000      -0.287878        -7.8336
 309   2.0000      -0.281536        -7.6610
 310   2.0000      -0.273384        -7.4392
 311   2.0000      -0.227184        -6.1820
 312   0.0000      -0.103392        -2.8135
 313   0.0000      -0.087439        -2.3793
 314   0.0000      -0.070961        -1.9309
 315   0.0000      -0.059160        -1.6098
 316   0.0000      -0.052100        -1.4177

MULLIKEN ATOMIC CHARGES
-----------------------
   0 C :    0.273191
   1 C :   -0.331542
   2 C :   -0.188853
   3 N :    0.159559
   4 C :   -0.205057
   5 N :    0.171037
   6 C :    0.022938
   7 C :   -0.006448
   8 C :   -0.059004
   9 C :    0.121641
  10 C :   -0.095384
  11 C :   -0.025471
  12 S :    0.163628
  13 C :   -0.140419
  14 C :    0.070778
  15 Br:    0.042175
  16 C :    0.135968
  17 O :   -0.159678
  18 C :   -0.083111
  19 C :   -0.052414
  20 C :    0.003282
  21 C :   -0.049201
  22 C :   -0.033784
  23 N :   -0.057571
  24 C :    0.015152
  25 S :    0.119336
  26 C :    0.060680
  27 C :   -0.114125
  28 C :    0.032029
  29 N :   -0.056357
  30 C :    0.018948
  31 S :    0.105507
  32 C :   -0.071329
  33 C :    0.002263
  34 C :    0.036461
  35 C :    0.043711
  36 C :   -0.041666
  37 S :    0.104148
  38 C :   -0.064777
  39 C :    0.048468
  40 C :    0.038467
  41 C :   -0.028964
  42 S :    0.089388
  43 C :   -0.067147
  44 C :    0.028489
  45 C :   -0.121080
  46 C :    0.012716
  47 N :   -0.114978
  48 C :    0.070782
  49 S :    0.145567
  50 C :    0.079501
  51 C :   -0.103265
  52 C :    0.018369
  53 N :   -0.058624
  54 C :    0.015535
  55 S :    0.114125
  56 C :   -0.055233
  57 C :   -0.113451
  58 C :    0.308125
  59 C :   -0.333203
  60 C :   -0.203136
  61 N :    0.159124
  62 C :   -0.198818
  63 N :    0.174275
  64 C :    0.011544
  65 C :    0.009664
  66 C :    0.138513
  67 O :   -0.145627
  68 C :   -0.078015
  69 C :    0.113004
  70 C :   -0.081513
  71 C :   -0.034793
  72 S :    0.178674
  73 C :   -0.117361
  74 C :    0.026679
  75 Br:    0.042258
  76 H :   -0.015268
  77 H :   -0.006794
  78 H :   -0.004536
  79 H :    0.046632
  80 H :    0.046133
  81 H :    0.050242
  82 H :   -0.002542
  83 H :   -0.006140
  84 H :   -0.008118
  85 H :   -0.008762
  86 H :   -0.002428
  87 H :    0.012784
  88 H :    0.034878
  89 H :    0.045724
  90 H :    0.014522
  91 H :   -0.012901
  92 H :   -0.011669
  93 H :   -0.006057
Sum of atomic charges:   -0.0000000

LOEWDIN ATOMIC CHARGES
----------------------
   0 C :    0.075260
   1 C :   -0.135764
   2 C :   -0.019197
   3 N :   -0.057506
   4 C :   -0.026518
   5 N :   -0.043873
   6 C :   -0.022634
   7 C :   -0.052687
   8 C :    0.029435
   9 C :   -0.032407
  10 C :   -0.141472
  11 C :   -0.010924
  12 S :    0.439999
  13 C :   -0.268920
  14 C :   -0.068523
  15 Br:    0.153564
  16 C :    0.075250
  17 O :   -0.148131
  18 C :   -0.094004
  19 C :    0.080805
  20 C :   -0.060964
  21 C :   -0.136958
  22 C :   -0.050064
  23 N :   -0.093493
  24 C :   -0.105497
  25 S :    0.432968
  26 C :   -0.023497
  27 C :   -0.172955
  28 C :   -0.013208
  29 N :   -0.088223
  30 C :   -0.093767
  31 S :    0.398313
  32 C :   -0.070950
  33 C :   -0.114608
  34 C :   -0.027792
  35 C :   -0.022924
  36 C :   -0.175186
  37 S :    0.416562
  38 C :   -0.175634
  39 C :   -0.028549
  40 C :   -0.025393
  41 C :   -0.143663
  42 S :    0.390539
  43 C :   -0.052119
  44 C :   -0.025527
  45 C :   -0.179270
  46 C :   -0.016587
  47 N :   -0.095294
  48 C :   -0.089762
  49 S :    0.435102
  50 C :   -0.060854
  51 C :   -0.150796
  52 C :   -0.027061
  53 N :   -0.085262
  54 C :   -0.099934
  55 S :    0.405649
  56 C :    0.047106
  57 C :   -0.069230
  58 C :    0.081068
  59 C :   -0.138161
  60 C :   -0.021504
  61 N :   -0.061120
  62 C :   -0.020345
  63 N :   -0.052019
  64 C :   -0.011265
  65 C :   -0.057523
  66 C :    0.083941
  67 O :   -0.144375
  68 C :    0.013432
  69 C :   -0.039371
  70 C :   -0.144332
  71 C :   -0.016945
  72 S :    0.433963
  73 C :   -0.266446
  74 C :   -0.078259
  75 Br:    0.156761
  76 H :    0.038214
  77 H :    0.039671
  78 H :    0.038204
  79 H :    0.050612
  80 H :    0.020914
  81 H :    0.023991
  82 H :    0.031154
  83 H :    0.034904
  84 H :    0.034349
  85 H :    0.034455
  86 H :    0.036443
  87 H :    0.042554
  88 H :    0.003500
  89 H :    0.022101
  90 H :    0.037912
  91 H :    0.035233
  92 H :    0.038206
  93 H :    0.037111

  Mayer bond orders larger than 0.100000
B(  0-C ,  1-C ) :   1.6697 B(  0-C ,  6-C ) :   1.0085 B(  0-C , 18-C ) :   1.0380
B(  1-C ,  2-C ) :   1.1435 B(  1-C ,  4-C ) :   1.1324 B(  2-C ,  3-N ) :   2.9659
B(  4-C ,  5-N ) :   3.0073 B(  6-C ,  7-C ) :   1.2681 B(  6-C , 11-C ) :   1.4000
B(  7-C ,  8-C ) :   1.4115 B(  7-C , 16-C ) :   0.9532 B(  8-C ,  9-C ) :   1.2496
B(  8-C , 76-H ) :   1.0153 B(  9-C , 10-C ) :   1.2990 B(  9-C , 14-C ) :   1.1691
B( 10-C , 11-C ) :   1.3199 B( 10-C , 12-S ) :   1.0848 B( 11-C , 77-H ) :   0.9890
B( 12-S , 13-C ) :   1.0852 B( 13-C , 14-C ) :   1.6055 B( 13-C , 15-Br) :   1.0351
B( 14-C , 78-H ) :   0.9928 B( 16-C , 17-O ) :   2.1532 B( 16-C , 18-C ) :   0.9620
B( 18-C , 19-C ) :   1.6076 B( 19-C , 20-C ) :   1.1444 B( 19-C , 79-H ) :   0.9402
B( 20-C , 21-C ) :   1.3404 B( 20-C , 28-C ) :   1.2944 B( 21-C , 22-C ) :   1.2814
B( 21-C , 25-S ) :   1.0942 B( 22-C , 23-N ) :   1.3179 B( 22-C , 26-C ) :   1.2956
B( 23-N , 24-C ) :   1.7542 B( 23-N , 25-S ) :   0.1060 B( 24-C , 25-S ) :   1.1119
B( 24-C , 80-H ) :   0.9615 B( 26-C , 27-C ) :   1.3557 B( 26-C , 32-C ) :   1.0854
B( 27-C , 28-C ) :   1.3040 B( 27-C , 31-S ) :   1.0705 B( 28-C , 29-N ) :   1.3568
B( 29-N , 30-C ) :   1.7524 B( 29-N , 31-S ) :   0.1058 B( 30-C , 31-S ) :   1.1230
B( 30-C , 81-H ) :   0.9636 B( 32-C , 33-C ) :   1.6299 B( 32-C , 82-H ) :   0.9568
B( 33-C , 34-C ) :   1.1297 B( 33-C , 37-S ) :   1.0583 B( 34-C , 35-C ) :   1.6110
B( 34-C , 83-H ) :   0.9975 B( 35-C , 36-C ) :   1.1688 B( 35-C , 84-H ) :   0.9960
B( 36-C , 37-S ) :   1.0717 B( 36-C , 38-C ) :   1.5005 B( 38-C , 39-C ) :   1.1713
B( 38-C , 42-S ) :   1.0525 B( 39-C , 40-C ) :   1.6122 B( 39-C , 85-H ) :   0.9938
B( 40-C , 41-C ) :   1.1264 B( 40-C , 86-H ) :   0.9974 B( 41-C , 42-S ) :   1.0366
B( 41-C , 43-C ) :   1.5919 B( 43-C , 44-C ) :   1.1365 B( 43-C , 87-H ) :   0.9542
B( 44-C , 45-C ) :   1.3242 B( 44-C , 52-C ) :   1.2997 B( 45-C , 46-C ) :   1.2741
B( 45-C , 49-S ) :   1.0837 B( 46-C , 47-N ) :   1.3374 B( 46-C , 50-C ) :   1.3012
B( 47-N , 48-C ) :   1.6633 B( 48-C , 49-S ) :   1.1444 B( 48-C , 88-H ) :   0.9534
B( 50-C , 51-C ) :   1.3451 B( 50-C , 56-C ) :   1.0654 B( 51-C , 52-C ) :   1.3150
B( 51-C , 55-S ) :   1.0866 B( 52-C , 53-N ) :   1.3501 B( 53-N , 54-C ) :   1.7639
B( 53-N , 55-S ) :   0.1040 B( 54-C , 55-S ) :   1.1099 B( 54-C , 89-H ) :   0.9642
B( 56-C , 57-C ) :   1.7091 B( 56-C , 90-H ) :   0.9386 B( 57-C , 58-C ) :   1.0207
B( 57-C , 66-C ) :   0.9438 B( 58-C , 59-C ) :   1.6533 B( 58-C , 64-C ) :   1.0153
B( 59-C , 60-C ) :   1.1513 B( 59-C , 62-C ) :   1.1599 B( 60-C , 61-N ) :   3.0009
B( 62-C , 63-N ) :   3.0174 B( 64-C , 65-C ) :   1.2724 B( 64-C , 71-C ) :   1.4174
B( 65-C , 66-C ) :   0.9180 B( 65-C , 68-C ) :   1.4172 B( 66-C , 67-O ) :   2.2514
B( 68-C , 69-C ) :   1.2411 B( 68-C , 91-H ) :   1.0143 B( 69-C , 70-C ) :   1.3109
B( 69-C , 74-C ) :   1.1610 B( 70-C , 71-C ) :   1.3106 B( 70-C , 72-S ) :   1.0800
B( 71-C , 92-H ) :   0.9915 B( 72-S , 73-C ) :   1.0866 B( 73-C , 74-C ) :   1.6084
B( 73-C , 75-Br) :   1.0349 B( 74-C , 93-H ) :   1.0040

-----------------------------------------------------------------------------
         ABSORPTION SPECTRUM VIA TRANSITION ELECTRIC DIPOLE MOMENTS
-----------------------------------------------------------------------------
State   Energy  Wavelength   fosc         T2         TX        TY        TZ
        (cm-1)    (nm)                  (au**2)     (au)      (au)      (au)
-----------------------------------------------------------------------------
   0   11856.2    843.4   0.295582810   8.20749   1.19995   0.18358  -2.59498
   1   16694.1    599.0   0.449644830   8.86711   0.05455   2.90751   0.64073
   2   20713.6    482.8   0.109359708   1.73811  -0.21456  -0.06608   1.29912
   3   21840.2    457.9   0.647155753   9.75500  -0.47371  -3.08053   0.20235
   4   22641.4    441.7   0.453105411   6.58828   0.15023  -1.95781  -1.65309
   5   23441.0    426.6   0.246250542   3.45840   0.11711  -0.81193  -1.66897
   6   24385.4    410.1   0.072393984   0.97735   0.47814  -0.04184   0.86428
   7   24729.5    404.4   0.079035925   1.05217   0.29254   0.71003  -0.68003
   8   25491.9    392.3   0.125529012   1.62113   0.23384   0.84481  -0.92344
   9   25830.9    387.1   0.035963574   0.45835   0.31602   0.57236   0.17577
  10   26144.5    382.5   0.042203820   0.53143   0.06962   0.33598   0.64319
  11   26294.1    380.3   0.028118339   0.35205   0.38044   0.20962   0.40420
  12   26810.5    373.0   0.009705560   0.11918   0.27094  -0.00646  -0.21384
  13   27180.9    367.9   0.041783891   0.50608  -0.31170  -0.00261   0.63947
  14   27652.0    361.6   0.043537507   0.51834  -0.15660  -0.44622  -0.54286
  15   27857.2    359.0   0.006165963   0.07287   0.18074  -0.19153   0.05932
  16   27989.7    357.3   0.119011068   1.39980   0.13615  -0.35337   1.12089
  17   28484.4    351.1   0.045866980   0.53011  -0.48338   0.37746   0.39240
  18   28969.9    345.2   0.076414063   0.86836  -0.61095  -0.70165  -0.05284
  19   29199.4    342.5   0.097247700   1.09643  -0.18607   0.55273   0.86965
  20   29514.3    338.8   0.040437479   0.45105   0.21525  -0.23266   0.59211
  21   29729.2    336.4   0.049681418   0.55016   0.36954   0.11641  -0.63249
  22   29790.5    335.7   0.022167578   0.24497  -0.33588  -0.07597   0.35551
  23   30347.1    329.5   0.033300518   0.36125  -0.14794  -0.38438  -0.43774
  24   30432.9    328.6   0.021313168   0.23056   0.08383  -0.35438  -0.31297
  25   30660.0    326.2   0.063599529   0.68290  -0.32257  -0.75862  -0.05789
  26   31150.6    321.0   0.175799351   1.85792  -0.18066  -0.09841   1.34744
  27   31470.8    317.8   0.022559521   0.23599  -0.47988   0.06769   0.03355
  28   31591.2    316.5   0.048691933   0.50742   0.00911   0.44322  -0.55758
  29   31860.2    313.9   0.041917070   0.43313  -0.23431  -0.50283  -0.35411
  30   32083.0    311.7   0.026014185   0.26694   0.20067   0.41572  -0.23206
  31   32193.8    310.6   0.006920474   0.07077   0.18233  -0.06170  -0.18362
  32   32405.5    308.6   0.113636645   1.15445   0.29612   0.75143  -0.70860
  33   32726.3    305.6   0.351318928   3.53411   0.81355   1.16877  -1.22728
  34   32861.7    304.3   0.031615195   0.31672  -0.27748  -0.30646   0.38185
  35   33023.7    302.8   0.211206246   2.10551  -0.65162  -0.80125   1.01927
  36   33142.6    301.7   0.143305989   1.42349  -0.12458  -1.06712   0.51887
  37   33386.5    299.5   0.159793236   1.57566  -0.69670  -0.01085  -1.04410
  38   33509.0    298.4   0.066600213   0.65432  -0.68287  -0.39027  -0.18893
  39   33873.2    295.2   0.141052336   1.37088   0.36974   1.02365   0.43164
  40   34019.8    293.9   0.044900395   0.43450   0.25751  -0.07407   0.60225
  41   34260.0    291.9   0.076460511   0.73473   0.33401   0.61789   0.49130
  42   34359.4    291.0   0.009376766   0.08984  -0.23064  -0.19138   0.00423
  43   34597.0    289.0   0.003226243   0.03070   0.06982   0.10423   0.12231
  44   34988.9    285.8   0.014085621   0.13253  -0.30374   0.17139  -0.10442
  45   35322.1    283.1   0.001259401   0.01174  -0.09601  -0.00683   0.04973
  46   35400.3    282.5   0.121236845   1.12746   0.08728   0.03577  -1.05762
  47   35481.5    281.8   0.015040128   0.13955   0.32717   0.02329   0.17879
  48   35872.5    278.8   0.010521570   0.09656   0.22775  -0.20318   0.05838
  49   36067.3    277.3   0.014141051   0.12908  -0.21500   0.27713  -0.07778
  50   36239.3    275.9   0.034654193   0.31481  -0.11166   0.54698   0.05621
  51   36458.1    274.3   0.040457696   0.36533  -0.11024   0.18437  -0.56496
  52   36553.6    273.6   0.010762099   0.09693  -0.18959   0.21002   0.12991
  53   36833.9    271.5   0.093480254   0.83550   0.63182   0.65240  -0.10330
  54   37101.8    269.5   0.061080082   0.54198  -0.12475   0.47737  -0.54638
  55   37260.0    268.4   0.045304411   0.40029   0.07680  -0.57238  -0.25840
  56   37332.5    267.9   0.022264836   0.19634  -0.01774  -0.40327   0.18276
  57   37446.0    267.1   0.048899006   0.42990  -0.11774  -0.28435   0.57895
  58   37584.9    266.1   0.012162725   0.10654  -0.16148   0.10953  -0.26166
  59   37724.9    265.1   0.023299645   0.20333   0.07168  -0.29239  -0.33570
  60   37818.2    264.4   0.039916620   0.34748  -0.22099   0.00377  -0.54647
  61   37945.3    263.5   0.050901061   0.44162   0.65739   0.04042  -0.08847
  62   38176.4    261.9   0.083656542   0.72141   0.51606   0.66276  -0.12581
  63   38231.7    261.6   0.048883914   0.42094   0.53666  -0.33753  -0.13786
  64   38310.4    261.0   0.052238441   0.44890  -0.03693   0.24454  -0.62268
  65   38500.1    259.7   0.038403141   0.32838   0.07659   0.38614  -0.41643
  66   38699.1    258.4   0.112297844   0.95531  -0.11128   0.71275   0.65949
  67   38901.5    257.1   0.117790995   0.99683  -0.36989  -0.66156  -0.64988
  68   39025.7    256.2   0.001775287   0.01498  -0.00487  -0.01653  -0.12116
  69   39099.1    255.8   0.110876464   0.93357   0.30666   0.60245  -0.69035
  70   39203.3    255.1   0.024481687   0.20559   0.00106  -0.04078  -0.45158
  71   39285.2    254.5   0.096945839   0.81241  -0.25037  -0.16991   0.84903
  72   39468.3    253.4   0.047492361   0.39614   0.00278   0.22128   0.58921
  73   39495.9    253.2   0.028724510   0.23943  -0.09183  -0.42824   0.21820
  74   39798.6    251.3   0.023662371   0.19573  -0.31698  -0.17612  -0.25346
  75   39842.8    251.0   0.013819585   0.11419   0.24136   0.06747   0.22668
  76   39906.0    250.6   0.020691685   0.17070   0.14518  -0.20194  -0.32991
  77   40104.2    249.4   0.068631069   0.56339  -0.22715  -0.66153   0.27233
  78   40245.0    248.5   0.038509354   0.31501   0.09647  -0.28463   0.47402

FINAL SINGLE POINT ENERGY    -11062.188857559842

DIPOLE MOMENT
-------------
                                X             Y             Z
Electronic contribution:    -44.96840    -134.46152     -30.74797
Nuclear contribution   :     43.52451     137.94905      30.11465
                        -----------------------------------------
Total Dipole Moment    :     -1.44389       3.48754      -0.63332
                        -----------------------------------------
Magnitude (a.u.)       :      3.82738
Magnitude (Debye)      :      9.72842

Rotational constants in cm-1:     0.000874     0.000613     0.000425
Rotational constants in MHz :    26.188401    18.373304    12.754613

                             ****ORCA TERMINATED NORMALLY****
TOTAL RUN TIME: 0 days 0 hours 15 minutes 8 seconds 368 msec
