                         Program Version 4.2.0 -  RELEASE  -
|  1> # ORCA input file
|  2> # SCF done       -209.793302902475          0.000511854825
|  3> ! CAM-B3LYP def2-SVP def2/J RIJCOSX Grid4 TightSCF
|  4> %maxcore 5000
|  5> %tddft
|  6>     Mode sTDDFT
|  7>     Ethresh 5.0
|  8>     maxcore 5000
|  9> end
| 10>
| 11> %pal
| 12>   nprocs 6
| 13>   end
| 14> * xyz 0 1
| 15>    C        0.46875         2.46069         1.54959
| 16>    C        1.02646         3.13839         0.50208
| 17>    F        1.64455         4.30790         0.70962
| 18>    C        0.96023         2.61760        -0.80624
| 19>    F        1.51783         3.30284        -1.81279
| 20>    C        0.33611         1.42609        -1.04900
| 21>    C       -0.24705         0.70312         0.00976
| 22>    C       -0.18086         1.22868         1.33307
| 23>    C       -0.75798         0.52080         2.41181
| 24>    C       -1.38035        -0.67651         2.17375
| 25>    C       -1.43667        -1.19593         0.85117
| 26>    C       -0.89107        -0.53450        -0.21116
| 27>    C       -2.13543        -2.49603         0.85660
| 28>    O       -2.33614        -3.20251        -0.10669
| 29>    C       -2.45294        -2.76847         2.28114
| 30>    C       -2.05229        -1.61415         3.06650
| 31>    C       -2.32585        -1.39378         4.39113
| 32>    C       -3.06822        -2.25721         5.22486
| 33>    N       -3.67887        -2.89851         5.95599
| 34>    C       -1.92737        -0.23820         5.09621
| 35>    N       -1.62442         0.67271         5.72514
| 36>    C       -2.86133        -3.95777         2.81850
| 37>    C       -3.35798        -5.11246         2.18080
| 38>    C       -3.89729        -5.31926         0.91705
| 39>    C       -4.30296        -6.63428         0.73119
| 40>    C       -4.06554        -7.45067         1.85831
| 41>    S       -3.38521        -6.58934         3.15366
| 42>    C       -4.46422        -8.77237         1.54583
| 43>    C       -4.96481        -8.79824         0.23147
| 44>    C       -4.89703        -7.45133        -0.31738
| 45>    C       -5.32122        -7.03822        -1.54425
| 46>    C       -5.88179        -7.92847        -2.48700
| 47>    N       -6.33498        -8.64157        -3.26117
| 48>    C       -5.25980        -5.68876        -1.95782
| 49>    N       -5.24434        -4.59704        -2.30581
| 50>    C       -5.36776       -10.07405        -0.16505
| 51>    C       -5.16795       -11.00807         0.83193
| 52>    S       -4.48605       -10.30740         2.28652
| 53>    C       -5.43433       -12.41660         0.74652
| 54>    N       -5.99191       -12.84783        -0.39154
| 55>    N       -6.23037       -14.09017        -0.58666
| 56>    C       -5.93288       -15.00970         0.33956
| 57>    C       -5.37392       -14.64102         1.57882
| 58>    C       -5.11836       -13.31143         1.78750
| 59>    C       -6.20215       -16.37623        -0.01004
| 60>    C       -6.78869       -16.82487        -1.17680
| 61>    C       -6.86828       -18.21735        -1.21422
| 62>    C       -6.33128       -18.82196        -0.06358
| 63>    S       -5.74333       -17.68539         1.06117
| 64>    C       -6.41913       -20.22771        -0.20468
| 65>    C       -7.02436       -20.51848        -1.44230
| 66>    C       -7.33305       -19.26412        -2.11328
| 67>    C       -7.93367       -19.10732        -3.32611
| 68>    C       -8.35858       -20.21057        -4.09827
| 69>    N       -8.71769       -21.10263        -4.72190
| 70>    C       -8.18757       -17.83710        -3.88881
| 71>    N       -8.40333       -16.81244        -4.35409
| 72>    C       -7.14183       -21.88528        -1.67284
| 73>    C       -6.59239       -22.64111        -0.64805
| 74>    S       -5.98357       -21.62637         0.65823
| 75>    C       -6.57332       -24.05384        -0.57908
| 76>    C       -5.79753       -24.86893         0.18544
| 77>    C       -6.24501       -26.26503         0.45672
| 78>    O       -7.12321       -26.86657        -0.11382
| 79>    C       -5.43116       -26.71185         1.60617
| 80>    C       -5.52389       -27.86857         2.32523
| 81>    C       -4.64471       -28.07384         3.41227
| 82>    C       -3.68909       -27.06812         3.74013
| 83>    C       -2.82118       -27.27637         4.83087
| 84>    C       -2.89417       -28.43088         5.55840
| 85>    C       -3.83709       -29.42650         5.23132
| 86>    C       -4.69484       -29.25281         4.18144
| 87>    F       -3.88599       -30.54751         5.96202
| 88>    F       -2.06766       -28.62764         6.59305
| 89>    C       -3.61115       -25.88337         2.97319
| 90>    C       -4.46418       -25.71282         1.91624
| 91>    C       -4.57958       -24.63891         0.93402
| 92>    C       -3.57641       -23.76757         0.59927
| 93>    C       -3.61321       -22.94876        -0.54829
| 94>    N       -3.59754       -22.29897        -1.49438
| 95>    C       -2.36594       -23.65580         1.31277
| 96>    N       -1.37596       -23.51270         1.87533
| 97>    H        0.52700         2.87400         2.54441
| 98>    H        0.29366         1.04115        -2.05581
| 99>    H       -0.68567         0.94146         3.40163
|100>    H       -0.95057        -0.95121        -1.20506
|101>    H       -2.76888        -4.06297         3.89361
|102>    H       -3.97666        -4.53893         0.18341
|103>    H       -5.77967       -10.34695        -1.11919
|104>    H       -5.15708       -15.38834         2.32801
|105>    H       -4.68639       -12.95139         2.70979
|106>    H       -7.12191       -16.14448        -1.93879
|107>    H       -7.56821       -22.33171        -2.55297
|108>    H       -7.33400       -24.55809        -1.16824
|109>    H       -6.25656       -28.61802         2.06753
|110>    H       -2.09066       -26.52661         5.09167
|111>    H       -5.41063       -30.02420         3.94433
|112>    H       -2.88423       -25.13460         3.24522
|113> *
|114>
|115>                          ****END OF INPUT****

CARTESIAN COORDINATES (ANGSTROEM)
---------------------------------
  C      0.468750    2.460690    1.549590
  C      1.026460    3.138390    0.502080
  F      1.644550    4.307900    0.709620
  C      0.960230    2.617600   -0.806240
  F      1.517830    3.302840   -1.812790
  C      0.336110    1.426090   -1.049000
  C     -0.247050    0.703120    0.009760
  C     -0.180860    1.228680    1.333070
  C     -0.757980    0.520800    2.411810
  C     -1.380350   -0.676510    2.173750
  C     -1.436670   -1.195930    0.851170
  C     -0.891070   -0.534500   -0.211160
  C     -2.135430   -2.496030    0.856600
  O     -2.336140   -3.202510   -0.106690
  C     -2.452940   -2.768470    2.281140
  C     -2.052290   -1.614150    3.066500
  C     -2.325850   -1.393780    4.391130
  C     -3.068220   -2.257210    5.224860
  N     -3.678870   -2.898510    5.955990
  C     -1.927370   -0.238200    5.096210
  N     -1.624420    0.672710    5.725140
  C     -2.861330   -3.957770    2.818500
  C     -3.357980   -5.112460    2.180800
  C     -3.897290   -5.319260    0.917050
  C     -4.302960   -6.634280    0.731190
  C     -4.065540   -7.450670    1.858310
  S     -3.385210   -6.589340    3.153660
  C     -4.464220   -8.772370    1.545830
  C     -4.964810   -8.798240    0.231470
  C     -4.897030   -7.451330   -0.317380
  C     -5.321220   -7.038220   -1.544250
  C     -5.881790   -7.928470   -2.487000
  N     -6.334980   -8.641570   -3.261170
  C     -5.259800   -5.688760   -1.957820
  N     -5.244340   -4.597040   -2.305810
  C     -5.367760  -10.074050   -0.165050
  C     -5.167950  -11.008070    0.831930
  S     -4.486050  -10.307400    2.286520
  C     -5.434330  -12.416600    0.746520
  N     -5.991910  -12.847830   -0.391540
  N     -6.230370  -14.090170   -0.586660
  C     -5.932880  -15.009700    0.339560
  C     -5.373920  -14.641020    1.578820
  C     -5.118360  -13.311430    1.787500
  C     -6.202150  -16.376230   -0.010040
  C     -6.788690  -16.824870   -1.176800
  C     -6.868280  -18.217350   -1.214220
  C     -6.331280  -18.821960   -0.063580
  S     -5.743330  -17.685390    1.061170
  C     -6.419130  -20.227710   -0.204680
  C     -7.024360  -20.518480   -1.442300
  C     -7.333050  -19.264120   -2.113280
  C     -7.933670  -19.107320   -3.326110
  C     -8.358580  -20.210570   -4.098270
  N     -8.717690  -21.102630   -4.721900
  C     -8.187570  -17.837100   -3.888810
  N     -8.403330  -16.812440   -4.354090
  C     -7.141830  -21.885280   -1.672840
  C     -6.592390  -22.641110   -0.648050
  S     -5.983570  -21.626370    0.658230
  C     -6.573320  -24.053840   -0.579080
  C     -5.797530  -24.868930    0.185440
  C     -6.245010  -26.265030    0.456720
  O     -7.123210  -26.866570   -0.113820
  C     -5.431160  -26.711850    1.606170
  C     -5.523890  -27.868570    2.325230
  C     -4.644710  -28.073840    3.412270
  C     -3.689090  -27.068120    3.740130
  C     -2.821180  -27.276370    4.830870
  C     -2.894170  -28.430880    5.558400
  C     -3.837090  -29.426500    5.231320
  C     -4.694840  -29.252810    4.181440
  F     -3.885990  -30.547510    5.962020
  F     -2.067660  -28.627640    6.593050
  C     -3.611150  -25.883370    2.973190
  C     -4.464180  -25.712820    1.916240
  C     -4.579580  -24.638910    0.934020
  C     -3.576410  -23.767570    0.599270
  C     -3.613210  -22.948760   -0.548290
  N     -3.597540  -22.298970   -1.494380
  C     -2.365940  -23.655800    1.312770
  N     -1.375960  -23.512700    1.875330
  H      0.527000    2.874000    2.544410
  H      0.293660    1.041150   -2.055810
  H     -0.685670    0.941460    3.401630
  H     -0.950570   -0.951210   -1.205060
  H     -2.768880   -4.062970    3.893610
  H     -3.976660   -4.538930    0.183410
  H     -5.779670  -10.346950   -1.119190
  H     -5.157080  -15.388340    2.328010
  H     -4.686390  -12.951390    2.709790
  H     -7.121910  -16.144480   -1.938790
  H     -7.568210  -22.331710   -2.552970
  H     -7.334000  -24.558090   -1.168240
  H     -6.256560  -28.618020    2.067530
  H     -2.090660  -26.526610    5.091670
  H     -5.410630  -30.024200    3.944330
  H     -2.884230  -25.134600    3.245220

 Total Charge           Charge          ....    0
 Multiplicity           Mult            ....    1
 Number of Electrons    NEL             ....  574
 Basis Dimension        Dim             .... 1244

ORBITAL ENERGIES
----------------

  NO   OCC          E(Eh)            E(eV)
   0   2.0000     -89.006202     -2421.9819
   1   2.0000     -89.005921     -2421.9742
   2   2.0000     -89.004231     -2421.9282
   3   2.0000     -89.003484     -2421.9079
   4   2.0000     -24.804139      -674.9549
   5   2.0000     -24.803809      -674.9459
   6   2.0000     -24.800414      -674.8536
   7   2.0000     -24.799774      -674.8361
   8   2.0000     -19.224441      -523.1236
   9   2.0000     -19.224220      -523.1176
  10   2.0000     -14.461937      -393.5293
  11   2.0000     -14.461814      -393.5260
  12   2.0000     -14.438150      -392.8820
  13   2.0000     -14.435472      -392.8092
  14   2.0000     -14.434987      -392.7960
  15   2.0000     -14.434913      -392.7940
  16   2.0000     -14.426536      -392.5660
  17   2.0000     -14.424956      -392.5230
  18   2.0000     -14.422252      -392.4494
  19   2.0000     -14.420054      -392.3896
  20   2.0000     -10.387846      -282.6677
  21   2.0000     -10.387511      -282.6585
  22   2.0000     -10.384032      -282.5639
  23   2.0000     -10.383389      -282.5464
  24   2.0000     -10.376311      -282.3538
  25   2.0000     -10.376186      -282.3504
  26   2.0000     -10.375252      -282.3250
  27   2.0000     -10.374557      -282.3060
  28   2.0000     -10.361414      -281.9484
  29   2.0000     -10.360180      -281.9148
  30   2.0000     -10.354703      -281.7658
  31   2.0000     -10.353466      -281.7321
  32   2.0000     -10.353081      -281.7216
  33   2.0000     -10.352522      -281.7065
  34   2.0000     -10.349872      -281.6343
  35   2.0000     -10.349800      -281.6324
  36   2.0000     -10.348209      -281.5891
  37   2.0000     -10.347204      -281.5617
  38   2.0000     -10.346743      -281.5492
  39   2.0000     -10.346442      -281.5410
  40   2.0000     -10.337698      -281.3031
  41   2.0000     -10.337471      -281.2969
  42   2.0000     -10.336997      -281.2840
  43   2.0000     -10.336276      -281.2644
  44   2.0000     -10.335983      -281.2564
  45   2.0000     -10.335175      -281.2344
  46   2.0000     -10.334606      -281.2189
  47   2.0000     -10.334577      -281.2181
  48   2.0000     -10.334053      -281.2039
  49   2.0000     -10.333908      -281.1999
  50   2.0000     -10.328852      -281.0623
  51   2.0000     -10.328431      -281.0509
  52   2.0000     -10.327885      -281.0360
  53   2.0000     -10.326775      -281.0058
  54   2.0000     -10.325153      -280.9617
  55   2.0000     -10.322878      -280.8998
  56   2.0000     -10.322132      -280.8795
  57   2.0000     -10.319688      -280.8130
  58   2.0000     -10.319046      -280.7955
  59   2.0000     -10.318008      -280.7673
  60   2.0000     -10.317506      -280.7536
  61   2.0000     -10.316914      -280.7375
  62   2.0000     -10.316523      -280.7269
  63   2.0000     -10.316314      -280.7212
  64   2.0000     -10.315426      -280.6970
  65   2.0000     -10.313527      -280.6453
  66   2.0000     -10.313262      -280.6381
  67   2.0000     -10.311592      -280.5927
  68   2.0000     -10.311540      -280.5913
  69   2.0000     -10.311082      -280.5788
  70   2.0000     -10.310614      -280.5661
  71   2.0000     -10.310297      -280.5574
  72   2.0000     -10.309096      -280.5248
  73   2.0000     -10.308452      -280.5072
  74   2.0000     -10.307433      -280.4795
  75   2.0000     -10.307035      -280.4687
  76   2.0000     -10.305981      -280.4400
  77   2.0000     -10.305534      -280.4278
  78   2.0000     -10.303431      -280.3706
  79   2.0000     -10.302927      -280.3569
  80   2.0000     -10.302022      -280.3323
  81   2.0000     -10.296920      -280.1934
  82   2.0000      -8.100859      -220.4356
  83   2.0000      -8.100609      -220.4288
  84   2.0000      -8.098568      -220.3732
  85   2.0000      -8.098381      -220.3682
  86   2.0000      -6.070030      -165.1739
  87   2.0000      -6.069787      -165.1673
  88   2.0000      -6.067837      -165.1142
  89   2.0000      -6.067470      -165.1043
  90   2.0000      -6.065949      -165.0629
  91   2.0000      -6.065684      -165.0556
  92   2.0000      -6.063586      -164.9986
  93   2.0000      -6.063363      -164.9925
  94   2.0000      -6.063290      -164.9905
  95   2.0000      -6.063035      -164.9836
  96   2.0000      -6.060937      -164.9265
  97   2.0000      -6.060896      -164.9254
  98   2.0000      -1.327175       -36.1143
  99   2.0000      -1.323215       -36.0065
 100   2.0000      -1.312302       -35.7096
 101   2.0000      -1.308328       -35.6014
 102   2.0000      -1.146892       -31.2085
 103   2.0000      -1.140441       -31.0330
 104   2.0000      -1.140244       -31.0276
 105   2.0000      -1.058799       -28.8114
 106   2.0000      -1.058041       -28.7908
 107   2.0000      -1.031274       -28.0624
 108   2.0000      -1.029179       -28.0054
 109   2.0000      -1.027890       -27.9703
 110   2.0000      -1.025433       -27.9034
 111   2.0000      -1.016261       -27.6539
 112   2.0000      -1.014179       -27.5972
 113   2.0000      -1.012832       -27.5606
 114   2.0000      -1.012312       -27.5464
 115   2.0000      -1.011126       -27.5141
 116   2.0000      -1.008581       -27.4449
 117   2.0000      -1.003766       -27.3139
 118   2.0000      -0.999816       -27.2064
 119   2.0000      -0.990182       -26.9442
 120   2.0000      -0.986189       -26.8356
 121   2.0000      -0.976935       -26.5838
 122   2.0000      -0.972135       -26.4531
 123   2.0000      -0.951865       -25.9016
 124   2.0000      -0.945819       -25.7370
 125   2.0000      -0.941008       -25.6061
 126   2.0000      -0.937821       -25.5194
 127   2.0000      -0.925352       -25.1801
 128   2.0000      -0.921745       -25.0820
 129   2.0000      -0.908379       -24.7183
 130   2.0000      -0.904411       -24.6103
 131   2.0000      -0.900075       -24.4923
 132   2.0000      -0.895520       -24.3683
 133   2.0000      -0.887764       -24.1573
 134   2.0000      -0.885918       -24.1071
 135   2.0000      -0.878807       -23.9136
 136   2.0000      -0.872574       -23.7439
 137   2.0000      -0.868772       -23.6405
 138   2.0000      -0.868322       -23.6282
 139   2.0000      -0.848181       -23.0802
 140   2.0000      -0.843866       -22.9628
 141   2.0000      -0.838573       -22.8187
 142   2.0000      -0.825755       -22.4699
 143   2.0000      -0.812759       -22.1163
 144   2.0000      -0.800156       -21.7734
 145   2.0000      -0.788797       -21.4643
 146   2.0000      -0.785352       -21.3705
 147   2.0000      -0.775382       -21.0992
 148   2.0000      -0.772079       -21.0094
 149   2.0000      -0.770528       -20.9671
 150   2.0000      -0.767574       -20.8868
 151   2.0000      -0.747811       -20.3490
 152   2.0000      -0.741942       -20.1893
 153   2.0000      -0.726773       -19.7765
 154   2.0000      -0.725645       -19.7458
 155   2.0000      -0.722261       -19.6537
 156   2.0000      -0.716523       -19.4976
 157   2.0000      -0.712431       -19.3862
 158   2.0000      -0.709256       -19.2998
 159   2.0000      -0.698248       -19.0003
 160   2.0000      -0.696522       -18.9533
 161   2.0000      -0.693123       -18.8608
 162   2.0000      -0.690890       -18.8001
 163   2.0000      -0.689133       -18.7523
 164   2.0000      -0.682305       -18.5665
 165   2.0000      -0.670319       -18.2403
 166   2.0000      -0.666168       -18.1274
 167   2.0000      -0.660764       -17.9803
 168   2.0000      -0.657678       -17.8963
 169   2.0000      -0.649990       -17.6871
 170   2.0000      -0.646379       -17.5889
 171   2.0000      -0.645374       -17.5615
 172   2.0000      -0.643092       -17.4994
 173   2.0000      -0.636467       -17.3192
 174   2.0000      -0.632848       -17.2207
 175   2.0000      -0.630787       -17.1646
 176   2.0000      -0.626011       -17.0346
 177   2.0000      -0.623680       -16.9712
 178   2.0000      -0.621506       -16.9120
 179   2.0000      -0.616032       -16.7631
 180   2.0000      -0.609784       -16.5931
 181   2.0000      -0.602001       -16.3813
 182   2.0000      -0.595899       -16.2152
 183   2.0000      -0.591559       -16.0971
 184   2.0000      -0.590261       -16.0618
 185   2.0000      -0.588930       -16.0256
 186   2.0000      -0.587651       -15.9908
 187   2.0000      -0.584407       -15.9025
 188   2.0000      -0.579505       -15.7691
 189   2.0000      -0.575243       -15.6532
 190   2.0000      -0.564690       -15.3660
 191   2.0000      -0.562202       -15.2983
 192   2.0000      -0.560001       -15.2384
 193   2.0000      -0.558029       -15.1848
 194   2.0000      -0.556901       -15.1541
 195   2.0000      -0.553808       -15.0699
 196   2.0000      -0.553047       -15.0492
 197   2.0000      -0.552414       -15.0320
 198   2.0000      -0.549179       -14.9439
 199   2.0000      -0.547753       -14.9051
 200   2.0000      -0.545498       -14.8438
 201   2.0000      -0.543807       -14.7977
 202   2.0000      -0.542620       -14.7654
 203   2.0000      -0.541050       -14.7227
 204   2.0000      -0.537326       -14.6214
 205   2.0000      -0.535835       -14.5808
 206   2.0000      -0.532812       -14.4986
 207   2.0000      -0.528502       -14.3813
 208   2.0000      -0.526320       -14.3219
 209   2.0000      -0.522932       -14.2297
 210   2.0000      -0.520168       -14.1545
 211   2.0000      -0.518080       -14.0977
 212   2.0000      -0.517882       -14.0923
 213   2.0000      -0.517394       -14.0790
 214   2.0000      -0.513111       -13.9625
 215   2.0000      -0.511509       -13.9189
 216   2.0000      -0.509751       -13.8710
 217   2.0000      -0.509575       -13.8662
 218   2.0000      -0.506861       -13.7924
 219   2.0000      -0.504138       -13.7183
 220   2.0000      -0.501465       -13.6456
 221   2.0000      -0.500770       -13.6267
 222   2.0000      -0.498973       -13.5777
 223   2.0000      -0.495947       -13.4954
 224   2.0000      -0.494579       -13.4582
 225   2.0000      -0.489320       -13.3151
 226   2.0000      -0.487324       -13.2608
 227   2.0000      -0.483863       -13.1666
 228   2.0000      -0.481377       -13.0989
 229   2.0000      -0.475676       -12.9438
 230   2.0000      -0.472992       -12.8708
 231   2.0000      -0.470674       -12.8077
 232   2.0000      -0.467469       -12.7205
 233   2.0000      -0.466469       -12.6933
 234   2.0000      -0.465415       -12.6646
 235   2.0000      -0.463842       -12.6218
 236   2.0000      -0.463023       -12.5995
 237   2.0000      -0.462413       -12.5829
 238   2.0000      -0.461874       -12.5682
 239   2.0000      -0.460330       -12.5262
 240   2.0000      -0.454854       -12.3772
 241   2.0000      -0.454823       -12.3764
 242   2.0000      -0.454365       -12.3639
 243   2.0000      -0.453687       -12.3455
 244   2.0000      -0.452081       -12.3017
 245   2.0000      -0.450296       -12.2532
 246   2.0000      -0.449548       -12.2328
 247   2.0000      -0.448261       -12.1978
 248   2.0000      -0.446146       -12.1402
 249   2.0000      -0.445916       -12.1340
 250   2.0000      -0.444034       -12.0828
 251   2.0000      -0.443554       -12.0697
 252   2.0000      -0.439043       -11.9470
 253   2.0000      -0.437705       -11.9105
 254   2.0000      -0.435555       -11.8521
 255   2.0000      -0.435070       -11.8389
 256   2.0000      -0.432831       -11.7779
 257   2.0000      -0.431455       -11.7405
 258   2.0000      -0.430842       -11.7238
 259   2.0000      -0.428901       -11.6710
 260   2.0000      -0.428663       -11.6645
 261   2.0000      -0.428444       -11.6586
 262   2.0000      -0.418633       -11.3916
 263   2.0000      -0.415246       -11.2994
 264   2.0000      -0.410391       -11.1673
 265   2.0000      -0.408814       -11.1244
 266   2.0000      -0.407863       -11.0985
 267   2.0000      -0.405777       -11.0417
 268   2.0000      -0.394413       -10.7325
 269   2.0000      -0.390704       -10.6316
 270   2.0000      -0.382057       -10.3963
 271   2.0000      -0.373333       -10.1589
 272   2.0000      -0.362990        -9.8775
 273   2.0000      -0.360886        -9.8202
 274   2.0000      -0.352454        -9.5908
 275   2.0000      -0.347412        -9.4536
 276   2.0000      -0.341781        -9.3003
 277   2.0000      -0.333621        -9.0783
 278   2.0000      -0.331473        -9.0198
 279   2.0000      -0.326835        -8.8936
 280   2.0000      -0.323794        -8.8109
 281   2.0000      -0.320829        -8.7302
 282   2.0000      -0.318310        -8.6617
 283   2.0000      -0.308966        -8.4074
 284   2.0000      -0.304430        -8.2840
 285   2.0000      -0.285472        -7.7681
 286   2.0000      -0.267493        -7.2788
 287   0.0000      -0.125619        -3.4183
 288   0.0000      -0.118287        -3.2188
 289   0.0000      -0.098142        -2.6706
 290   0.0000      -0.096269        -2.6196
 291   0.0000      -0.068805        -1.8723

MULLIKEN ATOMIC CHARGES
-----------------------
   0 C :   -0.110111
   1 C :    0.243804
   2 F :   -0.169798
   3 C :    0.242382
   4 F :   -0.170127
   5 C :   -0.108454
   6 C :    0.118574
   7 C :    0.116766
   8 C :   -0.087451
   9 C :    0.050518
  10 C :   -0.003819
  11 C :   -0.082135
  12 C :    0.156188
  13 O :   -0.147802
  14 C :   -0.093439
  15 C :    0.306041
  16 C :   -0.345398
  17 C :   -0.204408
  18 N :    0.160584
  19 C :   -0.180409
  20 N :    0.148822
  21 C :    0.028517
  22 C :   -0.110779
  23 C :    0.019530
  24 C :   -0.011867
  25 C :   -0.081516
  26 S :    0.207169
  27 C :   -0.095763
  28 C :    0.037858
  29 C :    0.300335
  30 C :   -0.289173
  31 C :   -0.197061
  32 N :    0.193520
  33 C :   -0.186059
  34 N :    0.189341
  35 C :   -0.052077
  36 C :   -0.043080
  37 S :    0.178925
  38 C :    0.034503
  39 N :   -0.045494
  40 N :   -0.046736
  41 C :    0.036978
  42 C :   -0.012367
  43 C :   -0.011098
  44 C :   -0.044733
  45 C :   -0.049963
  46 C :    0.034016
  47 C :   -0.095041
  48 S :    0.180098
  49 C :   -0.077175
  50 C :    0.027408
  51 C :    0.296421
  52 C :   -0.286187
  53 C :   -0.189507
  54 N :    0.181132
  55 C :   -0.193115
  56 N :    0.194854
  57 C :    0.008090
  58 C :   -0.096524
  59 S :    0.204551
  60 C :    0.051719
  61 C :   -0.142211
  62 C :    0.142549
  63 O :   -0.135817
  64 C :    0.014016
  65 C :   -0.082189
  66 C :    0.112114
  67 C :    0.111797
  68 C :   -0.107456
  69 C :    0.242632
  70 C :    0.239947
  71 C :   -0.103186
  72 F :   -0.170016
  73 F :   -0.169797
  74 C :   -0.080481
  75 C :    0.037710
  76 C :    0.248373
  77 C :   -0.325663
  78 C :   -0.207273
  79 N :    0.175206
  80 C :   -0.170751
  81 N :    0.153828
  82 H :    0.007204
  83 H :    0.001500
  84 H :   -0.005266
  85 H :   -0.006709
  86 H :    0.021872
  87 H :    0.036492
  88 H :    0.030789
  89 H :    0.006063
  90 H :    0.005731
  91 H :    0.031806
  92 H :    0.020860
  93 H :    0.036954
  94 H :   -0.006026
  95 H :    0.005865
  96 H :    0.002542
  97 H :   -0.002991
Sum of atomic charges:   -0.0000000

LOEWDIN ATOMIC CHARGES
----------------------
   0 C :   -0.029260
   1 C :    0.067176
   2 F :   -0.047861
   3 C :    0.068382
   4 F :   -0.048021
   5 C :   -0.032389
   6 C :   -0.008087
   7 C :   -0.006225
   8 C :    0.017971
   9 C :   -0.023795
  10 C :   -0.052296
  11 C :    0.032198
  12 C :    0.084967
  13 O :   -0.135891
  14 C :   -0.094526
  15 C :    0.075416
  16 C :   -0.140442
  17 C :   -0.025281
  18 N :   -0.052047
  19 C :   -0.017818
  20 N :   -0.051689
  21 C :    0.043916
  22 C :   -0.175578
  23 C :    0.023251
  24 C :   -0.070576
  25 C :   -0.161899
  26 S :    0.495385
  27 C :   -0.184679
  28 C :   -0.053498
  29 C :    0.072455
  30 C :   -0.086310
  31 C :   -0.020406
  32 N :   -0.016183
  33 C :   -0.019558
  34 N :   -0.015823
  35 C :   -0.000262
  36 C :   -0.169004
  37 S :    0.479138
  38 C :   -0.029464
  39 N :   -0.029935
  40 N :   -0.030092
  41 C :   -0.028505
  42 C :   -0.010558
  43 C :   -0.010205
  44 C :   -0.170203
  45 C :    0.000947
  46 C :   -0.054214
  47 C :   -0.182131
  48 S :    0.481017
  49 C :   -0.153777
  50 C :   -0.068123
  51 C :    0.076173
  52 C :   -0.088584
  53 C :   -0.016431
  54 N :   -0.024014
  55 C :   -0.020801
  56 N :   -0.015368
  57 C :    0.016135
  58 C :   -0.177783
  59 S :    0.508430
  60 C :    0.053915
  61 C :   -0.100655
  62 C :    0.083309
  63 O :   -0.137632
  64 C :   -0.054025
  65 C :    0.032030
  66 C :   -0.008871
  67 C :   -0.005508
  68 C :   -0.030595
  69 C :    0.068043
  70 C :    0.067862
  71 C :   -0.032102
  72 F :   -0.047668
  73 F :   -0.047365
  74 C :    0.013834
  75 C :   -0.020952
  76 C :    0.060220
  77 C :   -0.143260
  78 C :   -0.037177
  79 N :   -0.045972
  80 C :   -0.019969
  81 N :   -0.049345
  82 H :    0.047791
  83 H :    0.045675
  84 H :    0.040120
  85 H :    0.041753
  86 H :    0.043993
  87 H :    0.045601
  88 H :    0.050346
  89 H :    0.031931
  90 H :    0.031665
  91 H :    0.050629
  92 H :    0.048196
  93 H :    0.056294
  94 H :    0.041821
  95 H :    0.047261
  96 H :    0.045789
  97 H :    0.039651

  Mayer bond orders larger than 0.100000
B(  0-C ,  1-C ) :   1.4392 B(  0-C ,  5-C ) :   0.1088 B(  0-C ,  7-C ) :   1.1872
B(  0-C , 82-H ) :   1.0075 B(  1-C ,  2-F ) :   1.1364 B(  1-C ,  3-C ) :   1.1909
B(  3-C ,  4-F ) :   1.1353 B(  3-C ,  5-C ) :   1.4415 B(  5-C ,  6-C ) :   1.1904
B(  5-C , 83-H ) :   1.0083 B(  6-C ,  7-C ) :   1.2577 B(  6-C , 11-C ) :   1.1869
B(  7-C ,  8-C ) :   1.2151 B(  8-C ,  9-C ) :   1.4472 B(  8-C , 84-H ) :   0.9913
B(  9-C , 10-C ) :   1.2221 B(  9-C , 15-C ) :   0.9869 B( 10-C , 11-C ) :   1.4697
B( 10-C , 12-C ) :   0.9431 B( 11-C , 85-H ) :   1.0176 B( 12-C , 13-O ) :   2.1969
B( 12-C , 14-C ) :   0.9425 B( 14-C , 15-C ) :   1.0738 B( 14-C , 21-C ) :   1.5952
B( 15-C , 16-C ) :   1.6362 B( 16-C , 17-C ) :   1.1387 B( 16-C , 19-C ) :   1.1437
B( 17-C , 18-N ) :   2.9920 B( 19-C , 20-N ) :   2.9657 B( 21-C , 22-C ) :   1.1998
B( 21-C , 86-H ) :   0.9238 B( 22-C , 23-C ) :   1.4058 B( 22-C , 26-S ) :   1.0770
B( 23-C , 24-C ) :   1.3293 B( 23-C , 87-H ) :   0.9750 B( 24-C , 25-C ) :   1.3876
B( 24-C , 29-C ) :   0.9935 B( 25-C , 26-S ) :   1.1647 B( 25-C , 27-C ) :   1.2000
B( 27-C , 28-C ) :   1.4321 B( 27-C , 37-S ) :   1.1237 B( 28-C , 29-C ) :   0.9923
B( 28-C , 35-C ) :   1.2388 B( 29-C , 30-C ) :   1.7261 B( 30-C , 31-C ) :   1.1343
B( 30-C , 33-C ) :   1.1342 B( 31-C , 32-N ) :   3.0003 B( 33-C , 34-N ) :   2.9922
B( 35-C , 36-C ) :   1.4754 B( 35-C , 88-H ) :   1.0139 B( 36-C , 37-S ) :   1.1157
B( 36-C , 38-C ) :   1.0802 B( 38-C , 39-N ) :   1.5598 B( 38-C , 43-C ) :   1.2793
B( 39-N , 40-N ) :   1.3508 B( 40-N , 41-C ) :   1.5604 B( 41-C , 42-C ) :   1.2760
B( 41-C , 44-C ) :   1.0816 B( 42-C , 43-C ) :   1.4631 B( 42-C , 89-H ) :   0.9769
B( 43-C , 90-H ) :   0.9755 B( 44-C , 45-C ) :   1.4742 B( 44-C , 48-S ) :   1.1152
B( 45-C , 46-C ) :   1.2416 B( 45-C , 91-H ) :   1.0133 B( 46-C , 47-C ) :   1.4318
B( 46-C , 51-C ) :   0.9920 B( 47-C , 48-S ) :   1.1254 B( 47-C , 49-C ) :   1.2057
B( 49-C , 50-C ) :   1.4053 B( 49-C , 59-S ) :   1.1543 B( 50-C , 51-C ) :   0.9916
B( 50-C , 57-C ) :   1.3033 B( 51-C , 52-C ) :   1.7275 B( 52-C , 53-C ) :   1.1329
B( 52-C , 55-C ) :   1.1327 B( 53-C , 54-N ) :   2.9921 B( 55-C , 56-N ) :   3.0014
B( 57-C , 58-C ) :   1.4010 B( 57-C , 92-H ) :   1.0001 B( 58-C , 59-S ) :   1.0866
B( 58-C , 60-C ) :   1.1402 B( 60-C , 61-C ) :   1.6384 B( 60-C , 93-H ) :   0.9464
B( 61-C , 62-C ) :   0.9379 B( 61-C , 76-C ) :   1.0362 B( 62-C , 63-O ) :   2.2782
B( 62-C , 64-C ) :   0.9164 B( 64-C , 65-C ) :   1.4753 B( 64-C , 75-C ) :   1.2226
B( 65-C , 66-C ) :   1.1944 B( 65-C , 94-H ) :   1.0166 B( 66-C , 67-C ) :   1.2565
B( 66-C , 71-C ) :   1.1934 B( 67-C , 68-C ) :   1.1894 B( 67-C , 74-C ) :   1.2162
B( 68-C , 69-C ) :   1.4420 B( 68-C , 71-C ) :   0.1084 B( 68-C , 95-H ) :   1.0069
B( 69-C , 70-C ) :   1.1908 B( 69-C , 73-F ) :   1.1361 B( 70-C , 71-C ) :   1.4427
B( 70-C , 72-F ) :   1.1352 B( 71-C , 96-H ) :   1.0069 B( 74-C , 75-C ) :   1.4555
B( 74-C , 97-H ) :   0.9942 B( 75-C , 76-C ) :   1.0024 B( 76-C , 77-C ) :   1.6556
B( 77-C , 78-C ) :   1.1541 B( 77-C , 80-C ) :   1.1330 B( 78-C , 79-N ) :   3.0207
B( 80-C , 81-N ) :   2.9878

-----------------------------------------------------------------------------
         ABSORPTION SPECTRUM VIA TRANSITION ELECTRIC DIPOLE MOMENTS
-----------------------------------------------------------------------------
State   Energy  Wavelength   fosc         T2         TX        TY        TZ
        (cm-1)    (nm)                  (au**2)     (au)      (au)      (au)
-----------------------------------------------------------------------------
   0   14398.7    694.5   0.761878520  17.41957   0.26748   4.15943   0.21714
   1   15440.8    647.6   0.118861325   2.53424  -0.80968  -1.28164  -0.48584
   2   20521.6    487.3   1.149335850  18.43790  -0.42861   4.26208  -0.29815
   3   21743.4    459.9   0.898331642  13.60141   1.93420   2.80513   1.41121
   4   23434.2    426.7   0.002525268   0.03548  -0.02103   0.10811   0.15279
   5   23685.9    422.2   0.000084550   0.00118   0.00462  -0.03280  -0.00882
   6   24497.1    408.2   0.042135677   0.56625   0.33647   0.59427  -0.31606
   7   25852.9    386.8   0.045173633   0.57524   0.08146  -0.26754   0.70500
   8   26258.2    380.8   0.025446255   0.31903  -0.37448  -0.36681   0.21035
   9   27327.1    365.9   0.000688577   0.00830   0.08276  -0.01981  -0.03246
  10   27453.4    364.3   0.001861277   0.02232  -0.12398  -0.08330   0.00323
  11   27741.2    360.5   0.036785502   0.43654   0.09616  -0.64133   0.12647
  12   28431.2    351.7   0.494547398   5.72648   0.59510   2.30840  -0.20882
  13   28738.6    348.0   0.201768242   2.31134  -0.42016  -1.45663   0.11415
  14   29051.6    344.2   0.013208049   0.14967   0.32717  -0.01799  -0.20570
  15   29107.1    343.6   0.147224062   1.66516   0.49976   0.98840  -0.66217
  16   29165.4    342.9   0.134748898   1.52101  -0.35390  -1.17649   0.10785
  17   29210.5    342.3   0.156657490   1.76558  -0.08272   0.52557  -1.21759
  18   29694.5    336.8   0.205053218   2.27335   0.89128  -0.32891   1.17081
  19   30157.3    331.6   0.070481691   0.76941   0.45177  -0.66843   0.34426
  20   30868.1    324.0   0.074374085   0.79321   0.74786  -0.22863   0.42620
  21   31044.4    322.1   0.554874110   5.88419   0.68899  -1.00519   2.09740
  22   31452.6    317.9   0.017042505   0.17838   0.25101   0.27034  -0.20565
  23   31520.8    317.3   0.202184423   2.11167  -0.66186  -0.84364   0.98076
  24   31560.1    316.9   0.035755910   0.37298   0.11186   0.45913  -0.38687
  25   32027.3    312.2   0.274230024   2.81884  -0.23057  -1.48506   0.74851
  26   32185.3    310.7   0.293661561   3.00376  -0.48944  -1.38859  -0.91435
  27   32918.7    303.8   0.088462212   0.88469   0.08750  -0.60447  -0.71530
  28   33006.8    303.0   0.169227505   1.68789   0.65147   1.09807  -0.24024
  29   33246.9    300.8   0.057457137   0.56894   0.31730   0.17356   0.66192
  30   33398.1    299.4   0.280629160   2.76622  -0.01463  -1.40890   0.88374
  31   33832.5    295.6   0.003246762   0.03159   0.06947  -0.15996   0.03433
  32   34018.3    294.0   0.043328744   0.41931   0.29868   0.31092   0.48315
  33   34252.4    292.0   0.013091678   0.12583   0.30845   0.17518   0.00109
  34   34359.8    291.0   0.040221266   0.38537   0.45626   0.41982  -0.03085
  35   34408.9    290.6   0.001932911   0.01849   0.10565   0.00913   0.08513
  36   34674.0    288.4   0.543193391   5.15735   0.61423  -0.70812   2.06848
  37   34948.4    286.1   0.073713044   0.69437   0.53172  -0.23470  -0.59712
  38   35152.7    284.5   0.413648278   3.87390   0.68888   0.93919  -1.58659
  39   35350.2    282.9   0.083187582   0.77472   0.74580   0.42646   0.19138
  40   35699.4    280.1   0.436230681   4.02282   0.04513  -1.16955   1.62878
  41   36077.3    277.2   0.070607497   0.64431   0.30456   0.72386  -0.16607
  42   36233.8    276.0   0.028231818   0.25651   0.31046   0.11953   0.38188
  43   36506.1    273.9   0.006689883   0.06033  -0.04361   0.07880  -0.22851
  44   36761.8    272.0   0.000847929   0.00759   0.02093   0.07056  -0.04665
  45   37058.3    269.8   0.151957891   1.34994  -0.06204  -0.80075   0.83958
  46   37422.8    267.2   0.021594553   0.18997  -0.29508  -0.30952   0.08424
  47   37844.1    264.2   0.025855831   0.22492   0.24776   0.06047   0.39985
  48   37993.7    263.2   0.001210567   0.01049   0.06685   0.01623   0.07588
  49   38184.6    261.9   0.029265076   0.25231   0.36179   0.16981  -0.30427
  50   38312.4    261.0   0.002696698   0.02317   0.05017   0.06766   0.12679
  51   38419.1    260.3   0.013314427   0.11409   0.07601   0.25930   0.20267
  52   38461.7    260.0   0.041256101   0.35313   0.05447   0.00975   0.59167
  53   38640.7    258.8   0.105699529   0.90054   0.05517  -0.33395  -0.88655
  54   39036.2    256.2   0.040349043   0.34028  -0.09097  -0.48758   0.30704
  55   39064.1    256.0   0.064048296   0.53977  -0.05975  -0.64483  -0.34698
  56   39216.9    255.0   0.026306841   0.22084   0.22032  -0.20757  -0.35946
  57   39420.8    253.7   0.011777650   0.09836  -0.14813   0.05854  -0.27016
  58   39782.4    251.4   0.206770588   1.71109  -0.37696  -1.00396  -0.74903
  59   39921.8    250.5   0.106173453   0.87555  -0.75953  -0.13036  -0.53073
  60   40093.4    249.4   0.030459803   0.25011  -0.29595  -0.22109  -0.33711

FINAL SINGLE POINT ENERGY     -5057.323948277420

DIPOLE MOMENT
-------------
                                X             Y             Z
Electronic contribution:      9.25447       2.30067       6.21629
Nuclear contribution   :     -8.67501      -4.24996      -3.32147
                        -----------------------------------------
Total Dipole Moment    :      0.57946      -1.94930       2.89482
                        -----------------------------------------
Magnitude (a.u.)       :      3.53773
Magnitude (Debye)      :      8.99219

Rotational constants in cm-1:     0.001450     0.000132     0.000125
Rotational constants in MHz :    43.468635     3.960799     3.753145

                             ****ORCA TERMINATED NORMALLY****
TOTAL RUN TIME: 0 days 0 hours 10 minutes 47 seconds 569 msec
