                         Program Version 4.2.0 -  RELEASE  -
|  1> # ORCA input file
|  2> # SCF done       -200.688355148048          0.000541602954
|  3> ! CAM-B3LYP def2-SVP def2/J RIJCOSX Grid4 TightSCF
|  4> %maxcore 5000
|  5> %tddft
|  6>     Mode sTDDFT
|  7>     Ethresh 5.0
|  8>     maxcore 5000
|  9> end
| 10>
| 11> %pal
| 12>   nprocs 6
| 13>   end
| 14> * xyz 0 1
| 15>    C       -5.05702        -2.87815         5.86605
| 16>    O       -5.16539        -4.07210         5.65125
| 17>    C       -4.94460        -2.23519         7.18921
| 18>    C       -4.86151        -0.84116         7.02324
| 19>    C       -4.73747        -0.02859         8.14103
| 20>    C       -4.70098        -0.61876         9.39561
| 21>    C       -4.78932        -1.99796         9.53472
| 22>    C       -4.91260        -2.83296         8.43178
| 23>   Br       -4.73583        -2.75767        11.27428
| 24>    C       -4.92963        -0.53179         5.59579
| 25>    C       -4.96725         0.72938         5.06226
| 26>    C       -4.91046         1.91314         5.82896
| 27>    N       -4.86779         2.91124         6.39395
| 28>    C       -5.09546         1.03794         3.69098
| 29>    N       -5.21112         1.37130         2.59814
| 30>    C       -4.99862        -1.79383         4.88191
| 31>    C       -4.94532        -1.95690         3.52012
| 32>    C       -5.00838        -3.12268         2.74343
| 33>    C       -4.87102        -3.08683         1.34911
| 34>    C       -4.98068        -4.33670         0.77361
| 35>    C       -5.22271        -5.34956         1.73604
| 36>    S       -5.28191        -4.76413         3.33340
| 37>    C       -5.32692        -6.58166         1.05165
| 38>    C       -5.15087        -6.36110        -0.32760
| 39>    C       -4.92427        -4.94113        -0.54720
| 40>    C       -4.69876        -4.31992        -1.74014
| 41>    C       -4.66610        -5.03246        -2.95736
| 42>    N       -4.63982        -5.61546        -3.94442
| 43>    C       -4.47640        -2.92975        -1.83732
| 44>    N       -4.29045        -1.80217        -1.92556
| 45>    C       -5.23944        -7.52707        -1.08192
| 46>    C       -5.48797        -8.63992        -0.29350
| 47>    S       -5.60882        -8.22651         1.41418
| 48>    C       -5.64115        -9.98804        -0.72456
| 49>    C       -5.94562       -11.01351         0.14167
| 50>    C       -6.10625       -12.34475        -0.22606
| 51>    C       -5.94594       -12.77186        -1.61708
| 52>    C       -5.64938       -11.93536        -2.63645
| 53>    S       -5.41368       -10.24812        -2.44993
| 54>    C       -6.17246       -14.17512        -1.60613
| 55>    C       -6.46036       -14.60729        -0.30767
| 56>    C       -6.68953       -16.00165        -0.26743
| 57>    C       -6.57322       -16.56846        -1.49707
| 58>    S       -6.18345       -15.44911        -2.75546
| 59>    C       -6.42642       -13.46671         0.57442
| 60>    C       -6.66486       -13.40017         1.96053
| 61>    C       -6.99186       -14.43699         2.78307
| 62>    C       -7.22934       -14.29413         4.16727
| 63>    C       -7.19231       -13.14142         4.94782
| 64>    C       -7.48880       -13.39773         6.27770
| 65>    C       -7.75729       -14.75764         6.53823
| 66>    S       -7.64059       -15.71213         5.12311
| 67>    C       -8.03585       -14.90701         7.91228
| 68>    C       -7.94786       -13.63489         8.52792
| 69>    C       -7.59683       -12.65204         7.52409
| 70>    C       -7.38517       -11.31640         7.71116
| 71>    C       -7.50570       -10.72499         8.98593
| 72>    N       -7.61319       -10.26016        10.02877
| 73>    C       -7.04214       -10.46095         6.64438
| 74>    N       -6.77173        -9.77698         5.76407
| 75>    C       -8.17598       -13.67770         9.89423
| 76>    C       -8.43675       -14.96482        10.34801
| 77>    S       -8.42675       -16.13400         9.02412
| 78>    C       -8.74059       -15.40651        11.64798
| 79>    C       -8.55534       -14.76521        12.84027
| 80>    C       -9.34331       -15.21558        14.01775
| 81>    O       -9.99514       -16.22947        14.11103
| 82>    C       -9.19678       -14.13305        15.01628
| 83>    C       -8.29147       -13.17097        14.53295
| 84>    C       -7.76690       -13.62276        13.24415
| 85>    C       -6.58654       -13.19398        12.69299
| 86>    C       -5.79882       -12.15453        13.23094
| 87>    N       -5.11731       -11.32195        13.62950
| 88>    C       -5.96576       -13.80509        11.58675
| 89>    N       -5.41029       -14.28689        10.70466
| 90>    C       -8.02852       -12.03413        15.28163
| 91>    C       -8.66215       -11.88260        16.50606
| 92>    C       -9.53698       -12.85410        16.97449
| 93>    C       -9.82379       -13.99559        16.23718
| 94>   Br      -10.36970       -12.60950        18.66421
| 95>    H       -4.66547         1.04323         8.05913
| 96>    H       -4.60262        -0.00072        10.27474
| 97>    H       -4.98022        -3.90512         8.53198
| 98>    H       -4.81993        -1.06022         2.92499
| 99>    H       -4.69955        -2.16904         0.81468
|100>    H       -5.13469        -7.57885        -2.15066
|101>    H       -6.06635       -10.74184         1.18212
|102>    H       -5.54024       -12.27497        -3.65428
|103>    H       -6.92670       -16.57630         0.60841
|104>    H       -6.69458       -17.60266        -1.75378
|105>    H       -6.58050       -12.41653         2.40047
|106>    H       -7.08404       -15.43466         2.38418
|107>    H       -6.95963       -12.16944         4.55521
|108>    H       -8.20236       -12.81529        10.53513
|109>    H       -9.25840       -16.35812        11.72280
|110>    H       -7.35945       -11.26636        14.92868
|111>    H       -8.47452       -11.00230        17.10144
|112>    H      -10.50769       -14.74895        16.59608
|113> *
|114>
|115>                          ****END OF INPUT****

CARTESIAN COORDINATES (ANGSTROEM)
---------------------------------
  C     -5.057020   -2.878150    5.866050
  O     -5.165390   -4.072100    5.651250
  C     -4.944600   -2.235190    7.189210
  C     -4.861510   -0.841160    7.023240
  C     -4.737470   -0.028590    8.141030
  C     -4.700980   -0.618760    9.395610
  C     -4.789320   -1.997960    9.534720
  C     -4.912600   -2.832960    8.431780
  Br    -4.735830   -2.757670   11.274280
  C     -4.929630   -0.531790    5.595790
  C     -4.967250    0.729380    5.062260
  C     -4.910460    1.913140    5.828960
  N     -4.867790    2.911240    6.393950
  C     -5.095460    1.037940    3.690980
  N     -5.211120    1.371300    2.598140
  C     -4.998620   -1.793830    4.881910
  C     -4.945320   -1.956900    3.520120
  C     -5.008380   -3.122680    2.743430
  C     -4.871020   -3.086830    1.349110
  C     -4.980680   -4.336700    0.773610
  C     -5.222710   -5.349560    1.736040
  S     -5.281910   -4.764130    3.333400
  C     -5.326920   -6.581660    1.051650
  C     -5.150870   -6.361100   -0.327600
  C     -4.924270   -4.941130   -0.547200
  C     -4.698760   -4.319920   -1.740140
  C     -4.666100   -5.032460   -2.957360
  N     -4.639820   -5.615460   -3.944420
  C     -4.476400   -2.929750   -1.837320
  N     -4.290450   -1.802170   -1.925560
  C     -5.239440   -7.527070   -1.081920
  C     -5.487970   -8.639920   -0.293500
  S     -5.608820   -8.226510    1.414180
  C     -5.641150   -9.988040   -0.724560
  C     -5.945620  -11.013510    0.141670
  C     -6.106250  -12.344750   -0.226060
  C     -5.945940  -12.771860   -1.617080
  C     -5.649380  -11.935360   -2.636450
  S     -5.413680  -10.248120   -2.449930
  C     -6.172460  -14.175120   -1.606130
  C     -6.460360  -14.607290   -0.307670
  C     -6.689530  -16.001650   -0.267430
  C     -6.573220  -16.568460   -1.497070
  S     -6.183450  -15.449110   -2.755460
  C     -6.426420  -13.466710    0.574420
  C     -6.664860  -13.400170    1.960530
  C     -6.991860  -14.436990    2.783070
  C     -7.229340  -14.294130    4.167270
  C     -7.192310  -13.141420    4.947820
  C     -7.488800  -13.397730    6.277700
  C     -7.757290  -14.757640    6.538230
  S     -7.640590  -15.712130    5.123110
  C     -8.035850  -14.907010    7.912280
  C     -7.947860  -13.634890    8.527920
  C     -7.596830  -12.652040    7.524090
  C     -7.385170  -11.316400    7.711160
  C     -7.505700  -10.724990    8.985930
  N     -7.613190  -10.260160   10.028770
  C     -7.042140  -10.460950    6.644380
  N     -6.771730   -9.776980    5.764070
  C     -8.175980  -13.677700    9.894230
  C     -8.436750  -14.964820   10.348010
  S     -8.426750  -16.134000    9.024120
  C     -8.740590  -15.406510   11.647980
  C     -8.555340  -14.765210   12.840270
  C     -9.343310  -15.215580   14.017750
  O     -9.995140  -16.229470   14.111030
  C     -9.196780  -14.133050   15.016280
  C     -8.291470  -13.170970   14.532950
  C     -7.766900  -13.622760   13.244150
  C     -6.586540  -13.193980   12.692990
  C     -5.798820  -12.154530   13.230940
  N     -5.117310  -11.321950   13.629500
  C     -5.965760  -13.805090   11.586750
  N     -5.410290  -14.286890   10.704660
  C     -8.028520  -12.034130   15.281630
  C     -8.662150  -11.882600   16.506060
  C     -9.536980  -12.854100   16.974490
  C     -9.823790  -13.995590   16.237180
  Br   -10.369700  -12.609500   18.664210
  H     -4.665470    1.043230    8.059130
  H     -4.602620   -0.000720   10.274740
  H     -4.980220   -3.905120    8.531980
  H     -4.819930   -1.060220    2.924990
  H     -4.699550   -2.169040    0.814680
  H     -5.134690   -7.578850   -2.150660
  H     -6.066350  -10.741840    1.182120
  H     -5.540240  -12.274970   -3.654280
  H     -6.926700  -16.576300    0.608410
  H     -6.694580  -17.602660   -1.753780
  H     -6.580500  -12.416530    2.400470
  H     -7.084040  -15.434660    2.384180
  H     -6.959630  -12.169440    4.555210
  H     -8.202360  -12.815290   10.535130
  H     -9.258400  -16.358120   11.722800
  H     -7.359450  -11.266360   14.928680
  H     -8.474520  -11.002300   17.101440
  H    -10.507690  -14.748950   16.596080

 Total Charge           Charge          ....    0
 Multiplicity           Mult            ....    1
 Number of Electrons    NEL             ....  628
 Basis Dimension        Dim             .... 1270

ORBITAL ENERGIES
----------------

  NO   OCC          E(Eh)            E(eV)
   0   2.0000    -482.872666    -13139.6332
   1   2.0000    -482.871019    -13139.5884
   2   2.0000     -89.001383     -2421.8508
   3   2.0000     -88.995966     -2421.7033
   4   2.0000     -88.994613     -2421.6665
   5   2.0000     -88.992686     -2421.6141
   6   2.0000     -88.992478     -2421.6084
   7   2.0000     -88.970225     -2421.0029
   8   2.0000     -62.550387     -1702.0826
   9   2.0000     -62.548736     -1702.0376
  10   2.0000     -56.384235     -1534.2930
  11   2.0000     -56.382571     -1534.2477
  12   2.0000     -56.381695     -1534.2239
  13   2.0000     -56.381677     -1534.2234
  14   2.0000     -56.380047     -1534.1791
  15   2.0000     -56.380045     -1534.1790
  16   2.0000     -19.231919      -523.3271
  17   2.0000     -19.218404      -522.9594
  18   2.0000     -14.437424      -392.8623
  19   2.0000     -14.437385      -392.8612
  20   2.0000     -14.435495      -392.8098
  21   2.0000     -14.435227      -392.8025
  22   2.0000     -14.421477      -392.4283
  23   2.0000     -14.418734      -392.3537
  24   2.0000     -14.418149      -392.3378
  25   2.0000     -14.414009      -392.2251
  26   2.0000     -10.379252      -282.4338
  27   2.0000     -10.372145      -282.2404
  28   2.0000     -10.369555      -282.1699
  29   2.0000     -10.369361      -282.1647
  30   2.0000     -10.360016      -281.9104
  31   2.0000     -10.357278      -281.8359
  32   2.0000     -10.348227      -281.5896
  33   2.0000     -10.347168      -281.5608
  34   2.0000     -10.346854      -281.5522
  35   2.0000     -10.346800      -281.5508
  36   2.0000     -10.345717      -281.5213
  37   2.0000     -10.344794      -281.4962
  38   2.0000     -10.344115      -281.4777
  39   2.0000     -10.343772      -281.4683
  40   2.0000     -10.343575      -281.4630
  41   2.0000     -10.343500      -281.4609
  42   2.0000     -10.341245      -281.3996
  43   2.0000     -10.340061      -281.3674
  44   2.0000     -10.338424      -281.3228
  45   2.0000     -10.337620      -281.3010
  46   2.0000     -10.335791      -281.2512
  47   2.0000     -10.334812      -281.2245
  48   2.0000     -10.332191      -281.1532
  49   2.0000     -10.332102      -281.1508
  50   2.0000     -10.331286      -281.1286
  51   2.0000     -10.331247      -281.1275
  52   2.0000     -10.326400      -280.9956
  53   2.0000     -10.325858      -280.9809
  54   2.0000     -10.323663      -280.9212
  55   2.0000     -10.320945      -280.8472
  56   2.0000     -10.319996      -280.8214
  57   2.0000     -10.318281      -280.7747
  58   2.0000     -10.318216      -280.7729
  59   2.0000     -10.316627      -280.7297
  60   2.0000     -10.315967      -280.7117
  61   2.0000     -10.314756      -280.6788
  62   2.0000     -10.313716      -280.6505
  63   2.0000     -10.313290      -280.6389
  64   2.0000     -10.313180      -280.6359
  65   2.0000     -10.312724      -280.6235
  66   2.0000     -10.310836      -280.5721
  67   2.0000     -10.310291      -280.5573
  68   2.0000     -10.309146      -280.5261
  69   2.0000     -10.307345      -280.4771
  70   2.0000     -10.306950      -280.4664
  71   2.0000     -10.305981      -280.4400
  72   2.0000     -10.305001      -280.4133
  73   2.0000     -10.304228      -280.3923
  74   2.0000     -10.304087      -280.3885
  75   2.0000     -10.303973      -280.3853
  76   2.0000     -10.303126      -280.3623
  77   2.0000     -10.302930      -280.3570
  78   2.0000     -10.302654      -280.3495
  79   2.0000     -10.302013      -280.3320
  80   2.0000     -10.301704      -280.3236
  81   2.0000     -10.299158      -280.2543
  82   2.0000     -10.299013      -280.2504
  83   2.0000     -10.298970      -280.2492
  84   2.0000     -10.295544      -280.1560
  85   2.0000     -10.292868      -280.0832
  86   2.0000     -10.289905      -280.0025
  87   2.0000     -10.288741      -279.9709
  88   2.0000      -8.779686      -238.9074
  89   2.0000      -8.778018      -238.8620
  90   2.0000      -8.095568      -220.2916
  91   2.0000      -8.090733      -220.1600
  92   2.0000      -8.087584      -220.0743
  93   2.0000      -8.087354      -220.0681
  94   2.0000      -8.086949      -220.0571
  95   2.0000      -8.065681      -219.4783
  96   2.0000      -6.615598      -180.0196
  97   2.0000      -6.613871      -179.9726
  98   2.0000      -6.601767      -179.6432
  99   2.0000      -6.601317      -179.6310
 100   2.0000      -6.600124      -179.5985
 101   2.0000      -6.599695      -179.5868
 102   2.0000      -6.064841      -165.0327
 103   2.0000      -6.060714      -164.9204
 104   2.0000      -6.059908      -164.8985
 105   2.0000      -6.057844      -164.8423
 106   2.0000      -6.057214      -164.8252
 107   2.0000      -6.056544      -164.8069
 108   2.0000      -6.056369      -164.8022
 109   2.0000      -6.055772      -164.7859
 110   2.0000      -6.053156      -164.7148
 111   2.0000      -6.052593      -164.6994
 112   2.0000      -6.052489      -164.6966
 113   2.0000      -6.051584      -164.6720
 114   2.0000      -6.049727      -164.6214
 115   2.0000      -6.049494      -164.6151
 116   2.0000      -6.049416      -164.6130
 117   2.0000      -6.035077      -164.2228
 118   2.0000      -6.030832      -164.1073
 119   2.0000      -6.027788      -164.0245
 120   2.0000      -2.731459       -74.3268
 121   2.0000      -2.729789       -74.2813
 122   2.0000      -2.727778       -74.2266
 123   2.0000      -2.727404       -74.2164
 124   2.0000      -2.726024       -74.1789
 125   2.0000      -2.725736       -74.1710
 126   2.0000      -2.716424       -73.9177
 127   2.0000      -2.716401       -73.9170
 128   2.0000      -2.714806       -73.8736
 129   2.0000      -2.714787       -73.8731
 130   2.0000      -1.147623       -31.2284
 131   2.0000      -1.133822       -30.8529
 132   2.0000      -1.053967       -28.6799
 133   2.0000      -1.050437       -28.5839
 134   2.0000      -1.028911       -27.9981
 135   2.0000      -1.027801       -27.9679
 136   2.0000      -1.024723       -27.8841
 137   2.0000      -1.022582       -27.8259
 138   2.0000      -1.021174       -27.7876
 139   2.0000      -1.014098       -27.5950
 140   2.0000      -1.013909       -27.5899
 141   2.0000      -1.009206       -27.4619
 142   2.0000      -1.006141       -27.3785
 143   2.0000      -1.003052       -27.2944
 144   2.0000      -1.001886       -27.2627
 145   2.0000      -0.998044       -27.1581
 146   2.0000      -0.993706       -27.0401
 147   2.0000      -0.986401       -26.8413
 148   2.0000      -0.969710       -26.3872
 149   2.0000      -0.968238       -26.3471
 150   2.0000      -0.963979       -26.2312
 151   2.0000      -0.961821       -26.1725
 152   2.0000      -0.944285       -25.6953
 153   2.0000      -0.930247       -25.3133
 154   2.0000      -0.925945       -25.1963
 155   2.0000      -0.914305       -24.8795
 156   2.0000      -0.911540       -24.8043
 157   2.0000      -0.910266       -24.7696
 158   2.0000      -0.903808       -24.5939
 159   2.0000      -0.896942       -24.4070
 160   2.0000      -0.891050       -24.2467
 161   2.0000      -0.883126       -24.0311
 162   2.0000      -0.879417       -23.9302
 163   2.0000      -0.873787       -23.7770
 164   2.0000      -0.868842       -23.6424
 165   2.0000      -0.864927       -23.5359
 166   2.0000      -0.860948       -23.4276
 167   2.0000      -0.856612       -23.3096
 168   2.0000      -0.855196       -23.2711
 169   2.0000      -0.847674       -23.0664
 170   2.0000      -0.832866       -22.6634
 171   2.0000      -0.818448       -22.2711
 172   2.0000      -0.808880       -22.0107
 173   2.0000      -0.800886       -21.7932
 174   2.0000      -0.789264       -21.4770
 175   2.0000      -0.782742       -21.2995
 176   2.0000      -0.776477       -21.1290
 177   2.0000      -0.774067       -21.0634
 178   2.0000      -0.768213       -20.9041
 179   2.0000      -0.764507       -20.8033
 180   2.0000      -0.745177       -20.2773
 181   2.0000      -0.740663       -20.1545
 182   2.0000      -0.719290       -19.5729
 183   2.0000      -0.715146       -19.4601
 184   2.0000      -0.711372       -19.3574
 185   2.0000      -0.703523       -19.1438
 186   2.0000      -0.702215       -19.1083
 187   2.0000      -0.699607       -19.0373
 188   2.0000      -0.691897       -18.8275
 189   2.0000      -0.691470       -18.8158
 190   2.0000      -0.689966       -18.7749
 191   2.0000      -0.684419       -18.6240
 192   2.0000      -0.679779       -18.4977
 193   2.0000      -0.670687       -18.2503
 194   2.0000      -0.667750       -18.1704
 195   2.0000      -0.659363       -17.9422
 196   2.0000      -0.652023       -17.7425
 197   2.0000      -0.644181       -17.5291
 198   2.0000      -0.640080       -17.4175
 199   2.0000      -0.636110       -17.3094
 200   2.0000      -0.632241       -17.2041
 201   2.0000      -0.629621       -17.1329
 202   2.0000      -0.624254       -16.9868
 203   2.0000      -0.622748       -16.9458
 204   2.0000      -0.619004       -16.8440
 205   2.0000      -0.616144       -16.7661
 206   2.0000      -0.610803       -16.6208
 207   2.0000      -0.602714       -16.4007
 208   2.0000      -0.593408       -16.1474
 209   2.0000      -0.589200       -16.0329
 210   2.0000      -0.586819       -15.9681
 211   2.0000      -0.583553       -15.8793
 212   2.0000      -0.574737       -15.6394
 213   2.0000      -0.572610       -15.5815
 214   2.0000      -0.565314       -15.3830
 215   2.0000      -0.562685       -15.3115
 216   2.0000      -0.557372       -15.1669
 217   2.0000      -0.553644       -15.0654
 218   2.0000      -0.552672       -15.0390
 219   2.0000      -0.550760       -14.9870
 220   2.0000      -0.547526       -14.8989
 221   2.0000      -0.546168       -14.8620
 222   2.0000      -0.542882       -14.7726
 223   2.0000      -0.541492       -14.7347
 224   2.0000      -0.538788       -14.6612
 225   2.0000      -0.538069       -14.6416
 226   2.0000      -0.534828       -14.5534
 227   2.0000      -0.530881       -14.4460
 228   2.0000      -0.528813       -14.3897
 229   2.0000      -0.528141       -14.3714
 230   2.0000      -0.523037       -14.2326
 231   2.0000      -0.519552       -14.1377
 232   2.0000      -0.517420       -14.0797
 233   2.0000      -0.512504       -13.9459
 234   2.0000      -0.512293       -13.9402
 235   2.0000      -0.510798       -13.8995
 236   2.0000      -0.509717       -13.8701
 237   2.0000      -0.504986       -13.7414
 238   2.0000      -0.503698       -13.7063
 239   2.0000      -0.501835       -13.6556
 240   2.0000      -0.500497       -13.6192
 241   2.0000      -0.499361       -13.5883
 242   2.0000      -0.495702       -13.4887
 243   2.0000      -0.491716       -13.3803
 244   2.0000      -0.490907       -13.3583
 245   2.0000      -0.485147       -13.2015
 246   2.0000      -0.483054       -13.1446
 247   2.0000      -0.481157       -13.0930
 248   2.0000      -0.478779       -13.0282
 249   2.0000      -0.474404       -12.9092
 250   2.0000      -0.471332       -12.8256
 251   2.0000      -0.468813       -12.7570
 252   2.0000      -0.468584       -12.7508
 253   2.0000      -0.467250       -12.7145
 254   2.0000      -0.466695       -12.6994
 255   2.0000      -0.465058       -12.6549
 256   2.0000      -0.463980       -12.6255
 257   2.0000      -0.463511       -12.6128
 258   2.0000      -0.461039       -12.5455
 259   2.0000      -0.458614       -12.4795
 260   2.0000      -0.456511       -12.4223
 261   2.0000      -0.453669       -12.3450
 262   2.0000      -0.452299       -12.3077
 263   2.0000      -0.451230       -12.2786
 264   2.0000      -0.450560       -12.2604
 265   2.0000      -0.448734       -12.2107
 266   2.0000      -0.446830       -12.1589
 267   2.0000      -0.446766       -12.1571
 268   2.0000      -0.446658       -12.1542
 269   2.0000      -0.446202       -12.1418
 270   2.0000      -0.445879       -12.1330
 271   2.0000      -0.443885       -12.0787
 272   2.0000      -0.442571       -12.0430
 273   2.0000      -0.441564       -12.0156
 274   2.0000      -0.439192       -11.9510
 275   2.0000      -0.437975       -11.9179
 276   2.0000      -0.435390       -11.8476
 277   2.0000      -0.432107       -11.7582
 278   2.0000      -0.431703       -11.7472
 279   2.0000      -0.431458       -11.7406
 280   2.0000      -0.429029       -11.6745
 281   2.0000      -0.428750       -11.6669
 282   2.0000      -0.427013       -11.6196
 283   2.0000      -0.426499       -11.6056
 284   2.0000      -0.424325       -11.5465
 285   2.0000      -0.421872       -11.4797
 286   2.0000      -0.417934       -11.3726
 287   2.0000      -0.411701       -11.2030
 288   2.0000      -0.411525       -11.1982
 289   2.0000      -0.407500       -11.0886
 290   2.0000      -0.400433       -10.8963
 291   2.0000      -0.398354       -10.8398
 292   2.0000      -0.388106       -10.5609
 293   2.0000      -0.373485       -10.1631
 294   2.0000      -0.367341        -9.9958
 295   2.0000      -0.367237        -9.9930
 296   2.0000      -0.365531        -9.9466
 297   2.0000      -0.359626        -9.7859
 298   2.0000      -0.353841        -9.6285
 299   2.0000      -0.352815        -9.6006
 300   2.0000      -0.351204        -9.5568
 301   2.0000      -0.350311        -9.5325
 302   2.0000      -0.346824        -9.4376
 303   2.0000      -0.340702        -9.2710
 304   2.0000      -0.339564        -9.2400
 305   2.0000      -0.329518        -8.9666
 306   2.0000      -0.328009        -8.9256
 307   2.0000      -0.323782        -8.8106
 308   2.0000      -0.312553        -8.5050
 309   2.0000      -0.308870        -8.4048
 310   2.0000      -0.298405        -8.1200
 311   2.0000      -0.285780        -7.7765
 312   2.0000      -0.268014        -7.2930
 313   2.0000      -0.232554        -6.3281
 314   0.0000      -0.120276        -3.2729
 315   0.0000      -0.112715        -3.0671
 316   0.0000      -0.092402        -2.5144
 317   0.0000      -0.089202        -2.4273
 318   0.0000      -0.076004        -2.0682

MULLIKEN ATOMIC CHARGES
-----------------------
   0 C :    0.168144
   1 O :   -0.182456
   2 C :   -0.020451
   3 C :    0.028662
   4 C :   -0.027344
   5 C :    0.050470
   6 C :   -0.005630
   7 C :   -0.011108
   8 Br:   -0.012996
   9 C :    0.315259
  10 C :   -0.340869
  11 C :   -0.191302
  12 N :    0.158540
  13 C :   -0.196223
  14 N :    0.158895
  15 C :   -0.094947
  16 C :   -0.025145
  17 C :   -0.056471
  18 C :   -0.055656
  19 C :    0.043633
  20 C :   -0.067401
  21 S :    0.254159
  22 C :   -0.100075
  23 C :    0.025748
  24 C :    0.304240
  25 C :   -0.291845
  26 C :   -0.188450
  27 N :    0.172719
  28 C :   -0.194712
  29 N :    0.187869
  30 C :   -0.060707
  31 C :   -0.060209
  32 S :    0.195409
  33 C :   -0.019358
  34 C :   -0.090064
  35 C :    0.058556
  36 C :    0.062421
  37 C :   -0.117703
  38 S :    0.143139
  39 C :   -0.113613
  40 C :    0.054127
  41 C :   -0.009077
  42 C :   -0.065342
  43 S :    0.139653
  44 C :    0.102065
  45 C :   -0.011863
  46 C :    0.037636
  47 C :   -0.060841
  48 C :   -0.051751
  49 C :    0.024829
  50 C :   -0.115596
  51 S :    0.190380
  52 C :   -0.065716
  53 C :   -0.015817
  54 C :    0.310150
  55 C :   -0.289859
  56 C :   -0.184496
  57 N :    0.169805
  58 C :   -0.173395
  59 N :    0.154079
  60 C :    0.004216
  61 C :   -0.116172
  62 S :    0.208018
  63 C :    0.087555
  64 C :   -0.148765
  65 C :    0.136601
  66 O :   -0.141524
  67 C :   -0.002417
  68 C :    0.014777
  69 C :    0.269517
  70 C :   -0.337039
  71 C :   -0.174693
  72 N :    0.160646
  73 C :   -0.200966
  74 N :    0.171424
  75 C :   -0.023673
  76 C :    0.049555
  77 C :   -0.006011
  78 C :   -0.016984
  79 Br:   -0.021325
  80 H :    0.010840
  81 H :    0.007311
  82 H :    0.007400
  83 H :    0.018449
  84 H :    0.027822
  85 H :    0.024387
  86 H :    0.000054
  87 H :    0.042817
  88 H :   -0.010947
  89 H :    0.029780
  90 H :   -0.035607
  91 H :   -0.047754
  92 H :    0.001995
  93 H :    0.024976
  94 H :    0.019387
  95 H :    0.015004
  96 H :    0.006137
  97 H :    0.003110
Sum of atomic charges:   -0.0000000

LOEWDIN ATOMIC CHARGES
----------------------
   0 C :    0.086721
   1 O :   -0.165794
   2 C :   -0.038328
   3 C :   -0.014975
   4 C :    0.008480
   5 C :   -0.011519
   6 C :   -0.097939
   7 C :    0.001522
   8 Br:    0.120521
   9 C :    0.075559
  10 C :   -0.136378
  11 C :   -0.019014
  12 N :   -0.048336
  13 C :   -0.023498
  14 N :   -0.044676
  15 C :   -0.113217
  16 C :    0.057143
  17 C :   -0.184449
  18 C :    0.013835
  19 C :   -0.078327
  20 C :   -0.164876
  21 S :    0.554072
  22 C :   -0.184667
  23 C :   -0.052472
  24 C :    0.078000
  25 C :   -0.098526
  26 C :   -0.015914
  27 N :   -0.031397
  28 C :   -0.020439
  29 N :   -0.021618
  30 C :   -0.041983
  31 C :   -0.170016
  32 S :    0.494430
  33 C :   -0.180106
  34 C :   -0.026126
  35 C :   -0.012587
  36 C :   -0.049712
  37 C :   -0.135047
  38 S :    0.472166
  39 C :   -0.198284
  40 C :   -0.037314
  41 C :   -0.066284
  42 C :   -0.161992
  43 S :    0.433060
  44 C :   -0.048665
  45 C :    0.003917
  46 C :   -0.066406
  47 C :   -0.140629
  48 C :   -0.039079
  49 C :   -0.047215
  50 C :   -0.205573
  51 S :    0.474515
  52 C :   -0.146426
  53 C :   -0.075488
  54 C :    0.085669
  55 C :   -0.101967
  56 C :   -0.014055
  57 N :   -0.032271
  58 C :   -0.010922
  59 N :   -0.042379
  60 C :    0.015114
  61 C :   -0.187665
  62 S :    0.492853
  63 C :    0.045020
  64 C :   -0.102242
  65 C :    0.083503
  66 O :   -0.140987
  67 C :   -0.040076
  68 C :   -0.012254
  69 C :    0.065109
  70 C :   -0.138667
  71 C :   -0.019963
  72 N :   -0.047119
  73 C :   -0.015709
  74 N :   -0.046764
  75 C :    0.007598
  76 C :   -0.011911
  77 C :   -0.099651
  78 C :   -0.000152
  79 Br:    0.114056
  80 H :    0.043600
  81 H :    0.041038
  82 H :    0.045521
  83 H :    0.053894
  84 H :    0.048226
  85 H :    0.035860
  86 H :    0.028276
  87 H :    0.039837
  88 H :    0.028687
  89 H :    0.025551
  90 H :    0.028498
  91 H :    0.025142
  92 H :    0.036031
  93 H :    0.042897
  94 H :    0.045463
  95 H :    0.044253
  96 H :    0.040424
  97 H :    0.043985

  Mayer bond orders larger than 0.100000
B(  0-C ,  1-O ) :   2.1169 B(  0-C ,  2-C ) :   0.9599 B(  0-C , 15-C ) :   0.9872
B(  2-C ,  3-C ) :   1.3327 B(  2-C ,  7-C ) :   1.3796 B(  3-C ,  4-C ) :   1.3669
B(  3-C ,  9-C ) :   0.9930 B(  4-C ,  5-C ) :   1.3809 B(  4-C , 80-H ) :   0.9835
B(  5-C ,  6-C ) :   1.3908 B(  5-C , 81-H ) :   0.9843 B(  6-C ,  7-C ) :   1.3334
B(  6-C ,  8-Br) :   0.9958 B(  7-C , 82-H ) :   1.0082 B(  9-C , 10-C ) :   1.6358
B(  9-C , 15-C ) :   1.0756 B( 10-C , 11-C ) :   1.1419 B( 10-C , 13-C ) :   1.1421
B( 11-C , 12-N ) :   2.9762 B( 13-C , 14-N ) :   2.9697 B( 15-C , 16-C ) :   1.4926
B( 16-C , 17-C ) :   1.2718 B( 16-C , 83-H ) :   0.9424 B( 17-C , 18-C ) :   1.3242
B( 17-C , 21-S ) :   1.0679 B( 18-C , 19-C ) :   1.3360 B( 18-C , 84-H ) :   1.0086
B( 19-C , 20-C ) :   1.3475 B( 19-C , 24-C ) :   0.9889 B( 20-C , 21-S ) :   1.1328
B( 20-C , 22-C ) :   1.2075 B( 22-C , 23-C ) :   1.4290 B( 22-C , 32-S ) :   1.1205
B( 23-C , 24-C ) :   0.9991 B( 23-C , 30-C ) :   1.3145 B( 24-C , 25-C ) :   1.7151
B( 25-C , 26-C ) :   1.1337 B( 25-C , 28-C ) :   1.1349 B( 26-C , 27-N ) :   2.9873
B( 28-C , 29-N ) :   2.9958 B( 30-C , 31-C ) :   1.4405 B( 30-C , 85-H ) :   0.9792
B( 31-C , 32-S ) :   1.1157 B( 31-C , 33-C ) :   1.1711 B( 33-C , 34-C ) :   1.5134
B( 33-C , 38-S ) :   1.0610 B( 34-C , 35-C ) :   1.2670 B( 34-C , 86-H ) :   0.9594
B( 35-C , 36-C ) :   1.0554 B( 35-C , 44-C ) :   1.3503 B( 36-C , 37-C ) :   1.6025
B( 36-C , 39-C ) :   1.1777 B( 37-C , 38-S ) :   1.1436 B( 37-C , 87-H ) :   0.9407
B( 39-C , 40-C ) :   1.4495 B( 39-C , 43-S ) :   1.0850 B( 40-C , 41-C ) :   1.2130
B( 40-C , 44-C ) :   1.0731 B( 41-C , 42-C ) :   1.5891 B( 41-C , 88-H ) :   1.0002
B( 42-C , 43-S ) :   1.1582 B( 42-C , 89-H ) :   0.9641 B( 44-C , 45-C ) :   1.2051
B( 45-C , 46-C ) :   1.6070 B( 45-C , 90-H ) :   0.9564 B( 46-C , 47-C ) :   1.1439
B( 46-C , 91-H ) :   0.9668 B( 47-C , 48-C ) :   1.4108 B( 47-C , 51-S ) :   1.1227
B( 48-C , 49-C ) :   1.3296 B( 48-C , 92-H ) :   0.9873 B( 49-C , 50-C ) :   1.4127
B( 49-C , 54-C ) :   0.9951 B( 50-C , 51-S ) :   1.0940 B( 50-C , 52-C ) :   1.2278
B( 52-C , 53-C ) :   1.3817 B( 52-C , 62-S ) :   1.1613 B( 53-C , 54-C ) :   1.0070
B( 53-C , 60-C ) :   1.3727 B( 54-C , 55-C ) :   1.7099 B( 55-C , 56-C ) :   1.1315
B( 55-C , 58-C ) :   1.1360 B( 56-C , 57-N ) :   2.9843 B( 58-C , 59-N ) :   2.9733
B( 60-C , 61-C ) :   1.3777 B( 60-C , 93-H ) :   0.9785 B( 61-C , 62-S ) :   1.0717
B( 61-C , 63-C ) :   1.1670 B( 63-C , 64-C ) :   1.6364 B( 63-C , 94-H ) :   0.9273
B( 64-C , 65-C ) :   0.9562 B( 64-C , 69-C ) :   1.0494 B( 65-C , 66-O ) :   2.2637
B( 65-C , 67-C ) :   0.9173 B( 67-C , 68-C ) :   1.3350 B( 67-C , 78-C ) :   1.3841
B( 68-C , 69-C ) :   1.0000 B( 68-C , 75-C ) :   1.3715 B( 69-C , 70-C ) :   1.6434
B( 70-C , 71-C ) :   1.1276 B( 70-C , 73-C ) :   1.1729 B( 71-C , 72-N ) :   2.9968
B( 73-C , 74-N ) :   2.9980 B( 75-C , 76-C ) :   1.3775 B( 75-C , 95-H ) :   0.9867
B( 76-C , 77-C ) :   1.3938 B( 76-C , 96-H ) :   0.9855 B( 77-C , 78-C ) :   1.3375
B( 77-C , 79-Br) :   0.9914 B( 78-C , 97-H ) :   1.0081

-----------------------------------------------------------------------------
         ABSORPTION SPECTRUM VIA TRANSITION ELECTRIC DIPOLE MOMENTS
-----------------------------------------------------------------------------
State   Energy  Wavelength   fosc         T2         TX        TY        TZ
        (cm-1)    (nm)                  (au**2)     (au)      (au)      (au)
-----------------------------------------------------------------------------
   0    9564.7   1045.5   0.341024250  11.73789  -0.72954  -2.03760   2.65591
   1   11319.7    883.4   0.227179522   6.60707   0.26093   2.34671   1.01584
   2   16264.2    614.8   0.693786883  14.04332  -0.58989  -1.98033   3.12628
   3   17066.0    586.0   0.056022983   1.08071  -0.10533  -0.98445   0.31698
   4   18905.3    529.0   0.886066428  15.42976   0.42775   2.50260   2.99730
   5   19326.5    517.4   0.262469575   4.47096  -0.17703  -1.84336  -1.02061
   6   20886.0    478.8   0.179244727   2.82532  -0.30916   0.54795   1.55868
   7   23365.8    428.0   0.272980503   3.84616   0.53687   0.01109  -1.88622
   8   23406.1    427.2   0.398445941   5.60423  -0.10605   1.23365   2.01769
   9   24094.1    415.0   0.018525479   0.25312   0.28463   0.40040  -0.10860
  10   24441.3    409.1   0.240099225   3.23402   0.39865   0.06701  -1.75231
  11   25123.2    398.0   0.180558186   2.36602  -0.03999  -1.11778  -1.05592
  12   25603.6    390.6   0.051293926   0.65954  -0.16456  -0.06612  -0.79252
  13   25798.2    387.6   0.097597115   1.24544  -0.01845  -0.65243   0.90522
  14   26522.0    377.0   0.015326034   0.19024   0.24974   0.23838   0.26654
  15   27654.3    361.6   0.021687091   0.25818   0.24530   0.21090  -0.39182
  16   27816.2    359.5   0.069657409   0.82441   0.59234  -0.07218  -0.68435
  17   28388.0    352.3   0.049045551   0.56877   0.10885   0.32213  -0.67317
  18   28608.7    349.5   0.046703159   0.53743   0.11715   0.20750  -0.69329
  19   28946.8    345.5   0.024971015   0.28400   0.03502  -0.17971  -0.50047
  20   29260.6    341.8   0.095625075   1.07588   0.39502  -0.37478  -0.88283
  21   29726.3    336.4   0.039911605   0.44201   0.00094   0.35055  -0.56491
  22   30209.0    331.0   0.385456343   4.20062   0.22581   1.93616  -0.63317
  23   30336.9    329.6   0.096447122   1.04663  -0.18843  -0.82570   0.57389
  24   30620.3    326.6   0.584107258   6.27999   0.10856  -1.09274  -2.25258
  25   31088.8    321.7   0.037432339   0.39639   0.13761   0.13078   0.60029
  26   31223.0    320.3   0.034573832   0.36454  -0.53553   0.25188   0.11961
  27   31704.5    315.4   0.013832812   0.14364   0.00131  -0.27855  -0.25699
  28   31946.6    313.0   0.174032593   1.79342   0.39897   1.15649   0.54476
  29   32144.4    311.1   0.312982231   3.20545  -0.45953   0.07945   1.72857
  30   32480.8    307.9   0.232905328   2.36063  -0.36970  -0.56274   1.38104
  31   32604.4    306.7   0.004380087   0.04423  -0.16384  -0.10469  -0.08014
  32   32728.6    305.5   0.119618230   1.20322   0.43137  -0.17628  -0.99301
  33   32825.1    304.6   0.039940648   0.40058   0.02354   0.00094   0.63247
  34   33054.9    302.5   0.034375404   0.34236   0.04726  -0.54656  -0.20346
  35   33398.4    299.4   0.241325916   2.37878  -0.59782  -0.88651   1.11153
  36   33503.0    298.5   0.024269665   0.23848   0.18846  -0.36321   0.26653
  37   33790.7    295.9   0.014412167   0.14041   0.34731   0.04367   0.13371
  38   34130.8    293.0   0.893873909   8.62194  -0.29138  -2.09309   2.03863
  39   34473.7    290.1   0.078774075   0.75226  -0.10821  -0.44924  -0.73399
  40   34607.7    289.0   0.037350211   0.35530   0.11338   0.50500   0.29567
  41   34664.0    288.5   0.297640926   2.82677  -1.20423  -0.20069   1.15599
  42   34814.0    287.2   0.420300895   3.97450   0.11966   1.87654  -0.66240
  43   34910.1    286.5   0.133514614   1.25908   0.36171  -0.12535  -1.05477
  44   35218.3    283.9   0.043847101   0.40987  -0.01824  -0.60105  -0.21973
  45   35343.5    282.9   0.279346189   2.60201  -0.26137  -1.52752  -0.44765
  46   35706.4    280.1   0.058882263   0.54289  -0.11467  -0.65407   0.31927
  47   35947.1    278.2   0.034550319   0.31642   0.00435  -0.47036  -0.30848
  48   35996.1    277.8   0.051940469   0.47504   0.10975   0.66014  -0.16495
  49   36387.2    274.8   0.061271695   0.55435   0.08309   0.37986   0.63495
  50   36464.2    274.2   0.044857575   0.40499   0.15151  -0.51410  -0.34312
  51   36655.0    272.8   0.032427517   0.29124   0.00296  -0.43529  -0.31899
  52   36717.5    272.3   0.045421028   0.40725   0.02351  -0.58120   0.26250
  53   37259.6    268.4   0.118100830   1.04349   0.66207   0.50773  -0.58938
  54   37374.0    267.6   0.010315640   0.09087   0.20880  -0.21135   0.05100
  55   37523.1    266.5   0.010567444   0.09271  -0.20773   0.15286   0.16186
  56   38166.4    262.0   0.048107173   0.41496   0.45366   0.19645  -0.41299
  57   38512.7    259.7   0.021045859   0.17990  -0.08592  -0.40713  -0.08227
  58   38585.7    259.2   0.021204955   0.18092   0.05467  -0.40208  -0.12752
  59   38822.6    257.6   0.041941349   0.35566   0.15609   0.56937   0.08433
  60   39001.8    256.4   0.027651894   0.23341   0.00933   0.40180   0.26809
  61   39086.4    255.8   0.000506150   0.00426  -0.02463  -0.06041  -0.00274
  62   39439.4    253.6   0.049181442   0.41053  -0.11417  -0.61820  -0.12381
  63   39539.9    252.9   0.057713679   0.48053   0.01908   0.06311   0.69006
  64   39727.1    251.7   0.087426762   0.72449   0.13647   0.83982   0.02374
  65   39894.5    250.7   0.009391427   0.07750   0.03641  -0.13824  -0.23888
  66   40068.6    249.6   0.005090050   0.04182  -0.04186  -0.19091   0.06019
  67   40122.7    249.2   0.025794281   0.21165   0.15856   0.41770   0.10970
  68   40248.1    248.5   0.006473904   0.05295   0.02340  -0.22817   0.01851

FINAL SINGLE POINT ENERGY    -10494.242664009851

DIPOLE MOMENT
-------------
                                X             Y             Z
Electronic contribution:    -19.23441      34.12843     166.34598
Nuclear contribution   :     18.07745     -38.27462    -167.81219
                        -----------------------------------------
Total Dipole Moment    :     -1.15696      -4.14619      -1.46620
                        -----------------------------------------
Magnitude (a.u.)       :      4.54744
Magnitude (Debye)      :     11.55866

Rotational constants in cm-1:     0.000479     0.000289     0.000183
Rotational constants in MHz :    14.363243     8.678831     5.498707

                             ****ORCA TERMINATED NORMALLY****
TOTAL RUN TIME: 0 days 0 hours 12 minutes 4 seconds 807 msec
