                         Program Version 4.2.0 -  RELEASE  -
|  1> # ORCA input file
|  2> # SCF done       -155.311766852490          0.000677597401
|  3> ! CAM-B3LYP def2-SVP def2/J RIJCOSX Grid4 TightSCF
|  4> %maxcore 5000
|  5> %tddft
|  6>     Mode sTDDFT
|  7>     Ethresh 5.0
|  8>     maxcore 5000
|  9> end
| 10>
| 11> %pal
| 12>   nprocs 6
| 13>   end
| 14> * xyz 0 1
| 15>    C        1.57874        -2.57830         0.53563
| 16>    C        2.92880        -2.56892         0.72578
| 17>    C        3.45176        -1.26179         0.91008
| 18>    O        4.75403        -0.94065         1.12018
| 19>    C        5.70133        -1.94909         0.83361
| 20>    C        5.38394        -3.26215         1.52914
| 21>    S        3.91400        -4.02591         0.76235
| 22>    C        2.46637        -0.28967         0.86989
| 23>    S        0.90463        -1.00334         0.58527
| 24>    C        2.63067         1.11596         1.02474
| 25>    C        3.80403         1.80323         1.26088
| 26>    C        3.59206         3.18179         1.34466
| 27>    C        2.24667         3.54320         1.17619
| 28>    S        1.24222         2.18629         0.91070
| 29>    C        2.14151         4.95457         1.27960
| 30>    C        3.42171         5.48339         1.50880
| 31>    C        4.37644         4.38605         1.55887
| 32>    C        5.72277         4.46764         1.76408
| 33>    C        6.55024         3.32553         1.79009
| 34>    N        7.23493         2.40569         1.81288
| 35>    C        6.38620         5.69651         1.96394
| 36>    N        6.94108         6.68646         2.12981
| 37>    C        3.43109         6.87375         1.61893
| 38>    C        2.16360         7.41308         1.48408
| 39>    S        0.94566         6.17115         1.20624
| 40>    C        1.75969         8.76986         1.53825
| 41>    C        2.50386         9.90434         1.83076
| 42>    C        1.75044        11.09628         1.76400
| 43>    O        2.20776        12.35603         1.97950
| 44>    C        3.60938        12.52847         1.97279
| 45>    C        4.30434        11.57915         2.93158
| 46>    S        4.19873         9.87566         2.29153
| 47>    C        0.41434        10.88271         1.44883
| 48>    S        0.10147         9.19108         1.20946
| 49>    C       -0.61159        11.85330         1.31863
| 50>    C       -0.50797        13.22200         1.48911
| 51>    C       -1.72571        13.86588         1.27154
| 52>    C       -2.76607        12.98458         0.93811
| 53>    S       -2.24292        11.35835         0.88813
| 54>    C       -3.95172        13.73987         0.74304
| 55>    C       -3.65785        15.09667         0.94890
| 56>    C       -2.25115        15.22317         1.28872
| 57>    C       -1.56250        16.36756         1.56752
| 58>    C       -0.18849        16.35914         1.88631
| 59>    N        0.92916        16.36541         2.14468
| 60>    C       -2.17040        17.64056         1.55693
| 61>    N       -2.64802        18.68324         1.55438
| 62>    C       -4.76549        15.93072         0.77411
| 63>    C       -5.90252        15.21956         0.44544
| 64>    S       -5.59243        13.49021         0.34068
| 65>    C       -7.21681        15.70367         0.19899
| 66>    C       -7.72454        16.97997         0.35882
| 67>    C       -9.09532        17.07459        -0.01195
| 68>    O       -9.87248        18.19130         0.02686
| 69>    C       -9.18107        19.41733         0.12334
| 70>    C       -8.23092        19.44730         1.30810
| 71>    S       -6.81633        18.34006         0.99464
| 72>    C       -9.61157        15.88063        -0.42362
| 73>    S       -8.45161        14.62012        -0.38405
| 74>    H        0.95333        -3.43109         0.37048
| 75>    H        6.65150        -1.54379         1.19081
| 76>    H        5.76303        -2.10970        -0.25152
| 77>    H        5.18108        -3.10116         2.58841
| 78>    H        6.19687        -3.97425         1.40915
| 79>    H        4.75215         1.31180         1.36371
| 80>    H        4.31225         7.46498         1.77958
| 81>    H        3.76174        13.56747         2.27568
| 82>    H        4.00243        12.38687         0.95678
| 83>    H        3.83782        11.61183         3.91657
| 84>    H        5.36504        11.80446         3.01260
| 85>    H        0.41226        13.70336         1.75790
| 86>    H       -4.74164        16.99947         0.86989
| 87>    H       -9.96314        20.17205         0.23941
| 88>    H       -8.62487        19.61543        -0.80366
| 89>    H       -8.73546        19.11978         2.21765
| 90>    H       -7.80900        20.43935         1.45132
| 91>    H      -10.61587        15.69055        -0.74026
| 92> *
| 93>
| 94>                          ****END OF INPUT****

CARTESIAN COORDINATES (ANGSTROEM)
---------------------------------
  C      1.578740   -2.578300    0.535630
  C      2.928800   -2.568920    0.725780
  C      3.451760   -1.261790    0.910080
  O      4.754030   -0.940650    1.120180
  C      5.701330   -1.949090    0.833610
  C      5.383940   -3.262150    1.529140
  S      3.914000   -4.025910    0.762350
  C      2.466370   -0.289670    0.869890
  S      0.904630   -1.003340    0.585270
  C      2.630670    1.115960    1.024740
  C      3.804030    1.803230    1.260880
  C      3.592060    3.181790    1.344660
  C      2.246670    3.543200    1.176190
  S      1.242220    2.186290    0.910700
  C      2.141510    4.954570    1.279600
  C      3.421710    5.483390    1.508800
  C      4.376440    4.386050    1.558870
  C      5.722770    4.467640    1.764080
  C      6.550240    3.325530    1.790090
  N      7.234930    2.405690    1.812880
  C      6.386200    5.696510    1.963940
  N      6.941080    6.686460    2.129810
  C      3.431090    6.873750    1.618930
  C      2.163600    7.413080    1.484080
  S      0.945660    6.171150    1.206240
  C      1.759690    8.769860    1.538250
  C      2.503860    9.904340    1.830760
  C      1.750440   11.096280    1.764000
  O      2.207760   12.356030    1.979500
  C      3.609380   12.528470    1.972790
  C      4.304340   11.579150    2.931580
  S      4.198730    9.875660    2.291530
  C      0.414340   10.882710    1.448830
  S      0.101470    9.191080    1.209460
  C     -0.611590   11.853300    1.318630
  C     -0.507970   13.222000    1.489110
  C     -1.725710   13.865880    1.271540
  C     -2.766070   12.984580    0.938110
  S     -2.242920   11.358350    0.888130
  C     -3.951720   13.739870    0.743040
  C     -3.657850   15.096670    0.948900
  C     -2.251150   15.223170    1.288720
  C     -1.562500   16.367560    1.567520
  C     -0.188490   16.359140    1.886310
  N      0.929160   16.365410    2.144680
  C     -2.170400   17.640560    1.556930
  N     -2.648020   18.683240    1.554380
  C     -4.765490   15.930720    0.774110
  C     -5.902520   15.219560    0.445440
  S     -5.592430   13.490210    0.340680
  C     -7.216810   15.703670    0.198990
  C     -7.724540   16.979970    0.358820
  C     -9.095320   17.074590   -0.011950
  O     -9.872480   18.191300    0.026860
  C     -9.181070   19.417330    0.123340
  C     -8.230920   19.447300    1.308100
  S     -6.816330   18.340060    0.994640
  C     -9.611570   15.880630   -0.423620
  S     -8.451610   14.620120   -0.384050
  H      0.953330   -3.431090    0.370480
  H      6.651500   -1.543790    1.190810
  H      5.763030   -2.109700   -0.251520
  H      5.181080   -3.101160    2.588410
  H      6.196870   -3.974250    1.409150
  H      4.752150    1.311800    1.363710
  H      4.312250    7.464980    1.779580
  H      3.761740   13.567470    2.275680
  H      4.002430   12.386870    0.956780
  H      3.837820   11.611830    3.916570
  H      5.365040   11.804460    3.012600
  H      0.412260   13.703360    1.757900
  H     -4.741640   16.999470    0.869890
  H     -9.963140   20.172050    0.239410
  H     -8.624870   19.615430   -0.803660
  H     -8.735460   19.119780    2.217650
  H     -7.809000   20.439350    1.451320
  H    -10.615870   15.690550   -0.740260

 Total Charge           Charge          ....    0
 Multiplicity           Mult            ....    1
 Number of Electrons    NEL             ....  482
 Basis Dimension        Dim             ....  956

ORBITAL ENERGIES
----------------

  NO   OCC          E(Eh)            E(eV)
   0   2.0000     -88.979837     -2421.2645
   1   2.0000     -88.977794     -2421.2089
   2   2.0000     -88.977426     -2421.1989
   3   2.0000     -88.976597     -2421.1763
   4   2.0000     -88.963592     -2420.8224
   5   2.0000     -88.960660     -2420.7426
   6   2.0000     -88.955088     -2420.5910
   7   2.0000     -88.939473     -2420.1661
   8   2.0000     -88.934165     -2420.0217
   9   2.0000     -88.932497     -2419.9763
  10   2.0000     -19.261506      -524.1322
  11   2.0000     -19.259513      -524.0780
  12   2.0000     -19.247205      -523.7431
  13   2.0000     -14.421877      -392.4392
  14   2.0000     -14.421528      -392.4297
  15   2.0000     -14.420917      -392.4131
  16   2.0000     -14.419914      -392.3858
  17   2.0000     -10.354319      -281.7553
  18   2.0000     -10.352777      -281.7134
  19   2.0000     -10.345445      -281.5139
  20   2.0000     -10.341735      -281.4129
  21   2.0000     -10.341443      -281.4050
  22   2.0000     -10.340203      -281.3712
  23   2.0000     -10.339442      -281.3505
  24   2.0000     -10.337997      -281.3112
  25   2.0000     -10.334344      -281.2118
  26   2.0000     -10.333628      -281.1923
  27   2.0000     -10.322706      -280.8951
  28   2.0000     -10.322145      -280.8798
  29   2.0000     -10.321830      -280.8713
  30   2.0000     -10.321721      -280.8683
  31   2.0000     -10.320543      -280.8362
  32   2.0000     -10.319006      -280.7944
  33   2.0000     -10.318802      -280.7889
  34   2.0000     -10.318035      -280.7680
  35   2.0000     -10.317207      -280.7455
  36   2.0000     -10.316870      -280.7363
  37   2.0000     -10.316082      -280.7149
  38   2.0000     -10.316047      -280.7139
  39   2.0000     -10.314973      -280.6847
  40   2.0000     -10.311295      -280.5846
  41   2.0000     -10.310457      -280.5618
  42   2.0000     -10.309037      -280.5231
  43   2.0000     -10.308710      -280.5143
  44   2.0000     -10.307956      -280.4937
  45   2.0000     -10.306096      -280.4431
  46   2.0000     -10.304898      -280.4105
  47   2.0000     -10.304781      -280.4074
  48   2.0000     -10.303370      -280.3690
  49   2.0000     -10.297959      -280.2217
  50   2.0000     -10.290648      -280.0228
  51   2.0000     -10.289259      -279.9850
  52   2.0000     -10.289091      -279.9804
  53   2.0000     -10.288140      -279.9545
  54   2.0000     -10.288025      -279.9514
  55   2.0000     -10.285267      -279.8764
  56   2.0000     -10.284415      -279.8532
  57   2.0000     -10.281779      -279.7814
  58   2.0000     -10.281342      -279.7695
  59   2.0000      -8.074534      -219.7192
  60   2.0000      -8.072514      -219.6643
  61   2.0000      -8.072135      -219.6540
  62   2.0000      -8.071364      -219.6330
  63   2.0000      -8.059242      -219.3031
  64   2.0000      -8.056405      -219.2259
  65   2.0000      -8.050839      -219.0745
  66   2.0000      -8.034511      -218.6302
  67   2.0000      -8.029317      -218.4888
  68   2.0000      -8.028359      -218.4628
  69   2.0000      -6.043894      -164.4627
  70   2.0000      -6.041831      -164.4066
  71   2.0000      -6.041452      -164.3963
  72   2.0000      -6.040678      -164.3752
  73   2.0000      -6.039656      -164.3474
  74   2.0000      -6.037634      -164.2924
  75   2.0000      -6.037279      -164.2827
  76   2.0000      -6.036756      -164.2685
  77   2.0000      -6.036492      -164.2613
  78   2.0000      -6.034775      -164.2146
  79   2.0000      -6.034368      -164.2035
  80   2.0000      -6.033594      -164.1824
  81   2.0000      -6.028831      -164.0528
  82   2.0000      -6.025896      -163.9730
  83   2.0000      -6.024837      -163.9441
  84   2.0000      -6.021733      -163.8597
  85   2.0000      -6.020571      -163.8281
  86   2.0000      -6.020352      -163.8221
  87   2.0000      -6.018129      -163.7616
  88   2.0000      -6.016164      -163.7082
  89   2.0000      -6.012569      -163.6103
  90   2.0000      -6.004948      -163.4030
  91   2.0000      -6.000874      -163.2921
  92   2.0000      -5.999737      -163.2611
  93   2.0000      -5.998841      -163.2368
  94   2.0000      -5.995680      -163.1507
  95   2.0000      -5.994982      -163.1318
  96   2.0000      -5.994135      -163.1087
  97   2.0000      -5.988950      -162.9676
  98   2.0000      -5.987604      -162.9310
  99   2.0000      -1.169512       -31.8240
 100   2.0000      -1.166784       -31.7498
 101   2.0000      -1.156417       -31.4677
 102   2.0000      -1.033409       -28.1205
 103   2.0000      -1.031543       -28.0697
 104   2.0000      -1.013459       -27.5776
 105   2.0000      -1.011834       -27.5334
 106   2.0000      -1.003540       -27.3077
 107   2.0000      -0.999106       -27.1871
 108   2.0000      -0.997847       -27.1528
 109   2.0000      -0.994625       -27.0651
 110   2.0000      -0.990514       -26.9533
 111   2.0000      -0.978135       -26.6164
 112   2.0000      -0.971183       -26.4272
 113   2.0000      -0.947912       -25.7940
 114   2.0000      -0.944360       -25.6973
 115   2.0000      -0.924249       -25.1501
 116   2.0000      -0.920044       -25.0357
 117   2.0000      -0.916021       -24.9262
 118   2.0000      -0.903079       -24.5740
 119   2.0000      -0.898019       -24.4363
 120   2.0000      -0.866728       -23.5849
 121   2.0000      -0.863403       -23.4944
 122   2.0000      -0.859032       -23.3754
 123   2.0000      -0.857066       -23.3219
 124   2.0000      -0.854663       -23.2566
 125   2.0000      -0.853146       -23.2153
 126   2.0000      -0.840983       -22.8843
 127   2.0000      -0.838546       -22.8180
 128   2.0000      -0.835040       -22.7226
 129   2.0000      -0.820792       -22.3349
 130   2.0000      -0.788998       -21.4697
 131   2.0000      -0.772584       -21.0231
 132   2.0000      -0.770325       -20.9616
 133   2.0000      -0.766994       -20.8710
 134   2.0000      -0.765657       -20.8346
 135   2.0000      -0.762963       -20.7613
 136   2.0000      -0.759224       -20.6595
 137   2.0000      -0.739462       -20.1218
 138   2.0000      -0.736848       -20.0506
 139   2.0000      -0.719047       -19.5663
 140   2.0000      -0.710379       -19.3304
 141   2.0000      -0.694977       -18.9113
 142   2.0000      -0.691218       -18.8090
 143   2.0000      -0.684428       -18.6242
 144   2.0000      -0.673053       -18.3147
 145   2.0000      -0.671046       -18.2601
 146   2.0000      -0.669565       -18.2198
 147   2.0000      -0.646062       -17.5803
 148   2.0000      -0.641587       -17.4585
 149   2.0000      -0.639879       -17.4120
 150   2.0000      -0.635558       -17.2944
 151   2.0000      -0.630812       -17.1653
 152   2.0000      -0.622122       -16.9288
 153   2.0000      -0.617692       -16.8083
 154   2.0000      -0.613187       -16.6857
 155   2.0000      -0.609761       -16.5924
 156   2.0000      -0.603053       -16.4099
 157   2.0000      -0.600023       -16.3274
 158   2.0000      -0.591143       -16.0858
 159   2.0000      -0.584675       -15.9098
 160   2.0000      -0.575486       -15.6598
 161   2.0000      -0.571656       -15.5555
 162   2.0000      -0.567942       -15.4545
 163   2.0000      -0.565582       -15.3903
 164   2.0000      -0.560547       -15.2532
 165   2.0000      -0.559114       -15.2143
 166   2.0000      -0.558815       -15.2061
 167   2.0000      -0.537282       -14.6202
 168   2.0000      -0.535968       -14.5844
 169   2.0000      -0.535120       -14.5614
 170   2.0000      -0.534448       -14.5431
 171   2.0000      -0.525879       -14.3099
 172   2.0000      -0.522380       -14.2147
 173   2.0000      -0.518136       -14.0992
 174   2.0000      -0.514569       -14.0021
 175   2.0000      -0.507778       -13.8173
 176   2.0000      -0.505505       -13.7555
 177   2.0000      -0.505084       -13.7440
 178   2.0000      -0.502654       -13.6779
 179   2.0000      -0.500711       -13.6250
 180   2.0000      -0.497350       -13.5336
 181   2.0000      -0.496745       -13.5171
 182   2.0000      -0.491521       -13.3750
 183   2.0000      -0.489380       -13.3167
 184   2.0000      -0.488189       -13.2843
 185   2.0000      -0.487815       -13.2741
 186   2.0000      -0.483663       -13.1611
 187   2.0000      -0.477168       -12.9844
 188   2.0000      -0.474247       -12.9049
 189   2.0000      -0.469917       -12.7871
 190   2.0000      -0.468492       -12.7483
 191   2.0000      -0.467773       -12.7287
 192   2.0000      -0.463701       -12.6179
 193   2.0000      -0.458982       -12.4895
 194   2.0000      -0.457480       -12.4487
 195   2.0000      -0.456015       -12.4088
 196   2.0000      -0.454162       -12.3584
 197   2.0000      -0.453057       -12.3283
 198   2.0000      -0.451122       -12.2757
 199   2.0000      -0.448894       -12.2150
 200   2.0000      -0.448809       -12.2127
 201   2.0000      -0.446834       -12.1590
 202   2.0000      -0.443315       -12.0632
 203   2.0000      -0.440921       -11.9981
 204   2.0000      -0.439607       -11.9623
 205   2.0000      -0.438198       -11.9240
 206   2.0000      -0.434037       -11.8107
 207   2.0000      -0.432191       -11.7605
 208   2.0000      -0.430875       -11.7247
 209   2.0000      -0.429144       -11.6776
 210   2.0000      -0.427408       -11.6304
 211   2.0000      -0.422465       -11.4958
 212   2.0000      -0.420423       -11.4403
 213   2.0000      -0.419045       -11.4028
 214   2.0000      -0.416346       -11.3294
 215   2.0000      -0.414791       -11.2870
 216   2.0000      -0.412333       -11.2201
 217   2.0000      -0.409994       -11.1565
 218   2.0000      -0.409211       -11.1352
 219   2.0000      -0.401124       -10.9151
 220   2.0000      -0.396948       -10.8015
 221   2.0000      -0.387892       -10.5551
 222   2.0000      -0.387618       -10.5476
 223   2.0000      -0.382218       -10.4007
 224   2.0000      -0.381715       -10.3870
 225   2.0000      -0.373703       -10.1690
 226   2.0000      -0.364709        -9.9242
 227   2.0000      -0.352418        -9.5898
 228   2.0000      -0.350806        -9.5459
 229   2.0000      -0.336884        -9.1671
 230   2.0000      -0.334952        -9.1145
 231   2.0000      -0.326843        -8.8939
 232   2.0000      -0.312662        -8.5080
 233   2.0000      -0.311861        -8.4862
 234   2.0000      -0.304762        -8.2930
 235   2.0000      -0.281794        -7.6680
 236   2.0000      -0.277940        -7.5631
 237   2.0000      -0.275053        -7.4846
 238   2.0000      -0.270684        -7.3657
 239   2.0000      -0.244724        -6.6593
 240   2.0000      -0.219432        -5.9710
 241   0.0000      -0.096394        -2.6230
 242   0.0000      -0.091417        -2.4876
 243   0.0000      -0.043095        -1.1727
 244   0.0000      -0.019487        -0.5303
 245   0.0000      -0.007493        -0.2039

MULLIKEN ATOMIC CHARGES
-----------------------
   0 C :   -0.126575
   1 C :   -0.034545
   2 C :    0.183323
   3 O :   -0.307903
   4 C :    0.230605
   5 C :   -0.113802
   6 S :    0.011577
   7 C :   -0.139940
   8 S :    0.127258
   9 C :   -0.055367
  10 C :   -0.064793
  11 C :    0.012135
  12 C :   -0.103736
  13 S :    0.172931
  14 C :   -0.096591
  15 C :   -0.001652
  16 C :    0.311942
  17 C :   -0.306795
  18 C :   -0.188944
  19 N :    0.166819
  20 C :   -0.186060
  21 N :    0.166198
  22 C :   -0.062647
  23 C :   -0.069240
  24 S :    0.170810
  25 C :   -0.104673
  26 C :   -0.052240
  27 C :    0.157365
  28 O :   -0.309608
  29 C :    0.221806
  30 C :   -0.080641
  31 S :    0.009321
  32 C :   -0.099317
  33 S :    0.120431
  34 C :   -0.057975
  35 C :   -0.066210
  36 C :    0.013078
  37 C :   -0.102037
  38 S :    0.170951
  39 C :   -0.099065
  40 C :   -0.003070
  41 C :    0.313264
  42 C :   -0.309358
  43 C :   -0.186344
  44 N :    0.165004
  45 C :   -0.188401
  46 N :    0.167689
  47 C :   -0.067744
  48 C :   -0.063189
  49 S :    0.173205
  50 C :   -0.127658
  51 C :   -0.058167
  52 C :    0.211250
  53 O :   -0.302818
  54 C :    0.219124
  55 C :   -0.080015
  56 S :    0.005467
  57 C :   -0.144400
  58 S :    0.115868
  59 H :    0.023592
  60 H :    0.042547
  61 H :    0.033463
  62 H :    0.075708
  63 H :    0.063801
  64 H :    0.011021
  65 H :    0.022423
  66 H :    0.045564
  67 H :    0.035155
  68 H :    0.076291
  69 H :    0.068027
  70 H :    0.010771
  71 H :    0.023310
  72 H :    0.030806
  73 H :    0.029818
  74 H :    0.072505
  75 H :    0.062790
  76 H :    0.016503
Sum of atomic charges:   -0.0000000

LOEWDIN ATOMIC CHARGES
----------------------
   0 C :   -0.206999
   1 C :   -0.221981
   2 C :    0.002296
   3 O :   -0.089916
   4 C :    0.072935
   5 C :   -0.141433
   6 S :    0.282917
   7 C :   -0.226752
   8 S :    0.431373
   9 C :   -0.171932
  10 C :   -0.034598
  11 C :   -0.071405
  12 C :   -0.187958
  13 S :    0.459685
  14 C :   -0.178333
  15 C :   -0.074937
  16 C :    0.086658
  17 C :   -0.106320
  18 C :   -0.014036
  19 N :   -0.040671
  20 C :   -0.016835
  21 N :   -0.037025
  22 C :   -0.039474
  23 C :   -0.182537
  24 S :    0.459311
  25 C :   -0.207146
  26 C :   -0.215253
  27 C :    0.004242
  28 O :   -0.088209
  29 C :    0.073705
  30 C :   -0.139102
  31 S :    0.322154
  32 C :   -0.219496
  33 S :    0.413427
  34 C :   -0.175419
  35 C :   -0.032401
  36 C :   -0.071562
  37 C :   -0.186799
  38 S :    0.457751
  39 C :   -0.180107
  40 C :   -0.075505
  41 C :    0.087054
  42 C :   -0.107068
  43 C :   -0.013554
  44 N :   -0.042417
  45 C :   -0.017068
  46 N :   -0.036830
  47 C :   -0.042775
  48 C :   -0.178520
  49 S :    0.460617
  50 C :   -0.216223
  51 C :   -0.218377
  52 C :   -0.007106
  53 O :   -0.105801
  54 C :    0.069775
  55 C :   -0.140992
  56 S :    0.318004
  57 C :   -0.217752
  58 S :    0.423852
  59 H :    0.025983
  60 H :    0.035213
  61 H :    0.020265
  62 H :    0.031643
  63 H :    0.037387
  64 H :    0.037262
  65 H :    0.025982
  66 H :    0.036314
  67 H :    0.021266
  68 H :    0.033118
  69 H :    0.040260
  70 H :    0.037152
  71 H :    0.026258
  72 H :    0.030196
  73 H :    0.018219
  74 H :    0.031402
  75 H :    0.037772
  76 H :    0.027179

  Mayer bond orders larger than 0.100000
B(  0-C ,  1-C ) :   1.5683 B(  0-C ,  7-C ) :   0.1120 B(  0-C ,  8-S ) :   1.1511
B(  0-C , 59-H ) :   0.9747 B(  1-C ,  2-C ) :   1.2283 B(  1-C ,  6-S ) :   0.9781
B(  2-C ,  3-O ) :   1.1478 B(  2-C ,  7-C ) :   1.5345 B(  3-O ,  4-C ) :   0.9497
B(  4-C ,  5-C ) :   1.0388 B(  4-C , 60-H ) :   0.9515 B(  4-C , 61-H ) :   0.9517
B(  5-C ,  6-S ) :   1.0103 B(  5-C , 62-H ) :   0.9434 B(  5-C , 63-H ) :   0.9491
B(  7-C ,  8-S ) :   1.1203 B(  7-C ,  9-C ) :   1.1287 B(  9-C , 10-C ) :   1.4971
B(  9-C , 13-S ) :   1.0956 B( 10-C , 11-C ) :   1.2449 B( 10-C , 64-H ) :   0.9959
B( 11-C , 12-C ) :   1.4533 B( 11-C , 16-C ) :   0.9976 B( 12-C , 13-S ) :   1.1120
B( 12-C , 14-C ) :   1.1850 B( 14-C , 15-C ) :   1.4481 B( 14-C , 24-S ) :   1.1203
B( 15-C , 16-C ) :   0.9959 B( 15-C , 22-C ) :   1.3016 B( 16-C , 17-C ) :   1.7033
B( 17-C , 18-C ) :   1.1369 B( 17-C , 20-C ) :   1.1357 B( 18-C , 19-N ) :   2.9926
B( 20-C , 21-N ) :   2.9847 B( 22-C , 23-C ) :   1.4729 B( 22-C , 65-H ) :   0.9744
B( 23-C , 24-S ) :   1.0867 B( 23-C , 25-C ) :   1.1597 B( 25-C , 26-C ) :   1.5727
B( 25-C , 32-C ) :   0.1354 B( 25-C , 33-S ) :   1.1015 B( 26-C , 27-C ) :   1.2413
B( 26-C , 31-S ) :   1.0008 B( 27-C , 28-O ) :   1.1470 B( 27-C , 32-C ) :   1.5385
B( 28-O , 29-C ) :   0.9470 B( 29-C , 30-C ) :   1.0438 B( 29-C , 66-H ) :   0.9515
B( 29-C , 67-H ) :   0.9525 B( 30-C , 31-S ) :   1.0029 B( 30-C , 68-H ) :   0.9427
B( 30-C , 69-H ) :   0.9477 B( 32-C , 33-S ) :   1.0895 B( 32-C , 34-C ) :   1.1354
B( 34-C , 35-C ) :   1.4824 B( 34-C , 38-S ) :   1.0910 B( 35-C , 36-C ) :   1.2534
B( 35-C , 70-H ) :   0.9950 B( 36-C , 37-C ) :   1.4531 B( 36-C , 41-C ) :   0.9926
B( 37-C , 38-S ) :   1.1123 B( 37-C , 39-C ) :   1.1834 B( 39-C , 40-C ) :   1.4518
B( 39-C , 49-S ) :   1.1196 B( 40-C , 41-C ) :   1.0000 B( 40-C , 47-C ) :   1.2890
B( 41-C , 42-C ) :   1.7032 B( 42-C , 43-C ) :   1.1358 B( 42-C , 45-C ) :   1.1369
B( 43-C , 44-N ) :   2.9911 B( 45-C , 46-N ) :   2.9865 B( 47-C , 48-C ) :   1.4896
B( 47-C , 71-H ) :   0.9757 B( 48-C , 49-S ) :   1.0914 B( 48-C , 50-C ) :   1.1471
B( 50-C , 51-C ) :   1.5629 B( 50-C , 57-C ) :   0.1099 B( 50-C , 58-S ) :   1.1350
B( 51-C , 52-C ) :   1.2118 B( 51-C , 56-S ) :   1.0071 B( 52-C , 53-O ) :   1.1266
B( 52-C , 57-C ) :   1.5835 B( 53-O , 54-C ) :   0.9713 B( 54-C , 55-C ) :   1.0439
B( 54-C , 72-H ) :   0.9517 B( 54-C , 73-H ) :   0.9503 B( 55-C , 56-S ) :   1.0038
B( 55-C , 74-H ) :   0.9430 B( 55-C , 75-H ) :   0.9476 B( 57-C , 58-S ) :   1.1184
B( 57-C , 76-H ) :   0.9686

-----------------------------------------------------------------------------
         ABSORPTION SPECTRUM VIA TRANSITION ELECTRIC DIPOLE MOMENTS
-----------------------------------------------------------------------------
State   Energy  Wavelength   fosc         T2         TX        TY        TZ
        (cm-1)    (nm)                  (au**2)     (au)      (au)      (au)
-----------------------------------------------------------------------------
   0    9887.4   1011.4   0.233977480   7.79050  -1.39809   2.41465  -0.07278
   1   10465.4    955.5   0.023340503   0.73423  -0.72824  -0.40778  -0.19394
   2   18987.1    526.7   0.006814101   0.11815   0.32862  -0.07565   0.06659
   3   19558.2    511.3   0.237749513   4.00191  -1.04718   1.70323  -0.06578
   4   22720.7    440.1   1.642991026  23.80616  -2.49889   4.18939  -0.10350
   5   23899.7    418.4   0.027869243   0.38389  -0.52856   0.29405  -0.13436
   6   24321.2    411.2   0.171453774   2.32080   0.57413  -1.41102  -0.01384
   7   25139.5    397.8   0.018044322   0.23630   0.34348  -0.34249   0.03195
   8   25611.9    390.4   0.108375650   1.39305  -0.69646   0.95198  -0.04154
   9   26804.0    373.1   0.002081227   0.02556   0.09074   0.12073   0.05246
  10   27222.9    367.3   0.000441665   0.00534   0.04222   0.05949   0.00437
  11   29014.0    344.7   0.884276912  10.03359  -2.74095  -1.42200  -0.70619
  12   30579.7    327.0   0.058907014   0.63417   0.01615  -0.79577  -0.02572
  13   30786.8    324.8   0.036874273   0.39431   0.00792   0.62372   0.07221
  14   31037.6    322.2   0.043445285   0.46082   0.66075   0.08556   0.13005
  15   31374.0    318.7   0.100398352   1.05349   1.02358  -0.00836   0.07557
  16   31698.2    315.5   0.063663549   0.66120  -0.64447  -0.45898  -0.18758
  17   31898.8    313.5   0.782276573   8.07350   2.37195   1.46094   0.55944
  18   32694.4    305.9   0.242567161   2.44250  -0.74507   1.37275   0.05406
  19   32822.8    304.7   0.062063231   0.62249  -0.05818   0.77969   0.10576
  20   33560.8    298.0   0.020166497   0.19782   0.30628  -0.31885   0.04846
  21   34092.3    293.3   0.235027343   2.26954  -1.19454  -0.85955  -0.32218
  22   34184.9    292.5   0.397207038   3.82523   1.02634  -1.66396   0.05569
  23   35148.1    284.5   0.047561515   0.44548   0.63042  -0.16601   0.14316
  24   35780.7    279.5   0.070286543   0.64669  -0.28735  -0.73152  -0.17029
  25   36785.7    271.8   0.052220703   0.46735   0.05449   0.67666   0.08071
  26   37454.3    267.0   0.009975875   0.08769  -0.05675  -0.28576  -0.05296
  27   37626.5    265.8   0.144427542   1.26367  -0.06738   1.09936   0.22479
  28   37930.6    263.6   0.096913884   0.84115   0.27952   0.80988   0.32727
  29   38096.1    262.5   0.014641230   0.12652  -0.33668  -0.05993  -0.09787
  30   38205.0    261.7   0.257710187   2.22068  -1.44988   0.05252  -0.34026
  31   38898.0    257.1   0.050079768   0.42385  -0.00721   0.64689   0.07304
  32   39301.6    254.4   0.007568107   0.06339   0.17612  -0.17992  -0.00162
  33   39442.8    253.5   0.000186455   0.00156   0.00729  -0.00694  -0.03814

FINAL SINGLE POINT ENERGY     -6033.971269851013

DIPOLE MOMENT
-------------
                                X             Y             Z
Electronic contribution:     -6.59398      -9.56529      -3.36368
Nuclear contribution   :      5.16073       8.34187       3.17124
                        -----------------------------------------
Total Dipole Moment    :     -1.43324      -1.22342      -0.19244
                        -----------------------------------------
Magnitude (a.u.)       :      1.89419
Magnitude (Debye)      :      4.81466

Rotational constants in cm-1:     0.002268     0.000283     0.000252
Rotational constants in MHz :    68.000266     8.485893     7.555304

                             ****ORCA TERMINATED NORMALLY****
TOTAL RUN TIME: 0 days 0 hours 6 minutes 12 seconds 591 msec
