                         Program Version 4.2.0 -  RELEASE  -
|  1> # ORCA input file
|  2> # SCF done       -176.516031081723          0.000233347260
|  3> ! CAM-B3LYP def2-SVP def2/J RIJCOSX Grid4 TightSCF
|  4> %maxcore 5000
|  5> %tddft
|  6>     Mode sTDDFT
|  7>     Ethresh 5.0
|  8>     maxcore 5000
|  9> end
| 10>
| 11> %pal
| 12>   nprocs 6
| 13>   end
| 14> * xyz 0 1
| 15>    C       -0.44475         3.63055        -9.54607
| 16>    C       -0.02453         2.71205        -8.63441
| 17>    C       -0.22497         3.16636        -7.31616
| 18>    C       -0.80431         4.44409        -7.27296
| 19>    S       -1.09626         5.07296        -8.83356
| 20>    C       -0.96968         4.82571        -5.91550
| 21>    C       -0.49076         3.78380        -5.10374
| 22>    C       -0.00950         2.70541        -5.96187
| 23>    C        0.52474         1.51768        -5.55084
| 24>    C        0.67637         1.19366        -4.18676
| 25>    N        0.80405         0.91808        -3.08042
| 26>    C        0.96013         0.53486        -6.46337
| 27>    N        1.31595        -0.26701        -7.20228
| 28>    C       -0.59944         4.04991        -3.74566
| 29>    C       -1.16433         5.29708        -3.50831
| 30>    S       -1.56173         6.14287        -4.99850
| 31>    C       -1.40586         5.85221        -2.23867
| 32>    C       -1.10596         5.26110        -1.00127
| 33>    C       -1.47191         6.07153         0.11154
| 34>    N       -1.25365         5.65356         1.37094
| 35>    C       -0.69722         4.47986         1.53282
| 36>    C       -0.33076         3.66201         0.41185
| 37>    N       -0.53523         4.05671        -0.81894
| 38>    C        0.29851         2.32439         0.59715
| 39>    C       -0.46205         4.03012         2.93354
| 40>    C       -2.06096         7.29033        -0.26250
| 41>    S       -2.14024         7.40497        -1.99297
| 42>    C       -2.54137         8.28510         0.60472
| 43>    C       -2.49148         8.23674         1.99320
| 44>    C       -3.06579         9.35888         2.57114
| 45>    C       -3.56292        10.28263         1.62457
| 46>    S       -3.31078         9.75650         0.01536
| 47>    C       -4.13732        11.36824         2.31442
| 48>    C       -4.00772        11.13994         3.70278
| 49>    C       -3.32642         9.87279         3.90479
| 50>    C       -3.00411         9.28706         5.09489
| 51>    C       -3.31557         9.88575         6.33363
| 52>    N       -3.56671        10.36515         7.34500
| 53>    C       -2.34024         8.04429         5.16334
| 54>    N       -1.80141         7.03374         5.22840
| 55>    C       -4.55963        12.14836         4.47837
| 56>    C       -5.11747        13.15566         3.69937
| 57>    S       -4.94249        12.84006         1.97480
| 58>    C       -5.76870        14.29888         4.19067
| 59>    C       -5.98758        14.61858         5.54058
| 60>    C       -6.70065        15.83875         5.71905
| 61>    N       -7.00153        16.28759         6.95093
| 62>    C       -6.61485        15.56527         7.97131
| 63>    C       -5.89220        14.33841         7.79134
| 64>    N       -5.59380        13.88837         6.59895
| 65>    C       -5.44788        13.51979         8.95411
| 66>    C       -6.95892        16.07383         9.32868
| 67>    C       -7.03060        16.46885         4.50886
| 68>    S       -6.44848        15.52893         3.17152
| 69>    C       -7.73235        17.67910         4.36279
| 70>    C       -8.23158        18.44961         5.40584
| 71>    C       -8.87995        19.58607         4.94203
| 72>    C       -8.87994        19.69466         3.54126
| 73>    S       -8.07688        18.38495         2.78896
| 74>    C       -9.56492        20.88682         3.18736
| 75>    C       -9.99619        21.52577         4.36032
| 76>    C       -9.58529        20.73567         5.50045
| 77>    C       -9.80325        20.98982         6.82444
| 78>    C      -10.50342        22.13211         7.26387
| 79>    N      -11.07328        23.05928         7.62603
| 80>    C       -9.34411        20.12704         7.84108
| 81>    N       -8.97632        19.43303         8.67733
| 82>    C      -10.68797        22.72400         4.09566
| 83>    C      -10.76731        22.96746         2.75933
| 84>    S      -10.00625        21.75132         1.78237
| 85>    H       -0.41594         3.55818       -10.61474
| 86>    H        0.40515         1.76268        -8.89727
| 87>    H       -0.30092         3.40947        -2.93628
| 88>    H        1.23705         2.41926         1.14117
| 89>    H        0.48862         1.87504        -0.37391
| 90>    H       -0.35772         1.67407         1.17356
| 91>    H       -0.80041         4.79855         3.62346
| 92>    H        0.59719         3.83818         3.09733
| 93>    H       -1.00336         3.10574         3.12972
| 94>    H       -2.05217         7.40088         2.50609
| 95>    H       -4.58621        12.19484         5.55162
| 96>    H       -4.79079        14.10222         9.59821
| 97>    H       -4.91735        12.64076         8.59798
| 98>    H       -6.30614        13.20749         9.54726
| 99>    H       -7.51493        17.00314         9.23795
|100>    H       -6.05346        16.25048         9.90741
|101>    H       -7.56150        15.34292         9.86572
|102>    H       -8.10244        18.15264         6.43030
|103>    H      -11.10383        23.37076         4.84651
|104>    H      -11.23212        23.79855         2.26804
|105> *
|106>
|107>                          ****END OF INPUT****

CARTESIAN COORDINATES (ANGSTROEM)
---------------------------------
  C     -0.444750    3.630550   -9.546070
  C     -0.024530    2.712050   -8.634410
  C     -0.224970    3.166360   -7.316160
  C     -0.804310    4.444090   -7.272960
  S     -1.096260    5.072960   -8.833560
  C     -0.969680    4.825710   -5.915500
  C     -0.490760    3.783800   -5.103740
  C     -0.009500    2.705410   -5.961870
  C      0.524740    1.517680   -5.550840
  C      0.676370    1.193660   -4.186760
  N      0.804050    0.918080   -3.080420
  C      0.960130    0.534860   -6.463370
  N      1.315950   -0.267010   -7.202280
  C     -0.599440    4.049910   -3.745660
  C     -1.164330    5.297080   -3.508310
  S     -1.561730    6.142870   -4.998500
  C     -1.405860    5.852210   -2.238670
  C     -1.105960    5.261100   -1.001270
  C     -1.471910    6.071530    0.111540
  N     -1.253650    5.653560    1.370940
  C     -0.697220    4.479860    1.532820
  C     -0.330760    3.662010    0.411850
  N     -0.535230    4.056710   -0.818940
  C      0.298510    2.324390    0.597150
  C     -0.462050    4.030120    2.933540
  C     -2.060960    7.290330   -0.262500
  S     -2.140240    7.404970   -1.992970
  C     -2.541370    8.285100    0.604720
  C     -2.491480    8.236740    1.993200
  C     -3.065790    9.358880    2.571140
  C     -3.562920   10.282630    1.624570
  S     -3.310780    9.756500    0.015360
  C     -4.137320   11.368240    2.314420
  C     -4.007720   11.139940    3.702780
  C     -3.326420    9.872790    3.904790
  C     -3.004110    9.287060    5.094890
  C     -3.315570    9.885750    6.333630
  N     -3.566710   10.365150    7.345000
  C     -2.340240    8.044290    5.163340
  N     -1.801410    7.033740    5.228400
  C     -4.559630   12.148360    4.478370
  C     -5.117470   13.155660    3.699370
  S     -4.942490   12.840060    1.974800
  C     -5.768700   14.298880    4.190670
  C     -5.987580   14.618580    5.540580
  C     -6.700650   15.838750    5.719050
  N     -7.001530   16.287590    6.950930
  C     -6.614850   15.565270    7.971310
  C     -5.892200   14.338410    7.791340
  N     -5.593800   13.888370    6.598950
  C     -5.447880   13.519790    8.954110
  C     -6.958920   16.073830    9.328680
  C     -7.030600   16.468850    4.508860
  S     -6.448480   15.528930    3.171520
  C     -7.732350   17.679100    4.362790
  C     -8.231580   18.449610    5.405840
  C     -8.879950   19.586070    4.942030
  C     -8.879940   19.694660    3.541260
  S     -8.076880   18.384950    2.788960
  C     -9.564920   20.886820    3.187360
  C     -9.996190   21.525770    4.360320
  C     -9.585290   20.735670    5.500450
  C     -9.803250   20.989820    6.824440
  C    -10.503420   22.132110    7.263870
  N    -11.073280   23.059280    7.626030
  C     -9.344110   20.127040    7.841080
  N     -8.976320   19.433030    8.677330
  C    -10.687970   22.724000    4.095660
  C    -10.767310   22.967460    2.759330
  S    -10.006250   21.751320    1.782370
  H     -0.415940    3.558180  -10.614740
  H      0.405150    1.762680   -8.897270
  H     -0.300920    3.409470   -2.936280
  H      1.237050    2.419260    1.141170
  H      0.488620    1.875040   -0.373910
  H     -0.357720    1.674070    1.173560
  H     -0.800410    4.798550    3.623460
  H      0.597190    3.838180    3.097330
  H     -1.003360    3.105740    3.129720
  H     -2.052170    7.400880    2.506090
  H     -4.586210   12.194840    5.551620
  H     -4.790790   14.102220    9.598210
  H     -4.917350   12.640760    8.597980
  H     -6.306140   13.207490    9.547260
  H     -7.514930   17.003140    9.237950
  H     -6.053460   16.250480    9.907410
  H     -7.561500   15.342920    9.865720
  H     -8.102440   18.152640    6.430300
  H    -11.103830   23.370760    4.846510
  H    -11.232120   23.798550    2.268040

 Total Charge           Charge          ....    0
 Multiplicity           Mult            ....    1
 Number of Electrons    NEL             ....  530
 Basis Dimension        Dim             .... 1112

ORBITAL ENERGIES
----------------

  NO   OCC          E(Eh)            E(eV)
   0   2.0000     -88.983828     -2421.3730
   1   2.0000     -88.983733     -2421.3705
   2   2.0000     -88.983241     -2421.3571
   3   2.0000     -88.983040     -2421.3516
   4   2.0000     -88.982813     -2421.3454
   5   2.0000     -88.982724     -2421.3430
   6   2.0000     -88.981817     -2421.3183
   7   2.0000     -88.981710     -2421.3154
   8   2.0000     -14.426967      -392.5777
   9   2.0000     -14.426889      -392.5756
  10   2.0000     -14.425359      -392.5340
  11   2.0000     -14.425298      -392.5323
  12   2.0000     -14.423635      -392.4871
  13   2.0000     -14.423634      -392.4870
  14   2.0000     -14.422208      -392.4482
  15   2.0000     -14.422207      -392.4482
  16   2.0000     -14.421807      -392.4373
  17   2.0000     -14.421775      -392.4365
  18   2.0000     -10.358657      -281.8734
  19   2.0000     -10.356532      -281.8156
  20   2.0000     -10.356513      -281.8150
  21   2.0000     -10.345587      -281.5177
  22   2.0000     -10.344296      -281.4826
  23   2.0000     -10.344277      -281.4821
  24   2.0000     -10.327438      -281.0239
  25   2.0000     -10.327376      -281.0222
  26   2.0000     -10.326020      -280.9853
  27   2.0000     -10.325947      -280.9833
  28   2.0000     -10.325788      -280.9790
  29   2.0000     -10.325783      -280.9788
  30   2.0000     -10.325601      -280.9739
  31   2.0000     -10.325571      -280.9731
  32   2.0000     -10.325022      -280.9581
  33   2.0000     -10.324971      -280.9567
  34   2.0000     -10.324930      -280.9556
  35   2.0000     -10.324757      -280.9509
  36   2.0000     -10.324294      -280.9383
  37   2.0000     -10.324265      -280.9375
  38   2.0000     -10.321284      -280.8564
  39   2.0000     -10.321186      -280.8538
  40   2.0000     -10.320908      -280.8462
  41   2.0000     -10.320876      -280.8453
  42   2.0000     -10.320543      -280.8362
  43   2.0000     -10.320510      -280.8354
  44   2.0000     -10.320093      -280.8240
  45   2.0000     -10.320045      -280.8227
  46   2.0000     -10.319441      -280.8063
  47   2.0000     -10.319410      -280.8054
  48   2.0000     -10.314677      -280.6766
  49   2.0000     -10.314661      -280.6762
  50   2.0000     -10.314366      -280.6682
  51   2.0000     -10.314348      -280.6677
  52   2.0000     -10.305508      -280.4271
  53   2.0000     -10.305496      -280.4268
  54   2.0000     -10.294281      -280.1216
  55   2.0000     -10.294252      -280.1208
  56   2.0000     -10.293191      -280.0920
  57   2.0000     -10.293173      -280.0915
  58   2.0000     -10.292218      -280.0655
  59   2.0000     -10.292207      -280.0652
  60   2.0000     -10.291840      -280.0552
  61   2.0000     -10.291834      -280.0550
  62   2.0000     -10.285686      -279.8878
  63   2.0000     -10.285665      -279.8872
  64   2.0000     -10.284108      -279.8448
  65   2.0000     -10.283986      -279.8415
  66   2.0000     -10.264560      -279.3129
  67   2.0000     -10.264547      -279.3125
  68   2.0000     -10.264094      -279.3002
  69   2.0000     -10.264083      -279.2999
  70   2.0000      -8.078407      -219.8246
  71   2.0000      -8.078338      -219.8228
  72   2.0000      -8.077822      -219.8087
  73   2.0000      -8.077728      -219.8062
  74   2.0000      -8.077666      -219.8045
  75   2.0000      -8.077660      -219.8043
  76   2.0000      -8.076804      -219.7810
  77   2.0000      -8.076780      -219.7803
  78   2.0000      -6.047733      -164.5672
  79   2.0000      -6.047664      -164.5653
  80   2.0000      -6.047122      -164.5505
  81   2.0000      -6.046996      -164.5471
  82   2.0000      -6.046890      -164.5442
  83   2.0000      -6.046830      -164.5426
  84   2.0000      -6.046062      -164.5217
  85   2.0000      -6.046031      -164.5209
  86   2.0000      -6.043569      -164.4539
  87   2.0000      -6.043551      -164.4534
  88   2.0000      -6.042996      -164.4383
  89   2.0000      -6.042854      -164.4344
  90   2.0000      -6.042783      -164.4325
  91   2.0000      -6.042759      -164.4318
  92   2.0000      -6.041654      -164.4018
  93   2.0000      -6.041630      -164.4011
  94   2.0000      -6.040615      -164.3735
  95   2.0000      -6.040571      -164.3723
  96   2.0000      -6.040166      -164.3613
  97   2.0000      -6.040098      -164.3594
  98   2.0000      -6.040076      -164.3588
  99   2.0000      -6.039929      -164.3548
 100   2.0000      -6.039399      -164.3404
 101   2.0000      -6.039349      -164.3390
 102   2.0000      -1.083099       -29.4726
 103   2.0000      -1.083085       -29.4722
 104   2.0000      -1.036956       -28.2170
 105   2.0000      -1.035523       -28.1780
 106   2.0000      -1.035491       -28.1771
 107   2.0000      -1.017418       -27.6854
 108   2.0000      -1.015432       -27.6313
 109   2.0000      -1.015400       -27.6304
 110   2.0000      -1.008072       -27.4310
 111   2.0000      -1.006985       -27.4015
 112   2.0000      -1.003846       -27.3160
 113   2.0000      -1.002329       -27.2747
 114   2.0000      -1.001679       -27.2571
 115   2.0000      -1.001311       -27.2471
 116   2.0000      -0.997011       -27.1300
 117   2.0000      -0.986923       -26.8555
 118   2.0000      -0.980407       -26.6782
 119   2.0000      -0.973171       -26.4813
 120   2.0000      -0.951902       -25.9026
 121   2.0000      -0.948328       -25.8053
 122   2.0000      -0.947025       -25.7699
 123   2.0000      -0.911798       -24.8113
 124   2.0000      -0.904133       -24.6027
 125   2.0000      -0.899935       -24.4885
 126   2.0000      -0.887612       -24.1532
 127   2.0000      -0.886308       -24.1177
 128   2.0000      -0.871353       -23.7107
 129   2.0000      -0.869165       -23.6512
 130   2.0000      -0.859619       -23.3914
 131   2.0000      -0.854063       -23.2402
 132   2.0000      -0.846721       -23.0405
 133   2.0000      -0.844716       -22.9859
 134   2.0000      -0.844605       -22.9829
 135   2.0000      -0.842035       -22.9129
 136   2.0000      -0.814414       -22.1613
 137   2.0000      -0.812242       -22.1022
 138   2.0000      -0.806930       -21.9577
 139   2.0000      -0.802500       -21.8371
 140   2.0000      -0.801314       -21.8049
 141   2.0000      -0.784719       -21.3533
 142   2.0000      -0.770408       -20.9639
 143   2.0000      -0.769326       -20.9344
 144   2.0000      -0.768672       -20.9166
 145   2.0000      -0.756215       -20.5776
 146   2.0000      -0.736682       -20.0461
 147   2.0000      -0.717605       -19.5270
 148   2.0000      -0.716337       -19.4925
 149   2.0000      -0.713497       -19.4152
 150   2.0000      -0.709597       -19.3091
 151   2.0000      -0.703667       -19.1477
 152   2.0000      -0.696173       -18.9438
 153   2.0000      -0.696152       -18.9433
 154   2.0000      -0.682075       -18.5602
 155   2.0000      -0.675411       -18.3789
 156   2.0000      -0.671394       -18.2696
 157   2.0000      -0.669720       -18.2240
 158   2.0000      -0.659348       -17.9418
 159   2.0000      -0.652801       -17.7636
 160   2.0000      -0.646888       -17.6027
 161   2.0000      -0.644980       -17.5508
 162   2.0000      -0.627378       -17.0718
 163   2.0000      -0.622753       -16.9460
 164   2.0000      -0.618683       -16.8352
 165   2.0000      -0.616122       -16.7655
 166   2.0000      -0.614890       -16.7320
 167   2.0000      -0.613867       -16.7042
 168   2.0000      -0.613746       -16.7009
 169   2.0000      -0.605655       -16.4807
 170   2.0000      -0.604742       -16.4559
 171   2.0000      -0.599226       -16.3058
 172   2.0000      -0.574097       -15.6220
 173   2.0000      -0.563152       -15.3241
 174   2.0000      -0.558656       -15.2018
 175   2.0000      -0.558372       -15.1941
 176   2.0000      -0.553455       -15.0603
 177   2.0000      -0.552942       -15.0463
 178   2.0000      -0.551986       -15.0203
 179   2.0000      -0.549398       -14.9499
 180   2.0000      -0.539637       -14.6843
 181   2.0000      -0.537951       -14.6384
 182   2.0000      -0.537896       -14.6369
 183   2.0000      -0.526207       -14.3188
 184   2.0000      -0.525801       -14.3078
 185   2.0000      -0.518825       -14.1179
 186   2.0000      -0.512407       -13.9433
 187   2.0000      -0.511939       -13.9306
 188   2.0000      -0.511066       -13.9068
 189   2.0000      -0.506364       -13.7789
 190   2.0000      -0.503561       -13.7026
 191   2.0000      -0.500611       -13.6223
 192   2.0000      -0.499116       -13.5816
 193   2.0000      -0.496794       -13.5184
 194   2.0000      -0.494536       -13.4570
 195   2.0000      -0.490328       -13.3425
 196   2.0000      -0.490187       -13.3387
 197   2.0000      -0.489646       -13.3239
 198   2.0000      -0.489454       -13.3187
 199   2.0000      -0.486913       -13.2496
 200   2.0000      -0.486242       -13.2313
 201   2.0000      -0.481064       -13.0904
 202   2.0000      -0.480138       -13.0652
 203   2.0000      -0.479353       -13.0439
 204   2.0000      -0.475183       -12.9304
 205   2.0000      -0.474954       -12.9242
 206   2.0000      -0.472555       -12.8589
 207   2.0000      -0.472529       -12.8582
 208   2.0000      -0.472289       -12.8516
 209   2.0000      -0.469298       -12.7702
 210   2.0000      -0.468170       -12.7395
 211   2.0000      -0.467480       -12.7208
 212   2.0000      -0.466241       -12.6871
 213   2.0000      -0.462483       -12.5848
 214   2.0000      -0.457570       -12.4511
 215   2.0000      -0.456491       -12.4217
 216   2.0000      -0.455941       -12.4068
 217   2.0000      -0.455894       -12.4055
 218   2.0000      -0.453890       -12.3510
 219   2.0000      -0.453816       -12.3490
 220   2.0000      -0.450406       -12.2562
 221   2.0000      -0.450308       -12.2535
 222   2.0000      -0.447372       -12.1736
 223   2.0000      -0.442429       -12.0391
 224   2.0000      -0.442207       -12.0331
 225   2.0000      -0.441146       -12.0042
 226   2.0000      -0.437580       -11.9072
 227   2.0000      -0.437046       -11.8926
 228   2.0000      -0.436240       -11.8707
 229   2.0000      -0.435143       -11.8408
 230   2.0000      -0.434825       -11.8322
 231   2.0000      -0.433156       -11.7868
 232   2.0000      -0.432952       -11.7812
 233   2.0000      -0.431935       -11.7535
 234   2.0000      -0.431896       -11.7525
 235   2.0000      -0.429044       -11.6749
 236   2.0000      -0.426412       -11.6033
 237   2.0000      -0.425611       -11.5815
 238   2.0000      -0.420801       -11.4506
 239   2.0000      -0.419028       -11.4023
 240   2.0000      -0.417834       -11.3699
 241   2.0000      -0.417800       -11.3689
 242   2.0000      -0.403034       -10.9671
 243   2.0000      -0.401613       -10.9284
 244   2.0000      -0.400069       -10.8864
 245   2.0000      -0.381255       -10.3745
 246   2.0000      -0.381101       -10.3703
 247   2.0000      -0.377766       -10.2795
 248   2.0000      -0.370291       -10.0761
 249   2.0000      -0.360674        -9.8144
 250   2.0000      -0.343148        -9.3375
 251   2.0000      -0.340437        -9.2638
 252   2.0000      -0.340350        -9.2614
 253   2.0000      -0.329558        -8.9677
 254   2.0000      -0.323944        -8.8150
 255   2.0000      -0.322426        -8.7736
 256   2.0000      -0.321085        -8.7372
 257   2.0000      -0.320629        -8.7248
 258   2.0000      -0.316911        -8.6236
 259   2.0000      -0.314618        -8.5612
 260   2.0000      -0.314257        -8.5514
 261   2.0000      -0.301744        -8.2109
 262   2.0000      -0.278326        -7.5736
 263   2.0000      -0.241922        -6.5830
 264   2.0000      -0.213954        -5.8220
 265   0.0000      -0.108478        -2.9518
 266   0.0000      -0.097366        -2.6495
 267   0.0000      -0.094597        -2.5741
 268   0.0000      -0.071429        -1.9437
 269   0.0000      -0.063740        -1.7345

MULLIKEN ATOMIC CHARGES
-----------------------
   0 C :   -0.086244
   1 C :    0.040472
   2 C :   -0.037848
   3 C :   -0.117130
   4 S :    0.174193
   5 C :   -0.099254
   6 C :    0.028976
   7 C :    0.305980
   8 C :   -0.302986
   9 C :   -0.183713
  10 N :    0.177810
  11 C :   -0.196064
  12 N :    0.171246
  13 C :   -0.071877
  14 C :   -0.089383
  15 S :    0.172877
  16 C :   -0.126441
  17 C :    0.032960
  18 C :    0.029305
  19 N :    0.006302
  20 C :   -0.168339
  21 C :   -0.166889
  22 N :    0.007684
  23 C :    0.120309
  24 C :    0.122162
  25 C :   -0.128935
  26 S :    0.172354
  27 C :   -0.085398
  28 C :   -0.076924
  29 C :    0.030535
  30 C :   -0.096375
  31 S :    0.173674
  32 C :   -0.097296
  33 C :    0.031122
  34 C :    0.315818
  35 C :   -0.306951
  36 C :   -0.190261
  37 N :    0.181585
  38 C :   -0.191155
  39 N :    0.181419
  40 C :   -0.077976
  41 C :   -0.087825
  42 S :    0.172956
  43 C :   -0.125454
  44 C :    0.031856
  45 C :    0.028929
  46 N :    0.005553
  47 C :   -0.167816
  48 C :   -0.166709
  49 N :    0.005243
  50 C :    0.121212
  51 C :    0.122247
  52 C :   -0.124609
  53 S :    0.172351
  54 C :   -0.087318
  55 C :   -0.077990
  56 C :    0.033113
  57 C :   -0.099380
  58 S :    0.173505
  59 C :   -0.117330
  60 C :   -0.038535
  61 C :    0.307681
  62 C :   -0.303276
  63 C :   -0.193983
  64 N :    0.170864
  65 C :   -0.185882
  66 N :    0.177472
  67 C :    0.041001
  68 C :   -0.086865
  69 S :    0.173912
  70 H :    0.034434
  71 H :    0.009819
  72 H :    0.015801
  73 H :    0.025645
  74 H :    0.046318
  75 H :    0.026144
  76 H :    0.045376
  77 H :    0.025927
  78 H :    0.025800
  79 H :    0.017600
  80 H :    0.017183
  81 H :    0.026366
  82 H :    0.045257
  83 H :    0.025868
  84 H :    0.045852
  85 H :    0.025935
  86 H :    0.026199
  87 H :    0.015867
  88 H :    0.010785
  89 H :    0.033560
Sum of atomic charges:   -0.0000000

LOEWDIN ATOMIC CHARGES
----------------------
   0 C :   -0.182359
   1 C :   -0.033547
   2 C :   -0.083051
   3 C :   -0.177755
   4 S :    0.470462
   5 C :   -0.189937
   6 C :   -0.067863
   7 C :    0.086313
   8 C :   -0.107197
   9 C :   -0.009723
  10 N :   -0.038083
  11 C :   -0.017115
  12 N :   -0.036923
  13 C :   -0.021039
  14 C :   -0.180201
  15 S :    0.455285
  16 C :   -0.203536
  17 C :   -0.044440
  18 C :   -0.045284
  19 N :   -0.039882
  20 C :    0.009146
  21 C :    0.010043
  22 N :   -0.039619
  23 C :   -0.052854
  24 C :   -0.052695
  25 C :   -0.202121
  26 S :    0.463083
  27 C :   -0.181113
  28 C :   -0.019019
  29 C :   -0.071408
  30 C :   -0.182410
  31 S :    0.452833
  32 C :   -0.182386
  33 C :   -0.071276
  34 C :    0.087518
  35 C :   -0.105145
  36 C :   -0.010413
  37 N :   -0.036541
  38 C :   -0.010557
  39 N :   -0.036405
  40 C :   -0.019151
  41 C :   -0.181193
  42 S :    0.452681
  43 C :   -0.202033
  44 C :   -0.045110
  45 C :   -0.044622
  46 N :   -0.039749
  47 C :    0.010016
  48 C :    0.009241
  49 N :   -0.039968
  50 C :   -0.052681
  51 C :   -0.052881
  52 C :   -0.203460
  53 S :    0.463041
  54 C :   -0.180201
  55 C :   -0.021142
  56 C :   -0.067843
  57 C :   -0.189965
  58 S :    0.455509
  59 C :   -0.177869
  60 C :   -0.082940
  61 C :    0.086348
  62 C :   -0.107186
  63 C :   -0.017070
  64 N :   -0.037026
  65 C :   -0.009809
  66 N :   -0.037939
  67 C :   -0.033567
  68 C :   -0.182295
  69 S :    0.470550
  70 H :    0.026441
  71 H :    0.041950
  72 H :    0.037026
  73 H :    0.039177
  74 H :    0.043866
  75 H :    0.039282
  76 H :    0.043834
  77 H :    0.039065
  78 H :    0.039318
  79 H :    0.037700
  80 H :    0.037646
  81 H :    0.039263
  82 H :    0.043740
  83 H :    0.039262
  84 H :    0.043908
  85 H :    0.039386
  86 H :    0.039170
  87 H :    0.037054
  88 H :    0.042145
  89 H :    0.026291

  Mayer bond orders larger than 0.100000
B(  0-C ,  1-C ) :   1.5548 B(  0-C ,  4-S ) :   1.1397 B(  0-C , 70-H ) :   0.9644
B(  1-C ,  2-C ) :   1.2732 B(  1-C , 71-H ) :   0.9951 B(  2-C ,  3-C ) :   1.4444
B(  2-C ,  7-C ) :   1.0225 B(  3-C ,  4-S ) :   1.1375 B(  3-C ,  5-C ) :   1.1953
B(  5-C ,  6-C ) :   1.4455 B(  5-C , 15-S ) :   1.1127 B(  6-C ,  7-C ) :   0.9888
B(  6-C , 13-C ) :   1.2535 B(  7-C ,  8-C ) :   1.7045 B(  8-C ,  9-C ) :   1.1323
B(  8-C , 11-C ) :   1.1317 B(  9-C , 10-N ) :   2.9988 B( 11-C , 12-N ) :   3.0039
B( 13-C , 14-C ) :   1.4629 B( 13-C , 72-H ) :   0.9840 B( 14-C , 15-S ) :   1.0879
B( 14-C , 16-C ) :   1.1894 B( 16-C , 17-C ) :   1.3859 B( 16-C , 25-C ) :   0.1605
B( 16-C , 26-S ) :   1.1347 B( 17-C , 18-C ) :   1.2399 B( 17-C , 22-N ) :   1.3859
B( 18-C , 19-N ) :   1.3865 B( 18-C , 25-C ) :   1.3807 B( 19-N , 20-C ) :   1.7201
B( 20-C , 21-C ) :   1.1067 B( 20-C , 24-C ) :   1.0989 B( 21-C , 22-N ) :   1.7219
B( 21-C , 23-C ) :   1.0987 B( 23-C , 73-H ) :   0.9370 B( 23-C , 74-H ) :   0.9379
B( 23-C , 75-H ) :   0.9373 B( 24-C , 76-H ) :   0.9380 B( 24-C , 77-H ) :   0.9376
B( 24-C , 78-H ) :   0.9373 B( 25-C , 26-S ) :   1.1368 B( 25-C , 27-C ) :   1.1986
B( 27-C , 28-C ) :   1.4553 B( 27-C , 31-S ) :   1.0781 B( 28-C , 29-C ) :   1.2591
B( 28-C , 79-H ) :   0.9833 B( 29-C , 30-C ) :   1.4123 B( 29-C , 34-C ) :   0.9938
B( 30-C , 31-S ) :   1.1125 B( 30-C , 32-C ) :   1.2201 B( 32-C , 33-C ) :   1.4123
B( 32-C , 42-S ) :   1.1116 B( 33-C , 34-C ) :   0.9927 B( 33-C , 40-C ) :   1.2572
B( 34-C , 35-C ) :   1.7101 B( 35-C , 36-C ) :   1.1341 B( 35-C , 38-C ) :   1.1333
B( 36-C , 37-N ) :   3.0016 B( 38-C , 39-N ) :   3.0015 B( 40-C , 41-C ) :   1.4542
B( 40-C , 80-H ) :   0.9850 B( 41-C , 42-S ) :   1.0784 B( 41-C , 43-C ) :   1.1982
B( 43-C , 44-C ) :   1.3819 B( 43-C , 52-C ) :   0.1605 B( 43-C , 53-S ) :   1.1361
B( 44-C , 45-C ) :   1.2392 B( 44-C , 49-N ) :   1.3858 B( 45-C , 46-N ) :   1.3852
B( 45-C , 52-C ) :   1.3867 B( 46-N , 47-C ) :   1.7204 B( 47-C , 48-C ) :   1.1068
B( 47-C , 51-C ) :   1.0994 B( 48-C , 49-N ) :   1.7201 B( 48-C , 50-C ) :   1.0985
B( 50-C , 81-H ) :   0.9376 B( 50-C , 82-H ) :   0.9383 B( 50-C , 83-H ) :   0.9373
B( 51-C , 84-H ) :   0.9371 B( 51-C , 85-H ) :   0.9367 B( 51-C , 86-H ) :   0.9373
B( 52-C , 53-S ) :   1.1353 B( 52-C , 54-C ) :   1.1888 B( 54-C , 55-C ) :   1.4599
B( 54-C , 58-S ) :   1.0883 B( 55-C , 56-C ) :   1.2523 B( 55-C , 87-H ) :   0.9858
B( 56-C , 57-C ) :   1.4443 B( 56-C , 61-C ) :   0.9887 B( 57-C , 58-S ) :   1.1131
B( 57-C , 59-C ) :   1.1949 B( 59-C , 60-C ) :   1.4458 B( 59-C , 69-S ) :   1.1371
B( 60-C , 61-C ) :   1.0229 B( 60-C , 67-C ) :   1.2724 B( 61-C , 62-C ) :   1.7035
B( 62-C , 63-C ) :   1.1306 B( 62-C , 65-C ) :   1.1339 B( 63-C , 64-N ) :   3.0040
B( 65-C , 66-N ) :   2.9977 B( 67-C , 68-C ) :   1.5535 B( 67-C , 88-H ) :   0.9958
B( 68-C , 69-S ) :   1.1405 B( 68-C , 89-H ) :   0.9645

-----------------------------------------------------------------------------
         ABSORPTION SPECTRUM VIA TRANSITION ELECTRIC DIPOLE MOMENTS
-----------------------------------------------------------------------------
State   Energy  Wavelength   fosc         T2         TX        TY        TZ
        (cm-1)    (nm)                  (au**2)     (au)      (au)      (au)
-----------------------------------------------------------------------------
   0    7686.0   1301.1   0.454495544  19.46738  -1.80451   3.39841   2.15914
   1   10755.4    929.8   0.240926590   7.37452  -1.11373   2.08675   1.33402
   2   10991.6    909.8   0.084177804   2.52123   0.44842  -0.64250   1.38107
   3   15560.8    642.6   1.131145552  23.93102  -1.99998   3.76875   2.39324
   4   16006.6    624.7   0.021732956   0.44699   0.21011  -0.25289   0.58214
   5   17879.8    559.3   0.163305886   3.00686  -0.52665   0.67795  -1.50661
   6   20114.9    497.1   0.000780468   0.01277   0.05231  -0.09137  -0.04110
   7   20129.1    496.8   0.004327749   0.07078  -0.06773   0.10648  -0.23421
   8   23555.1    424.5   0.055520778   0.77597   0.36274  -0.67782  -0.43006
   9   24298.7    411.5   0.111157838   1.50602   0.33347  -0.49994   1.06999
  10   25515.7    391.9   0.003836040   0.04949   0.09498  -0.16741  -0.11156
  11   26000.8    384.6   0.001004257   0.01272   0.01803  -0.04803   0.10042
  12   26272.4    380.6   0.170898671   2.14148   0.59458  -1.12884  -0.71671
  13   27237.0    367.1   0.000075498   0.00091  -0.00055   0.02772   0.01199
  14   27267.1    366.7   0.005200915   0.06279  -0.21953  -0.12073   0.00463
  15   29314.8    341.1   0.660631676   7.41905   1.11707  -2.09741  -1.33119
  16   29729.2    336.4   0.009289693   0.10287  -0.10491   0.11022  -0.28234
  17   30317.7    329.8   0.398244531   4.32443   0.59829  -0.84888   1.80163
  18   30505.4    327.8   0.245601311   2.65051   0.65949  -1.24559  -0.81491
  19   31076.0    321.8   0.054750767   0.58002   0.03195  -0.39372   0.65114
  20   31294.0    319.5   0.002258811   0.02376  -0.05545   0.05039  -0.13472
  21   31363.3    318.8   0.003479550   0.03652  -0.07795   0.14951   0.08997
  22   31475.1    317.7   0.349503193   3.65561   0.77671  -1.48002  -0.92837
  23   31944.6    313.0   0.100311661   1.03378  -0.40777   0.79162   0.49075
  24   32031.5    312.2   0.094222912   0.96840   0.39474  -0.75038  -0.49951
  25   32237.0    310.2   1.081446699  11.04401  -0.69880   1.46971  -2.89752
  26   32399.7    308.6   0.024326952   0.24718   0.07388  -0.24213   0.42790
  27   32763.4    305.2   0.000287596   0.00289   0.01562  -0.02864  -0.04273
  28   32835.7    304.5   0.067428181   0.67604  -0.13700   0.38382  -0.71411
  29   32882.5    304.1   0.001382766   0.01384  -0.08774   0.00192  -0.07837
  30   33240.9    300.8   0.006947765   0.06881   0.09180  -0.20977  -0.12798
  31   33532.6    298.2   0.050795873   0.49870  -0.18018   0.28945  -0.61843
  32   33694.0    296.8   0.000008645   0.00008  -0.00823  -0.00300  -0.00279
  33   33703.9    296.7   0.001675399   0.01636  -0.11620  -0.04822  -0.02321
  34   33773.8    296.1   0.000026066   0.00025   0.00369  -0.00574  -0.01441
  35   34156.6    292.8   0.007948286   0.07661  -0.02484   0.11450  -0.25076
  36   34260.7    291.9   0.133701010   1.28474  -0.47208   0.87937   0.53720
  37   34409.6    290.6   0.259584919   2.48356  -0.37047   0.66095  -1.38183
  38   34517.6    289.7   0.074521718   0.71075  -0.34981   0.65340   0.40182
  39   34801.9    287.3   0.031198649   0.29513   0.08928  -0.25464   0.47150
  40   35291.1    283.4   0.028152925   0.26262  -0.20527   0.39466   0.25442
  41   35453.2    282.1   0.208004429   1.93149   0.23756  -0.64003   1.21054
  42   35984.7    277.9   0.144134225   1.31864   0.46369  -0.88825  -0.56092
  43   36210.2    276.2   0.122331978   1.11221  -0.25857   0.44484  -0.92058
  44   36805.6    271.7   0.003028269   0.02709  -0.06702   0.12818   0.07852
  45   38470.4    259.9   0.398164776   3.40731   0.36881  -0.80592   1.61919
  46   38497.8    259.8   0.015259584   0.13049   0.15634  -0.31971  -0.06190
  47   38696.8    258.4   0.019733815   0.16788  -0.08400   0.18173  -0.35750
  48   38839.2    257.5   0.000095214   0.00081   0.00040  -0.00058   0.02840
  49   38937.2    256.8   0.067765643   0.57295  -0.17628   0.32694  -0.65954
  50   39004.1    256.4   0.003365175   0.02840  -0.06342   0.12760   0.09000
  51   39490.9    253.2   0.249114785   2.07672  -0.29977   0.64196  -1.25489
  52   39563.7    252.8   0.000500032   0.00416  -0.03177   0.05592  -0.00494
  53   40095.5    249.4   0.108051218   0.88718   0.21133  -0.41177   0.82034
  54   40189.5    248.8   0.019267901   0.15783   0.16802  -0.31167  -0.18018

FINAL SINGLE POINT ENERGY     -5722.272281668692

DIPOLE MOMENT
-------------
                                X             Y             Z
Electronic contribution:    -10.12479      21.49827     -42.27379
Nuclear contribution   :      9.61054     -20.22934      39.85786
                        -----------------------------------------
Total Dipole Moment    :     -0.51425       1.26893      -2.41592
                        -----------------------------------------
Magnitude (a.u.)       :      2.77693
Magnitude (Debye)      :      7.05839

Rotational constants in cm-1:     0.001759     0.000223     0.000198
Rotational constants in MHz :    52.726373     6.681990     5.935083

                             ****ORCA TERMINATED NORMALLY****
TOTAL RUN TIME: 0 days 0 hours 8 minutes 34 seconds 640 msec
