                         Program Version 4.2.0 -  RELEASE  -
|  1> # ORCA input file
|  2> # SCF done       -183.170886961799          0.000496213050
|  3> ! CAM-B3LYP def2-SVP def2/J RIJCOSX Grid4 TightSCF
|  4> %maxcore 5000
|  5> %tddft
|  6>     Mode sTDDFT
|  7>     Ethresh 5.0
|  8>     maxcore 5000
|  9> end
| 10>
| 11> %pal
| 12>   nprocs 6
| 13>   end
| 14> * xyz 0 1
| 15>    C       -8.47218         6.53602         1.17357
| 16>    C       -7.16264         6.22811         1.03584
| 17>    C       -6.68883         4.93477         0.73452
| 18>    C       -7.64086         3.81507         0.65195
| 19>    C       -8.98417         3.93148         0.74663
| 20>    S       -9.78964         5.42447         1.00295
| 21>    C       -6.84464         2.65257         0.45983
| 22>    C       -5.50060         3.01124         0.42185
| 23>    C       -4.65605         1.89686         0.22790
| 24>    C       -5.36868         0.74370         0.12885
| 25>    S       -7.08088         0.96022         0.26092
| 26>    C       -5.38844         4.44443         0.56810
| 27>    C       -4.13460         5.10885         0.51862
| 28>    C       -3.91667         6.42744         0.28344
| 29>    C       -2.63841         7.03939         0.24811
| 30>    C       -1.38316         6.49895         0.47925
| 31>    C       -0.36711         7.44377         0.34793
| 32>    C       -0.84425         8.72588         0.01480
| 33>    S       -2.54657         8.75685        -0.13672
| 34>    C        0.25464         9.60518        -0.09038
| 35>    C        1.43383         8.88371         0.17617
| 36>    C        1.08086         7.50345         0.46139
| 37>    C        1.93375         6.48223         0.77383
| 38>    C        1.47453         5.17386         1.02522
| 39>    N        1.10047         4.10768         1.22431
| 40>    C        3.32727         6.67224         0.86676
| 41>    N        4.46187         6.82424         0.94713
| 42>    C        2.58281         9.66521         0.09771
| 43>    C        2.30083        10.98261        -0.22837
| 44>    S        0.57081        11.24941        -0.43603
| 45>    C        3.21347        12.06315        -0.38802
| 46>    C        4.57849        11.89745        -0.31994
| 47>    C        5.51787        12.91629        -0.45478
| 48>    C        5.09698        14.27699        -0.81619
| 49>    C        3.81064        14.67077        -0.92856
| 50>    S        2.46914        13.63234        -0.66861
| 51>    C        6.30065        15.00934        -1.01256
| 52>    C        7.39564        14.17984        -0.78169
| 53>    C        8.62240        14.85660        -0.95823
| 54>    C        8.42955        16.15374        -1.31423
| 55>    S        6.76343        16.60748        -1.44427
| 56>    C        6.92879        12.86917        -0.40060
| 57>    C        7.80483        11.82280        -0.04525
| 58>    C        7.47960        10.67768         0.62364
| 59>    C        8.34680         9.61764         0.94001
| 60>    S        7.69903         8.30124         1.88855
| 61>    C        9.20270         7.41975         1.89915
| 62>    C       10.15304         8.13264         1.18670
| 63>    C        9.69188         9.36254         0.63696
| 64>    C       10.71220        10.01730        -0.08686
| 65>    C       11.88831         9.32458        -0.07704
| 66>    C       13.15214         9.68786        -0.71197
| 67>    O       14.15453         9.01862        -0.68318
| 68>    O       13.06729        10.87679        -1.34211
| 69>    C       14.25615        11.30415        -1.98976
| 70>    S       11.81774         7.82297         0.81444
| 71>    C        9.32413         6.17815         2.56338
| 72>    C       10.45594         5.38439         2.67369
| 73>    C       10.20497         4.22778         3.40902
| 74>    C        8.87989         4.13661         3.85987
| 75>    S        7.93514         5.47621         3.37824
| 76>    C        8.73790         2.92949         4.59689
| 77>    C        9.97033         2.26278         4.60984
| 78>    C       10.93406         3.04861         3.86738
| 79>    C       12.24792         2.75576         3.64158
| 80>    C       13.09649         3.60462         2.90080
| 81>    N       13.79842         4.28612         2.30253
| 82>    C       12.85039         1.58095         4.13668
| 83>    N       13.34727         0.62757         4.53678
| 84>    C        9.91806         1.05089         5.32658
| 85>    C        8.67501         0.82618         5.83194
| 86>    S        7.53241         2.07700         5.45388
| 87>    H       -8.80666         7.53176         1.41065
| 88>    H       -6.44808         7.02092         1.19866
| 89>    H       -9.64418         3.08270         0.66276
| 90>    H       -3.58361         1.93553         0.16598
| 91>    H       -4.99307        -0.25010        -0.01800
| 92>    H       -3.27567         4.46204         0.63994
| 93>    H       -4.74707         7.08330         0.06820
| 94>    H       -1.22439         5.46727         0.73251
| 95>    H        3.57420         9.29244         0.27578
| 96>    H        4.93379        10.88839        -0.18785
| 97>    H        3.53113        15.68071        -1.18339
| 98>    H        9.59542        14.41726        -0.83249
| 99>    H        9.17507        16.89826        -1.51462
|100>    H        8.84124        11.99183        -0.29792
|101>    H        6.47487        10.55424         1.00014
|102>    H       10.61235        10.94957        -0.60913
|103>    H       14.01978        12.25456        -2.46129
|104>    H       14.56637        10.57039        -2.73660
|105>    H       15.06201        11.42513        -1.26273
|106>    H       11.40189         5.64947         2.23910
|107>    H       10.74808         0.38208         5.46314
|108>    H        8.34276        -0.00878         6.41552
|109> *
|110>
|111>                          ****END OF INPUT****

CARTESIAN COORDINATES (ANGSTROEM)
---------------------------------
  C     -8.472180    6.536020    1.173570
  C     -7.162640    6.228110    1.035840
  C     -6.688830    4.934770    0.734520
  C     -7.640860    3.815070    0.651950
  C     -8.984170    3.931480    0.746630
  S     -9.789640    5.424470    1.002950
  C     -6.844640    2.652570    0.459830
  C     -5.500600    3.011240    0.421850
  C     -4.656050    1.896860    0.227900
  C     -5.368680    0.743700    0.128850
  S     -7.080880    0.960220    0.260920
  C     -5.388440    4.444430    0.568100
  C     -4.134600    5.108850    0.518620
  C     -3.916670    6.427440    0.283440
  C     -2.638410    7.039390    0.248110
  C     -1.383160    6.498950    0.479250
  C     -0.367110    7.443770    0.347930
  C     -0.844250    8.725880    0.014800
  S     -2.546570    8.756850   -0.136720
  C      0.254640    9.605180   -0.090380
  C      1.433830    8.883710    0.176170
  C      1.080860    7.503450    0.461390
  C      1.933750    6.482230    0.773830
  C      1.474530    5.173860    1.025220
  N      1.100470    4.107680    1.224310
  C      3.327270    6.672240    0.866760
  N      4.461870    6.824240    0.947130
  C      2.582810    9.665210    0.097710
  C      2.300830   10.982610   -0.228370
  S      0.570810   11.249410   -0.436030
  C      3.213470   12.063150   -0.388020
  C      4.578490   11.897450   -0.319940
  C      5.517870   12.916290   -0.454780
  C      5.096980   14.276990   -0.816190
  C      3.810640   14.670770   -0.928560
  S      2.469140   13.632340   -0.668610
  C      6.300650   15.009340   -1.012560
  C      7.395640   14.179840   -0.781690
  C      8.622400   14.856600   -0.958230
  C      8.429550   16.153740   -1.314230
  S      6.763430   16.607480   -1.444270
  C      6.928790   12.869170   -0.400600
  C      7.804830   11.822800   -0.045250
  C      7.479600   10.677680    0.623640
  C      8.346800    9.617640    0.940010
  S      7.699030    8.301240    1.888550
  C      9.202700    7.419750    1.899150
  C     10.153040    8.132640    1.186700
  C      9.691880    9.362540    0.636960
  C     10.712200   10.017300   -0.086860
  C     11.888310    9.324580   -0.077040
  C     13.152140    9.687860   -0.711970
  O     14.154530    9.018620   -0.683180
  O     13.067290   10.876790   -1.342110
  C     14.256150   11.304150   -1.989760
  S     11.817740    7.822970    0.814440
  C      9.324130    6.178150    2.563380
  C     10.455940    5.384390    2.673690
  C     10.204970    4.227780    3.409020
  C      8.879890    4.136610    3.859870
  S      7.935140    5.476210    3.378240
  C      8.737900    2.929490    4.596890
  C      9.970330    2.262780    4.609840
  C     10.934060    3.048610    3.867380
  C     12.247920    2.755760    3.641580
  C     13.096490    3.604620    2.900800
  N     13.798420    4.286120    2.302530
  C     12.850390    1.580950    4.136680
  N     13.347270    0.627570    4.536780
  C      9.918060    1.050890    5.326580
  C      8.675010    0.826180    5.831940
  S      7.532410    2.077000    5.453880
  H     -8.806660    7.531760    1.410650
  H     -6.448080    7.020920    1.198660
  H     -9.644180    3.082700    0.662760
  H     -3.583610    1.935530    0.165980
  H     -4.993070   -0.250100   -0.018000
  H     -3.275670    4.462040    0.639940
  H     -4.747070    7.083300    0.068200
  H     -1.224390    5.467270    0.732510
  H      3.574200    9.292440    0.275780
  H      4.933790   10.888390   -0.187850
  H      3.531130   15.680710   -1.183390
  H      9.595420   14.417260   -0.832490
  H      9.175070   16.898260   -1.514620
  H      8.841240   11.991830   -0.297920
  H      6.474870   10.554240    1.000140
  H     10.612350   10.949570   -0.609130
  H     14.019780   12.254560   -2.461290
  H     14.566370   10.570390   -2.736600
  H     15.062010   11.425130   -1.262730
  H     11.401890    5.649470    2.239100
  H     10.748080    0.382080    5.463140
  H      8.342760   -0.008780    6.415520

 Total Charge           Charge          ....    0
 Multiplicity           Mult            ....    1
 Number of Electrons    NEL             ....  562
 Basis Dimension        Dim             .... 1158

ORBITAL ENERGIES
----------------

  NO   OCC          E(Eh)            E(eV)
   0   2.0000     -88.987020     -2421.4599
   1   2.0000     -88.980926     -2421.2941
   2   2.0000     -88.977185     -2421.1923
   3   2.0000     -88.975719     -2421.1524
   4   2.0000     -88.973411     -2421.0896
   5   2.0000     -88.973262     -2421.0855
   6   2.0000     -88.959137     -2420.7012
   7   2.0000     -88.956372     -2420.6259
   8   2.0000     -88.953165     -2420.5387
   9   2.0000     -88.949904     -2420.4499
  10   2.0000     -19.253518      -523.9149
  11   2.0000     -19.197430      -522.3886
  12   2.0000     -14.429772      -392.6541
  13   2.0000     -14.428077      -392.6079
  14   2.0000     -14.415823      -392.2745
  15   2.0000     -14.413995      -392.2247
  16   2.0000     -10.396572      -282.9051
  17   2.0000     -10.361009      -281.9374
  18   2.0000     -10.349045      -281.6118
  19   2.0000     -10.348051      -281.5848
  20   2.0000     -10.335943      -281.2553
  21   2.0000     -10.330583      -281.1094
  22   2.0000     -10.328802      -281.0610
  23   2.0000     -10.328455      -281.0516
  24   2.0000     -10.327677      -281.0304
  25   2.0000     -10.327627      -281.0290
  26   2.0000     -10.325833      -280.9802
  27   2.0000     -10.324136      -280.9340
  28   2.0000     -10.321900      -280.8732
  29   2.0000     -10.316850      -280.7358
  30   2.0000     -10.316529      -280.7270
  31   2.0000     -10.315944      -280.7111
  32   2.0000     -10.315898      -280.7099
  33   2.0000     -10.314313      -280.6667
  34   2.0000     -10.313726      -280.6508
  35   2.0000     -10.313619      -280.6478
  36   2.0000     -10.312154      -280.6080
  37   2.0000     -10.308107      -280.4978
  38   2.0000     -10.307856      -280.4910
  39   2.0000     -10.300959      -280.3033
  40   2.0000     -10.299896      -280.2744
  41   2.0000     -10.298888      -280.2470
  42   2.0000     -10.298820      -280.2451
  43   2.0000     -10.297409      -280.2067
  44   2.0000     -10.297361      -280.2054
  45   2.0000     -10.297235      -280.2020
  46   2.0000     -10.297054      -280.1971
  47   2.0000     -10.296441      -280.1804
  48   2.0000     -10.295657      -280.1591
  49   2.0000     -10.295322      -280.1500
  50   2.0000     -10.293388      -280.0973
  51   2.0000     -10.290309      -280.0135
  52   2.0000     -10.286605      -279.9127
  53   2.0000     -10.286201      -279.9018
  54   2.0000     -10.285655      -279.8869
  55   2.0000     -10.285307      -279.8774
  56   2.0000     -10.284727      -279.8617
  57   2.0000     -10.283875      -279.8385
  58   2.0000     -10.283685      -279.8333
  59   2.0000     -10.283159      -279.8190
  60   2.0000     -10.282774      -279.8085
  61   2.0000     -10.281879      -279.7841
  62   2.0000     -10.281805      -279.7821
  63   2.0000     -10.281574      -279.7758
  64   2.0000     -10.279753      -279.7263
  65   2.0000     -10.278771      -279.6996
  66   2.0000     -10.275053      -279.5984
  67   2.0000     -10.274677      -279.5882
  68   2.0000     -10.272401      -279.5263
  69   2.0000     -10.272211      -279.5211
  70   2.0000     -10.271475      -279.5011
  71   2.0000     -10.269303      -279.4420
  72   2.0000      -8.081526      -219.9095
  73   2.0000      -8.075642      -219.7494
  74   2.0000      -8.072740      -219.6704
  75   2.0000      -8.071526      -219.6374
  76   2.0000      -8.068395      -219.5522
  77   2.0000      -8.067999      -219.5414
  78   2.0000      -8.054353      -219.1701
  79   2.0000      -8.051713      -219.0982
  80   2.0000      -8.048532      -219.0117
  81   2.0000      -8.044616      -218.9051
  82   2.0000      -6.050888      -164.6530
  83   2.0000      -6.046605      -164.5365
  84   2.0000      -6.044850      -164.4887
  85   2.0000      -6.043796      -164.4601
  86   2.0000      -6.042408      -164.4223
  87   2.0000      -6.041025      -164.3847
  88   2.0000      -6.040747      -164.3771
  89   2.0000      -6.038062      -164.3040
  90   2.0000      -6.037824      -164.2975
  91   2.0000      -6.037665      -164.2932
  92   2.0000      -6.037313      -164.2836
  93   2.0000      -6.036346      -164.2573
  94   2.0000      -6.034455      -164.2059
  95   2.0000      -6.033664      -164.1843
  96   2.0000      -6.033225      -164.1724
  97   2.0000      -6.033129      -164.1698
  98   2.0000      -6.030982      -164.1114
  99   2.0000      -6.030220      -164.0906
 100   2.0000      -6.023704      -163.9133
 101   2.0000      -6.021181      -163.8447
 102   2.0000      -6.019498      -163.7989
 103   2.0000      -6.017994      -163.7579
 104   2.0000      -6.016919      -163.7287
 105   2.0000      -6.016408      -163.7148
 106   2.0000      -6.014409      -163.6604
 107   2.0000      -6.013769      -163.6430
 108   2.0000      -6.013741      -163.6422
 109   2.0000      -6.010525      -163.5547
 110   2.0000      -6.010125      -163.5438
 111   2.0000      -6.005858      -163.4277
 112   2.0000      -1.183852       -32.2142
 113   2.0000      -1.090958       -29.6865
 114   2.0000      -1.039408       -28.2837
 115   2.0000      -1.027520       -27.9602
 116   2.0000      -1.019873       -27.7522
 117   2.0000      -1.007940       -27.4275
 118   2.0000      -1.006907       -27.3993
 119   2.0000      -1.006044       -27.3759
 120   2.0000      -1.003775       -27.3141
 121   2.0000      -1.002607       -27.2823
 122   2.0000      -0.993674       -27.0392
 123   2.0000      -0.992417       -27.0050
 124   2.0000      -0.977918       -26.6105
 125   2.0000      -0.970857       -26.4183
 126   2.0000      -0.966516       -26.3002
 127   2.0000      -0.952949       -25.9311
 128   2.0000      -0.947529       -25.7836
 129   2.0000      -0.939017       -25.5519
 130   2.0000      -0.927763       -25.2457
 131   2.0000      -0.924935       -25.1688
 132   2.0000      -0.912821       -24.8391
 133   2.0000      -0.901429       -24.5291
 134   2.0000      -0.892384       -24.2830
 135   2.0000      -0.884028       -24.0556
 136   2.0000      -0.880541       -23.9607
 137   2.0000      -0.872836       -23.7511
 138   2.0000      -0.860425       -23.4134
 139   2.0000      -0.854469       -23.2513
 140   2.0000      -0.850096       -23.1323
 141   2.0000      -0.846029       -23.0216
 142   2.0000      -0.843208       -22.9448
 143   2.0000      -0.839781       -22.8516
 144   2.0000      -0.835225       -22.7276
 145   2.0000      -0.834508       -22.7081
 146   2.0000      -0.816230       -22.2108
 147   2.0000      -0.810259       -22.0483
 148   2.0000      -0.802711       -21.8429
 149   2.0000      -0.796476       -21.6732
 150   2.0000      -0.791233       -21.5305
 151   2.0000      -0.785015       -21.3613
 152   2.0000      -0.773045       -21.0356
 153   2.0000      -0.767936       -20.8966
 154   2.0000      -0.760411       -20.6918
 155   2.0000      -0.751533       -20.4503
 156   2.0000      -0.737885       -20.0789
 157   2.0000      -0.729995       -19.8642
 158   2.0000      -0.718409       -19.5489
 159   2.0000      -0.710318       -19.3287
 160   2.0000      -0.709098       -19.2955
 161   2.0000      -0.696220       -18.9451
 162   2.0000      -0.691856       -18.8264
 163   2.0000      -0.687277       -18.7018
 164   2.0000      -0.680526       -18.5180
 165   2.0000      -0.677879       -18.4460
 166   2.0000      -0.665195       -18.1009
 167   2.0000      -0.662094       -18.0165
 168   2.0000      -0.654399       -17.8071
 169   2.0000      -0.647973       -17.6322
 170   2.0000      -0.643911       -17.5217
 171   2.0000      -0.642046       -17.4710
 172   2.0000      -0.630818       -17.1654
 173   2.0000      -0.629673       -17.1343
 174   2.0000      -0.627949       -17.0874
 175   2.0000      -0.625405       -17.0181
 176   2.0000      -0.622287       -16.9333
 177   2.0000      -0.612731       -16.6733
 178   2.0000      -0.610664       -16.6170
 179   2.0000      -0.608455       -16.5569
 180   2.0000      -0.599793       -16.3212
 181   2.0000      -0.592552       -16.1242
 182   2.0000      -0.591731       -16.1018
 183   2.0000      -0.585469       -15.9314
 184   2.0000      -0.579539       -15.7701
 185   2.0000      -0.574625       -15.6363
 186   2.0000      -0.573546       -15.6070
 187   2.0000      -0.564440       -15.3592
 188   2.0000      -0.561442       -15.2776
 189   2.0000      -0.560143       -15.2423
 190   2.0000      -0.558314       -15.1925
 191   2.0000      -0.552284       -15.0284
 192   2.0000      -0.545938       -14.8557
 193   2.0000      -0.544674       -14.8213
 194   2.0000      -0.542784       -14.7699
 195   2.0000      -0.541904       -14.7460
 196   2.0000      -0.533745       -14.5239
 197   2.0000      -0.530384       -14.4325
 198   2.0000      -0.527385       -14.3509
 199   2.0000      -0.520302       -14.1581
 200   2.0000      -0.516762       -14.0618
 201   2.0000      -0.513787       -13.9808
 202   2.0000      -0.512823       -13.9546
 203   2.0000      -0.507427       -13.8078
 204   2.0000      -0.506998       -13.7961
 205   2.0000      -0.506661       -13.7869
 206   2.0000      -0.503785       -13.7087
 207   2.0000      -0.501159       -13.6372
 208   2.0000      -0.500430       -13.6174
 209   2.0000      -0.494784       -13.4638
 210   2.0000      -0.493788       -13.4367
 211   2.0000      -0.489420       -13.3178
 212   2.0000      -0.487939       -13.2775
 213   2.0000      -0.487410       -13.2631
 214   2.0000      -0.486211       -13.2305
 215   2.0000      -0.483870       -13.1668
 216   2.0000      -0.478928       -13.0323
 217   2.0000      -0.476998       -12.9798
 218   2.0000      -0.471252       -12.8234
 219   2.0000      -0.470106       -12.7922
 220   2.0000      -0.465074       -12.6553
 221   2.0000      -0.463043       -12.6001
 222   2.0000      -0.461528       -12.5588
 223   2.0000      -0.461008       -12.5447
 224   2.0000      -0.459436       -12.5019
 225   2.0000      -0.458700       -12.4819
 226   2.0000      -0.457894       -12.4599
 227   2.0000      -0.456041       -12.4095
 228   2.0000      -0.454061       -12.3556
 229   2.0000      -0.451404       -12.2833
 230   2.0000      -0.446880       -12.1602
 231   2.0000      -0.446815       -12.1584
 232   2.0000      -0.442910       -12.0522
 233   2.0000      -0.442127       -12.0309
 234   2.0000      -0.440168       -11.9776
 235   2.0000      -0.439588       -11.9618
 236   2.0000      -0.438507       -11.9324
 237   2.0000      -0.437845       -11.9144
 238   2.0000      -0.435830       -11.8595
 239   2.0000      -0.431394       -11.7388
 240   2.0000      -0.429855       -11.6969
 241   2.0000      -0.428432       -11.6582
 242   2.0000      -0.428147       -11.6505
 243   2.0000      -0.426841       -11.6149
 244   2.0000      -0.425477       -11.5778
 245   2.0000      -0.425129       -11.5684
 246   2.0000      -0.423536       -11.5250
 247   2.0000      -0.422482       -11.4963
 248   2.0000      -0.419507       -11.4154
 249   2.0000      -0.419045       -11.4028
 250   2.0000      -0.416436       -11.3318
 251   2.0000      -0.412557       -11.2263
 252   2.0000      -0.411107       -11.1868
 253   2.0000      -0.410498       -11.1702
 254   2.0000      -0.407318       -11.0837
 255   2.0000      -0.407046       -11.0763
 256   2.0000      -0.403509       -10.9800
 257   2.0000      -0.399529       -10.8717
 258   2.0000      -0.394045       -10.7225
 259   2.0000      -0.383365       -10.4319
 260   2.0000      -0.382874       -10.4185
 261   2.0000      -0.376843       -10.2544
 262   2.0000      -0.372213       -10.1284
 263   2.0000      -0.355681        -9.6786
 264   2.0000      -0.351021        -9.5518
 265   2.0000      -0.345095        -9.3905
 266   2.0000      -0.342426        -9.3179
 267   2.0000      -0.338699        -9.2165
 268   2.0000      -0.332224        -9.0403
 269   2.0000      -0.325031        -8.8445
 270   2.0000      -0.323647        -8.8069
 271   2.0000      -0.318376        -8.6635
 272   2.0000      -0.306979        -8.3533
 273   2.0000      -0.303728        -8.2649
 274   2.0000      -0.290359        -7.9011
 275   2.0000      -0.289179        -7.8690
 276   2.0000      -0.279268        -7.5993
 277   2.0000      -0.271368        -7.3843
 278   2.0000      -0.251006        -6.8302
 279   2.0000      -0.227784        -6.1983
 280   2.0000      -0.206401        -5.6165
 281   0.0000      -0.103190        -2.8079
 282   0.0000      -0.088585        -2.4105
 283   0.0000      -0.070746        -1.9251
 284   0.0000      -0.054209        -1.4751
 285   0.0000      -0.031545        -0.8584

MULLIKEN ATOMIC CHARGES
-----------------------
   0 C :   -0.104408
   1 C :    0.031885
   2 C :    0.011839
   3 C :    0.064906
   4 C :   -0.148216
   5 S :    0.129687
   6 C :   -0.111975
   7 C :    0.049058
   8 C :    0.002559
   9 C :   -0.068621
  10 S :    0.123429
  11 C :    0.075837
  12 C :   -0.016396
  13 C :    0.024402
  14 C :   -0.076206
  15 C :   -0.037132
  16 C :    0.003742
  17 C :   -0.112431
  18 S :    0.172437
  19 C :   -0.095514
  20 C :    0.005807
  21 C :    0.308863
  22 C :   -0.302415
  23 C :   -0.182123
  24 N :    0.166302
  25 C :   -0.183911
  26 N :    0.160892
  27 C :   -0.047476
  28 C :   -0.061866
  29 S :    0.175818
  30 C :   -0.030518
  31 C :   -0.075650
  32 C :    0.048407
  33 C :    0.063954
  34 C :   -0.130359
  35 S :    0.116027
  36 C :   -0.109826
  37 C :    0.050828
  38 C :    0.006198
  39 C :   -0.067215
  40 S :    0.126941
  41 C :    0.083415
  42 C :   -0.024368
  43 C :    0.044801
  44 C :   -0.113227
  45 S :    0.165621
  46 C :   -0.126509
  47 C :   -0.049479
  48 C :    0.125718
  49 C :   -0.007016
  50 C :   -0.138479
  51 C :    0.207609
  52 O :   -0.194794
  53 O :   -0.312325
  54 C :    0.191991
  55 S :    0.161983
  56 C :   -0.063875
  57 C :   -0.066056
  58 C :    0.008467
  59 C :   -0.107111
  60 S :    0.186677
  61 C :   -0.116405
  62 C :   -0.034982
  63 C :    0.303762
  64 C :   -0.303728
  65 C :   -0.188672
  66 N :    0.175008
  67 C :   -0.192619
  68 N :    0.170697
  69 C :    0.034433
  70 C :   -0.086278
  71 S :    0.174302
  72 H :    0.043340
  73 H :   -0.013830
  74 H :    0.036015
  75 H :   -0.011739
  76 H :    0.026116
  77 H :   -0.016794
  78 H :   -0.027895
  79 H :    0.003653
  80 H :    0.003427
  81 H :   -0.018796
  82 H :    0.034925
  83 H :   -0.016142
  84 H :    0.026588
  85 H :   -0.050118
  86 H :   -0.029726
  87 H :   -0.002004
  88 H :    0.029429
  89 H :    0.034565
  90 H :    0.033654
  91 H :    0.008003
  92 H :    0.009643
  93 H :    0.031564
Sum of atomic charges:   -0.0000000

LOEWDIN ATOMIC CHARGES
----------------------
   0 C :   -0.184615
   1 C :   -0.030213
   2 C :   -0.021777
   3 C :   -0.042940
   4 C :   -0.145333
   5 S :    0.453412
   6 C :   -0.209023
   7 C :   -0.038961
   8 C :   -0.065109
   9 C :   -0.165142
  10 S :    0.417101
  11 C :   -0.059230
  12 C :    0.000003
  13 C :   -0.068575
  14 C :   -0.152133
  15 C :   -0.037775
  16 C :   -0.066677
  17 C :   -0.195305
  18 S :    0.463292
  19 C :   -0.177418
  20 C :   -0.075204
  21 C :    0.087375
  22 C :   -0.107618
  23 C :   -0.015228
  24 N :   -0.038121
  25 C :   -0.013598
  26 N :   -0.042165
  27 C :   -0.028116
  28 C :   -0.187014
  29 S :    0.459524
  30 C :   -0.184126
  31 C :   -0.020815
  32 C :   -0.022292
  33 C :   -0.043670
  34 C :   -0.144488
  35 S :    0.431719
  36 C :   -0.205172
  37 C :   -0.038293
  38 C :   -0.064312
  39 C :   -0.164745
  40 S :    0.420388
  41 C :   -0.049232
  42 C :   -0.014904
  43 C :   -0.058209
  44 C :   -0.155294
  45 S :    0.462213
  46 C :   -0.221259
  47 C :   -0.179049
  48 C :   -0.081070
  49 C :   -0.016224
  50 C :   -0.202414
  51 C :    0.065861
  52 O :   -0.171934
  53 O :   -0.101736
  54 C :    0.081086
  55 S :    0.444794
  56 C :   -0.176879
  57 C :   -0.040988
  58 C :   -0.066479
  59 C :   -0.190893
  60 S :    0.469041
  61 C :   -0.178431
  62 C :   -0.083177
  63 C :    0.084750
  64 C :   -0.106286
  65 C :   -0.019338
  66 N :   -0.031565
  67 C :   -0.015736
  68 N :   -0.039067
  69 C :   -0.034806
  70 C :   -0.184204
  71 S :    0.470512
  72 H :    0.030640
  73 H :    0.036890
  74 H :    0.035217
  75 H :    0.031397
  76 H :    0.023242
  77 H :    0.031167
  78 H :    0.022091
  79 H :    0.037228
  80 H :    0.037187
  81 H :    0.036725
  82 H :    0.036034
  83 H :    0.030186
  84 H :    0.023366
  85 H :    0.027361
  86 H :    0.023680
  87 H :    0.032656
  88 H :    0.023979
  89 H :    0.024122
  90 H :    0.023791
  91 H :    0.029477
  92 H :    0.041426
  93 H :    0.025447

  Mayer bond orders larger than 0.100000
B(  0-C ,  1-C ) :   1.6541 B(  0-C ,  5-S ) :   1.1039 B(  0-C , 72-H ) :   0.9404
B(  1-C ,  2-C ) :   1.1989 B(  1-C , 73-H ) :   0.9692 B(  2-C ,  3-C ) :   1.0584
B(  2-C , 11-C ) :   1.4326 B(  3-C ,  4-C ) :   1.6012 B(  3-C ,  6-C ) :   1.1832
B(  4-C ,  5-S ) :   1.1420 B(  4-C , 74-H ) :   0.9428 B(  6-C ,  7-C ) :   1.4543
B(  6-C , 10-S ) :   1.0695 B(  7-C ,  8-C ) :   1.2204 B(  7-C , 11-C ) :   1.0947
B(  8-C ,  9-C ) :   1.5832 B(  8-C , 75-H ) :   0.9988 B(  9-C , 10-S ) :   1.1575
B(  9-C , 76-H ) :   0.9663 B( 11-C , 12-C ) :   1.1518 B( 12-C , 13-C ) :   1.6563
B( 12-C , 77-H ) :   0.9618 B( 13-C , 14-C ) :   1.1235 B( 13-C , 78-H ) :   0.9576
B( 14-C , 15-C ) :   1.4521 B( 14-C , 18-S ) :   1.1058 B( 15-C , 16-C ) :   1.3020
B( 15-C , 79-H ) :   0.9888 B( 16-C , 17-C ) :   1.4311 B( 16-C , 21-C ) :   1.0002
B( 17-C , 18-S ) :   1.1076 B( 17-C , 19-C ) :   1.2093 B( 19-C , 20-C ) :   1.4300
B( 19-C , 29-S ) :   1.1197 B( 20-C , 21-C ) :   1.0027 B( 20-C , 27-C ) :   1.3021
B( 21-C , 22-C ) :   1.7015 B( 22-C , 23-C ) :   1.1350 B( 22-C , 25-C ) :   1.1332
B( 23-C , 24-N ) :   2.9872 B( 25-C , 26-N ) :   2.9856 B( 27-C , 28-C ) :   1.4805
B( 27-C , 80-H ) :   0.9844 B( 28-C , 29-S ) :   1.0912 B( 28-C , 30-C ) :   1.1265
B( 30-C , 31-C ) :   1.5513 B( 30-C , 35-S ) :   1.0380 B( 31-C , 32-C ) :   1.2367
B( 31-C , 81-H ) :   0.9654 B( 32-C , 33-C ) :   1.0527 B( 32-C , 41-C ) :   1.3631
B( 33-C , 34-C ) :   1.6218 B( 33-C , 36-C ) :   1.1709 B( 34-C , 35-S ) :   1.1269
B( 34-C , 82-H ) :   0.9402 B( 36-C , 37-C ) :   1.4495 B( 36-C , 40-S ) :   1.0739
B( 37-C , 38-C ) :   1.2212 B( 37-C , 41-C ) :   1.0905 B( 38-C , 39-C ) :   1.5835
B( 38-C , 83-H ) :   0.9982 B( 39-C , 40-S ) :   1.1554 B( 39-C , 84-H ) :   0.9660
B( 41-C , 42-C ) :   1.1991 B( 42-C , 43-C ) :   1.5819 B( 42-C , 85-H ) :   0.9586
B( 43-C , 44-C ) :   1.1882 B( 43-C , 86-H ) :   0.9439 B( 44-C , 45-S ) :   1.1346
B( 44-C , 46-C ) :   0.1125 B( 44-C , 48-C ) :   1.3402 B( 45-S , 46-C ) :   1.1231
B( 46-C , 47-C ) :   1.5181 B( 46-C , 56-C ) :   1.1633 B( 47-C , 48-C ) :   1.2549
B( 47-C , 55-S ) :   1.0610 B( 48-C , 49-C ) :   1.1378 B( 49-C , 50-C ) :   1.6107
B( 49-C , 87-H ) :   0.9966 B( 50-C , 51-C ) :   0.9671 B( 50-C , 55-S ) :   1.0679
B( 51-C , 52-O ) :   2.1455 B( 51-C , 53-O ) :   1.2178 B( 53-O , 54-C ) :   0.9257
B( 54-C , 88-H ) :   0.9808 B( 54-C , 89-H ) :   0.9756 B( 54-C , 90-H ) :   0.9765
B( 56-C , 57-C ) :   1.4681 B( 56-C , 60-S ) :   1.1028 B( 57-C , 58-C ) :   1.3063
B( 57-C , 91-H ) :   0.9825 B( 58-C , 59-C ) :   1.4599 B( 58-C , 63-C ) :   0.9881
B( 59-C , 60-S ) :   1.1127 B( 59-C , 61-C ) :   1.1898 B( 61-C , 62-C ) :   1.4535
B( 61-C , 71-S ) :   1.1383 B( 62-C , 63-C ) :   1.0197 B( 62-C , 69-C ) :   1.2731
B( 63-C , 64-C ) :   1.7062 B( 64-C , 65-C ) :   1.1341 B( 64-C , 67-C ) :   1.1322
B( 65-C , 66-N ) :   2.9898 B( 67-C , 68-N ) :   3.0030 B( 69-C , 70-C ) :   1.5540
B( 69-C , 92-H ) :   0.9954 B( 70-C , 71-S ) :   1.1401 B( 70-C , 93-H ) :   0.9643

-----------------------------------------------------------------------------
         ABSORPTION SPECTRUM VIA TRANSITION ELECTRIC DIPOLE MOMENTS
-----------------------------------------------------------------------------
State   Energy  Wavelength   fosc         T2         TX        TY        TZ
        (cm-1)    (nm)                  (au**2)     (au)      (au)      (au)
-----------------------------------------------------------------------------
   0    7656.8   1306.0   0.188042447   8.08504   2.76195   0.65333   0.17273
   1   10801.4    925.8   0.176825550   5.38938  -0.88677   1.88097  -1.03197
   2   12585.2    794.6   0.025644944   0.67084   0.10487  -0.76742   0.26629
   3   14814.1    675.0   0.810360661  18.00853   4.13037  -0.73952   0.63377
   4   18788.7    532.2   0.027168050   0.47603  -0.68283   0.09155  -0.03734
   5   19398.9    515.5   0.048680761   0.82614  -0.34340  -0.79906   0.26404
   6   20181.4    495.5   0.213919250   3.48959  -1.80820  -0.45902   0.09639
   7   20728.5    482.4   0.717820332  11.40047   1.86998   2.64050  -0.96511
   8   22098.3    452.5   0.062121781   0.92546  -0.05897  -0.94372   0.17716
   9   22481.3    444.8   0.016112851   0.23595   0.02903   0.46184  -0.14769
  10   22945.1    435.8   0.522138327   7.49154  -0.24582  -2.66569   0.57027
  11   23680.1    422.3   0.193783787   2.69407   0.43542   1.55085  -0.31519
  12   25355.3    394.4   0.057422533   0.74557  -0.77064   0.26403  -0.28631
  13   25992.2    384.7   0.038142287   0.48310  -0.68916   0.00760  -0.09003
  14   26165.9    382.2   0.182009630   2.28999   1.49695   0.20680   0.07981
  15   26887.2    371.9   0.092060688   1.12721  -0.93127  -0.50615   0.06125
  16   27316.6    366.1   0.181454185   2.18683  -1.45078  -0.21820   0.18565
  17   28035.7    356.7   0.021144393   0.24829  -0.49635   0.04170   0.01383
  18   28386.7    352.3   0.455546488   5.28316   0.10276  -2.01454   1.10191
  19   28968.6    345.2   0.031021165   0.35254   0.22779   0.54002  -0.09501
  20   29571.4    338.2   0.048791319   0.54318   0.01291   0.71947   0.15932
  21   30160.5    331.6   0.226925351   2.47696   1.20662   0.99602  -0.17021
  22   30872.5    323.9   0.372555996   3.97279  -1.13705   1.54792  -0.53278
  23   30931.9    323.3   0.348147815   3.70538   1.59930  -1.04837   0.22032
  24   31375.2    318.7   0.264077197   2.77089   1.52637  -0.65827   0.08821
  25   31530.6    317.2   0.027499095   0.28712   0.46036  -0.27195  -0.03502
  26   31806.9    314.4   0.024793148   0.25662   0.46155   0.14063  -0.15432
  27   31979.6    312.7   0.400987586   4.12794  -1.81927  -0.31322   0.84858
  28   32138.7    311.2   0.141588623   1.45036  -1.15838  -0.00531   0.32937
  29   32356.4    309.1   0.007677658   0.07812  -0.14535  -0.20347   0.12487
  30   32603.2    306.7   0.023511758   0.23741   0.23090   0.38962  -0.17970
  31   32618.8    306.6   0.308486443   3.11346   0.90874   1.44681  -0.44090
  32   32906.6    303.9   0.003910175   0.03912   0.11328  -0.04685   0.15522
  33   33417.0    299.2   0.051113756   0.50355  -0.55332   0.43957  -0.06459
  34   33606.6    297.6   0.046614739   0.45664  -0.44334  -0.45763   0.22508
  35   33675.5    297.0   0.119653028   1.16973   0.34250   0.82094  -0.61521
  36   33944.5    294.6   0.044737013   0.43388  -0.57651  -0.28849  -0.13525
  37   34525.5    289.6   0.087440059   0.83377   0.55531   0.71264  -0.13245
  38   34564.7    289.3   0.097789047   0.93139   0.32040   0.91027  -0.01214
  39   34638.9    288.7   0.029856462   0.28376   0.28505   0.44751  -0.04739
  40   34884.8    286.7   0.015002568   0.14158  -0.33094   0.17890  -0.00734
  41   35241.9    283.8   0.019276235   0.18007  -0.15160  -0.38450   0.09615
  42   35544.8    281.3   0.028164186   0.26085  -0.48216  -0.10691   0.13018
  43   35960.9    278.1   0.018630488   0.17056  -0.16274  -0.36522   0.10338
  44   36085.2    277.1   0.167473579   1.52789   0.85619   0.54996  -0.70169
  45   36441.8    274.4   0.036404102   0.32887   0.38312   0.39019  -0.17276
  46   36916.7    270.9   0.025385982   0.22638   0.43453   0.17741  -0.07805
  47   37070.7    269.8   0.103950524   0.92315   0.12299  -0.94154   0.14670
  48   37263.6    268.4   0.039898805   0.35249   0.24224   0.53272  -0.10009
  49   37345.1    267.8   0.071425683   0.62965  -0.43740  -0.61407   0.24748
  50   37567.1    266.2   0.062780137   0.55016  -0.70246  -0.20643   0.11871
  51   38098.0    262.5   0.035707355   0.30855  -0.30421  -0.17783   0.42941
  52   38164.7    262.0   0.083131149   0.71710  -0.09651  -0.76599   0.34791
  53   38359.6    260.7   0.025051027   0.21499   0.45048  -0.01507   0.10878
  54   38668.6    258.6   0.067746185   0.57677  -0.54827  -0.47151   0.23205
  55   38771.5    257.9   0.084238454   0.71528   0.83798   0.11251  -0.02014
  56   38928.0    256.9   0.012536655   0.10602  -0.29768   0.12518   0.04173
  57   39208.1    255.0   0.027275003   0.22902  -0.31115  -0.36203   0.03372
  58   39549.0    252.9   0.147079261   1.22431  -1.09312  -0.16152   0.05747
  59   39871.2    250.8   0.006928076   0.05720  -0.17789   0.15931  -0.01338
  60   40033.6    249.8   0.001693095   0.01392   0.08939   0.01767  -0.07497

FINAL SINGLE POINT ENERGY     -6493.979378498044

DIPOLE MOMENT
-------------
                                X             Y             Z
Electronic contribution:     -5.35119      -7.70622      10.92381
Nuclear contribution   :     -0.01461      10.50185     -11.46268
                        -----------------------------------------
Total Dipole Moment    :     -5.36579       2.79563      -0.53887
                        -----------------------------------------
Magnitude (a.u.)       :      6.07434
Magnitude (Debye)      :     15.43975

Rotational constants in cm-1:     0.000747     0.000309     0.000224
Rotational constants in MHz :    22.392364     9.267615     6.725166

                             ****ORCA TERMINATED NORMALLY****
TOTAL RUN TIME: 0 days 0 hours 8 minutes 51 seconds 922 msec
