                         Program Version 4.2.0 -  RELEASE  -
|  1> # ORCA input file
|  2> # SCF done       -184.986227878299          0.000719461895
|  3> ! CAM-B3LYP def2-SVP def2/J RIJCOSX Grid4 TightSCF
|  4> %maxcore 5000
|  5> %tddft
|  6>     Mode sTDDFT
|  7>     Ethresh 5.0
|  8>     maxcore 5000
|  9> end
| 10>
| 11> %pal
| 12>   nprocs 6
| 13>   end
| 14> * xyz 0 1
| 15>    C       10.86162        -9.44153        -3.58046
| 16>    S        9.65500       -10.02111        -2.51370
| 17>    C        8.93699        -8.43679        -2.34404
| 18>    C        9.63168        -7.52799        -3.12456
| 19>    C       10.72797        -8.10364        -3.81092
| 20>    S       11.72216        -7.03916        -4.76806
| 21>    C       10.83302        -5.56489        -4.38054
| 22>    O       11.14914        -4.47760        -4.75677
| 23>    S        9.37960        -5.83165        -3.38116
| 24>    C        7.86834        -8.23690        -1.43754
| 25>    C        7.34804        -7.02095        -1.13400
| 26>    C        6.37809        -6.82470        -0.12231
| 27>    N        5.76447        -7.82715         0.49530
| 28>    C        4.98262        -7.25812         1.42980
| 29>    C        5.11852        -5.79257         1.42895
| 30>    C        4.29430        -5.20268         2.49303
| 31>    O        4.20441        -4.03684         2.82408
| 32>    C        3.63217        -6.37877         3.08269
| 33>    C        4.08577        -7.61209         2.41260
| 34>    N        3.48586        -8.69927         2.95336
| 35>    C        2.70089        -8.22546         3.89278
| 36>    C        2.74311        -6.78579         4.02727
| 37>    C        5.99939        -5.49517         0.41773
| 38>    C        6.53655        -4.25456        -0.02162
| 39>    C        6.27110        -3.08183         0.59615
| 40>    C        6.86065        -1.80839         0.28299
| 41>    C        7.61511        -1.57513        -0.84998
| 42>    C        8.19263        -0.31232        -1.06301
| 43>    C        8.96011         0.17443        -2.12003
| 44>    C        9.42717        -0.58002        -3.31354
| 45>    C        8.94735         0.07440        -4.62784
| 46>    N        8.73148        -0.96092        -5.61590
| 47>    C       10.96441        -0.73036        -3.28690
| 48>    N       11.43338        -1.39975        -4.48355
| 49>    C        9.30917         1.53376        -1.78835
| 50>    C       10.01916         2.47226        -2.44831
| 51>    C       10.46232         3.70484        -1.75253
| 52>    C        9.72610         4.02264        -0.48896
| 53>    C        8.92957         3.11280         0.11467
| 54>    C        8.72856         1.84630        -0.47093
| 55>    C        8.02243         0.72773        -0.06112
| 56>    C        7.23206         0.47288         1.08048
| 57>    C        6.66175        -0.75020         1.23043
| 58>    C       11.85052         3.44820        -1.19290
| 59>    C       12.24434         2.24047        -0.75472
| 60>    C       13.54491         1.93879        -0.27051
| 61>    N       14.55674         2.79785        -0.28150
| 62>    C       15.64321         2.09107         0.07452
| 63>    C       15.30701         0.67492         0.30413
| 64>    C       16.50555        -0.09368         0.68552
| 65>    O       16.59059        -1.27446         0.94189
| 66>    C       17.55769         0.93773         0.67223
| 67>    C       16.99251         2.25029         0.29591
| 68>    N       17.95305         3.20337         0.29881
| 69>    C       19.05401         2.57900         0.65117
| 70>    C       18.87783         1.16727         0.90393
| 71>    C       13.95559         0.57237         0.12744
| 72>    C       13.11493        -0.57692         0.28285
| 73>    C       11.87180        -0.54305         0.80524
| 74>    C       11.04597        -1.68812         1.01557
| 75>    S        9.77438        -1.62664         2.20383
| 76>    C        9.34242        -3.29551         1.97419
| 77>    C       10.13631        -3.84484         0.99176
| 78>    C       11.09214        -2.94880         0.45865
| 79>    S       12.12070        -3.55703        -0.81296
| 80>    C       11.43256        -5.18450        -0.85248
| 81>    O       11.80448        -6.03459        -1.60889
| 82>    S       10.11971        -5.45286         0.31418
| 83>    C        8.32534        -3.87725         2.80474
| 84>    C        8.01157        -5.16990         2.86035
| 85>    H       11.60564       -10.10286        -3.97439
| 86>    H        7.48867        -9.10477        -0.91721
| 87>    H        7.71950        -6.14078        -1.63605
| 88>    H        2.09887        -8.89306         4.48446
| 89>    H        2.17893        -6.20754         4.73223
| 90>    H        7.21862        -4.28775        -0.85913
| 91>    H        5.59143        -3.09170         1.43805
| 92>    H        7.74873        -2.34704        -1.59247
| 93>    H        8.99049        -1.58299        -3.29804
| 94>    H        9.68127         0.83170        -4.94434
| 95>    H        7.99100         0.57826        -4.45039
| 96>    H        9.61863        -1.41614        -5.80920
| 97>    H        8.37683        -0.56563        -6.47947
| 98>    H       11.24329        -1.24751        -2.34949
| 99>    H       11.42526         0.26153        -3.25841
|100>    H       11.17210        -2.38114        -4.47644
|101>    H       12.44530        -1.36265        -4.53446
|102>    H       10.40150         2.31470        -3.44528
|103>    H       10.49732         4.56126        -2.43043
|104>    H        9.91941         4.98659        -0.04658
|105>    H        8.43423         3.34741         1.04551
|106>    H        7.08393         1.25104         1.81400
|107>    H        6.04355        -0.96224         2.09004
|108>    H       12.51581         4.29382        -1.10826
|109>    H       11.57101         1.39757        -0.81665
|110>    H       19.98202         3.11887         0.72719
|111>    H       19.64872         0.48537         1.20421
|112>    H       13.57085        -1.52606         0.03166
|113>    H       11.46751         0.38507         1.18773
|114>    H        7.81606        -3.17071         3.44553
|115>    H        8.49918        -5.91290         2.25220
|116>    H        7.24984        -5.52441         3.53111
|117> *
|118>
|119>                          ****END OF INPUT****

CARTESIAN COORDINATES (ANGSTROEM)
---------------------------------
  C     10.861620   -9.441530   -3.580460
  S      9.655000  -10.021110   -2.513700
  C      8.936990   -8.436790   -2.344040
  C      9.631680   -7.527990   -3.124560
  C     10.727970   -8.103640   -3.810920
  S     11.722160   -7.039160   -4.768060
  C     10.833020   -5.564890   -4.380540
  O     11.149140   -4.477600   -4.756770
  S      9.379600   -5.831650   -3.381160
  C      7.868340   -8.236900   -1.437540
  C      7.348040   -7.020950   -1.134000
  C      6.378090   -6.824700   -0.122310
  N      5.764470   -7.827150    0.495300
  C      4.982620   -7.258120    1.429800
  C      5.118520   -5.792570    1.428950
  C      4.294300   -5.202680    2.493030
  O      4.204410   -4.036840    2.824080
  C      3.632170   -6.378770    3.082690
  C      4.085770   -7.612090    2.412600
  N      3.485860   -8.699270    2.953360
  C      2.700890   -8.225460    3.892780
  C      2.743110   -6.785790    4.027270
  C      5.999390   -5.495170    0.417730
  C      6.536550   -4.254560   -0.021620
  C      6.271100   -3.081830    0.596150
  C      6.860650   -1.808390    0.282990
  C      7.615110   -1.575130   -0.849980
  C      8.192630   -0.312320   -1.063010
  C      8.960110    0.174430   -2.120030
  C      9.427170   -0.580020   -3.313540
  C      8.947350    0.074400   -4.627840
  N      8.731480   -0.960920   -5.615900
  C     10.964410   -0.730360   -3.286900
  N     11.433380   -1.399750   -4.483550
  C      9.309170    1.533760   -1.788350
  C     10.019160    2.472260   -2.448310
  C     10.462320    3.704840   -1.752530
  C      9.726100    4.022640   -0.488960
  C      8.929570    3.112800    0.114670
  C      8.728560    1.846300   -0.470930
  C      8.022430    0.727730   -0.061120
  C      7.232060    0.472880    1.080480
  C      6.661750   -0.750200    1.230430
  C     11.850520    3.448200   -1.192900
  C     12.244340    2.240470   -0.754720
  C     13.544910    1.938790   -0.270510
  N     14.556740    2.797850   -0.281500
  C     15.643210    2.091070    0.074520
  C     15.307010    0.674920    0.304130
  C     16.505550   -0.093680    0.685520
  O     16.590590   -1.274460    0.941890
  C     17.557690    0.937730    0.672230
  C     16.992510    2.250290    0.295910
  N     17.953050    3.203370    0.298810
  C     19.054010    2.579000    0.651170
  C     18.877830    1.167270    0.903930
  C     13.955590    0.572370    0.127440
  C     13.114930   -0.576920    0.282850
  C     11.871800   -0.543050    0.805240
  C     11.045970   -1.688120    1.015570
  S      9.774380   -1.626640    2.203830
  C      9.342420   -3.295510    1.974190
  C     10.136310   -3.844840    0.991760
  C     11.092140   -2.948800    0.458650
  S     12.120700   -3.557030   -0.812960
  C     11.432560   -5.184500   -0.852480
  O     11.804480   -6.034590   -1.608890
  S     10.119710   -5.452860    0.314180
  C      8.325340   -3.877250    2.804740
  C      8.011570   -5.169900    2.860350
  H     11.605640  -10.102860   -3.974390
  H      7.488670   -9.104770   -0.917210
  H      7.719500   -6.140780   -1.636050
  H      2.098870   -8.893060    4.484460
  H      2.178930   -6.207540    4.732230
  H      7.218620   -4.287750   -0.859130
  H      5.591430   -3.091700    1.438050
  H      7.748730   -2.347040   -1.592470
  H      8.990490   -1.582990   -3.298040
  H      9.681270    0.831700   -4.944340
  H      7.991000    0.578260   -4.450390
  H      9.618630   -1.416140   -5.809200
  H      8.376830   -0.565630   -6.479470
  H     11.243290   -1.247510   -2.349490
  H     11.425260    0.261530   -3.258410
  H     11.172100   -2.381140   -4.476440
  H     12.445300   -1.362650   -4.534460
  H     10.401500    2.314700   -3.445280
  H     10.497320    4.561260   -2.430430
  H      9.919410    4.986590   -0.046580
  H      8.434230    3.347410    1.045510
  H      7.083930    1.251040    1.814000
  H      6.043550   -0.962240    2.090040
  H     12.515810    4.293820   -1.108260
  H     11.571010    1.397570   -0.816650
  H     19.982020    3.118870    0.727190
  H     19.648720    0.485370    1.204210
  H     13.570850   -1.526060    0.031660
  H     11.467510    0.385070    1.187730
  H      7.816060   -3.170710    3.445530
  H      8.499180   -5.912900    2.252200
  H      7.249840   -5.524410    3.531110

 Total Charge           Charge          ....    0
 Multiplicity           Mult            ....    1
 Number of Electrons    NEL             ....  526
 Basis Dimension        Dim             .... 1164

ORBITAL ENERGIES
----------------

  NO   OCC          E(Eh)            E(eV)
   0   2.0000     -88.982887     -2421.3474
   1   2.0000     -88.977950     -2421.2131
   2   2.0000     -88.973942     -2421.1040
   3   2.0000     -88.973045     -2421.0796
   4   2.0000     -88.972827     -2421.0737
   5   2.0000     -88.970082     -2420.9990
   6   2.0000     -19.244479      -523.6689
   7   2.0000     -19.238034      -523.4935
   8   2.0000     -19.205030      -522.5954
   9   2.0000     -19.201460      -522.4983
  10   2.0000     -14.402157      -391.9026
  11   2.0000     -14.401909      -391.8959
  12   2.0000     -14.397016      -391.7627
  13   2.0000     -14.395491      -391.7212
  14   2.0000     -14.372240      -391.0885
  15   2.0000     -14.356126      -390.6500
  16   2.0000     -10.421978      -283.5964
  17   2.0000     -10.416284      -283.4415
  18   2.0000     -10.364445      -282.0309
  19   2.0000     -10.362860      -281.9878
  20   2.0000     -10.337982      -281.3108
  21   2.0000     -10.337417      -281.2954
  22   2.0000     -10.335679      -281.2481
  23   2.0000     -10.331461      -281.1333
  24   2.0000     -10.329326      -281.0753
  25   2.0000     -10.326437      -280.9966
  26   2.0000     -10.326266      -280.9920
  27   2.0000     -10.325441      -280.9695
  28   2.0000     -10.323907      -280.9278
  29   2.0000     -10.321678      -280.8672
  30   2.0000     -10.319973      -280.8208
  31   2.0000     -10.319545      -280.8091
  32   2.0000     -10.315646      -280.7030
  33   2.0000     -10.315600      -280.7018
  34   2.0000     -10.315298      -280.6935
  35   2.0000     -10.314244      -280.6648
  36   2.0000     -10.312676      -280.6222
  37   2.0000     -10.310413      -280.5606
  38   2.0000     -10.309930      -280.5475
  39   2.0000     -10.307264      -280.4749
  40   2.0000     -10.300951      -280.3031
  41   2.0000     -10.299788      -280.2715
  42   2.0000     -10.297864      -280.2191
  43   2.0000     -10.292772      -280.0806
  44   2.0000     -10.291980      -280.0590
  45   2.0000     -10.288847      -279.9738
  46   2.0000     -10.284955      -279.8679
  47   2.0000     -10.281734      -279.7802
  48   2.0000     -10.281521      -279.7744
  49   2.0000     -10.281204      -279.7658
  50   2.0000     -10.280670      -279.7513
  51   2.0000     -10.280135      -279.7367
  52   2.0000     -10.279997      -279.7329
  53   2.0000     -10.279848      -279.7289
  54   2.0000     -10.279662      -279.7238
  55   2.0000     -10.278924      -279.7037
  56   2.0000     -10.278808      -279.7006
  57   2.0000     -10.278172      -279.6833
  58   2.0000     -10.276084      -279.6265
  59   2.0000     -10.275386      -279.6075
  60   2.0000     -10.274970      -279.5961
  61   2.0000     -10.274931      -279.5951
  62   2.0000     -10.271972      -279.5146
  63   2.0000     -10.271669      -279.5063
  64   2.0000     -10.270257      -279.4679
  65   2.0000     -10.270046      -279.4622
  66   2.0000     -10.269610      -279.4503
  67   2.0000     -10.269247      -279.4404
  68   2.0000     -10.268225      -279.4126
  69   2.0000     -10.260233      -279.1951
  70   2.0000      -8.078574      -219.8292
  71   2.0000      -8.073667      -219.6957
  72   2.0000      -8.070257      -219.6029
  73   2.0000      -8.069880      -219.5926
  74   2.0000      -8.068684      -219.5601
  75   2.0000      -8.064823      -219.4550
  76   2.0000      -6.047908      -164.5719
  77   2.0000      -6.043657      -164.4563
  78   2.0000      -6.043447      -164.4505
  79   2.0000      -6.040616      -164.3735
  80   2.0000      -6.039964      -164.3558
  81   2.0000      -6.039536      -164.3441
  82   2.0000      -6.039457      -164.3420
  83   2.0000      -6.038368      -164.3123
  84   2.0000      -6.036111      -164.2509
  85   2.0000      -6.035541      -164.2354
  86   2.0000      -6.034367      -164.2035
  87   2.0000      -6.034329      -164.2024
  88   2.0000      -6.034101      -164.1962
  89   2.0000      -6.030709      -164.1039
  90   2.0000      -6.030638      -164.1020
  91   2.0000      -6.030118      -164.0879
  92   2.0000      -6.029500      -164.0710
  93   2.0000      -6.026877      -163.9997
  94   2.0000      -1.172881       -31.9157
  95   2.0000      -1.165483       -31.7144
  96   2.0000      -1.118480       -30.4354
  97   2.0000      -1.115992       -30.3677
  98   2.0000      -1.070937       -29.1417
  99   2.0000      -1.069852       -29.1121
 100   2.0000      -1.050935       -28.5974
 101   2.0000      -1.049137       -28.5485
 102   2.0000      -1.028643       -27.9908
 103   2.0000      -1.019760       -27.7491
 104   2.0000      -0.991636       -26.9838
 105   2.0000      -0.964052       -26.2332
 106   2.0000      -0.958139       -26.0723
 107   2.0000      -0.955438       -25.9988
 108   2.0000      -0.948812       -25.8185
 109   2.0000      -0.934048       -25.4167
 110   2.0000      -0.933579       -25.4040
 111   2.0000      -0.931478       -25.3468
 112   2.0000      -0.928084       -25.2544
 113   2.0000      -0.924322       -25.1521
 114   2.0000      -0.917007       -24.9530
 115   2.0000      -0.900491       -24.5036
 116   2.0000      -0.900113       -24.4933
 117   2.0000      -0.884602       -24.0712
 118   2.0000      -0.883384       -24.0381
 119   2.0000      -0.869055       -23.6482
 120   2.0000      -0.868759       -23.6401
 121   2.0000      -0.851270       -23.1642
 122   2.0000      -0.850877       -23.1535
 123   2.0000      -0.849720       -23.1220
 124   2.0000      -0.843270       -22.9466
 125   2.0000      -0.836539       -22.7634
 126   2.0000      -0.828470       -22.5438
 127   2.0000      -0.826997       -22.5037
 128   2.0000      -0.823324       -22.4038
 129   2.0000      -0.817714       -22.2511
 130   2.0000      -0.803721       -21.8704
 131   2.0000      -0.794090       -21.6083
 132   2.0000      -0.771688       -20.9987
 133   2.0000      -0.763124       -20.7657
 134   2.0000      -0.758336       -20.6354
 135   2.0000      -0.751339       -20.4450
 136   2.0000      -0.745469       -20.2852
 137   2.0000      -0.734613       -19.9898
 138   2.0000      -0.721812       -19.6415
 139   2.0000      -0.717648       -19.5282
 140   2.0000      -0.716136       -19.4870
 141   2.0000      -0.705210       -19.1897
 142   2.0000      -0.697438       -18.9783
 143   2.0000      -0.686934       -18.6924
 144   2.0000      -0.682905       -18.5828
 145   2.0000      -0.680075       -18.5058
 146   2.0000      -0.672195       -18.2914
 147   2.0000      -0.667911       -18.1748
 148   2.0000      -0.661165       -17.9912
 149   2.0000      -0.654082       -17.7985
 150   2.0000      -0.653687       -17.7877
 151   2.0000      -0.649573       -17.6758
 152   2.0000      -0.647638       -17.6231
 153   2.0000      -0.642116       -17.4729
 154   2.0000      -0.637540       -17.3483
 155   2.0000      -0.635343       -17.2886
 156   2.0000      -0.631334       -17.1795
 157   2.0000      -0.625509       -17.0210
 158   2.0000      -0.615738       -16.7551
 159   2.0000      -0.612337       -16.6625
 160   2.0000      -0.602771       -16.4022
 161   2.0000      -0.598168       -16.2770
 162   2.0000      -0.595541       -16.2055
 163   2.0000      -0.588391       -16.0109
 164   2.0000      -0.582351       -15.8466
 165   2.0000      -0.576979       -15.7004
 166   2.0000      -0.575384       -15.6570
 167   2.0000      -0.573263       -15.5993
 168   2.0000      -0.567651       -15.4466
 169   2.0000      -0.565046       -15.3757
 170   2.0000      -0.563681       -15.3385
 171   2.0000      -0.561741       -15.2857
 172   2.0000      -0.557712       -15.1761
 173   2.0000      -0.557013       -15.1571
 174   2.0000      -0.555029       -15.1031
 175   2.0000      -0.552772       -15.0417
 176   2.0000      -0.547777       -14.9058
 177   2.0000      -0.543540       -14.7905
 178   2.0000      -0.541437       -14.7332
 179   2.0000      -0.539069       -14.6688
 180   2.0000      -0.536986       -14.6121
 181   2.0000      -0.535741       -14.5783
 182   2.0000      -0.535176       -14.5629
 183   2.0000      -0.530088       -14.4244
 184   2.0000      -0.526777       -14.3343
 185   2.0000      -0.525589       -14.3020
 186   2.0000      -0.519864       -14.1462
 187   2.0000      -0.519236       -14.1291
 188   2.0000      -0.517672       -14.0866
 189   2.0000      -0.514784       -14.0080
 190   2.0000      -0.510710       -13.8971
 191   2.0000      -0.509464       -13.8632
 192   2.0000      -0.507688       -13.8149
 193   2.0000      -0.506699       -13.7880
 194   2.0000      -0.505233       -13.7481
 195   2.0000      -0.503479       -13.7004
 196   2.0000      -0.500367       -13.6157
 197   2.0000      -0.496575       -13.5125
 198   2.0000      -0.491646       -13.3784
 199   2.0000      -0.491163       -13.3652
 200   2.0000      -0.489441       -13.3184
 201   2.0000      -0.485743       -13.2177
 202   2.0000      -0.484168       -13.1749
 203   2.0000      -0.481110       -13.0917
 204   2.0000      -0.478834       -13.0297
 205   2.0000      -0.474776       -12.9193
 206   2.0000      -0.472267       -12.8510
 207   2.0000      -0.469317       -12.7708
 208   2.0000      -0.465936       -12.6788
 209   2.0000      -0.464368       -12.6361
 210   2.0000      -0.463890       -12.6231
 211   2.0000      -0.463000       -12.5989
 212   2.0000      -0.461154       -12.5487
 213   2.0000      -0.457157       -12.4399
 214   2.0000      -0.452693       -12.3184
 215   2.0000      -0.451668       -12.2905
 216   2.0000      -0.450286       -12.2529
 217   2.0000      -0.446204       -12.1418
 218   2.0000      -0.445013       -12.1094
 219   2.0000      -0.443401       -12.0656
 220   2.0000      -0.441411       -12.0114
 221   2.0000      -0.438461       -11.9311
 222   2.0000      -0.437756       -11.9119
 223   2.0000      -0.435177       -11.8418
 224   2.0000      -0.430878       -11.7248
 225   2.0000      -0.427314       -11.6278
 226   2.0000      -0.421094       -11.4585
 227   2.0000      -0.415782       -11.3140
 228   2.0000      -0.413749       -11.2587
 229   2.0000      -0.406622       -11.0648
 230   2.0000      -0.404630       -11.0105
 231   2.0000      -0.400414       -10.8958
 232   2.0000      -0.398195       -10.8355
 233   2.0000      -0.394531       -10.7357
 234   2.0000      -0.393139       -10.6979
 235   2.0000      -0.381810       -10.3896
 236   2.0000      -0.377789       -10.2802
 237   2.0000      -0.374948       -10.2029
 238   2.0000      -0.364485        -9.9181
 239   2.0000      -0.363688        -9.8964
 240   2.0000      -0.358584        -9.7576
 241   2.0000      -0.357124        -9.7178
 242   2.0000      -0.353302        -9.6138
 243   2.0000      -0.350581        -9.5398
 244   2.0000      -0.345627        -9.4050
 245   2.0000      -0.344799        -9.3825
 246   2.0000      -0.339516        -9.2387
 247   2.0000      -0.331884        -9.0310
 248   2.0000      -0.328802        -8.9472
 249   2.0000      -0.325897        -8.8681
 250   2.0000      -0.323184        -8.7943
 251   2.0000      -0.322555        -8.7772
 252   2.0000      -0.321227        -8.7410
 253   2.0000      -0.316330        -8.6078
 254   2.0000      -0.307574        -8.3695
 255   2.0000      -0.302105        -8.2207
 256   2.0000      -0.300751        -8.1839
 257   2.0000      -0.295789        -8.0488
 258   2.0000      -0.282923        -7.6987
 259   2.0000      -0.280521        -7.6334
 260   2.0000      -0.269085        -7.3222
 261   2.0000      -0.260992        -7.1019
 262   2.0000      -0.223176        -6.0729
 263   0.0000      -0.112354        -3.0573
 264   0.0000      -0.107674        -2.9300
 265   0.0000      -0.080580        -2.1927
 266   0.0000      -0.053979        -1.4688
 267   0.0000      -0.042815        -1.1651

MULLIKEN ATOMIC CHARGES
-----------------------
   0 C :   -0.124436
   1 S :    0.171786
   2 C :   -0.170161
   3 C :    0.020320
   4 C :    0.016284
   5 S :    0.133863
   6 C :    0.095096
   7 O :   -0.161255
   8 S :    0.069003
   9 C :    0.095748
  10 C :   -0.044767
  11 C :    0.018963
  12 N :   -0.038661
  13 C :    0.070767
  14 C :   -0.184016
  15 C :    0.209438
  16 O :   -0.154074
  17 C :   -0.011899
  18 C :   -0.047936
  19 N :   -0.053722
  20 C :    0.083372
  21 C :   -0.103344
  22 C :    0.079718
  23 C :   -0.038202
  24 C :    0.022699
  25 C :    0.101059
  26 C :   -0.088648
  27 C :    0.066056
  28 C :   -0.015112
  29 C :   -0.047708
  30 C :    0.155714
  31 N :   -0.218443
  32 C :    0.133866
  33 N :   -0.222536
  34 C :    0.050754
  35 C :   -0.097542
  36 C :    0.122729
  37 C :   -0.021020
  38 C :    0.016313
  39 C :    0.008086
  40 C :    0.036957
  41 C :   -0.007385
  42 C :   -0.020920
  43 C :   -0.032802
  44 C :   -0.012102
  45 C :    0.027561
  46 N :   -0.040146
  47 C :    0.067393
  48 C :   -0.116988
  49 C :    0.198244
  50 O :   -0.130855
  51 C :   -0.044126
  52 C :   -0.034917
  53 N :   -0.055978
  54 C :    0.088465
  55 C :   -0.095032
  56 C :   -0.001684
  57 C :   -0.047478
  58 C :    0.053079
  59 C :   -0.176341
  60 S :    0.179809
  61 C :   -0.179776
  62 C :   -0.005668
  63 C :   -0.008666
  64 S :    0.114055
  65 C :    0.093754
  66 O :   -0.191493
  67 S :    0.083686
  68 C :    0.050490
  69 C :   -0.005316
  70 H :    0.039004
  71 H :    0.014797
  72 H :   -0.004842
  73 H :    0.003326
  74 H :   -0.011068
  75 H :   -0.037742
  76 H :   -0.002869
  77 H :   -0.034631
  78 H :   -0.030945
  79 H :   -0.024682
  80 H :   -0.005155
  81 H :    0.080397
  82 H :    0.081956
  83 H :   -0.007561
  84 H :   -0.023625
  85 H :    0.100551
  86 H :    0.093131
  87 H :    0.008298
  88 H :    0.022539
  89 H :   -0.004378
  90 H :   -0.032163
  91 H :   -0.037310
  92 H :   -0.013077
  93 H :    0.037989
  94 H :    0.024224
  95 H :    0.004280
  96 H :   -0.009331
  97 H :    0.025601
  98 H :    0.005367
  99 H :   -0.007119
 100 H :    0.023864
 101 H :    0.037202
Sum of atomic charges:   -0.0000000

LOEWDIN ATOMIC CHARGES
----------------------
   0 C :   -0.184543
   1 S :    0.477815
   2 C :   -0.200741
   3 C :   -0.191733
   4 C :   -0.210634
   5 S :    0.381860
   6 C :   -0.190368
   7 O :   -0.153178
   8 S :    0.381016
   9 C :    0.036635
  10 C :   -0.065096
  11 C :    0.069045
  12 N :   -0.112621
  13 C :    0.049762
  14 C :   -0.059228
  15 C :    0.066901
  16 O :   -0.153610
  17 C :   -0.045799
  18 C :    0.007573
  19 N :   -0.098631
  20 C :    0.061748
  21 C :   -0.041322
  22 C :   -0.016525
  23 C :   -0.044587
  24 C :    0.031293
  25 C :   -0.038537
  26 C :    0.006520
  27 C :   -0.022058
  28 C :   -0.013940
  29 C :   -0.040219
  30 C :    0.030440
  31 N :   -0.123523
  32 C :    0.022292
  33 N :   -0.113035
  34 C :   -0.023354
  35 C :    0.076370
  36 C :   -0.029569
  37 C :   -0.027989
  38 C :   -0.015216
  39 C :   -0.047353
  40 C :   -0.024297
  41 C :   -0.017448
  42 C :   -0.022719
  43 C :    0.089229
  44 C :   -0.065299
  45 C :    0.072545
  46 N :   -0.114404
  47 C :    0.046938
  48 C :   -0.039524
  49 C :    0.061902
  50 O :   -0.144465
  51 C :   -0.043646
  52 C :    0.014095
  53 N :   -0.100377
  54 C :    0.067813
  55 C :   -0.042344
  56 C :   -0.032413
  57 C :   -0.023263
  58 C :   -0.030656
  59 C :   -0.190560
  60 S :    0.490664
  61 C :   -0.180308
  62 C :   -0.215144
  63 C :   -0.209826
  64 S :    0.389904
  65 C :   -0.210548
  66 O :   -0.174812
  67 S :    0.378221
  68 C :   -0.044454
  69 C :   -0.028515
  70 H :    0.033422
  71 H :    0.044498
  72 H :    0.009470
  73 H :    0.020819
  74 H :    0.031790
  75 H :    0.019068
  76 H :    0.030116
  77 H :    0.025561
  78 H :    0.022899
  79 H :   -0.004190
  80 H :    0.015649
  81 H :    0.041348
  82 H :    0.050376
  83 H :   -0.009020
  84 H :    0.008487
  85 H :    0.043318
  86 H :    0.057214
  87 H :    0.030840
  88 H :    0.048269
  89 H :    0.027442
  90 H :    0.031535
  91 H :    0.027063
  92 H :    0.030579
  93 H :    0.041341
  94 H :    0.035417
  95 H :    0.021584
  96 H :    0.032751
  97 H :    0.031080
  98 H :    0.033201
  99 H :    0.032411
 100 H :    0.011667
 101 H :    0.031848

  Mayer bond orders larger than 0.100000
B(  0-C ,  1-S ) :   1.1866 B(  0-C ,  4-C ) :   1.5736 B(  0-C , 70-H ) :   0.9707
B(  1-S ,  2-C ) :   1.1272 B(  2-C ,  3-C ) :   1.5193 B(  2-C ,  9-C ) :   1.1368
B(  3-C ,  4-C ) :   1.2662 B(  3-C ,  8-S ) :   1.0191 B(  4-C ,  5-S ) :   0.9845
B(  5-S ,  6-C ) :   1.0247 B(  5-S ,  7-O ) :   0.1084 B(  6-C ,  7-O ) :   2.0370
B(  6-C ,  8-S ) :   0.9768 B(  9-C , 10-C ) :   1.6210 B(  9-C , 71-H ) :   0.9741
B( 10-C , 11-C ) :   1.1911 B( 10-C , 72-H ) :   0.9437 B( 11-C , 12-N ) :   1.5903
B( 11-C , 13-C ) :   0.1137 B( 11-C , 22-C ) :   0.9944 B( 12-N , 13-C ) :   1.3621
B( 13-C , 14-C ) :   1.0553 B( 13-C , 18-C ) :   1.3960 B( 14-C , 15-C ) :   0.8998
B( 14-C , 22-C ) :   1.5243 B( 15-C , 16-O ) :   2.1700 B( 15-C , 17-C ) :   0.9357
B( 16-O , 76-H ) :   0.1114 B( 17-C , 18-C ) :   1.0807 B( 17-C , 21-C ) :   1.5824
B( 18-C , 19-N ) :   1.3250 B( 19-N , 20-C ) :   1.6452 B( 20-C , 21-C ) :   1.0847
B( 20-C , 73-H ) :   0.9893 B( 21-C , 74-H ) :   1.0116 B( 22-C , 23-C ) :   1.1354
B( 23-C , 24-C ) :   1.6529 B( 23-C , 75-H ) :   0.9583 B( 24-C , 25-C ) :   1.0649
B( 24-C , 76-H ) :   0.9620 B( 25-C , 26-C ) :   1.5063 B( 25-C , 42-C ) :   1.1202
B( 26-C , 27-C ) :   1.1555 B( 26-C , 77-H ) :   0.9935 B( 27-C , 28-C ) :   1.4579
B( 27-C , 40-C ) :   1.1179 B( 28-C , 29-C ) :   1.0388 B( 28-C , 34-C ) :   1.0953
B( 29-C , 30-C ) :   1.0187 B( 29-C , 32-C ) :   1.0478 B( 29-C , 78-H ) :   0.8670
B( 30-C , 31-N ) :   1.1139 B( 30-C , 79-H ) :   0.9182 B( 30-C , 80-H ) :   0.9502
B( 31-N , 81-H ) :   0.9507 B( 31-N , 82-H ) :   0.9662 B( 32-C , 33-N ) :   1.1072
B( 32-C , 83-H ) :   0.9352 B( 32-C , 84-H ) :   0.9283 B( 33-N , 85-H ) :   0.9349
B( 33-N , 86-H ) :   0.9654 B( 34-C , 35-C ) :   1.6449 B( 34-C , 39-C ) :   1.0424
B( 35-C , 36-C ) :   1.0005 B( 35-C , 87-H ) :   0.9679 B( 36-C , 37-C ) :   0.9767
B( 36-C , 43-C ) :   0.9396 B( 36-C , 88-H ) :   0.8952 B( 37-C , 38-C ) :   1.6951
B( 37-C , 89-H ) :   0.9651 B( 38-C , 39-C ) :   1.1593 B( 38-C , 90-H ) :   0.9874
B( 39-C , 40-C ) :   1.4068 B( 40-C , 41-C ) :   1.1454 B( 41-C , 42-C ) :   1.5785
B( 41-C , 91-H ) :   0.9948 B( 42-C , 92-H ) :   0.9968 B( 43-C , 44-C ) :   1.7175
B( 43-C , 93-H ) :   0.9754 B( 44-C , 45-C ) :   1.1568 B( 44-C , 94-H ) :   0.9390
B( 45-C , 46-N ) :   1.5966 B( 45-C , 47-C ) :   0.1074 B( 45-C , 56-C ) :   1.0140
B( 46-N , 47-C ) :   1.3602 B( 47-C , 48-C ) :   1.0372 B( 47-C , 52-C ) :   1.4014
B( 48-C , 49-C ) :   0.8904 B( 48-C , 56-C ) :   1.5945 B( 49-C , 50-O ) :   2.2959
B( 49-C , 51-C ) :   0.8984 B( 51-C , 52-C ) :   1.0619 B( 51-C , 55-C ) :   1.5976
B( 52-C , 53-N ) :   1.3269 B( 53-N , 54-C ) :   1.6404 B( 54-C , 55-C ) :   1.0885
B( 54-C , 95-H ) :   0.9896 B( 55-C , 96-H ) :   1.0094 B( 56-C , 57-C ) :   1.1088
B( 57-C , 58-C ) :   1.6891 B( 57-C , 97-H ) :   0.9544 B( 58-C , 59-C ) :   1.1263
B( 58-C , 98-H ) :   0.9522 B( 59-C , 60-S ) :   1.1345 B( 59-C , 61-C ) :   0.1008
B( 59-C , 63-C ) :   1.5668 B( 60-S , 61-C ) :   1.1465 B( 61-C , 62-C ) :   1.5830
B( 61-C , 68-C ) :   1.1053 B( 62-C , 63-C ) :   1.2544 B( 62-C , 67-S ) :   0.9872
B( 63-C , 64-S ) :   0.9989 B( 64-S , 65-C ) :   1.0141 B( 64-S , 66-O ) :   0.1043
B( 65-C , 66-O ) :   2.0335 B( 65-C , 67-S ) :   1.0017 B( 66-O , 67-S ) :   0.1033
B( 68-C , 69-C ) :   1.9413 B( 68-C , 99-H ) :   0.9446 B( 69-C ,100-H ) :   0.9445
B( 69-C ,101-H ) :   0.9375

-----------------------------------------------------------------------------
         ABSORPTION SPECTRUM VIA TRANSITION ELECTRIC DIPOLE MOMENTS
-----------------------------------------------------------------------------
State   Energy  Wavelength   fosc         T2         TX        TY        TZ
        (cm-1)    (nm)                  (au**2)     (au)      (au)      (au)
-----------------------------------------------------------------------------
   0   10561.0    946.9   0.188735201   5.88334  -2.18368  -1.00762   0.31556
   1   11259.3    888.2   0.059478543   1.73910  -0.90675   0.32454  -0.90088
   2   13054.6    766.0   0.045093843   1.13718  -0.33464  -0.96983  -0.29089
   3   17210.1    581.1   0.122360167   2.34062  -1.35527  -0.70466   0.08553
   4   17499.7    571.4   0.005336160   0.10039  -0.09710  -0.28643  -0.09444
   5   18654.9    536.1   0.026346740   0.46495   0.33959   0.26765  -0.52726
   6   19910.9    502.2   0.065661025   1.08566  -0.30007  -0.73430  -0.67558
   7   20429.5    489.5   0.839868799  13.53411  -2.67682   0.42614   2.48740
   8   21869.2    457.3   0.001192976   0.01796  -0.07846   0.08473   0.06800
   9   22043.8    453.6   0.005287397   0.07896  -0.12639   0.08530   0.23604
  10   22709.8    440.3   0.007925056   0.11489  -0.29232  -0.16952  -0.02635
  11   23560.4    424.4   0.174031829   2.43177   1.48836   0.38823  -0.25655
  12   23938.1    417.7   0.606744131   8.34433   1.92875   1.88050  -1.04305
  13   24049.3    415.8   0.007674064   0.10505   0.19472  -0.18697   0.17939
  14   24300.3    411.5   0.183663265   2.48821  -1.38868  -0.71709  -0.21345
  15   24853.1    402.4   0.150163134   1.98911  -0.01835  -1.27961   0.59276
  16   25190.8    397.0   0.005635965   0.07365   0.15023   0.20066  -0.10402
  17   25254.2    396.0   0.016259298   0.21195  -0.05076   0.42940   0.15810
  18   25829.4    387.2   0.001724054   0.02197  -0.08273  -0.11607   0.04072
  19   25956.4    385.3   0.036515650   0.46314   0.66060  -0.04194   0.15808
  20   25993.2    384.7   0.037992321   0.48118   0.51050   0.25480  -0.39452
  21   26291.7    380.3   0.144504648   1.80942   1.31299  -0.09659   0.27593
  22   27123.8    368.7   0.174192881   2.11425   0.26679   1.35980  -0.44048
  23   27181.8    367.9   0.047284527   0.57269  -0.22008  -0.50908   0.51486
  24   27460.2    364.2   0.047636582   0.57110  -0.11083   0.73684   0.12603
  25   27623.8    362.0   0.006938163   0.08269  -0.17695  -0.06269  -0.21782
  26   27661.0    361.5   0.005772480   0.06870   0.18983  -0.13927   0.11520
  27   27716.6    360.8   0.174804364   2.07629  -0.58422  -1.28946   0.26884
  28   27879.1    358.7   0.107869671   1.27379  -1.10569  -0.21090  -0.08215
  29   28112.6    355.7   0.002648466   0.03101  -0.17452  -0.01239  -0.02011
  30   28149.7    355.2   0.011805329   0.13806  -0.09463   0.35931   0.00234
  31   28764.0    347.7   0.003168829   0.03627   0.13458  -0.02092  -0.13311
  32   28941.2    345.5   0.025083092   0.28533   0.39898  -0.35513   0.00470
  33   29185.0    342.6   0.063704865   0.71860  -0.28536   0.42278   0.67708
  34   29313.9    341.1   0.104672310   1.17553  -0.55878  -0.35497   0.85865
  35   29545.4    338.5   0.812992205   9.05883  -2.55682  -1.52192   0.45309
  36   30024.5    333.1   0.123103298   1.34980  -0.96412   0.38701   0.52010
  37   30697.6    325.8   0.032879094   0.35261   0.06815   0.52889  -0.26123
  38   30933.9    323.3   0.071784279   0.76396   0.44201   0.72693  -0.20041
  39   31071.2    321.8   0.137659871   1.45856  -0.97079  -0.61806   0.36623
  40   31326.1    319.2   0.010329088   0.10855   0.25659   0.19156  -0.07754
  41   31359.4    318.9   0.004964664   0.05212   0.11243   0.12540  -0.15412
  42   31502.7    317.4   0.033610929   0.35124  -0.53175   0.11164  -0.23669
  43   31673.2    315.7   0.020973464   0.21800   0.20315   0.37776  -0.18445
  44   32052.1    312.0   0.000957873   0.00984  -0.03629  -0.04182   0.08230
  45   32434.2    308.3   0.018609739   0.18889  -0.31605  -0.17899   0.23867
  46   33020.7    302.8   0.083595353   0.83343   0.53496   0.58233  -0.45623
  47   33323.3    300.1   0.010117104   0.09995   0.26127   0.17083   0.05003
  48   33650.9    297.2   0.012041995   0.11781  -0.19214   0.01019   0.28423
  49   33914.2    294.9   0.000279919   0.00272  -0.02145   0.03688   0.02995
  50   34065.3    293.6   0.002880662   0.02784   0.04624  -0.01451  -0.15966
  51   34268.7    291.8   0.155007778   1.48913   0.77586   0.78503  -0.52047
  52   34414.3    290.6   0.074371808   0.71145   0.45971   0.69518  -0.12981
  53   34980.0    285.9   0.024484256   0.23043   0.06304   0.46997   0.07476
  54   35365.6    282.8   0.034617130   0.32224  -0.40782   0.24692   0.30815
  55   35439.9    282.2   0.175848105   1.63351  -0.85307   0.59367   0.74387
  56   35491.0    281.8   0.038779504   0.35972  -0.32513   0.28383  -0.41647
  57   35808.1    279.3   0.130840455   1.20292  -0.70017   0.84261   0.05183
  58   35927.1    278.3   0.171110337   1.56794  -1.03400   0.58591  -0.39434
  59   36017.8    277.6   0.020224164   0.18485   0.26667   0.28733  -0.17658
  60   36324.8    275.3   0.095673869   0.86709   0.89735  -0.21397  -0.12679
  61   36615.7    273.1   0.003628842   0.03263  -0.10276  -0.07505   0.12820
  62   36696.6    272.5   0.057250188   0.51360  -0.01079  -0.22934  -0.67889
  63   36836.3    271.5   0.029025014   0.25940  -0.09086  -0.46347   0.19065
  64   36842.7    271.4   0.018727907   0.16735  -0.10107   0.22632  -0.32544
  65   36966.8    270.5   0.006468923   0.05761   0.06859  -0.21468  -0.08257
  66   37060.6    269.8   0.020480570   0.18193  -0.20773   0.05114  -0.36900
  67   37426.8    267.2   0.017673435   0.15546   0.17037   0.12467  -0.33300
  68   37616.2    265.8   0.019534434   0.17096   0.36865  -0.08256  -0.16806
  69   37994.3    263.2   0.018342106   0.15893   0.09266  -0.35433  -0.15745
  70   38108.5    262.4   0.016005603   0.13827  -0.08477  -0.18182  -0.31309
  71   38137.7    262.2   0.010001497   0.08633   0.01095   0.24215  -0.16607
  72   38339.9    260.8   0.000190559   0.00164   0.02240   0.02979   0.01572
  73   38601.8    259.1   0.002873608   0.02451  -0.03026  -0.03668  -0.14915
  74   38892.9    257.1   0.029321125   0.24819   0.26708   0.38033  -0.17947
  75   38944.5    256.8   0.004744388   0.04011   0.03357  -0.10688   0.16600
  76   39000.9    256.4   0.016888001   0.14255   0.02282   0.33828  -0.16613
  77   39074.0    255.9   0.011957944   0.10075  -0.23957  -0.13779   0.15611
  78   39216.3    255.0   0.052254618   0.43867   0.17572   0.44716  -0.45589
  79   39377.3    254.0   0.030482660   0.25485   0.43030  -0.17862  -0.19438
  80   39396.6    253.8   0.079526001   0.66455  -0.27231  -0.71790   0.27389
  81   39570.3    252.7   0.006236018   0.05188   0.15439   0.12100  -0.11578
  82   39828.8    251.1   0.027695199   0.22892  -0.29850  -0.33927   0.15722
  83   39885.8    250.7   0.028361416   0.23409   0.29031   0.37436  -0.09834
  84   40030.5    249.8   0.068754768   0.56544   0.50586  -0.04323  -0.55469
  85   40158.3    249.0   0.003067119   0.02514  -0.06079  -0.11650   0.08875
  86   40179.0    248.9   0.000925329   0.00758  -0.04438   0.03733  -0.06496
  87   40318.3    248.0   0.020430297   0.16682  -0.27363  -0.12970   0.27409

FINAL SINGLE POINT ENERGY     -5091.180872537265

DIPOLE MOMENT
-------------
                                X             Y             Z
Electronic contribution:     11.57825     -42.73429       9.99330
Nuclear contribution   :    -11.39969      42.88058     -10.51454
                        -----------------------------------------
Total Dipole Moment    :      0.17856       0.14629      -0.52124
                        -----------------------------------------
Magnitude (a.u.)       :      0.57007
Magnitude (Debye)      :      1.44900

Rotational constants in cm-1:     0.001338     0.000640     0.000551
Rotational constants in MHz :    40.107543    19.183415    16.508900

                             ****ORCA TERMINATED NORMALLY****
TOTAL RUN TIME: 0 days 0 hours 24 minutes 42 seconds 914 msec
