                         Program Version 4.2.0 -  RELEASE  -
|  1> # ORCA input file
|  2> # SCF done       -191.374517916029          0.000412721980
|  3> ! CAM-B3LYP def2-SVP def2/J RIJCOSX Grid4 TightSCF
|  4> %maxcore 5000
|  5> %tddft
|  6>     Mode sTDDFT
|  7>     Ethresh 5.0
|  8>     maxcore 5000
|  9> end
| 10>
| 11> %pal
| 12>   nprocs 6
| 13>   end
| 14> * xyz 0 1
| 15>    C       -0.79431         2.29096        -0.66472
| 16>    C       -1.08244         1.65826         0.51311
| 17>    C       -0.68143         0.33923         0.81459
| 18>    N       -0.38284        -0.72786         1.11255
| 19>    C       -1.85297         2.23310         1.54553
| 20>    N       -2.47639         2.66177         2.40873
| 21>    C       -0.03447         1.75038        -1.78264
| 22>    C       -0.17589         2.62082        -2.90589
| 23>    C        0.48090         2.39505        -4.08332
| 24>    C        1.35784         1.29313        -4.17590
| 25>    C        1.49813         0.41171        -3.06232
| 26>    C        0.77753         0.64939        -1.86999
| 27>    C        2.39148        -0.67420        -3.16681
| 28>    C        3.12807        -0.86725        -4.30410
| 29>    C        2.99933         0.00907        -5.39270
| 30>    C        2.12668         1.06176        -5.33372
| 31>    C       -1.03444         3.75215        -2.53402
| 32>    O       -1.59248         4.55367        -3.24357
| 33>    C       -1.17686         3.64486        -1.03981
| 34>    C       -1.50707         4.68228        -0.23590
| 35>    C       -1.48994         6.03968        -0.68191
| 36>    C       -2.32873         7.14949        -0.20584
| 37>    N       -2.04745         8.30188        -0.73848
| 38>    C       -1.00312         8.07525        -1.58637
| 39>    C       -0.63776         6.64120        -1.57388
| 40>    C        0.53554         6.42518        -2.37391
| 41>    S        1.53292         5.11670        -2.37396
| 42>    C        0.78856         7.70768        -2.97754
| 43>    C       -0.13447         8.72114        -2.42538
| 44>    N        0.19677         9.96056        -2.88815
| 45>    C        1.23990         9.79264        -3.64580
| 46>    C        1.67262         8.39758        -3.76651
| 47>    C        2.73260         7.86669        -4.56090
| 48>    S        4.28218         8.62810        -4.70032
| 49>    C        4.90934         7.31496        -5.65535
| 50>    C        3.93629         6.37309        -5.89596
| 51>    C        2.70014         6.67794        -5.27019
| 52>    C        1.55058         5.88569        -5.45242
| 53>    N        0.63366         5.23259        -5.66383
| 54>    C        4.00903         5.21785        -6.84671
| 55>    F        5.20825         5.04395        -7.41598
| 56>    F        3.67057         4.05227        -6.28415
| 57>    F        3.14868         5.40385        -7.86911
| 58>    C        6.29628         7.29151        -6.01957
| 59>    C        7.06590         8.38427        -6.61551
| 60>    N        8.30357         8.07952        -6.87748
| 61>    C        8.46632         6.79347        -6.46334
| 62>    C        7.20557         6.27521        -5.89143
| 63>    C        7.39489         4.93824        -5.38002
| 64>    S        6.35870         4.01770        -4.50127
| 65>    C        8.74841         4.62343        -5.75566
| 66>    C        9.39582         5.78898        -6.39751
| 67>    N       10.67121         5.48093        -6.75303
| 68>    C       10.86721         4.25190        -6.37549
| 69>    C        9.69584         3.63658        -5.71532
| 70>    C        9.58063         2.32888        -5.15874
| 71>    C       10.56357         1.73538        -4.43919
| 72>    C       10.59099         0.40758        -3.84640
| 73>    C        9.64798        -0.57100        -4.00335
| 74>    C        9.73196        -1.85062        -3.41194
| 75>    N        9.74609        -2.90601        -2.96232
| 76>    C        8.47077        -0.44766        -4.77349
| 77>    N        7.49856        -0.42376        -5.38289
| 78>    C       11.81991         0.30426        -3.06980
| 79>    C       12.53448         1.53592        -3.16493
| 80>    C       11.78544         2.47167        -4.00893
| 81>    O       12.06354         3.62327        -4.27328
| 82>    C       13.72921         1.73017        -2.53052
| 83>    C       14.27794         0.68143        -1.76087
| 84>    C       13.57121        -0.55301        -1.65984
| 85>    C       12.33539        -0.72377        -2.32426
| 86>    C       14.12811        -1.59251        -0.88745
| 87>    C       15.32503        -1.42293        -0.24570
| 88>    C       16.01961        -0.20789        -0.34607
| 89>    C       15.50761         0.82226        -1.08775
| 90>    H        0.36667         3.07797        -4.91231
| 91>    H        0.91118        -0.02662        -1.03935
| 92>    H        2.49091        -1.34449        -2.32532
| 93>    H        3.82090        -1.69274        -4.36952
| 94>    H        3.59932        -0.15327        -6.27494
| 95>    H        2.02433         1.74449        -6.16326
| 96>    H       -1.72635         4.52399         0.81294
| 97>    H       -3.13443         7.05112         0.50119
| 98>    H        1.70317        10.62604        -4.14480
| 99>    H        6.67286         9.35897        -6.84625
|100>    H       11.77963         3.74501        -6.62970
|101>    H        8.61877         1.84599        -5.28181
|102>    H       14.24906         2.67268        -2.61803
|103>    H       11.82452        -1.66831        -2.22491
|104>    H       13.59035        -2.52607        -0.81278
|105>    H       15.74337        -2.22496         0.34337
|106>    H       16.96216        -0.09207         0.16727
|107>    H       16.03745         1.75990        -1.16855
|108> *
|109>
|110>                          ****END OF INPUT****

CARTESIAN COORDINATES (ANGSTROEM)
---------------------------------
  C     -0.794310    2.290960   -0.664720
  C     -1.082440    1.658260    0.513110
  C     -0.681430    0.339230    0.814590
  N     -0.382840   -0.727860    1.112550
  C     -1.852970    2.233100    1.545530
  N     -2.476390    2.661770    2.408730
  C     -0.034470    1.750380   -1.782640
  C     -0.175890    2.620820   -2.905890
  C      0.480900    2.395050   -4.083320
  C      1.357840    1.293130   -4.175900
  C      1.498130    0.411710   -3.062320
  C      0.777530    0.649390   -1.869990
  C      2.391480   -0.674200   -3.166810
  C      3.128070   -0.867250   -4.304100
  C      2.999330    0.009070   -5.392700
  C      2.126680    1.061760   -5.333720
  C     -1.034440    3.752150   -2.534020
  O     -1.592480    4.553670   -3.243570
  C     -1.176860    3.644860   -1.039810
  C     -1.507070    4.682280   -0.235900
  C     -1.489940    6.039680   -0.681910
  C     -2.328730    7.149490   -0.205840
  N     -2.047450    8.301880   -0.738480
  C     -1.003120    8.075250   -1.586370
  C     -0.637760    6.641200   -1.573880
  C      0.535540    6.425180   -2.373910
  S      1.532920    5.116700   -2.373960
  C      0.788560    7.707680   -2.977540
  C     -0.134470    8.721140   -2.425380
  N      0.196770    9.960560   -2.888150
  C      1.239900    9.792640   -3.645800
  C      1.672620    8.397580   -3.766510
  C      2.732600    7.866690   -4.560900
  S      4.282180    8.628100   -4.700320
  C      4.909340    7.314960   -5.655350
  C      3.936290    6.373090   -5.895960
  C      2.700140    6.677940   -5.270190
  C      1.550580    5.885690   -5.452420
  N      0.633660    5.232590   -5.663830
  C      4.009030    5.217850   -6.846710
  F      5.208250    5.043950   -7.415980
  F      3.670570    4.052270   -6.284150
  F      3.148680    5.403850   -7.869110
  C      6.296280    7.291510   -6.019570
  C      7.065900    8.384270   -6.615510
  N      8.303570    8.079520   -6.877480
  C      8.466320    6.793470   -6.463340
  C      7.205570    6.275210   -5.891430
  C      7.394890    4.938240   -5.380020
  S      6.358700    4.017700   -4.501270
  C      8.748410    4.623430   -5.755660
  C      9.395820    5.788980   -6.397510
  N     10.671210    5.480930   -6.753030
  C     10.867210    4.251900   -6.375490
  C      9.695840    3.636580   -5.715320
  C      9.580630    2.328880   -5.158740
  C     10.563570    1.735380   -4.439190
  C     10.590990    0.407580   -3.846400
  C      9.647980   -0.571000   -4.003350
  C      9.731960   -1.850620   -3.411940
  N      9.746090   -2.906010   -2.962320
  C      8.470770   -0.447660   -4.773490
  N      7.498560   -0.423760   -5.382890
  C     11.819910    0.304260   -3.069800
  C     12.534480    1.535920   -3.164930
  C     11.785440    2.471670   -4.008930
  O     12.063540    3.623270   -4.273280
  C     13.729210    1.730170   -2.530520
  C     14.277940    0.681430   -1.760870
  C     13.571210   -0.553010   -1.659840
  C     12.335390   -0.723770   -2.324260
  C     14.128110   -1.592510   -0.887450
  C     15.325030   -1.422930   -0.245700
  C     16.019610   -0.207890   -0.346070
  C     15.507610    0.822260   -1.087750
  H      0.366670    3.077970   -4.912310
  H      0.911180   -0.026620   -1.039350
  H      2.490910   -1.344490   -2.325320
  H      3.820900   -1.692740   -4.369520
  H      3.599320   -0.153270   -6.274940
  H      2.024330    1.744490   -6.163260
  H     -1.726350    4.523990    0.812940
  H     -3.134430    7.051120    0.501190
  H      1.703170   10.626040   -4.144800
  H      6.672860    9.358970   -6.846250
  H     11.779630    3.745010   -6.629700
  H      8.618770    1.845990   -5.281810
  H     14.249060    2.672680   -2.618030
  H     11.824520   -1.668310   -2.224910
  H     13.590350   -2.526070   -0.812780
  H     15.743370   -2.224960    0.343370
  H     16.962160   -0.092070    0.167270
  H     16.037450    1.759900   -1.168550

 Total Charge           Charge          ....    0
 Multiplicity           Mult            ....    1
 Number of Electrons    NEL             ....  520
 Basis Dimension        Dim             .... 1152

ORBITAL ENERGIES
----------------

  NO   OCC          E(Eh)            E(eV)
   0   2.0000     -89.004724     -2421.9417
   1   2.0000     -88.921985     -2419.6902
   2   2.0000     -88.920148     -2419.6402
   3   2.0000     -24.814920      -675.2483
   4   2.0000     -24.810330      -675.1234
   5   2.0000     -24.804481      -674.9643
   6   2.0000     -19.241860      -523.5976
   7   2.0000     -19.208605      -522.6927
   8   2.0000     -14.432305      -392.7230
   9   2.0000     -14.430850      -392.6834
  10   2.0000     -14.430558      -392.6754
  11   2.0000     -14.429902      -392.6576
  12   2.0000     -14.426487      -392.5647
  13   2.0000     -14.426092      -392.5539
  14   2.0000     -14.421811      -392.4374
  15   2.0000     -14.415905      -392.2767
  16   2.0000     -14.413007      -392.1979
  17   2.0000     -10.535661      -286.6899
  18   2.0000     -10.389374      -282.7092
  19   2.0000     -10.362676      -281.9828
  20   2.0000     -10.361714      -281.9566
  21   2.0000     -10.360360      -281.9197
  22   2.0000     -10.357838      -281.8511
  23   2.0000     -10.357054      -281.8298
  24   2.0000     -10.356028      -281.8018
  25   2.0000     -10.355766      -281.7947
  26   2.0000     -10.354266      -281.7539
  27   2.0000     -10.354081      -281.7489
  28   2.0000     -10.352781      -281.7135
  29   2.0000     -10.350542      -281.6526
  30   2.0000     -10.349189      -281.6157
  31   2.0000     -10.348782      -281.6047
  32   2.0000     -10.346637      -281.5463
  33   2.0000     -10.345860      -281.5252
  34   2.0000     -10.342619      -281.4370
  35   2.0000     -10.342100      -281.4228
  36   2.0000     -10.340501      -281.3793
  37   2.0000     -10.338082      -281.3135
  38   2.0000     -10.333755      -281.1958
  39   2.0000     -10.332735      -281.1680
  40   2.0000     -10.332622      -281.1649
  41   2.0000     -10.327646      -281.0295
  42   2.0000     -10.327008      -281.0122
  43   2.0000     -10.326223      -280.9908
  44   2.0000     -10.322652      -280.8936
  45   2.0000     -10.322340      -280.8852
  46   2.0000     -10.321795      -280.8703
  47   2.0000     -10.319768      -280.8152
  48   2.0000     -10.319353      -280.8039
  49   2.0000     -10.318574      -280.7827
  50   2.0000     -10.318261      -280.7742
  51   2.0000     -10.317326      -280.7487
  52   2.0000     -10.315739      -280.7055
  53   2.0000     -10.315350      -280.6950
  54   2.0000     -10.313966      -280.6573
  55   2.0000     -10.312706      -280.6230
  56   2.0000     -10.312618      -280.6206
  57   2.0000     -10.312383      -280.6142
  58   2.0000     -10.312237      -280.6102
  59   2.0000     -10.306768      -280.4614
  60   2.0000     -10.306135      -280.4442
  61   2.0000     -10.299748      -280.2704
  62   2.0000     -10.299270      -280.2574
  63   2.0000     -10.298965      -280.2491
  64   2.0000     -10.298461      -280.2354
  65   2.0000     -10.297093      -280.1982
  66   2.0000     -10.290251      -280.0120
  67   2.0000     -10.288903      -279.9753
  68   2.0000     -10.286780      -279.9175
  69   2.0000     -10.282823      -279.8098
  70   2.0000     -10.282142      -279.7913
  71   2.0000     -10.275656      -279.6148
  72   2.0000     -10.275051      -279.5983
  73   2.0000     -10.274178      -279.5746
  74   2.0000     -10.273436      -279.5544
  75   2.0000      -8.100306      -220.4205
  76   2.0000      -8.017175      -218.1584
  77   2.0000      -8.014770      -218.0930
  78   2.0000      -6.069555      -165.1610
  79   2.0000      -6.065291      -165.0449
  80   2.0000      -6.062505      -164.9691
  81   2.0000      -5.986195      -162.8926
  82   2.0000      -5.985790      -162.8816
  83   2.0000      -5.983627      -162.8228
  84   2.0000      -5.983200      -162.8112
  85   2.0000      -5.976230      -162.6215
  86   2.0000      -5.974223      -162.5669
  87   2.0000      -1.401652       -38.1409
  88   2.0000      -1.306172       -35.5427
  89   2.0000      -1.297770       -35.3141
  90   2.0000      -1.156814       -31.4785
  91   2.0000      -1.126875       -30.6638
  92   2.0000      -1.101076       -29.9618
  93   2.0000      -1.098794       -29.8997
  94   2.0000      -1.081394       -29.4262
  95   2.0000      -1.079021       -29.3616
  96   2.0000      -1.039301       -28.2808
  97   2.0000      -1.034480       -28.1496
  98   2.0000      -1.016125       -27.6502
  99   2.0000      -1.014749       -27.6127
 100   2.0000      -1.009458       -27.4687
 101   2.0000      -1.002993       -27.2928
 102   2.0000      -0.994401       -27.0590
 103   2.0000      -0.992099       -26.9964
 104   2.0000      -0.987454       -26.8700
 105   2.0000      -0.982470       -26.7344
 106   2.0000      -0.979418       -26.6513
 107   2.0000      -0.964502       -26.2454
 108   2.0000      -0.944513       -25.7015
 109   2.0000      -0.935487       -25.4559
 110   2.0000      -0.931183       -25.3388
 111   2.0000      -0.925289       -25.1784
 112   2.0000      -0.913907       -24.8687
 113   2.0000      -0.912327       -24.8257
 114   2.0000      -0.902862       -24.5681
 115   2.0000      -0.895799       -24.3759
 116   2.0000      -0.890797       -24.2398
 117   2.0000      -0.882343       -24.0098
 118   2.0000      -0.874521       -23.7969
 119   2.0000      -0.872221       -23.7343
 120   2.0000      -0.868193       -23.6247
 121   2.0000      -0.858067       -23.3492
 122   2.0000      -0.847678       -23.0665
 123   2.0000      -0.843386       -22.9497
 124   2.0000      -0.839692       -22.8492
 125   2.0000      -0.819380       -22.2965
 126   2.0000      -0.811693       -22.0873
 127   2.0000      -0.804893       -21.9022
 128   2.0000      -0.795141       -21.6369
 129   2.0000      -0.788007       -21.4427
 130   2.0000      -0.779576       -21.2133
 131   2.0000      -0.778908       -21.1952
 132   2.0000      -0.762147       -20.7391
 133   2.0000      -0.755988       -20.5715
 134   2.0000      -0.754354       -20.5270
 135   2.0000      -0.736269       -20.0349
 136   2.0000      -0.730122       -19.8676
 137   2.0000      -0.726853       -19.7787
 138   2.0000      -0.722174       -19.6514
 139   2.0000      -0.718233       -19.5441
 140   2.0000      -0.716105       -19.4862
 141   2.0000      -0.710092       -19.3226
 142   2.0000      -0.708852       -19.2888
 143   2.0000      -0.704784       -19.1782
 144   2.0000      -0.693892       -18.8818
 145   2.0000      -0.692383       -18.8407
 146   2.0000      -0.687584       -18.7101
 147   2.0000      -0.683869       -18.6090
 148   2.0000      -0.681539       -18.5456
 149   2.0000      -0.672836       -18.3088
 150   2.0000      -0.665823       -18.1180
 151   2.0000      -0.662857       -18.0373
 152   2.0000      -0.660302       -17.9677
 153   2.0000      -0.646208       -17.5842
 154   2.0000      -0.639500       -17.4017
 155   2.0000      -0.631280       -17.1780
 156   2.0000      -0.627155       -17.0657
 157   2.0000      -0.621902       -16.9228
 158   2.0000      -0.620452       -16.8834
 159   2.0000      -0.611740       -16.6463
 160   2.0000      -0.605642       -16.4803
 161   2.0000      -0.600766       -16.3477
 162   2.0000      -0.598079       -16.2745
 163   2.0000      -0.591953       -16.1079
 164   2.0000      -0.588100       -16.0030
 165   2.0000      -0.585460       -15.9312
 166   2.0000      -0.582259       -15.8441
 167   2.0000      -0.578263       -15.7353
 168   2.0000      -0.572431       -15.5766
 169   2.0000      -0.567180       -15.4338
 170   2.0000      -0.562487       -15.3060
 171   2.0000      -0.561606       -15.2821
 172   2.0000      -0.559254       -15.2181
 173   2.0000      -0.557387       -15.1673
 174   2.0000      -0.555885       -15.1264
 175   2.0000      -0.553771       -15.0689
 176   2.0000      -0.552391       -15.0313
 177   2.0000      -0.548354       -14.9215
 178   2.0000      -0.544441       -14.8150
 179   2.0000      -0.541973       -14.7478
 180   2.0000      -0.539181       -14.6719
 181   2.0000      -0.537526       -14.6268
 182   2.0000      -0.534143       -14.5348
 183   2.0000      -0.532328       -14.4854
 184   2.0000      -0.531669       -14.4675
 185   2.0000      -0.526008       -14.3134
 186   2.0000      -0.523568       -14.2470
 187   2.0000      -0.520707       -14.1692
 188   2.0000      -0.517768       -14.0892
 189   2.0000      -0.514382       -13.9970
 190   2.0000      -0.513773       -13.9805
 191   2.0000      -0.512446       -13.9444
 192   2.0000      -0.512224       -13.9383
 193   2.0000      -0.510550       -13.8928
 194   2.0000      -0.508684       -13.8420
 195   2.0000      -0.506852       -13.7922
 196   2.0000      -0.506069       -13.7709
 197   2.0000      -0.502332       -13.6691
 198   2.0000      -0.501563       -13.6482
 199   2.0000      -0.500247       -13.6124
 200   2.0000      -0.499766       -13.5993
 201   2.0000      -0.496039       -13.4979
 202   2.0000      -0.494529       -13.4568
 203   2.0000      -0.492982       -13.4147
 204   2.0000      -0.492473       -13.4009
 205   2.0000      -0.489496       -13.3199
 206   2.0000      -0.484587       -13.1863
 207   2.0000      -0.480679       -13.0799
 208   2.0000      -0.476530       -12.9670
 209   2.0000      -0.465796       -12.6750
 210   2.0000      -0.464136       -12.6298
 211   2.0000      -0.461200       -12.5499
 212   2.0000      -0.460749       -12.5376
 213   2.0000      -0.459093       -12.4926
 214   2.0000      -0.456867       -12.4320
 215   2.0000      -0.454404       -12.3650
 216   2.0000      -0.452021       -12.3001
 217   2.0000      -0.449171       -12.2226
 218   2.0000      -0.448412       -12.2019
 219   2.0000      -0.448062       -12.1924
 220   2.0000      -0.445703       -12.1282
 221   2.0000      -0.442810       -12.0495
 222   2.0000      -0.442299       -12.0356
 223   2.0000      -0.441526       -12.0145
 224   2.0000      -0.439415       -11.9571
 225   2.0000      -0.434871       -11.8334
 226   2.0000      -0.431285       -11.7359
 227   2.0000      -0.427329       -11.6282
 228   2.0000      -0.426691       -11.6108
 229   2.0000      -0.424535       -11.5522
 230   2.0000      -0.423824       -11.5328
 231   2.0000      -0.422824       -11.5056
 232   2.0000      -0.418566       -11.3898
 233   2.0000      -0.414465       -11.2782
 234   2.0000      -0.405423       -11.0321
 235   2.0000      -0.402065       -10.9408
 236   2.0000      -0.397250       -10.8097
 237   2.0000      -0.395117       -10.7517
 238   2.0000      -0.380053       -10.3418
 239   2.0000      -0.376316       -10.2401
 240   2.0000      -0.373448       -10.1620
 241   2.0000      -0.370640       -10.0856
 242   2.0000      -0.366312        -9.9678
 243   2.0000      -0.364366        -9.9149
 244   2.0000      -0.359998        -9.7961
 245   2.0000      -0.359408        -9.7800
 246   2.0000      -0.357740        -9.7346
 247   2.0000      -0.349658        -9.5147
 248   2.0000      -0.334199        -9.0940
 249   2.0000      -0.329445        -8.9647
 250   2.0000      -0.328623        -8.9423
 251   2.0000      -0.326961        -8.8971
 252   2.0000      -0.321782        -8.7561
 253   2.0000      -0.315098        -8.5743
 254   2.0000      -0.309958        -8.4344
 255   2.0000      -0.306957        -8.3527
 256   2.0000      -0.306044        -8.3279
 257   2.0000      -0.299192        -8.1414
 258   2.0000      -0.292861        -7.9692
 259   2.0000      -0.283541        -7.7155
 260   0.0000      -0.131723        -3.5844
 261   0.0000      -0.127249        -3.4626
 262   0.0000      -0.110758        -3.0139
 263   0.0000      -0.100497        -2.7347
 264   0.0000      -0.084455        -2.2981

MULLIKEN ATOMIC CHARGES
-----------------------
   0 C :    0.291646
   1 C :   -0.339665
   2 C :   -0.183815
   3 N :    0.158232
   4 C :   -0.185689
   5 N :    0.151764
   6 C :    0.062329
   7 C :    0.022599
   8 C :   -0.068531
   9 C :    0.094879
  10 C :    0.099811
  11 C :   -0.092959
  12 C :   -0.024067
  13 C :    0.038231
  14 C :    0.039908
  15 C :   -0.014673
  16 C :    0.093284
  17 O :   -0.130779
  18 C :   -0.047124
  19 C :   -0.032390
  20 C :    0.002528
  21 C :    0.079410
  22 N :   -0.029662
  23 C :    0.012543
  24 C :    0.028160
  25 C :   -0.006069
  26 S :   -0.072911
  27 C :   -0.004103
  28 C :    0.020175
  29 N :   -0.019101
  30 C :    0.066505
  31 C :   -0.038282
  32 C :   -0.091225
  33 S :    0.205712
  34 C :   -0.176392
  35 C :    0.013281
  36 C :   -0.031308
  37 C :   -0.219729
  38 N :    0.189926
  39 C :    0.522845
  40 F :   -0.146302
  41 F :   -0.144928
  42 F :   -0.159831
  43 C :   -0.040715
  44 C :    0.063501
  45 N :   -0.022909
  46 C :   -0.003299
  47 C :    0.035575
  48 C :   -0.027474
  49 S :   -0.077687
  50 C :    0.019473
  51 C :    0.036090
  52 N :   -0.033744
  53 C :    0.135695
  54 C :   -0.030103
  55 C :   -0.027294
  56 C :   -0.096384
  57 C :    0.326450
  58 C :   -0.335633
  59 C :   -0.184635
  60 N :    0.159302
  61 C :   -0.189836
  62 N :    0.166957
  63 C :    0.054507
  64 C :   -0.013179
  65 C :    0.153253
  66 O :   -0.146540
  67 C :   -0.071136
  68 C :    0.097049
  69 C :    0.098059
  70 C :   -0.082608
  71 C :   -0.018604
  72 C :    0.039931
  73 C :    0.039652
  74 C :   -0.014338
  75 H :   -0.008365
  76 H :   -0.007398
  77 H :   -0.012584
  78 H :    0.000377
  79 H :    0.001262
  80 H :   -0.013172
  81 H :    0.027610
  82 H :    0.022851
  83 H :    0.010603
  84 H :    0.008182
  85 H :    0.018235
  86 H :    0.041654
  87 H :   -0.008361
  88 H :   -0.006104
  89 H :   -0.005514
  90 H :    0.000651
  91 H :   -0.000174
  92 H :   -0.013364
Sum of atomic charges:   -0.0000000

LOEWDIN ATOMIC CHARGES
----------------------
   0 C :    0.078962
   1 C :   -0.134688
   2 C :   -0.018693
   3 N :   -0.048163
   4 C :   -0.018694
   5 N :   -0.052071
   6 C :   -0.026393
   7 C :   -0.059367
   8 C :    0.035729
   9 C :   -0.007058
  10 C :   -0.005574
  11 C :    0.017450
  12 C :   -0.009978
  13 C :   -0.008123
  14 C :   -0.007086
  15 C :   -0.004741
  16 C :    0.067884
  17 O :   -0.129727
  18 C :   -0.043416
  19 C :    0.039091
  20 C :   -0.040767
  21 C :    0.109158
  22 N :   -0.081602
  23 C :    0.057953
  24 C :   -0.001307
  25 C :   -0.140799
  26 S :    0.139660
  27 C :   -0.005578
  28 C :    0.038893
  29 N :   -0.074815
  30 C :    0.086190
  31 C :   -0.076050
  32 C :   -0.137306
  33 S :    0.486203
  34 C :   -0.145051
  35 C :   -0.083289
  36 C :   -0.077005
  37 C :   -0.033483
  38 N :   -0.026553
  39 C :    0.169511
  40 F :   -0.044168
  41 F :   -0.043324
  42 F :   -0.059907
  43 C :   -0.081221
  44 C :    0.080709
  45 N :   -0.076378
  46 C :    0.027369
  47 C :   -0.011008
  48 C :   -0.153462
  49 S :    0.095340
  50 C :   -0.003143
  51 C :    0.059485
  52 N :   -0.089284
  53 C :    0.128121
  54 C :   -0.046435
  55 C :    0.074672
  56 C :   -0.073151
  57 C :    0.071990
  58 C :   -0.123142
  59 C :   -0.017237
  60 N :   -0.041514
  61 C :   -0.019584
  62 N :   -0.039714
  63 C :   -0.025214
  64 C :   -0.060229
  65 C :    0.091273
  66 O :   -0.123399
  67 C :    0.039680
  68 C :   -0.007635
  69 C :   -0.003387
  70 C :    0.023184
  71 C :   -0.003612
  72 C :   -0.007423
  73 C :   -0.007500
  74 C :   -0.006879
  75 H :    0.037479
  76 H :    0.038163
  77 H :    0.032975
  78 H :    0.035094
  79 H :    0.035693
  80 H :    0.032740
  81 H :    0.046593
  82 H :    0.032715
  83 H :    0.026948
  84 H :    0.026126
  85 H :    0.029126
  86 H :    0.050955
  87 H :    0.041338
  88 H :    0.040330
  89 H :    0.036320
  90 H :    0.035576
  91 H :    0.035068
  92 H :    0.033579

  Mayer bond orders larger than 0.100000
B(  0-C ,  1-C ) :   1.6558 B(  0-C ,  6-C ) :   1.0094 B(  0-C , 18-C ) :   1.0373
B(  1-C ,  2-C ) :   1.1380 B(  1-C ,  4-C ) :   1.1399 B(  2-C ,  3-N ) :   2.9835
B(  4-C ,  5-N ) :   2.9870 B(  6-C ,  7-C ) :   1.1989 B(  6-C , 11-C ) :   1.4443
B(  7-C ,  8-C ) :   1.4503 B(  7-C , 16-C ) :   0.9219 B(  8-C ,  9-C ) :   1.1871
B(  8-C , 75-H ) :   1.0061 B(  9-C , 10-C ) :   1.2433 B(  9-C , 15-C ) :   1.2471
B( 10-C , 11-C ) :   1.2145 B( 10-C , 12-C ) :   1.2376 B( 11-C , 76-H ) :   0.9919
B( 12-C , 13-C ) :   1.4892 B( 12-C , 77-H ) :   0.9970 B( 13-C , 14-C ) :   1.2606
B( 13-C , 78-H ) :   0.9888 B( 14-C , 15-C ) :   1.4848 B( 14-C , 79-H ) :   0.9889
B( 15-C , 80-H ) :   0.9973 B( 16-C , 17-O ) :   2.2542 B( 16-C , 18-C ) :   0.8912
B( 18-C , 19-C ) :   1.7288 B( 19-C , 20-C ) :   1.0594 B( 19-C , 81-H ) :   0.9365
B( 20-C , 21-C ) :   1.0147 B( 20-C , 24-C ) :   1.5609 B( 21-C , 22-N ) :   1.7079
B( 21-C , 82-H ) :   0.9943 B( 22-N , 23-C ) :   1.2692 B( 23-C , 24-C ) :   1.0668
B( 23-C , 28-C ) :   1.5182 B( 24-C , 25-C ) :   1.0242 B( 25-C , 26-S ) :   1.6986
B( 25-C , 27-C ) :   1.0340 B( 27-C , 28-C ) :   1.0608 B( 27-C , 31-C ) :   1.5863
B( 28-C , 29-N ) :   1.2702 B( 29-N , 30-C ) :   1.7246 B( 30-C , 31-C ) :   1.0380
B( 30-C , 83-H ) :   0.9948 B( 31-C , 32-C ) :   1.0233 B( 32-C , 33-S ) :   1.1465
B( 32-C , 34-C ) :   0.1064 B( 32-C , 36-C ) :   1.5476 B( 33-S , 34-C ) :   1.1531
B( 34-C , 35-C ) :   1.5966 B( 34-C , 43-C ) :   0.9878 B( 35-C , 36-C ) :   1.2579
B( 35-C , 39-C ) :   0.9365 B( 36-C , 37-C ) :   1.1401 B( 37-C , 38-N ) :   2.9462
B( 39-C , 40-F ) :   1.1547 B( 39-C , 41-F ) :   1.1559 B( 39-C , 42-F ) :   1.1692
B( 43-C , 44-C ) :   1.0552 B( 43-C , 47-C ) :   1.5952 B( 44-C , 45-N ) :   1.7046
B( 44-C , 84-H ) :   0.9963 B( 45-N , 46-C ) :   1.2830 B( 46-C , 47-C ) :   1.0660
B( 46-C , 51-C ) :   1.4935 B( 47-C , 48-C ) :   1.0110 B( 48-C , 49-S ) :   1.7299
B( 48-C , 50-C ) :   1.0036 B( 50-C , 51-C ) :   1.0469 B( 50-C , 54-C ) :   1.5856
B( 51-C , 52-N ) :   1.2855 B( 52-N , 53-C ) :   1.7040 B( 53-C , 54-C ) :   0.9903
B( 53-C , 85-H ) :   0.9856 B( 54-C , 55-C ) :   1.0568 B( 55-C , 56-C ) :   1.6874
B( 55-C , 86-H ) :   0.9385 B( 56-C , 57-C ) :   1.0215 B( 56-C , 65-C ) :   0.9377
B( 57-C , 58-C ) :   1.6652 B( 57-C , 63-C ) :   0.9998 B( 58-C , 59-C ) :   1.1424
B( 58-C , 61-C ) :   1.1424 B( 59-C , 60-N ) :   2.9666 B( 61-C , 62-N ) :   2.9750
B( 63-C , 64-C ) :   1.2073 B( 63-C , 70-C ) :   1.4451 B( 64-C , 65-C ) :   0.9564
B( 64-C , 67-C ) :   1.4613 B( 65-C , 66-O ) :   2.1800 B( 67-C , 68-C ) :   1.1838
B( 67-C , 87-H ) :   1.0176 B( 68-C , 69-C ) :   1.2504 B( 68-C , 74-C ) :   1.2421
B( 69-C , 70-C ) :   1.2093 B( 69-C , 71-C ) :   1.2402 B( 70-C , 88-H ) :   0.9901
B( 71-C , 72-C ) :   1.4884 B( 71-C , 89-H ) :   0.9978 B( 72-C , 73-C ) :   1.2586
B( 72-C , 90-H ) :   0.9890 B( 73-C , 74-C ) :   1.4889 B( 73-C , 91-H ) :   0.9890
B( 74-C , 92-H ) :   0.9982

-----------------------------------------------------------------------------
         ABSORPTION SPECTRUM VIA TRANSITION ELECTRIC DIPOLE MOMENTS
-----------------------------------------------------------------------------
State   Energy  Wavelength   fosc         T2         TX        TY        TZ
        (cm-1)    (nm)                  (au**2)     (au)      (au)      (au)
-----------------------------------------------------------------------------
   0   15138.9    660.6   0.004930715   0.10722  -0.11076  -0.19775   0.23633
   1   16144.7    619.4   0.002104778   0.04292  -0.19969   0.04975   0.02384
   2   17169.0    582.4   0.007937253   0.15220   0.01241  -0.38534  -0.05959
   3   17458.5    572.8   0.039738600   0.74934   0.76299   0.14131  -0.38370
   4   17783.8    562.3   0.003957557   0.07326   0.18459  -0.18721   0.06433
   5   19336.1    517.2   0.030613750   0.52122  -0.07385   0.67170  -0.25413
   6   19511.8    512.5   0.109242004   1.84318  -1.18366   0.65185   0.13124
   7   20204.1    494.9   0.044086758   0.71836   0.60270   0.25860  -0.53688
   8   21247.6    470.6   0.022178843   0.34364  -0.50732  -0.11651   0.26963
   9   21742.9    459.9   0.012992909   0.19673  -0.20513  -0.35214   0.17507
  10   22199.7    450.5   0.010888642   0.16147  -0.22765  -0.22463   0.24329
  11   22645.2    441.6   0.002282718   0.03319  -0.06445   0.10866   0.13125
  12   23365.8    428.0   0.010422556   0.14685   0.31273  -0.21873  -0.03473
  13   23391.2    427.5   0.179029236   2.51969   1.31586   0.48414  -0.74418
  14   23799.8    420.2   0.105670241   1.46169  -0.13344   1.18139  -0.21956
  15   24366.6    410.4   0.013782043   0.18621  -0.36644   0.16929   0.15253
  16   24605.2    406.4   0.064325089   0.86065  -0.91029   0.15582   0.08801
  17   24713.4    404.6   0.083770733   1.11593   0.89021   0.17472  -0.54123
  18   24829.1    402.8   0.087281453   1.15727  -0.79440   0.72194   0.07077
  19   24877.5    402.0   0.125471861   1.66041  -0.86818   0.78828  -0.53413
  20   25402.2    393.7   0.009079734   0.11767  -0.14772  -0.25666  -0.17314
  21   25710.0    389.0   0.149796607   1.91812   0.61364  -1.16120   0.43952
  22   25791.4    387.7   0.129362247   1.65123  -0.61114   1.12826  -0.06906
  23   25835.2    387.1   0.016192797   0.20634   0.41134  -0.16028   0.10700
  24   26115.6    382.9   0.008500120   0.10715   0.06943  -0.31064   0.07638
  25   26195.3    381.7   0.021467185   0.26979  -0.15651  -0.03942   0.49370
  26   26667.1    375.0   0.105015167   1.29644  -1.01135  -0.39047   0.34805
  27   27197.8    367.7   0.015032564   0.18196   0.32824  -0.25556  -0.09438
  28   27396.4    365.0   0.125003252   1.50211  -0.27820   1.08798  -0.49094
  29   27564.8    362.8   0.018905665   0.22579  -0.36611   0.15573  -0.25981
  30   27910.6    358.3   0.015895133   0.18749  -0.19578  -0.36063   0.13822
  31   28022.9    356.9   0.032160824   0.37782  -0.37939   0.33569  -0.34813
  32   28588.8    349.8   0.165721932   1.90836  -0.63481   1.12311   0.49395
  33   28889.3    346.1   0.230699319   2.62897   1.19176  -1.09921   0.02021
  34   29060.1    344.1   0.107874570   1.22207  -0.51793   0.94756  -0.23653
  35   29356.7    340.6   0.154113349   1.72826   0.77688  -0.85287  -0.63034
  36   29581.5    338.0   0.129723378   1.44369  -0.76522  -0.07050   0.92367
  37   29626.8    337.5   0.022921690   0.25471  -0.45449   0.15273   0.15754
  38   29928.4    334.1   0.027239359   0.29963   0.30057  -0.45037   0.08038
  39   29972.8    333.6   0.131527512   1.44466  -0.47652   0.95456   0.55354
  40   30179.5    331.4   0.067732878   0.73886   0.24997  -0.82157   0.03749
  41   30525.3    327.6   0.013643988   0.14715   0.29717   0.06935  -0.23244
  42   31147.0    321.1   0.155079606   1.63913   0.85032   0.95668   0.02942
  43   31307.9    319.4   0.647362807   6.80721   1.98441  -1.18038   1.21491
  44   31555.0    316.9   0.006044383   0.06306   0.17315   0.13407   0.12290
  45   31652.4    315.9   0.005170921   0.05378   0.00556  -0.21871   0.07693
  46   31772.5    314.7   0.009263310   0.09598  -0.26205   0.15569  -0.05546
  47   31907.3    313.4   0.076188395   0.78609   0.17875  -0.86680  -0.05289
  48   32064.4    311.9   0.079681803   0.81811   0.11136   0.87207  -0.21261
  49   32338.0    309.2   0.077077706   0.78468  -0.70748  -0.07809   0.52731
  50   32415.8    308.5   0.094877116   0.96356  -0.29298   0.78640  -0.50921
  51   32438.4    308.3   0.115189756   1.16904   1.05223   0.01460   0.24828
  52   32810.4    304.8   0.063785943   0.64001  -0.37173  -0.61000   0.36019
  53   32957.5    303.4   0.087393068   0.87297  -0.76749   0.35073  -0.40113
  54   32997.8    303.1   0.141008622   1.40681  -1.13420   0.29818  -0.17750
  55   33102.5    302.1   0.202752728   2.01642  -1.25229   0.49360  -0.45226
  56   33681.4    296.9   0.034190128   0.33418  -0.45752   0.13822  -0.32520
  57   33773.4    296.1   0.089240710   0.86989   0.16343   0.73146  -0.55511
  58   33845.0    295.5   0.110894758   1.07868   0.40274  -0.92822   0.23427
  59   34031.8    293.8   0.099659666   0.96407   0.18813  -0.60463   0.75041
  60   34152.3    292.8   0.085110210   0.82042   0.33510   0.78588  -0.30088
  61   34293.3    291.6   0.058526887   0.56185  -0.23117   0.47223  -0.53423
  62   34371.4    290.9   0.193370287   1.85212  -1.16320   0.03127  -0.70577
  63   34469.1    290.1   0.059953010   0.57261   0.20884   0.72184   0.08907
  64   34695.1    288.2   0.015459449   0.14669   0.32191  -0.03255  -0.20496
  65   34755.1    287.7   0.032486331   0.30772  -0.02675  -0.54535   0.09797
  66   34837.5    287.0   0.004896006   0.04627  -0.19900   0.07735  -0.02614
  67   34942.1    286.2   0.049505748   0.46643  -0.23695   0.43849   0.46692
  68   35104.7    284.9   0.019411645   0.18204   0.08531   0.34793  -0.23176
  69   35214.4    284.0   0.001879399   0.01757   0.08605   0.02562  -0.09752
  70   35371.9    282.7   0.005283139   0.04917  -0.02679  -0.13713   0.17218
  71   35408.0    282.4   0.016634239   0.15466   0.14946  -0.32243   0.16840
  72   35651.1    280.5   0.218709210   2.01962  -0.51412   0.10538   1.32068
  73   35880.4    278.7   0.112936085   1.03622   0.21783   0.96084  -0.25602
  74   36102.8    277.0   0.053103408   0.48424   0.32068  -0.53698  -0.30505
  75   36246.1    275.9   0.111464560   1.01240  -0.26049  -0.50368   0.83117
  76   36319.7    275.3   0.002411416   0.02186   0.08971  -0.04323  -0.10928
  77   36463.9    274.2   0.262984393   2.37434  -0.76736   0.15304   1.32743
  78   36566.5    273.5   0.030883616   0.27805  -0.32988   0.06462   0.40626
  79   36881.1    271.1   0.060113125   0.53659  -0.59573   0.14661   0.40025
  80   36902.9    271.0   0.003994403   0.03563  -0.11601   0.10785   0.10269
  81   37031.5    270.0   0.071252468   0.63344  -0.12710  -0.77529   0.12731
  82   37374.3    267.6   0.035838880   0.31569  -0.28523  -0.43680   0.20865
  83   37514.2    266.6   0.058809006   0.51609   0.47267  -0.08179   0.53477
  84   37574.7    266.1   0.085113683   0.74573   0.78657   0.18430   0.30508
  85   37892.3    263.9   0.052529742   0.45638  -0.36841  -0.56619  -0.00900
  86   37965.3    263.4   0.106057215   0.91966   0.73040   0.54433   0.29981
  87   38204.4    261.8   0.000860298   0.00741   0.08267   0.00176  -0.02400
  88   38313.0    261.0   0.008996240   0.07730  -0.10824  -0.25608   0.00294
  89   38568.7    259.3   0.008050352   0.06872   0.18410   0.18355   0.03364
  90   38666.3    258.6   0.003957313   0.03369  -0.11395  -0.10178  -0.10173
  91   38773.4    257.9   0.019549108   0.16599  -0.24085   0.23280   0.23190
  92   38828.4    257.5   0.024843120   0.21064   0.18858  -0.33893  -0.24536
  93   38933.4    256.8   0.030350664   0.25664  -0.19770  -0.06478   0.46191
  94   39050.2    256.1   0.052967003   0.44654  -0.15102   0.60817  -0.23208
  95   39249.5    254.8   0.062525936   0.52445   0.10221   0.71691   0.00601
  96   39254.3    254.7   0.203211737   1.70427   0.92281   0.36565  -0.84794
  97   39326.6    254.3   0.064769149   0.54220   0.12035   0.35794  -0.63213
  98   39512.6    253.1   0.050497080   0.42073  -0.22117  -0.38579   0.47221
  99   39613.6    252.4   0.053510944   0.44471   0.40173  -0.35623  -0.39550
 100   39920.6    250.5   0.052323794   0.43150  -0.02771  -0.65348  -0.06073
 101   40200.0    248.8   0.340202969   2.78604  -1.33714   0.95859   0.28143

FINAL SINGLE POINT ENERGY     -4353.781044328862

DIPOLE MOMENT
-------------
                                X             Y             Z
Electronic contribution:    -31.58003      32.51200     -20.65758
Nuclear contribution   :     36.76484     -31.72218      20.48314
                        -----------------------------------------
Total Dipole Moment    :      5.18481       0.78982      -0.17445
                        -----------------------------------------
Magnitude (a.u.)       :      5.24752
Magnitude (Debye)      :     13.33815

Rotational constants in cm-1:     0.001217     0.000497     0.000409
Rotational constants in MHz :    36.482126    14.911959    12.261287

                             ****ORCA TERMINATED NORMALLY****
TOTAL RUN TIME: 0 days 0 hours 19 minutes 33 seconds 460 msec
