                         Program Version 4.2.0 -  RELEASE  -
|  1> # ORCA input file
|  2> # SCF done       -174.448383795094          0.000393241149
|  3> ! CAM-B3LYP def2-SVP def2/J RIJCOSX Grid4 TightSCF
|  4> %maxcore 5000
|  5> %tddft
|  6>     Mode sTDDFT
|  7>     Ethresh 5.0
|  8>     maxcore 5000
|  9> end
| 10>
| 11> %pal
| 12>   nprocs 6
| 13>   end
| 14> * xyz 0 1
| 15>    C       14.32825         2.46534        -7.57596
| 16>    S       13.04816         2.66701        -6.45733
| 17>    C       13.79843         4.09999        -5.78970
| 18>    C       14.97729         4.38168        -6.44439
| 19>    C       15.27695         3.43419        -7.46120
| 20>    C       16.50544         3.51516        -8.30902
| 21>    S       17.26191         1.85776        -8.56668
| 22>    C       17.51533         4.49046        -7.71852
| 23>    C       16.80987         5.79664        -7.37734
| 24>    C       15.83897         5.59736        -6.20648
| 25>    O       15.07311         6.76129        -5.98076
| 26>    C       13.14747         4.75065        -4.68258
| 27>    C       11.79896         4.62831        -4.47867
| 28>    C       11.08992         5.18503        -3.41131
| 29>    C       11.78004         5.96797        -2.38243
| 30>    C       13.11109         6.19935        -2.37417
| 31>    S       14.19178         5.62478        -3.57152
| 32>    C       10.76262         6.37308        -1.47990
| 33>    C        9.52350         5.88408        -1.90054
| 34>    C        8.49251         6.25900        -1.00766
| 35>    C        8.96294         7.00042         0.02879
| 36>    S       10.66928         7.28001        -0.02252
| 37>    C        9.71505         5.13476        -3.12030
| 38>    C        8.75221         4.45900        -3.90717
| 39>    C        7.41084         4.43950        -3.69494
| 40>    C        6.47354         3.75243        -4.50330
| 41>    S        4.76628         3.89036        -4.10553
| 42>    C        4.35867         2.88204        -5.43282
| 43>    C        5.48413         2.45894        -6.14102
| 44>    C        6.67155         2.94802        -5.61797
| 45>    C        5.08250         1.57707        -7.30136
| 46>    C        5.51304         2.18370        -8.63905
| 47>    C        5.64534         0.16191        -7.14227
| 48>    C        3.57858         1.58641        -7.14874
| 49>    C        3.20218         2.35258        -6.04336
| 50>    S        1.50267         2.39282        -5.82702
| 51>    C        1.28249         1.37698        -7.24585
| 52>    C        2.49853         1.03970        -7.82412
| 53>    C       -0.04005         1.05628        -7.62971
| 54>    C       -0.40253         0.32676        -8.71571
| 55>    C       -1.74913         0.05202        -9.09827
| 56>    C       -2.84871         0.65771        -8.54298
| 57>    C       -4.18047         0.39066        -8.85871
| 58>    C       -4.50959        -0.51986        -9.96808
| 59>    C       -3.59294        -1.21280       -10.67777
| 60>    S       -1.90391        -1.14783       -10.37916
| 61>    C       -5.92431        -0.47105       -10.08815
| 62>    C       -6.44628         0.38631        -9.11999
| 63>    C       -7.85531         0.46615        -9.18377
| 64>    C       -8.35566        -0.31232       -10.17801
| 65>    S       -7.14786        -1.17551       -11.07226
| 66>    C       -5.36977         0.92056        -8.32691
| 67>    C       -5.57828         1.78826        -7.22072
| 68>    C       -4.66627         2.11190        -6.27521
| 69>    C       -4.87306         2.99129        -5.17832
| 70>    S       -6.44608         3.56733        -4.69645
| 71>    C       -5.77002         4.41573        -3.36432
| 72>    C       -4.41690         4.28092        -3.28718
| 73>    C       -3.89326         3.48198        -4.33373
| 74>    C       -2.43451         3.23869        -4.50028
| 75>    S       -2.00836         1.46750        -4.13313
| 76>    C       -1.59587         4.18684        -3.64888
| 77>    C       -2.15706         4.32310        -2.23701
| 78>    C       -3.55754         4.95242        -2.24914
| 79>    O       -3.50783         6.35201        -2.45047
| 80>    H       14.31689         1.63827        -8.25753
| 81>    H       16.23728         3.82027        -9.32636
| 82>    H       17.48229         1.60315        -7.27873
| 83>    H       18.32091         4.66196        -8.43342
| 84>    H       17.95111         4.06475        -6.81097
| 85>    H       16.25077         6.15023        -8.24912
| 86>    H       17.53322         6.56633        -7.10658
| 87>    H       16.41398         5.46373        -5.28046
| 88>    H       14.52127         6.92627        -6.75453
| 89>    H       11.24964         4.06091        -5.21893
| 90>    H       13.59480         6.77724        -1.60242
| 91>    H        7.45336         6.00299        -1.10150
| 92>    H        8.40339         7.41377         0.84525
| 93>    H        9.14159         3.91735        -4.75833
| 94>    H        6.99378         4.98782        -2.86501
| 95>    H        7.64656         2.73659        -6.01725
| 96>    H        6.59766         2.24024        -8.69222
| 97>    H        5.10569         3.18658        -8.74692
| 98>    H        5.15243         1.57061        -9.46154
| 99>    H        6.73201         0.18521        -7.17391
|100>    H        5.28337        -0.47694        -7.94431
|101>    H        5.33321        -0.26279        -6.19076
|102>    H        2.57193         0.42087        -8.69960
|103>    H       -0.80226         1.44282        -6.96805
|104>    H        0.36415        -0.10593        -9.34321
|105>    H       -2.64380         1.43354        -7.82495
|106>    H       -3.86375        -1.87618       -11.48413
|107>    H       -8.46886         1.06451        -8.53455
|108>    H       -9.38293        -0.44493       -10.45694
|109>    H       -6.57546         2.20395        -7.13091
|110>    H       -3.69148         1.65308        -6.28877
|111>    H       -6.40933         4.97512        -2.71139
|112>    H       -2.14192         3.33257        -5.55038
|113>    H       -2.61667         1.41006        -2.95294
|114>    H       -1.57745         5.16622        -4.13692
|115>    H       -0.56828         3.82063        -3.61215
|116>    H       -1.49971         4.95194        -1.63484
|117>    H       -2.21158         3.34066        -1.76368
|118>    H       -4.01897         4.84408        -1.26054
|119>    H       -3.15352         6.52465        -3.33038
|120> *
|121>
|122>                          ****END OF INPUT****

CARTESIAN COORDINATES (ANGSTROEM)
---------------------------------
  C     14.328250    2.465340   -7.575960
  S     13.048160    2.667010   -6.457330
  C     13.798430    4.099990   -5.789700
  C     14.977290    4.381680   -6.444390
  C     15.276950    3.434190   -7.461200
  C     16.505440    3.515160   -8.309020
  S     17.261910    1.857760   -8.566680
  C     17.515330    4.490460   -7.718520
  C     16.809870    5.796640   -7.377340
  C     15.838970    5.597360   -6.206480
  O     15.073110    6.761290   -5.980760
  C     13.147470    4.750650   -4.682580
  C     11.798960    4.628310   -4.478670
  C     11.089920    5.185030   -3.411310
  C     11.780040    5.967970   -2.382430
  C     13.111090    6.199350   -2.374170
  S     14.191780    5.624780   -3.571520
  C     10.762620    6.373080   -1.479900
  C      9.523500    5.884080   -1.900540
  C      8.492510    6.259000   -1.007660
  C      8.962940    7.000420    0.028790
  S     10.669280    7.280010   -0.022520
  C      9.715050    5.134760   -3.120300
  C      8.752210    4.459000   -3.907170
  C      7.410840    4.439500   -3.694940
  C      6.473540    3.752430   -4.503300
  S      4.766280    3.890360   -4.105530
  C      4.358670    2.882040   -5.432820
  C      5.484130    2.458940   -6.141020
  C      6.671550    2.948020   -5.617970
  C      5.082500    1.577070   -7.301360
  C      5.513040    2.183700   -8.639050
  C      5.645340    0.161910   -7.142270
  C      3.578580    1.586410   -7.148740
  C      3.202180    2.352580   -6.043360
  S      1.502670    2.392820   -5.827020
  C      1.282490    1.376980   -7.245850
  C      2.498530    1.039700   -7.824120
  C     -0.040050    1.056280   -7.629710
  C     -0.402530    0.326760   -8.715710
  C     -1.749130    0.052020   -9.098270
  C     -2.848710    0.657710   -8.542980
  C     -4.180470    0.390660   -8.858710
  C     -4.509590   -0.519860   -9.968080
  C     -3.592940   -1.212800  -10.677770
  S     -1.903910   -1.147830  -10.379160
  C     -5.924310   -0.471050  -10.088150
  C     -6.446280    0.386310   -9.119990
  C     -7.855310    0.466150   -9.183770
  C     -8.355660   -0.312320  -10.178010
  S     -7.147860   -1.175510  -11.072260
  C     -5.369770    0.920560   -8.326910
  C     -5.578280    1.788260   -7.220720
  C     -4.666270    2.111900   -6.275210
  C     -4.873060    2.991290   -5.178320
  S     -6.446080    3.567330   -4.696450
  C     -5.770020    4.415730   -3.364320
  C     -4.416900    4.280920   -3.287180
  C     -3.893260    3.481980   -4.333730
  C     -2.434510    3.238690   -4.500280
  S     -2.008360    1.467500   -4.133130
  C     -1.595870    4.186840   -3.648880
  C     -2.157060    4.323100   -2.237010
  C     -3.557540    4.952420   -2.249140
  O     -3.507830    6.352010   -2.450470
  H     14.316890    1.638270   -8.257530
  H     16.237280    3.820270   -9.326360
  H     17.482290    1.603150   -7.278730
  H     18.320910    4.661960   -8.433420
  H     17.951110    4.064750   -6.810970
  H     16.250770    6.150230   -8.249120
  H     17.533220    6.566330   -7.106580
  H     16.413980    5.463730   -5.280460
  H     14.521270    6.926270   -6.754530
  H     11.249640    4.060910   -5.218930
  H     13.594800    6.777240   -1.602420
  H      7.453360    6.002990   -1.101500
  H      8.403390    7.413770    0.845250
  H      9.141590    3.917350   -4.758330
  H      6.993780    4.987820   -2.865010
  H      7.646560    2.736590   -6.017250
  H      6.597660    2.240240   -8.692220
  H      5.105690    3.186580   -8.746920
  H      5.152430    1.570610   -9.461540
  H      6.732010    0.185210   -7.173910
  H      5.283370   -0.476940   -7.944310
  H      5.333210   -0.262790   -6.190760
  H      2.571930    0.420870   -8.699600
  H     -0.802260    1.442820   -6.968050
  H      0.364150   -0.105930   -9.343210
  H     -2.643800    1.433540   -7.824950
  H     -3.863750   -1.876180  -11.484130
  H     -8.468860    1.064510   -8.534550
  H     -9.382930   -0.444930  -10.456940
  H     -6.575460    2.203950   -7.130910
  H     -3.691480    1.653080   -6.288770
  H     -6.409330    4.975120   -2.711390
  H     -2.141920    3.332570   -5.550380
  H     -2.616670    1.410060   -2.952940
  H     -1.577450    5.166220   -4.136920
  H     -0.568280    3.820630   -3.612150
  H     -1.499710    4.951940   -1.634840
  H     -2.211580    3.340660   -1.763680
  H     -4.018970    4.844080   -1.260540
  H     -3.153520    6.524650   -3.330380

 Total Charge           Charge          ....    0
 Multiplicity           Mult            ....    1
 Number of Electrons    NEL             ....  534
 Basis Dimension        Dim             .... 1150

ORBITAL ENERGIES
----------------

  NO   OCC          E(Eh)            E(eV)
   0   2.0000     -88.963118     -2420.8095
   1   2.0000     -88.958548     -2420.6851
   2   2.0000     -88.958383     -2420.6807
   3   2.0000     -88.952726     -2420.5267
   4   2.0000     -88.949012     -2420.4257
   5   2.0000     -88.946670     -2420.3619
   6   2.0000     -88.942012     -2420.2352
   7   2.0000     -88.939487     -2420.1665
   8   2.0000     -88.915297     -2419.5082
   9   2.0000     -88.907603     -2419.2989
  10   2.0000     -19.215094      -522.8693
  11   2.0000     -19.196657      -522.3676
  12   2.0000     -10.327851      -281.0351
  13   2.0000     -10.316076      -280.7147
  14   2.0000     -10.315805      -280.7073
  15   2.0000     -10.311134      -280.5802
  16   2.0000     -10.310343      -280.5587
  17   2.0000     -10.308837      -280.5177
  18   2.0000     -10.308486      -280.5082
  19   2.0000     -10.305332      -280.4223
  20   2.0000     -10.301145      -280.3084
  21   2.0000     -10.293214      -280.0926
  22   2.0000     -10.292494      -280.0730
  23   2.0000     -10.291681      -280.0509
  24   2.0000     -10.291273      -280.0398
  25   2.0000     -10.288230      -279.9570
  26   2.0000     -10.286542      -279.9110
  27   2.0000     -10.286097      -279.8989
  28   2.0000     -10.286065      -279.8980
  29   2.0000     -10.284397      -279.8527
  30   2.0000     -10.283279      -279.8222
  31   2.0000     -10.282499      -279.8010
  32   2.0000     -10.281937      -279.7857
  33   2.0000     -10.281205      -279.7658
  34   2.0000     -10.279419      -279.7172
  35   2.0000     -10.279336      -279.7150
  36   2.0000     -10.276269      -279.6315
  37   2.0000     -10.276123      -279.6275
  38   2.0000     -10.275826      -279.6194
  39   2.0000     -10.274754      -279.5903
  40   2.0000     -10.273625      -279.5595
  41   2.0000     -10.272337      -279.5245
  42   2.0000     -10.271817      -279.5104
  43   2.0000     -10.269623      -279.4506
  44   2.0000     -10.269451      -279.4460
  45   2.0000     -10.268026      -279.4072
  46   2.0000     -10.266227      -279.3582
  47   2.0000     -10.265941      -279.3505
  48   2.0000     -10.265171      -279.3295
  49   2.0000     -10.265077      -279.3269
  50   2.0000     -10.263860      -279.2938
  51   2.0000     -10.263643      -279.2879
  52   2.0000     -10.263588      -279.2864
  53   2.0000     -10.263172      -279.2751
  54   2.0000     -10.263121      -279.2737
  55   2.0000     -10.263032      -279.2713
  56   2.0000     -10.261846      -279.2390
  57   2.0000     -10.261091      -279.2185
  58   2.0000     -10.259028      -279.1623
  59   2.0000     -10.258589      -279.1504
  60   2.0000     -10.258063      -279.1361
  61   2.0000     -10.257069      -279.1090
  62   2.0000     -10.256184      -279.0849
  63   2.0000     -10.256090      -279.0824
  64   2.0000     -10.255478      -279.0657
  65   2.0000      -8.058007      -219.2695
  66   2.0000      -8.054049      -219.1618
  67   2.0000      -8.054031      -219.1613
  68   2.0000      -8.047594      -218.9862
  69   2.0000      -8.044140      -218.8922
  70   2.0000      -8.042213      -218.8398
  71   2.0000      -8.037313      -218.7064
  72   2.0000      -8.035163      -218.6479
  73   2.0000      -8.010872      -217.9869
  74   2.0000      -8.002294      -217.7535
  75   2.0000      -6.027624      -164.0200
  76   2.0000      -6.023485      -163.9074
  77   2.0000      -6.023292      -163.9021
  78   2.0000      -6.022917      -163.8919
  79   2.0000      -6.019950      -163.8112
  80   2.0000      -6.019164      -163.7898
  81   2.0000      -6.019046      -163.7866
  82   2.0000      -6.016861      -163.7271
  83   2.0000      -6.016321      -163.7124
  84   2.0000      -6.016004      -163.7038
  85   2.0000      -6.013427      -163.6337
  86   2.0000      -6.012895      -163.6192
  87   2.0000      -6.011638      -163.5850
  88   2.0000      -6.009732      -163.5331
  89   2.0000      -6.009484      -163.5264
  90   2.0000      -6.007430      -163.4705
  91   2.0000      -6.006755      -163.4521
  92   2.0000      -6.006189      -163.4367
  93   2.0000      -6.004310      -163.3856
  94   2.0000      -6.004229      -163.3834
  95   2.0000      -6.002611      -163.3394
  96   2.0000      -6.000198      -163.2737
  97   2.0000      -5.999296      -163.2492
  98   2.0000      -5.997599      -163.2030
  99   2.0000      -5.981364      -162.7612
 100   2.0000      -5.977362      -162.6523
 101   2.0000      -5.972724      -162.5261
 102   2.0000      -5.970461      -162.4645
 103   2.0000      -5.968863      -162.4210
 104   2.0000      -5.962021      -162.2348
 105   2.0000      -1.108151       -30.1543
 106   2.0000      -1.088073       -29.6080
 107   2.0000      -1.000722       -27.2310
 108   2.0000      -0.997917       -27.1547
 109   2.0000      -0.989587       -26.9280
 110   2.0000      -0.988805       -26.9068
 111   2.0000      -0.972226       -26.4556
 112   2.0000      -0.963817       -26.2268
 113   2.0000      -0.958579       -26.0843
 114   2.0000      -0.955839       -26.0097
 115   2.0000      -0.929018       -25.2799
 116   2.0000      -0.921383       -25.0721
 117   2.0000      -0.914224       -24.8773
 118   2.0000      -0.912466       -24.8294
 119   2.0000      -0.910422       -24.7738
 120   2.0000      -0.892789       -24.2940
 121   2.0000      -0.885676       -24.1005
 122   2.0000      -0.873557       -23.7707
 123   2.0000      -0.870642       -23.6914
 124   2.0000      -0.865739       -23.5580
 125   2.0000      -0.856541       -23.3077
 126   2.0000      -0.843793       -22.9608
 127   2.0000      -0.836407       -22.7598
 128   2.0000      -0.829740       -22.5784
 129   2.0000      -0.826472       -22.4894
 130   2.0000      -0.822165       -22.3722
 131   2.0000      -0.819007       -22.2863
 132   2.0000      -0.817278       -22.2393
 133   2.0000      -0.812456       -22.1080
 134   2.0000      -0.812007       -22.0958
 135   2.0000      -0.796386       -21.6708
 136   2.0000      -0.795263       -21.6402
 137   2.0000      -0.788123       -21.4459
 138   2.0000      -0.779568       -21.2131
 139   2.0000      -0.770949       -20.9786
 140   2.0000      -0.770205       -20.9584
 141   2.0000      -0.766732       -20.8638
 142   2.0000      -0.754465       -20.5300
 143   2.0000      -0.738495       -20.0955
 144   2.0000      -0.727172       -19.7873
 145   2.0000      -0.712617       -19.3913
 146   2.0000      -0.711375       -19.3575
 147   2.0000      -0.708291       -19.2736
 148   2.0000      -0.699106       -19.0236
 149   2.0000      -0.698017       -18.9940
 150   2.0000      -0.693369       -18.8675
 151   2.0000      -0.683756       -18.6059
 152   2.0000      -0.671607       -18.2754
 153   2.0000      -0.661925       -18.0119
 154   2.0000      -0.659547       -17.9472
 155   2.0000      -0.652713       -17.7612
 156   2.0000      -0.648874       -17.6567
 157   2.0000      -0.641768       -17.4634
 158   2.0000      -0.638419       -17.3723
 159   2.0000      -0.627230       -17.0678
 160   2.0000      -0.622522       -16.9397
 161   2.0000      -0.620566       -16.8865
 162   2.0000      -0.619258       -16.8509
 163   2.0000      -0.615776       -16.7561
 164   2.0000      -0.613625       -16.6976
 165   2.0000      -0.603384       -16.4189
 166   2.0000      -0.600840       -16.3497
 167   2.0000      -0.592402       -16.1201
 168   2.0000      -0.586756       -15.9664
 169   2.0000      -0.579600       -15.7717
 170   2.0000      -0.568821       -15.4784
 171   2.0000      -0.566558       -15.4168
 172   2.0000      -0.562369       -15.3028
 173   2.0000      -0.558764       -15.2047
 174   2.0000      -0.554116       -15.0783
 175   2.0000      -0.552668       -15.0389
 176   2.0000      -0.551313       -15.0020
 177   2.0000      -0.550184       -14.9713
 178   2.0000      -0.541425       -14.7329
 179   2.0000      -0.540195       -14.6995
 180   2.0000      -0.535528       -14.5724
 181   2.0000      -0.530304       -14.4303
 182   2.0000      -0.526901       -14.3377
 183   2.0000      -0.524283       -14.2665
 184   2.0000      -0.519626       -14.1398
 185   2.0000      -0.518690       -14.1143
 186   2.0000      -0.513653       -13.9772
 187   2.0000      -0.512613       -13.9489
 188   2.0000      -0.510739       -13.8979
 189   2.0000      -0.504928       -13.7398
 190   2.0000      -0.504326       -13.7234
 191   2.0000      -0.503722       -13.7070
 192   2.0000      -0.502271       -13.6675
 193   2.0000      -0.496580       -13.5126
 194   2.0000      -0.495079       -13.4718
 195   2.0000      -0.494219       -13.4484
 196   2.0000      -0.493271       -13.4226
 197   2.0000      -0.491377       -13.3710
 198   2.0000      -0.489310       -13.3148
 199   2.0000      -0.487411       -13.2631
 200   2.0000      -0.482868       -13.1395
 201   2.0000      -0.481891       -13.1129
 202   2.0000      -0.470910       -12.8141
 203   2.0000      -0.469491       -12.7755
 204   2.0000      -0.467938       -12.7332
 205   2.0000      -0.467840       -12.7306
 206   2.0000      -0.465094       -12.6558
 207   2.0000      -0.462704       -12.5908
 208   2.0000      -0.461034       -12.5454
 209   2.0000      -0.457973       -12.4621
 210   2.0000      -0.455166       -12.3857
 211   2.0000      -0.449019       -12.2184
 212   2.0000      -0.447077       -12.1656
 213   2.0000      -0.446122       -12.1396
 214   2.0000      -0.445363       -12.1190
 215   2.0000      -0.441273       -12.0077
 216   2.0000      -0.440551       -11.9880
 217   2.0000      -0.439684       -11.9644
 218   2.0000      -0.434976       -11.8363
 219   2.0000      -0.433744       -11.8028
 220   2.0000      -0.433161       -11.7869
 221   2.0000      -0.429637       -11.6910
 222   2.0000      -0.428244       -11.6531
 223   2.0000      -0.423524       -11.5247
 224   2.0000      -0.422482       -11.4963
 225   2.0000      -0.420241       -11.4353
 226   2.0000      -0.418307       -11.3827
 227   2.0000      -0.417917       -11.3721
 228   2.0000      -0.414820       -11.2878
 229   2.0000      -0.414397       -11.2763
 230   2.0000      -0.410711       -11.1760
 231   2.0000      -0.409335       -11.1386
 232   2.0000      -0.407016       -11.0755
 233   2.0000      -0.406142       -11.0517
 234   2.0000      -0.405362       -11.0305
 235   2.0000      -0.402587       -10.9550
 236   2.0000      -0.401027       -10.9125
 237   2.0000      -0.399798       -10.8791
 238   2.0000      -0.396085       -10.7780
 239   2.0000      -0.395066       -10.7503
 240   2.0000      -0.392316       -10.6755
 241   2.0000      -0.389385       -10.5957
 242   2.0000      -0.388187       -10.5631
 243   2.0000      -0.384959       -10.4753
 244   2.0000      -0.381074       -10.3695
 245   2.0000      -0.373820       -10.1722
 246   2.0000      -0.372165       -10.1271
 247   2.0000      -0.357342        -9.7238
 248   2.0000      -0.354180        -9.6377
 249   2.0000      -0.344032        -9.3616
 250   2.0000      -0.335032        -9.1167
 251   2.0000      -0.324793        -8.8381
 252   2.0000      -0.319630        -8.6976
 253   2.0000      -0.317825        -8.6485
 254   2.0000      -0.315952        -8.5975
 255   2.0000      -0.311961        -8.4889
 256   2.0000      -0.310787        -8.4570
 257   2.0000      -0.305754        -8.3200
 258   2.0000      -0.299964        -8.1624
 259   2.0000      -0.295169        -8.0320
 260   2.0000      -0.290889        -7.9155
 261   2.0000      -0.277276        -7.5451
 262   2.0000      -0.269501        -7.3335
 263   2.0000      -0.261649        -7.1198
 264   2.0000      -0.243979        -6.6390
 265   2.0000      -0.213672        -5.8143
 266   2.0000      -0.195672        -5.3245
 267   0.0000      -0.060848        -1.6557
 268   0.0000      -0.043237        -1.1765
 269   0.0000      -0.022906        -0.6233
 270   0.0000      -0.018717        -0.5093
 271   0.0000      -0.003551        -0.0966

MULLIKEN ATOMIC CHARGES
-----------------------
   0 C :   -0.109773
   1 S :    0.122642
   2 C :   -0.133205
   3 C :   -0.060802
   4 C :    0.025342
   5 C :   -0.149907
   6 S :   -0.036880
   7 C :    0.091979
   8 C :    0.056693
   9 C :    0.203971
  10 O :   -0.297464
  11 C :   -0.071726
  12 C :   -0.064339
  13 C :    0.050146
  14 C :    0.063538
  15 C :   -0.124485
  16 S :    0.155980
  17 C :   -0.116742
  18 C :    0.052377
  19 C :   -0.010193
  20 C :   -0.070253
  21 S :    0.118946
  22 C :    0.094767
  23 C :   -0.021445
  24 C :    0.042156
  25 C :   -0.071707
  26 S :    0.131038
  27 C :   -0.093933
  28 C :    0.011483
  29 C :   -0.051351
  30 C :   -0.106081
  31 C :    0.105037
  32 C :    0.106628
  33 C :   -0.003877
  34 C :   -0.083755
  35 S :    0.138732
  36 C :   -0.077097
  37 C :   -0.039789
  38 C :    0.073813
  39 C :    0.024858
  40 C :   -0.073305
  41 C :   -0.046652
  42 C :    0.047991
  43 C :    0.064464
  44 C :   -0.140573
  45 S :    0.121193
  46 C :   -0.116208
  47 C :    0.054715
  48 C :    0.007377
  49 C :   -0.072215
  50 S :    0.114976
  51 C :    0.070499
  52 C :   -0.020617
  53 C :   -0.027118
  54 C :   -0.105812
  55 S :    0.107577
  56 C :   -0.116245
  57 C :   -0.054164
  58 C :    0.056728
  59 C :   -0.192168
  60 S :   -0.045595
  61 C :    0.102904
  62 C :    0.051947
  63 C :    0.220571
  64 O :   -0.301424
  65 H :    0.020399
  66 H :    0.054387
  67 H :    0.049449
  68 H :    0.013165
  69 H :    0.002185
  70 H :   -0.010198
  71 H :    0.011675
  72 H :    0.012875
  73 H :    0.165474
  74 H :   -0.015824
  75 H :    0.031144
  76 H :   -0.013430
  77 H :    0.021021
  78 H :   -0.045334
  79 H :   -0.053193
  80 H :   -0.032180
  81 H :    0.007831
  82 H :    0.021041
  83 H :    0.007101
  84 H :    0.008408
  85 H :    0.007181
  86 H :    0.022293
  87 H :   -0.028100
  88 H :   -0.028922
  89 H :   -0.023396
  90 H :   -0.031517
  91 H :    0.029853
  92 H :   -0.019971
  93 H :    0.021488
  94 H :   -0.031534
  95 H :   -0.017199
  96 H :    0.012219
  97 H :    0.041093
  98 H :    0.059307
  99 H :   -0.010131
 100 H :    0.010466
 101 H :    0.007586
 102 H :   -0.008395
 103 H :   -0.009203
 104 H :    0.156722
Sum of atomic charges:   -0.0000000

LOEWDIN ATOMIC CHARGES
----------------------
   0 C :   -0.187360
   1 S :    0.447672
   2 C :   -0.184366
   3 C :   -0.091192
   4 C :   -0.087672
   5 C :   -0.120548
   6 S :    0.166042
   7 C :   -0.039148
   8 C :   -0.038067
   9 C :    0.051492
  10 O :   -0.124431
  11 C :   -0.187324
  12 C :   -0.031055
  13 C :   -0.025784
  14 C :   -0.055406
  15 C :   -0.144553
  16 S :    0.490134
  17 C :   -0.200796
  18 C :   -0.039090
  19 C :   -0.067179
  20 C :   -0.170238
  21 S :    0.415279
  22 C :   -0.052915
  23 C :   -0.015714
  24 C :   -0.063724
  25 C :   -0.155475
  26 S :    0.424782
  27 C :   -0.207479
  28 C :   -0.034066
  29 C :   -0.065581
  30 C :   -0.034383
  31 C :   -0.025313
  32 C :   -0.024484
  33 C :   -0.041872
  34 C :   -0.192826
  35 S :    0.437201
  36 C :   -0.171498
  37 C :   -0.050610
  38 C :   -0.030103
  39 C :   -0.058881
  40 C :   -0.163078
  41 C :   -0.027016
  42 C :   -0.018099
  43 C :   -0.046377
  44 C :   -0.148988
  45 S :    0.438782
  46 C :   -0.209059
  47 C :   -0.037763
  48 C :   -0.065848
  49 C :   -0.168684
  50 S :    0.409681
  51 C :   -0.060527
  52 C :   -0.017381
  53 C :   -0.061255
  54 C :   -0.166840
  55 S :    0.430901
  56 C :   -0.182523
  57 C :   -0.090109
  58 C :   -0.093401
  59 C :   -0.113895
  60 S :    0.160987
  61 C :   -0.040940
  62 C :   -0.044026
  63 C :    0.067549
  64 O :   -0.129267
  65 H :    0.021175
  66 H :    0.034021
  67 H :   -0.034786
  68 H :    0.029083
  69 H :    0.021538
  70 H :    0.019094
  71 H :    0.029908
  72 H :    0.020988
  73 H :    0.074717
  74 H :    0.024744
  75 H :    0.034568
  76 H :    0.027529
  77 H :    0.021782
  78 H :    0.022859
  79 H :    0.022047
  80 H :    0.024924
  81 H :    0.022393
  82 H :    0.030164
  83 H :    0.022175
  84 H :    0.022458
  85 H :    0.022200
  86 H :    0.030757
  87 H :    0.027324
  88 H :    0.021756
  89 H :    0.022090
  90 H :    0.031359
  91 H :    0.033323
  92 H :    0.028921
  93 H :    0.021041
  94 H :    0.020575
  95 H :    0.018186
  96 H :    0.022327
  97 H :    0.025923
  98 H :   -0.034164
  99 H :    0.016778
 100 H :    0.023630
 101 H :    0.028742
 102 H :    0.019213
 103 H :    0.025860
 104 H :    0.066482

  Mayer bond orders larger than 0.100000
B(  0-C ,  1-S ) :   1.1559 B(  0-C ,  4-C ) :   1.5778 B(  0-C , 65-H ) :   0.9635
B(  1-S ,  2-C ) :   1.1550 B(  2-C ,  3-C ) :   1.5379 B(  2-C , 11-C ) :   1.0799
B(  3-C ,  4-C ) :   1.3053 B(  3-C ,  9-C ) :   0.9669 B(  4-C ,  5-C ) :   0.9418
B(  5-C ,  6-S ) :   1.0483 B(  5-C ,  7-C ) :   1.0301 B(  5-C , 66-H ) :   0.9059
B(  6-S , 67-H ) :   0.9556 B(  7-C ,  8-C ) :   1.0497 B(  7-C , 68-H ) :   0.9285
B(  7-C , 69-H ) :   0.9407 B(  8-C ,  9-C ) :   1.0716 B(  8-C , 70-H ) :   0.9298
B(  8-C , 71-H ) :   0.9276 B(  9-C , 10-O ) :   1.0249 B(  9-C , 72-H ) :   0.8866
B( 10-O , 73-H ) :   0.9756 B( 11-C , 12-C ) :   1.5498 B( 11-C , 16-S ) :   1.0734
B( 12-C , 13-C ) :   1.2230 B( 12-C , 74-H ) :   0.9607 B( 13-C , 14-C ) :   1.0553
B( 13-C , 22-C ) :   1.3801 B( 14-C , 15-C ) :   1.5905 B( 14-C , 17-C ) :   1.1829
B( 15-C , 16-S ) :   1.1663 B( 15-C , 75-H ) :   0.9400 B( 17-C , 18-C ) :   1.4527
B( 17-C , 21-S ) :   1.0733 B( 18-C , 19-C ) :   1.2051 B( 18-C , 22-C ) :   1.0752
B( 19-C , 20-C ) :   1.5923 B( 19-C , 76-H ) :   1.0003 B( 20-C , 21-S ) :   1.1520
B( 20-C , 77-H ) :   0.9643 B( 22-C , 23-C ) :   1.1842 B( 23-C , 24-C ) :   1.6400
B( 23-C , 78-H ) :   0.9578 B( 24-C , 25-C ) :   1.1281 B( 24-C , 79-H ) :   0.9617
B( 25-C , 26-S ) :   1.1077 B( 25-C , 29-C ) :   1.4488 B( 26-S , 27-C ) :   1.0718
B( 27-C , 28-C ) :   1.5229 B( 27-C , 34-C ) :   1.1834 B( 28-C , 29-C ) :   1.3191
B( 28-C , 30-C ) :   0.9441 B( 29-C , 80-H ) :   0.9991 B( 30-C , 31-C ) :   1.0379
B( 30-C , 32-C ) :   1.0326 B( 30-C , 33-C ) :   0.9402 B( 31-C , 81-H ) :   0.9639
B( 31-C , 82-H ) :   0.9646 B( 31-C , 83-H ) :   0.9639 B( 32-C , 84-H ) :   0.9645
B( 32-C , 85-H ) :   0.9644 B( 32-C , 86-H ) :   0.9643 B( 33-C , 34-C ) :   1.5139
B( 33-C , 37-C ) :   1.3358 B( 34-C , 35-S ) :   1.0917 B( 35-S , 36-C ) :   1.0945
B( 36-C , 37-C ) :   1.4435 B( 36-C , 38-C ) :   1.1505 B( 37-C , 87-H ) :   0.9983
B( 38-C , 39-C ) :   1.7011 B( 38-C , 88-H ) :   0.9433 B( 39-C , 40-C ) :   1.1046
B( 39-C , 89-H ) :   0.9606 B( 40-C , 41-C ) :   1.5457 B( 40-C , 45-S ) :   1.0499
B( 41-C , 42-C ) :   1.2351 B( 41-C , 90-H ) :   0.9547 B( 42-C , 43-C ) :   1.0523
B( 42-C , 51-C ) :   1.3925 B( 43-C , 44-C ) :   1.6097 B( 43-C , 46-C ) :   1.1829
B( 44-C , 45-S ) :   1.1316 B( 44-C , 91-H ) :   0.9414 B( 46-C , 47-C ) :   1.4433
B( 46-C , 50-S ) :   1.0646 B( 47-C , 48-C ) :   1.2182 B( 47-C , 51-C ) :   1.0998
B( 48-C , 49-C ) :   1.5845 B( 48-C , 92-H ) :   0.9972 B( 49-C , 50-S ) :   1.1533
B( 49-C , 93-H ) :   0.9662 B( 51-C , 52-C ) :   1.1555 B( 52-C , 53-C ) :   1.6418
B( 52-C , 94-H ) :   0.9652 B( 53-C , 54-C ) :   1.1495 B( 53-C , 95-H ) :   0.9477
B( 54-C , 55-S ) :   1.1309 B( 54-C , 58-C ) :   1.4874 B( 55-S , 56-C ) :   1.1533
B( 56-C , 57-C ) :   1.5772 B( 56-C , 96-H ) :   0.9677 B( 57-C , 58-C ) :   1.3067
B( 57-C , 63-C ) :   0.9626 B( 58-C , 59-C ) :   0.9529 B( 59-C , 60-S ) :   1.0381
B( 59-C , 61-C ) :   1.0253 B( 59-C , 97-H ) :   0.9181 B( 60-S , 98-H ) :   0.9533
B( 61-C , 62-C ) :   1.0570 B( 61-C , 99-H ) :   0.9334 B( 61-C ,100-H ) :   0.9265
B( 62-C , 63-C ) :   1.0482 B( 62-C ,101-H ) :   0.9281 B( 62-C ,102-H ) :   0.9337
B( 63-C , 64-O ) :   1.0529 B( 63-C ,103-H ) :   0.9079 B( 64-O ,104-H ) :   0.9824

-----------------------------------------------------------------------------
         ABSORPTION SPECTRUM VIA TRANSITION ELECTRIC DIPOLE MOMENTS
-----------------------------------------------------------------------------
State   Energy  Wavelength   fosc         T2         TX        TY        TZ
        (cm-1)    (nm)                  (au**2)     (au)      (au)      (au)
-----------------------------------------------------------------------------
   0   15430.3    648.1   1.787080320  38.12807   6.09607   0.78454   0.59205
   1   19279.6    518.7   0.288783880   4.93118   1.79415   1.03455   0.80120
   2   20198.0    495.1   0.037583431   0.61258  -0.60704  -0.41808  -0.26323
   3   21519.7    464.7   0.188573151   2.88482   0.95016   0.87461   1.10321
   4   22422.2    446.0   0.027149389   0.39862   0.32657  -0.22574  -0.49093
   5   25521.1    391.8   0.212764365   2.74458  -0.05764  -0.91566  -1.37943
   6   26138.8    382.6   0.824612836  10.38578  -0.62270  -1.81693  -2.58781
   7   27955.5    357.7   0.274786249   3.23596   1.47080   0.62945   0.82250
   8   28722.6    348.2   0.019294880   0.22115  -0.20814  -0.20981  -0.36580
   9   29547.5    338.4   0.333559769   3.71645   0.38496   1.06261   1.56177
  10   30372.1    329.2   0.138018753   1.49603  -0.00383  -0.80216  -0.92334
  11   30976.8    322.8   0.013475899   0.14322  -0.33696   0.01146   0.17189
  12   32173.0    310.8   0.004477717   0.04582   0.08869   0.13232   0.14299
  13   32451.8    308.1   0.019249537   0.19528  -0.37991   0.00112  -0.22572
  14   32891.6    304.0   0.025021734   0.25044  -0.48617  -0.10847  -0.04808
  15   33729.3    296.5   0.071901247   0.70179   0.48175  -0.43917  -0.52615
  16   34483.4    290.0   0.068232466   0.65141  -0.55436   0.32996   0.48500
  17   34760.1    287.7   0.090706082   0.85907   0.28109  -0.56890  -0.67559
  18   35374.7    282.7   0.087422789   0.81359  -0.53796  -0.35103  -0.63322
  19   36208.1    276.2   0.021200714   0.19276  -0.00720   0.20061   0.39047
  20   36453.0    274.3   0.410661037   3.70874  -1.25287   0.70699   1.28032
  21   36660.0    272.8   0.106421167   0.95568  -0.97060   0.06792   0.09484
  22   37217.3    268.7   0.321623593   2.84498   1.20004  -0.56289  -1.04309
  23   37630.7    265.7   0.068615065   0.60028   0.74953   0.17807   0.08233
  24   37931.6    263.6   0.144809702   1.25682  -0.81776  -0.45642  -0.61626
  25   38051.4    262.8   0.045263604   0.39161  -0.32562   0.28554   0.45171
  26   38677.9    258.5   0.204570405   1.74123   0.01022  -0.60023  -1.17509
  27   38830.3    257.5   0.248617743   2.10784   1.44797   0.09567  -0.04543
  28   39159.9    255.4   0.060816383   0.51127   0.71212  -0.04473  -0.04645
  29   39343.6    254.2   0.091786849   0.76804  -0.33437  -0.31654  -0.74568
  30   39919.1    250.5   0.133509626   1.10105   0.96243  -0.14004  -0.39391
  31   40273.7    248.3   0.009177156   0.07502  -0.13714  -0.12140  -0.20365

FINAL SINGLE POINT ENERGY     -6171.982436599083

DIPOLE MOMENT
-------------
                                X             Y             Z
Electronic contribution:    -19.99434      -6.36226       3.95039
Nuclear contribution   :     22.51386       6.51595      -4.80029
                        -----------------------------------------
Total Dipole Moment    :      2.51951       0.15369      -0.84990
                        -----------------------------------------
Magnitude (a.u.)       :      2.66344
Magnitude (Debye)      :      6.76992

Rotational constants in cm-1:     0.001509     0.000240     0.000210
Rotational constants in MHz :    45.243280     7.190113     6.288994

                             ****ORCA TERMINATED NORMALLY****
TOTAL RUN TIME: 0 days 0 hours 10 minutes 29 seconds 853 msec
