                         Program Version 4.2.0 -  RELEASE  -
|  1> # ORCA input file
|  2> # SCF done       -195.082446219847          0.000979244827
|  3> ! CAM-B3LYP def2-SVP def2/J RIJCOSX Grid4 TightSCF
|  4> %maxcore 5000
|  5> %tddft
|  6>     Mode sTDDFT
|  7>     Ethresh 5.0
|  8>     maxcore 5000
|  9> end
| 10>
| 11> %pal
| 12>   nprocs 6
| 13>   end
| 14> * xyz 0 1
| 15>    C       -8.60313         2.12988         3.98937
| 16>    C       -8.70260         3.27743         3.21759
| 17>    C       -8.61324         3.22151         1.83220
| 18>    C       -8.43134         2.01427         1.17505
| 19>    C       -8.33443         0.85932         1.93404
| 20>    C       -8.41324         0.91567         3.34690
| 21>    C       -8.24882        -0.42276         3.88543
| 22>    C       -8.46531        -0.83313         5.16671
| 23>    C       -8.88761         0.02605         6.20732
| 24>    N       -9.22927         0.67564         7.08776
| 25>    C       -8.35136        -2.17394         5.59931
| 26>    N       -8.28134        -3.25188         5.98481
| 27>    C       -7.82038        -1.26443         2.75837
| 28>    C       -8.15885        -0.52338         1.53246
| 29>    C       -8.46195        -1.05562         0.31277
| 30>    C       -8.51046        -2.43354         0.03131
| 31>    N       -8.59035        -3.54974        -0.23135
| 32>    C       -8.85895        -0.27596        -0.80007
| 33>    N       -9.19474         0.30351        -1.72956
| 34>    C       -7.08635        -2.38920         2.87802
| 35>    C       -6.41498        -3.06120         1.79346
| 36>    S       -6.66862        -4.75817         1.53983
| 37>    C       -5.69029        -4.76151         0.09526
| 38>    C       -5.09320        -3.52683        -0.08131
| 39>    C       -5.51816        -2.56165         0.87472
| 40>    N       -4.89827        -1.27021         0.99645
| 41>    O       -5.58356        -0.35122         1.39626
| 42>    O       -3.72014        -1.21762         0.75038
| 43>    N       -4.36296        -3.18746        -1.25779
| 44>    O       -3.71106        -4.07040        -1.77667
| 45>    O       -4.49987        -2.06158        -1.67876
| 46>    C       -5.72831        -5.89591        -0.75722
| 47>    S       -4.38710        -6.52702        -1.67391
| 48>    C       -5.33062        -7.85187        -2.30115
| 49>    C       -6.66001        -7.77346        -1.84525
| 50>    C       -6.86446        -6.66725        -0.97266
| 51>    N       -8.17155        -6.61100        -0.62785
| 52>    C       -8.80328        -7.64784        -1.26386
| 53>    N      -10.19412        -7.83488        -1.08489
| 54>    O      -10.75589        -7.03681        -0.35795
| 55>    O      -10.71740        -8.76568        -1.65602
| 56>    C       -7.91748        -8.39605        -2.01227
| 57>    C       -4.83874        -8.85339        -3.16915
| 58>    S       -5.83100       -10.25390        -3.48345
| 59>    C       -4.73665       -10.87611        -4.67739
| 60>    C       -3.61636       -10.07679        -4.76581
| 61>    C       -3.67562        -8.92766        -3.92855
| 62>    N       -2.71967        -7.88357        -4.03413
| 63>    O       -2.55732        -7.17768        -3.05377
| 64>    O       -2.16539        -7.74503        -5.09867
| 65>    N       -2.39641       -10.50566        -5.39439
| 66>    O       -2.47867       -11.15808        -6.41414
| 67>    O       -1.37589       -10.24878        -4.80482
| 68>    C       -5.05070       -12.11307        -5.33821
| 69>    C       -4.96384       -12.37462        -6.66052
| 70>    C       -5.02549       -13.72643        -7.23677
| 71>    C       -5.61076       -14.82481        -6.67908
| 72>    C       -6.30689       -14.83176        -5.44919
| 73>    N       -6.89039       -14.88942        -4.46316
| 74>    C       -5.64181       -16.09786        -7.29408
| 75>    N       -5.70116       -17.15231        -7.73999
| 76>    C       -4.35838       -13.65109        -8.52429
| 77>    C       -4.10267       -12.29368        -8.83250
| 78>    C       -3.44250       -11.94780       -10.00028
| 79>    C       -3.04893       -12.96112       -10.86093
| 80>    C       -3.31083       -14.29329       -10.56662
| 81>    C       -3.96422       -14.65355        -9.39828
| 82>    C       -4.63409       -11.46342        -7.76700
| 83>    C       -4.95796       -10.14254        -7.86770
| 84>    C       -4.70473        -9.36342        -9.02139
| 85>    N       -4.54291        -8.68889        -9.93358
| 86>    C       -5.64782        -9.40461        -6.88512
| 87>    N       -6.22273        -8.76369        -6.12553
| 88>    H       -8.66026         2.19107         5.06405
| 89>    H       -8.84320         4.23008         3.70461
| 90>    H       -8.68078         4.13180         1.25674
| 91>    H       -8.34615         1.98470         0.10120
| 92>    H       -6.96775        -2.84481         3.85228
| 93>    H       -8.65617        -5.86402        -0.14430
| 94>    H       -8.17776        -9.25282        -2.59851
| 95>    H       -5.38993       -12.89973        -4.67665
| 96>    H       -3.21848       -10.91935       -10.23064
| 97>    H       -2.52647       -12.70900       -11.77079
| 98>    H       -2.99374       -15.06346       -11.25277
| 99>    H       -4.14631       -15.69258        -9.17726
|100> *
|101>
|102>                          ****END OF INPUT****

CARTESIAN COORDINATES (ANGSTROEM)
---------------------------------
  C     -8.603130    2.129880    3.989370
  C     -8.702600    3.277430    3.217590
  C     -8.613240    3.221510    1.832200
  C     -8.431340    2.014270    1.175050
  C     -8.334430    0.859320    1.934040
  C     -8.413240    0.915670    3.346900
  C     -8.248820   -0.422760    3.885430
  C     -8.465310   -0.833130    5.166710
  C     -8.887610    0.026050    6.207320
  N     -9.229270    0.675640    7.087760
  C     -8.351360   -2.173940    5.599310
  N     -8.281340   -3.251880    5.984810
  C     -7.820380   -1.264430    2.758370
  C     -8.158850   -0.523380    1.532460
  C     -8.461950   -1.055620    0.312770
  C     -8.510460   -2.433540    0.031310
  N     -8.590350   -3.549740   -0.231350
  C     -8.858950   -0.275960   -0.800070
  N     -9.194740    0.303510   -1.729560
  C     -7.086350   -2.389200    2.878020
  C     -6.414980   -3.061200    1.793460
  S     -6.668620   -4.758170    1.539830
  C     -5.690290   -4.761510    0.095260
  C     -5.093200   -3.526830   -0.081310
  C     -5.518160   -2.561650    0.874720
  N     -4.898270   -1.270210    0.996450
  O     -5.583560   -0.351220    1.396260
  O     -3.720140   -1.217620    0.750380
  N     -4.362960   -3.187460   -1.257790
  O     -3.711060   -4.070400   -1.776670
  O     -4.499870   -2.061580   -1.678760
  C     -5.728310   -5.895910   -0.757220
  S     -4.387100   -6.527020   -1.673910
  C     -5.330620   -7.851870   -2.301150
  C     -6.660010   -7.773460   -1.845250
  C     -6.864460   -6.667250   -0.972660
  N     -8.171550   -6.611000   -0.627850
  C     -8.803280   -7.647840   -1.263860
  N    -10.194120   -7.834880   -1.084890
  O    -10.755890   -7.036810   -0.357950
  O    -10.717400   -8.765680   -1.656020
  C     -7.917480   -8.396050   -2.012270
  C     -4.838740   -8.853390   -3.169150
  S     -5.831000  -10.253900   -3.483450
  C     -4.736650  -10.876110   -4.677390
  C     -3.616360  -10.076790   -4.765810
  C     -3.675620   -8.927660   -3.928550
  N     -2.719670   -7.883570   -4.034130
  O     -2.557320   -7.177680   -3.053770
  O     -2.165390   -7.745030   -5.098670
  N     -2.396410  -10.505660   -5.394390
  O     -2.478670  -11.158080   -6.414140
  O     -1.375890  -10.248780   -4.804820
  C     -5.050700  -12.113070   -5.338210
  C     -4.963840  -12.374620   -6.660520
  C     -5.025490  -13.726430   -7.236770
  C     -5.610760  -14.824810   -6.679080
  C     -6.306890  -14.831760   -5.449190
  N     -6.890390  -14.889420   -4.463160
  C     -5.641810  -16.097860   -7.294080
  N     -5.701160  -17.152310   -7.739990
  C     -4.358380  -13.651090   -8.524290
  C     -4.102670  -12.293680   -8.832500
  C     -3.442500  -11.947800  -10.000280
  C     -3.048930  -12.961120  -10.860930
  C     -3.310830  -14.293290  -10.566620
  C     -3.964220  -14.653550   -9.398280
  C     -4.634090  -11.463420   -7.767000
  C     -4.957960  -10.142540   -7.867700
  C     -4.704730   -9.363420   -9.021390
  N     -4.542910   -8.688890   -9.933580
  C     -5.647820   -9.404610   -6.885120
  N     -6.222730   -8.763690   -6.125530
  H     -8.660260    2.191070    5.064050
  H     -8.843200    4.230080    3.704610
  H     -8.680780    4.131800    1.256740
  H     -8.346150    1.984700    0.101200
  H     -6.967750   -2.844810    3.852280
  H     -8.656170   -5.864020   -0.144300
  H     -8.177760   -9.252820   -2.598510
  H     -5.389930  -12.899730   -4.676650
  H     -3.218480  -10.919350  -10.230640
  H     -2.526470  -12.709000  -11.770790
  H     -2.993740  -15.063460  -11.252770
  H     -4.146310  -15.692580   -9.177260

 Total Charge           Charge          ....    0
 Multiplicity           Mult            ....    1
 Number of Electrons    NEL             ....  514
 Basis Dimension        Dim             .... 1094

ORBITAL ENERGIES
----------------

  NO   OCC          E(Eh)            E(eV)
   0   2.0000     -89.020731     -2422.3772
   1   2.0000     -89.015854     -2422.2445
   2   2.0000     -89.001752     -2421.8608
   3   2.0000     -19.277362      -524.5637
   4   2.0000     -19.277135      -524.5575
   5   2.0000     -19.272419      -524.4292
   6   2.0000     -19.271634      -524.4078
   7   2.0000     -19.267374      -524.2919
   8   2.0000     -19.267124      -524.2851
   9   2.0000     -19.265009      -524.2276
  10   2.0000     -19.264091      -524.2026
  11   2.0000     -19.257784      -524.0309
  12   2.0000     -19.257575      -524.0253
  13   2.0000     -14.685588      -399.6152
  14   2.0000     -14.680860      -399.4865
  15   2.0000     -14.673619      -399.2895
  16   2.0000     -14.673016      -399.2731
  17   2.0000     -14.668203      -399.1421
  18   2.0000     -14.494715      -394.4213
  19   2.0000     -14.454475      -393.3263
  20   2.0000     -14.445523      -393.0827
  21   2.0000     -14.441954      -392.9855
  22   2.0000     -14.441764      -392.9804
  23   2.0000     -14.439468      -392.9179
  24   2.0000     -14.438298      -392.8861
  25   2.0000     -14.437765      -392.8716
  26   2.0000     -14.432902      -392.7392
  27   2.0000     -10.381740      -282.5015
  28   2.0000     -10.380124      -282.4575
  29   2.0000     -10.378748      -282.4201
  30   2.0000     -10.378300      -282.4079
  31   2.0000     -10.378273      -282.4072
  32   2.0000     -10.377811      -282.3946
  33   2.0000     -10.376456      -282.3577
  34   2.0000     -10.376164      -282.3498
  35   2.0000     -10.375692      -282.3369
  36   2.0000     -10.373411      -282.2749
  37   2.0000     -10.373308      -282.2721
  38   2.0000     -10.373242      -282.2703
  39   2.0000     -10.370572      -282.1976
  40   2.0000     -10.368567      -282.1431
  41   2.0000     -10.368195      -282.1329
  42   2.0000     -10.367816      -282.1226
  43   2.0000     -10.366905      -282.0978
  44   2.0000     -10.359480      -281.8958
  45   2.0000     -10.358341      -281.8648
  46   2.0000     -10.357239      -281.8348
  47   2.0000     -10.353957      -281.7455
  48   2.0000     -10.351939      -281.6906
  49   2.0000     -10.351528      -281.6794
  50   2.0000     -10.350112      -281.6409
  51   2.0000     -10.346491      -281.5423
  52   2.0000     -10.342976      -281.4467
  53   2.0000     -10.342901      -281.4447
  54   2.0000     -10.341414      -281.4042
  55   2.0000     -10.340589      -281.3817
  56   2.0000     -10.340567      -281.3811
  57   2.0000     -10.338977      -281.3379
  58   2.0000     -10.334785      -281.2238
  59   2.0000     -10.334049      -281.2038
  60   2.0000     -10.333658      -281.1931
  61   2.0000     -10.329226      -281.0725
  62   2.0000     -10.328029      -281.0399
  63   2.0000     -10.320013      -280.8218
  64   2.0000     -10.319065      -280.7960
  65   2.0000     -10.317830      -280.7624
  66   2.0000     -10.317608      -280.7564
  67   2.0000     -10.317448      -280.7520
  68   2.0000     -10.315254      -280.6923
  69   2.0000     -10.314205      -280.6638
  70   2.0000     -10.313831      -280.6536
  71   2.0000     -10.313019      -280.6315
  72   2.0000     -10.312477      -280.6168
  73   2.0000      -8.115577      -220.8361
  74   2.0000      -8.110528      -220.6987
  75   2.0000      -8.092937      -220.2200
  76   2.0000      -6.085123      -165.5846
  77   2.0000      -6.080853      -165.4684
  78   2.0000      -6.080142      -165.4491
  79   2.0000      -6.077178      -165.3684
  80   2.0000      -6.075773      -165.3302
  81   2.0000      -6.072114      -165.2306
  82   2.0000      -6.062550      -164.9704
  83   2.0000      -6.057654      -164.8372
  84   2.0000      -6.055167      -164.7695
  85   2.0000      -1.360880       -37.0314
  86   2.0000      -1.356535       -36.9132
  87   2.0000      -1.347117       -36.6569
  88   2.0000      -1.346427       -36.6382
  89   2.0000      -1.340111       -36.4663
  90   2.0000      -1.181210       -32.1423
  91   2.0000      -1.176410       -32.0118
  92   2.0000      -1.168563       -31.7982
  93   2.0000      -1.167730       -31.7756
  94   2.0000      -1.160395       -31.5759
  95   2.0000      -1.124502       -30.5993
  96   2.0000      -1.068093       -29.0643
  97   2.0000      -1.062118       -28.9017
  98   2.0000      -1.056815       -28.7574
  99   2.0000      -1.051798       -28.6209
 100   2.0000      -1.043142       -28.3853
 101   2.0000      -1.034921       -28.1616
 102   2.0000      -1.032857       -28.1055
 103   2.0000      -1.024754       -27.8850
 104   2.0000      -1.022071       -27.8120
 105   2.0000      -1.021425       -27.7944
 106   2.0000      -1.017584       -27.6899
 107   2.0000      -1.013628       -27.5822
 108   2.0000      -1.009945       -27.4820
 109   2.0000      -0.982781       -26.7428
 110   2.0000      -0.977161       -26.5899
 111   2.0000      -0.965695       -26.2779
 112   2.0000      -0.959776       -26.1168
 113   2.0000      -0.958149       -26.0726
 114   2.0000      -0.951405       -25.8890
 115   2.0000      -0.948951       -25.8223
 116   2.0000      -0.939820       -25.5738
 117   2.0000      -0.924666       -25.1614
 118   2.0000      -0.919781       -25.0285
 119   2.0000      -0.913427       -24.8556
 120   2.0000      -0.904608       -24.6156
 121   2.0000      -0.901429       -24.5291
 122   2.0000      -0.898374       -24.4460
 123   2.0000      -0.886207       -24.1149
 124   2.0000      -0.880784       -23.9673
 125   2.0000      -0.874814       -23.8049
 126   2.0000      -0.844490       -22.9797
 127   2.0000      -0.831706       -22.6319
 128   2.0000      -0.815255       -22.1842
 129   2.0000      -0.813995       -22.1499
 130   2.0000      -0.809099       -22.0167
 131   2.0000      -0.805790       -21.9267
 132   2.0000      -0.796439       -21.6722
 133   2.0000      -0.792442       -21.5634
 134   2.0000      -0.775328       -21.0977
 135   2.0000      -0.753366       -20.5001
 136   2.0000      -0.738889       -20.1062
 137   2.0000      -0.737432       -20.0665
 138   2.0000      -0.735626       -20.0174
 139   2.0000      -0.732518       -19.9328
 140   2.0000      -0.729317       -19.8457
 141   2.0000      -0.720126       -19.5956
 142   2.0000      -0.708065       -19.2674
 143   2.0000      -0.703472       -19.1424
 144   2.0000      -0.693810       -18.8795
 145   2.0000      -0.691967       -18.8294
 146   2.0000      -0.689464       -18.7613
 147   2.0000      -0.685990       -18.6667
 148   2.0000      -0.683707       -18.6046
 149   2.0000      -0.682528       -18.5725
 150   2.0000      -0.677375       -18.4323
 151   2.0000      -0.674170       -18.3451
 152   2.0000      -0.668932       -18.2026
 153   2.0000      -0.659161       -17.9367
 154   2.0000      -0.657631       -17.8950
 155   2.0000      -0.656589       -17.8667
 156   2.0000      -0.654016       -17.7967
 157   2.0000      -0.651818       -17.7369
 158   2.0000      -0.651171       -17.7193
 159   2.0000      -0.648164       -17.6375
 160   2.0000      -0.642727       -17.4895
 161   2.0000      -0.637996       -17.3608
 162   2.0000      -0.626346       -17.0437
 163   2.0000      -0.624029       -16.9807
 164   2.0000      -0.619982       -16.8706
 165   2.0000      -0.616868       -16.7858
 166   2.0000      -0.612294       -16.6614
 167   2.0000      -0.610140       -16.6027
 168   2.0000      -0.608969       -16.5709
 169   2.0000      -0.606587       -16.5061
 170   2.0000      -0.603859       -16.4318
 171   2.0000      -0.601678       -16.3725
 172   2.0000      -0.598691       -16.2912
 173   2.0000      -0.588246       -16.0070
 174   2.0000      -0.581914       -15.8347
 175   2.0000      -0.579797       -15.7771
 176   2.0000      -0.567373       -15.4390
 177   2.0000      -0.564475       -15.3602
 178   2.0000      -0.561687       -15.2843
 179   2.0000      -0.560541       -15.2531
 180   2.0000      -0.558349       -15.1935
 181   2.0000      -0.557471       -15.1696
 182   2.0000      -0.553479       -15.0609
 183   2.0000      -0.552477       -15.0337
 184   2.0000      -0.550999       -14.9934
 185   2.0000      -0.548901       -14.9364
 186   2.0000      -0.538474       -14.6526
 187   2.0000      -0.533543       -14.5184
 188   2.0000      -0.533187       -14.5088
 189   2.0000      -0.527543       -14.3552
 190   2.0000      -0.527253       -14.3473
 191   2.0000      -0.523741       -14.2517
 192   2.0000      -0.520616       -14.1667
 193   2.0000      -0.509814       -13.8727
 194   2.0000      -0.508057       -13.8249
 195   2.0000      -0.503569       -13.7028
 196   2.0000      -0.498373       -13.5614
 197   2.0000      -0.497107       -13.5270
 198   2.0000      -0.491302       -13.3690
 199   2.0000      -0.486384       -13.2352
 200   2.0000      -0.483194       -13.1484
 201   2.0000      -0.480697       -13.0804
 202   2.0000      -0.477439       -12.9918
 203   2.0000      -0.474420       -12.9096
 204   2.0000      -0.473448       -12.8832
 205   2.0000      -0.472879       -12.8677
 206   2.0000      -0.470523       -12.8036
 207   2.0000      -0.470464       -12.8020
 208   2.0000      -0.468918       -12.7599
 209   2.0000      -0.467890       -12.7319
 210   2.0000      -0.464680       -12.6446
 211   2.0000      -0.463450       -12.6111
 212   2.0000      -0.461094       -12.5470
 213   2.0000      -0.460015       -12.5177
 214   2.0000      -0.459674       -12.5084
 215   2.0000      -0.455416       -12.3925
 216   2.0000      -0.453659       -12.3447
 217   2.0000      -0.453106       -12.3296
 218   2.0000      -0.451023       -12.2730
 219   2.0000      -0.449635       -12.2352
 220   2.0000      -0.447406       -12.1745
 221   2.0000      -0.445558       -12.1242
 222   2.0000      -0.442781       -12.0487
 223   2.0000      -0.439515       -11.9598
 224   2.0000      -0.434802       -11.8316
 225   2.0000      -0.432871       -11.7790
 226   2.0000      -0.431194       -11.7334
 227   2.0000      -0.427335       -11.6284
 228   2.0000      -0.422627       -11.5003
 229   2.0000      -0.420659       -11.4467
 230   2.0000      -0.419654       -11.4194
 231   2.0000      -0.416565       -11.3353
 232   2.0000      -0.413467       -11.2510
 233   2.0000      -0.409626       -11.1465
 234   2.0000      -0.408115       -11.1054
 235   2.0000      -0.407591       -11.0911
 236   2.0000      -0.404467       -11.0061
 237   2.0000      -0.403806       -10.9881
 238   2.0000      -0.399337       -10.8665
 239   2.0000      -0.397713       -10.8223
 240   2.0000      -0.395706       -10.7677
 241   2.0000      -0.394422       -10.7328
 242   2.0000      -0.390376       -10.6227
 243   2.0000      -0.388460       -10.5705
 244   2.0000      -0.387413       -10.5420
 245   2.0000      -0.380161       -10.3447
 246   2.0000      -0.377614       -10.2754
 247   2.0000      -0.370944       -10.0939
 248   2.0000      -0.366857        -9.9827
 249   2.0000      -0.357271        -9.7218
 250   2.0000      -0.353201        -9.6111
 251   2.0000      -0.350454        -9.5363
 252   2.0000      -0.346568        -9.4306
 253   2.0000      -0.330161        -8.9841
 254   2.0000      -0.328089        -8.9277
 255   2.0000      -0.322850        -8.7852
 256   2.0000      -0.281965        -7.6727
 257   0.0000      -0.123115        -3.3501
 258   0.0000      -0.119581        -3.2540
 259   0.0000      -0.105715        -2.8767
 260   0.0000      -0.102531        -2.7900
 261   0.0000      -0.099522        -2.7081

MULLIKEN ATOMIC CHARGES
-----------------------
   0 C :   -0.035638
   1 C :    0.052756
   2 C :    0.050162
   3 C :   -0.020030
   4 C :    0.020079
   5 C :    0.032570
   6 C :    0.260890
   7 C :   -0.321379
   8 C :   -0.186937
   9 N :    0.179686
  10 C :   -0.185010
  11 N :    0.175272
  12 C :   -0.014231
  13 C :    0.274373
  14 C :   -0.340029
  15 C :   -0.134869
  16 N :    0.149086
  17 C :   -0.193203
  18 N :    0.189076
  19 C :    0.006326
  20 C :   -0.242466
  21 S :    0.243609
  22 C :   -0.148870
  23 C :    0.161042
  24 C :    0.182004
  25 N :    0.267502
  26 O :   -0.241634
  27 O :   -0.194152
  28 N :    0.266105
  29 O :   -0.233820
  30 O :   -0.223277
  31 C :   -0.189129
  32 S :    0.317287
  33 C :   -0.101464
  34 C :    0.046325
  35 C :    0.129421
  36 N :   -0.014107
  37 C :    0.143116
  38 N :    0.281147
  39 O :   -0.249403
  40 O :   -0.227348
  41 C :   -0.081641
  42 C :   -0.099698
  43 S :    0.226968
  44 C :   -0.207958
  45 C :    0.176530
  46 C :    0.110531
  47 N :    0.277694
  48 O :   -0.249126
  49 O :   -0.213056
  50 N :    0.265370
  51 O :   -0.239892
  52 O :   -0.201733
  53 C :    0.008079
  54 C :   -0.006965
  55 C :    0.268813
  56 C :   -0.326855
  57 C :   -0.182669
  58 N :    0.171622
  59 C :   -0.187546
  60 N :    0.174835
  61 C :    0.027868
  62 C :    0.012861
  63 C :   -0.021691
  64 C :    0.052074
  65 C :    0.051619
  66 C :   -0.037042
  67 C :    0.284902
  68 C :   -0.333743
  69 C :   -0.193022
  70 N :    0.182206
  71 C :   -0.169056
  72 N :    0.168261
  73 H :    0.013936
  74 H :    0.012051
  75 H :    0.014098
  76 H :    0.018203
  77 H :    0.047995
  78 H :    0.153007
  79 H :    0.011225
  80 H :    0.040982
  81 H :    0.015021
  82 H :    0.011891
  83 H :    0.010930
  84 H :    0.011287
Sum of atomic charges:   -0.0000000

LOEWDIN ATOMIC CHARGES
----------------------
   0 C :    0.008587
   1 C :    0.011868
   2 C :    0.014452
   3 C :    0.014140
   4 C :   -0.002775
   5 C :   -0.008433
   6 C :    0.077092
   7 C :   -0.114738
   8 C :   -0.020135
   9 N :   -0.026562
  10 C :   -0.022539
  11 N :   -0.030937
  12 C :    0.001992
  13 C :    0.083592
  14 C :   -0.123411
  15 C :    0.006998
  16 N :   -0.071810
  17 C :   -0.020939
  18 N :   -0.024032
  19 C :    0.009519
  20 C :   -0.160472
  21 S :    0.529834
  22 C :   -0.130302
  23 C :   -0.067229
  24 C :   -0.047277
  25 N :    0.286137
  26 O :   -0.193162
  27 O :   -0.162795
  28 N :    0.284017
  29 O :   -0.197237
  30 O :   -0.188325
  31 C :   -0.249464
  32 S :    0.607635
  33 C :   -0.204482
  34 C :   -0.065314
  35 C :    0.003653
  36 N :    0.080584
  37 C :    0.009727
  38 N :    0.278038
  39 O :   -0.210272
  40 O :   -0.189573
  41 C :   -0.043544
  42 C :   -0.123150
  43 S :    0.540123
  44 C :   -0.154206
  45 C :   -0.047159
  46 C :   -0.070913
  47 N :    0.286645
  48 O :   -0.208423
  49 O :   -0.177641
  50 N :    0.286356
  51 O :   -0.191446
  52 O :   -0.169557
  53 C :    0.006548
  54 C :    0.001446
  55 C :    0.077522
  56 C :   -0.116988
  57 C :   -0.022491
  58 N :   -0.032558
  59 C :   -0.019470
  60 N :   -0.029585
  61 C :   -0.010824
  62 C :   -0.002211
  63 C :    0.012478
  64 C :    0.013458
  65 C :    0.008829
  66 C :    0.007931
  67 C :    0.077483
  68 C :   -0.118040
  69 C :   -0.019209
  70 N :   -0.028577
  71 C :   -0.016878
  72 N :   -0.052907
  73 H :    0.043707
  74 H :    0.041231
  75 H :    0.041868
  76 H :    0.045436
  77 H :    0.053092
  78 H :    0.081311
  79 H :    0.033891
  80 H :    0.051604
  81 H :    0.044647
  82 H :    0.041010
  83 H :    0.040591
  84 H :    0.042919

  Mayer bond orders larger than 0.100000
B(  0-C ,  1-C ) :   1.3767 B(  0-C ,  5-C ) :   1.3724 B(  0-C , 73-H ) :   0.9866
B(  1-C ,  2-C ) :   1.3665 B(  1-C , 74-H ) :   0.9869 B(  2-C ,  3-C ) :   1.3729
B(  2-C , 75-H ) :   0.9869 B(  3-C ,  4-C ) :   1.3782 B(  3-C , 76-H ) :   0.9873
B(  4-C ,  5-C ) :   1.2980 B(  4-C , 13-C ) :   1.0259 B(  5-C ,  6-C ) :   1.0186
B(  6-C ,  7-C ) :   1.6899 B(  6-C , 12-C ) :   1.0103 B(  7-C ,  8-C ) :   1.1354
B(  7-C , 10-C ) :   1.1302 B(  8-C ,  9-N ) :   2.9923 B( 10-C , 11-N ) :   2.9972
B( 12-C , 13-C ) :   0.9577 B( 12-C , 19-C ) :   1.8111 B( 13-C , 14-C ) :   1.6854
B( 14-C , 15-C ) :   1.1677 B( 14-C , 17-C ) :   1.1336 B( 15-C , 16-N ) :   2.9575
B( 17-C , 18-N ) :   3.0093 B( 19-C , 20-C ) :   1.0186 B( 19-C , 77-H ) :   0.9182
B( 20-C , 21-S ) :   1.1469 B( 20-C , 24-C ) :   1.5578 B( 21-S , 22-C ) :   1.1411
B( 22-C , 23-C ) :   1.5258 B( 22-C , 31-C ) :   1.1279 B( 23-C , 24-C ) :   1.1943
B( 23-C , 28-N ) :   0.9270 B( 24-C , 25-N ) :   0.9048 B( 25-N , 26-O ) :   1.4982
B( 25-N , 27-O ) :   1.5816 B( 26-O , 27-O ) :   0.2718 B( 28-N , 29-O ) :   1.4750
B( 28-N , 30-O ) :   1.5546 B( 29-O , 30-O ) :   0.2712 B( 31-C , 32-S ) :   1.1221
B( 31-C , 33-C ) :   0.1072 B( 31-C , 35-C ) :   1.3474 B( 32-S , 33-C ) :   1.1610
B( 33-C , 34-C ) :   1.2739 B( 33-C , 42-C ) :   1.2307 B( 34-C , 35-C ) :   1.2704
B( 34-C , 41-C ) :   1.1529 B( 35-C , 36-N ) :   1.2175 B( 36-N , 37-C ) :   1.1963
B( 36-N , 78-H ) :   0.8744 B( 37-C , 38-N ) :   0.9139 B( 37-C , 41-C ) :   1.5288
B( 38-N , 39-O ) :   1.4952 B( 38-N , 40-O ) :   1.5480 B( 39-O , 40-O ) :   0.2770
B( 41-C , 79-H ) :   1.0070 B( 42-C , 43-S ) :   1.1433 B( 42-C , 46-C ) :   1.4908
B( 43-S , 44-C ) :   1.1497 B( 44-C , 45-C ) :   1.5557 B( 44-C , 53-C ) :   1.0315
B( 45-C , 46-C ) :   1.1927 B( 45-C , 50-N ) :   0.9083 B( 46-C , 47-N ) :   0.9468
B( 47-N , 48-O ) :   1.4385 B( 47-N , 49-O ) :   1.5685 B( 48-O , 49-O ) :   0.2604
B( 50-N , 51-O ) :   1.4990 B( 50-N , 52-O ) :   1.5764 B( 51-O , 52-O ) :   0.2703
B( 53-C , 54-C ) :   1.7950 B( 53-C , 80-H ) :   0.9101 B( 54-C , 55-C ) :   1.0208
B( 54-C , 67-C ) :   0.9603 B( 55-C , 56-C ) :   1.6755 B( 55-C , 61-C ) :   1.0142
B( 56-C , 57-C ) :   1.1315 B( 56-C , 59-C ) :   1.1391 B( 57-C , 58-N ) :   2.9874
B( 59-C , 60-N ) :   2.9884 B( 61-C , 62-C ) :   1.3005 B( 61-C , 66-C ) :   1.3680
B( 62-C , 63-C ) :   1.3806 B( 62-C , 67-C ) :   1.0187 B( 63-C , 64-C ) :   1.3733
B( 63-C , 81-H ) :   0.9873 B( 64-C , 65-C ) :   1.3664 B( 64-C , 82-H ) :   0.9860
B( 65-C , 66-C ) :   1.3786 B( 65-C , 83-H ) :   0.9864 B( 66-C , 84-H ) :   0.9862
B( 67-C , 68-C ) :   1.6928 B( 68-C , 69-C ) :   1.1363 B( 68-C , 71-C ) :   1.1661
B( 69-C , 70-N ) :   3.0044 B( 71-C , 72-N ) :   2.9870

-----------------------------------------------------------------------------
         ABSORPTION SPECTRUM VIA TRANSITION ELECTRIC DIPOLE MOMENTS
-----------------------------------------------------------------------------
State   Energy  Wavelength   fosc         T2         TX        TY        TZ
        (cm-1)    (nm)                  (au**2)     (au)      (au)      (au)
-----------------------------------------------------------------------------
   0   18723.9    534.1   0.711495049  12.50982   0.81111  -2.56834  -2.29250
   1   19981.2    500.5   0.044614545   0.73507  -0.41507  -0.57121  -0.48632
   2   21997.6    454.6   0.356741997   5.33893   1.11917  -1.58397  -1.25596
   3   25285.7    395.5   0.025759733   0.33538  -0.11364   0.13922   0.55054
   4   25647.2    389.9   0.036064187   0.46293   0.62589   0.19823  -0.17857
   5   25950.7    385.3   0.044739561   0.56757  -0.05149   0.75030   0.04438
   6   26387.4    379.0   0.021844876   0.27254   0.41243   0.31307  -0.06652
   7   27250.2    367.0   0.132894242   1.60551   1.00237   0.74617  -0.20975
   8   29341.9    340.8   0.039347246   0.44147  -0.52572  -0.30267  -0.27106
   9   29517.7    338.8   0.091323850   1.01854   0.49237   0.85297  -0.22034
  10   29797.6    335.6   0.011395821   0.12590   0.24113   0.15574  -0.20858
  11   29899.4    334.5   0.081911658   0.90190   0.73260   0.14164   0.58749
  12   30325.1    329.8   0.009717540   0.10549  -0.26441  -0.15914  -0.10126
  13   31045.2    322.1   0.081177249   0.86083  -0.87150  -0.31725  -0.02572
  14   31328.1    319.2   0.012237410   0.12860  -0.11385   0.33928  -0.02293
  15   31519.2    317.3   0.034935700   0.36490  -0.26229   0.50920   0.19188
  16   31638.3    316.1   0.226608202   2.35797  -0.67982   1.04365   0.89812
  17   32262.0    310.0   0.284515719   2.90329   0.41818   1.54066  -0.59563
  18   32508.7    307.6   0.129764022   1.31411  -0.00965   1.14396   0.07326
  19   32684.2    306.0   0.779035716   7.84685  -0.09162   0.03053   2.79956
  20   32823.6    304.7   0.097304075   0.97593  -0.96967  -0.09569  -0.16282
  21   32962.4    303.4   0.376202868   3.75733  -0.39755  -1.89392  -0.11105
  22   33063.9    302.4   0.019716047   0.19631   0.36677   0.08816  -0.23242
  23   33284.9    300.4   0.017929297   0.17733  -0.16384   0.06581   0.38231
  24   34098.8    293.3   0.049105716   0.47410   0.15070   0.65071   0.16723
  25   34443.8    290.3   0.152410209   1.45673  -0.92263  -0.72035   0.29424
  26   34734.1    287.9   0.230854462   2.18806  -0.66407   0.58819   1.18368
  27   35076.7    285.1   0.151508112   1.42198  -0.11046   1.17490  -0.17140
  28   35248.2    283.7   0.010612909   0.09912   0.00210   0.15861  -0.27196
  29   35487.1    281.8   0.058649925   0.54409   0.59266  -0.18323  -0.39909
  30   35902.9    278.5   0.188026133   1.72411  -0.36731  -1.05270  -0.69355
  31   35984.7    277.9   0.122705906   1.12260  -0.00882  -0.72942  -0.76842
  32   36223.9    276.1   0.027862375   0.25322   0.00016   0.48066   0.14895
  33   36319.3    275.3   0.026769019   0.24264   0.00695   0.40891   0.27457
  34   36717.9    272.3   0.064296753   0.57648   0.37208   0.54337  -0.37788
  35   37268.6    268.3   0.302273624   2.67013  -0.39689   1.50882   0.48586
  36   37471.1    266.9   0.011615974   0.10205   0.23662   0.20915  -0.04820
  37   37671.6    265.5   0.248253367   2.16948  -0.29966   0.15965   1.43325
  38   37836.9    264.3   0.029547371   0.25709  -0.25463   0.43610  -0.04547
  39   38100.6    262.5   0.143692019   1.24158  -0.68771   0.87304  -0.08022
  40   38242.4    261.5   0.034257072   0.29490  -0.10030  -0.03102  -0.53281
  41   38400.7    260.4   0.042677874   0.36588   0.41609   0.05274  -0.43586
  42   38678.9    258.5   0.027274306   0.23214   0.33040   0.26069  -0.23456
  43   38746.5    258.1   0.108735557   0.92388   0.92766  -0.02919  -0.24994
  44   38886.8    257.2   0.058429221   0.49466   0.43294  -0.03389  -0.55323
  45   39102.6    255.7   0.085787095   0.72226   0.35522   0.65184  -0.41375
  46   39240.7    254.8   0.126869972   1.06438   1.01260  -0.15727  -0.11957
  47   39402.2    253.8   0.118194775   0.98754   0.37027  -0.59090  -0.70801
  48   39608.9    252.5   0.021326032   0.17725   0.34103   0.23216  -0.08399
  49   39824.4    251.1   0.006872116   0.05681   0.21780   0.08826  -0.03978
  50   39978.1    250.1   0.044110463   0.36324  -0.40687   0.41081  -0.17010
  51   40203.7    248.7   0.018776784   0.15376  -0.23237  -0.13550  -0.28531
  52   40318.0    248.0   0.128050615   1.04558   0.72805  -0.01987   0.71772

FINAL SINGLE POINT ENERGY     -4468.330713531151

DIPOLE MOMENT
-------------
                                X             Y             Z
Electronic contribution:      4.07861      -4.65514       9.54685
Nuclear contribution   :     -3.79606       5.21802      -9.20424
                        -----------------------------------------
Total Dipole Moment    :      0.28254       0.56288       0.34260
                        -----------------------------------------
Magnitude (a.u.)       :      0.71697
Magnitude (Debye)      :      1.82239

Rotational constants in cm-1:     0.002521     0.000361     0.000345
Rotational constants in MHz :    75.589422    10.832613    10.351511

                             ****ORCA TERMINATED NORMALLY****
TOTAL RUN TIME: 0 days 0 hours 11 minutes 47 seconds 521 msec
