                         Program Version 4.2.0 -  RELEASE  -
|  1> # ORCA input file
|  2> # SCF done       -173.254616650560          0.000885719666
|  3> ! CAM-B3LYP def2-SVP def2/J RIJCOSX Grid4 TightSCF
|  4> %maxcore 5000
|  5> %tddft
|  6>     Mode sTDDFT
|  7>     Ethresh 5.0
|  8>     maxcore 5000
|  9> end
| 10>
| 11> %pal
| 12>   nprocs 6
| 13>   end
| 14> * xyz 0 1
| 15>    C       -7.78063         3.84243        -1.43425
| 16>    C       -9.09390         4.23927        -1.63752
| 17>    C      -10.03507         3.36225        -2.15811
| 18>    C       -9.68813         2.06292        -2.49669
| 19>    C       -8.38030         1.65394        -2.29623
| 20>    C       -7.42177         2.54372        -1.75969
| 21>    C       -6.14903         1.84596        -1.63587
| 22>    C       -4.94781         2.41075        -1.30732
| 23>    C       -4.77137         3.78203        -1.02209
| 24>    N       -4.56125         4.88303        -0.77588
| 25>    C       -3.71476         1.72581        -1.25416
| 26>    N       -2.67710         1.23746        -1.20378
| 27>    C       -6.41653         0.43890        -1.92889
| 28>    C       -7.73072         0.38078        -2.56136
| 29>    C       -8.16819        -0.56735        -3.44653
| 30>    C       -7.41335        -1.68841        -3.84444
| 31>    N       -6.84554        -2.61588        -4.21285
| 32>    C       -9.43494        -0.54118        -4.06322
| 33>    N      -10.46341        -0.59155        -4.57088
| 34>    C       -5.62596        -0.59178        -1.52161
| 35>    C       -5.98294        -1.96818        -1.38560
| 36>    C       -5.00329        -2.96369        -1.42111
| 37>    N       -5.22454        -4.25387        -1.30167
| 38>    C       -6.46120        -4.71284        -1.12460
| 39>    C       -7.56708        -3.80226        -1.00903
| 40>    C       -7.30990        -2.40850        -1.10552
| 41>    N       -8.29308        -1.52087        -0.86470
| 42>    C       -9.49739        -1.97981        -0.64424
| 43>    C       -9.77391        -3.35530        -0.66066
| 44>    N       -8.81956        -4.24283        -0.80035
| 45>    C       -6.62223        -6.12207        -1.03085
| 46>    N       -7.84068        -6.72730        -0.83774
| 47>    C       -7.64165        -8.06189        -0.75015
| 48>    C       -8.27529        -9.28126        -0.55541
| 49>    C       -7.26409       -10.25583        -0.58012
| 50>    N       -6.04523        -9.64964        -0.79307
| 51>    C       -6.24218        -8.30863        -0.89826
| 52>    C       -5.60411        -7.09334        -1.07903
| 53>    C       -7.44389       -11.64714        -0.38910
| 54>    C       -6.45372       -12.57464        -0.36000
| 55>    C       -6.62773       -13.97126        -0.12971
| 56>    C       -7.85956       -14.61750         0.01320
| 57>    N       -8.01698       -15.88666         0.32380
| 58>    C       -6.96415       -16.68185         0.47837
| 59>    C       -5.64203       -16.18476         0.26494
| 60>    C       -5.47315       -14.80515        -0.01348
| 61>    N       -4.23798       -14.28748        -0.16629
| 62>    C       -3.22515       -15.10389        -0.04268
| 63>    C       -3.39816       -16.48038         0.20784
| 64>    N       -4.58298       -17.00929         0.35200
| 65>    C       -7.13499       -18.06705         0.79142
| 66>    C       -8.25768       -18.69122         1.23787
| 67>    C       -8.48572       -20.13293         1.14664
| 68>    C       -7.53914       -21.11133         1.02205
| 69>    C       -6.14141       -20.90562         1.02381
| 70>    N       -4.99592       -20.83523         1.03307
| 71>    C       -7.83662       -22.48807         0.92424
| 72>    N       -8.01015       -23.61916         0.83695
| 73>    C       -9.92688       -20.33101         1.21925
| 74>    C      -10.54418       -19.09630         1.52662
| 75>    C      -11.92191       -19.00474         1.63941
| 76>    C      -12.67963       -20.14960         1.44576
| 77>    C      -12.07524       -21.36429         1.15200
| 78>    C      -10.69746       -21.46909         1.03624
| 79>    C       -9.50656       -18.09427         1.70740
| 80>    C       -9.63067       -16.93069         2.40994
| 81>    C      -10.85746       -16.42583         2.88820
| 82>    N      -11.82958       -15.95703         3.27888
| 83>    C       -8.53660       -16.14424         2.83290
| 84>    N       -7.69127       -15.50960         3.27987
| 85>    H       -7.06491         4.53524        -1.02308
| 86>    H       -9.38663         5.24611        -1.38167
| 87>    H      -11.05258         3.69323        -2.30036
| 88>    H      -10.42851         1.38786        -2.89465
| 89>    H       -4.62405        -0.35572        -1.18724
| 90>    H       -3.96983        -2.68857        -1.58915
| 91>    H      -10.26578        -1.24705        -0.43868
| 92>    H      -10.77640        -3.73557        -0.52407
| 93>    H       -8.69309        -6.18425        -0.77315
| 94>    H       -9.31816        -9.47515        -0.40553
| 95>    H       -5.16566       -10.13232        -0.84967
| 96>    H       -4.56612        -6.87709        -1.22222
| 97>    H       -8.46956       -11.94921        -0.23516
| 98>    H       -5.42163       -12.27959        -0.49015
| 99>    H       -8.78594       -14.07381        -0.11289
|100>    H       -2.23977       -14.67343        -0.16091
|101>    H       -2.55549       -17.15390         0.27773
|102>    H       -6.26290       -18.66457         0.56130
|103>    H      -12.40108       -18.06477         1.86052
|104>    H      -13.75462       -20.09318         1.52403
|105>    H      -12.68527       -22.24281         1.00731
|106>    H      -10.24613       -22.41921         0.80210
|107> *
|108>
|109>                          ****END OF INPUT****

CARTESIAN COORDINATES (ANGSTROEM)
---------------------------------
  C     -7.780630    3.842430   -1.434250
  C     -9.093900    4.239270   -1.637520
  C    -10.035070    3.362250   -2.158110
  C     -9.688130    2.062920   -2.496690
  C     -8.380300    1.653940   -2.296230
  C     -7.421770    2.543720   -1.759690
  C     -6.149030    1.845960   -1.635870
  C     -4.947810    2.410750   -1.307320
  C     -4.771370    3.782030   -1.022090
  N     -4.561250    4.883030   -0.775880
  C     -3.714760    1.725810   -1.254160
  N     -2.677100    1.237460   -1.203780
  C     -6.416530    0.438900   -1.928890
  C     -7.730720    0.380780   -2.561360
  C     -8.168190   -0.567350   -3.446530
  C     -7.413350   -1.688410   -3.844440
  N     -6.845540   -2.615880   -4.212850
  C     -9.434940   -0.541180   -4.063220
  N    -10.463410   -0.591550   -4.570880
  C     -5.625960   -0.591780   -1.521610
  C     -5.982940   -1.968180   -1.385600
  C     -5.003290   -2.963690   -1.421110
  N     -5.224540   -4.253870   -1.301670
  C     -6.461200   -4.712840   -1.124600
  C     -7.567080   -3.802260   -1.009030
  C     -7.309900   -2.408500   -1.105520
  N     -8.293080   -1.520870   -0.864700
  C     -9.497390   -1.979810   -0.644240
  C     -9.773910   -3.355300   -0.660660
  N     -8.819560   -4.242830   -0.800350
  C     -6.622230   -6.122070   -1.030850
  N     -7.840680   -6.727300   -0.837740
  C     -7.641650   -8.061890   -0.750150
  C     -8.275290   -9.281260   -0.555410
  C     -7.264090  -10.255830   -0.580120
  N     -6.045230   -9.649640   -0.793070
  C     -6.242180   -8.308630   -0.898260
  C     -5.604110   -7.093340   -1.079030
  C     -7.443890  -11.647140   -0.389100
  C     -6.453720  -12.574640   -0.360000
  C     -6.627730  -13.971260   -0.129710
  C     -7.859560  -14.617500    0.013200
  N     -8.016980  -15.886660    0.323800
  C     -6.964150  -16.681850    0.478370
  C     -5.642030  -16.184760    0.264940
  C     -5.473150  -14.805150   -0.013480
  N     -4.237980  -14.287480   -0.166290
  C     -3.225150  -15.103890   -0.042680
  C     -3.398160  -16.480380    0.207840
  N     -4.582980  -17.009290    0.352000
  C     -7.134990  -18.067050    0.791420
  C     -8.257680  -18.691220    1.237870
  C     -8.485720  -20.132930    1.146640
  C     -7.539140  -21.111330    1.022050
  C     -6.141410  -20.905620    1.023810
  N     -4.995920  -20.835230    1.033070
  C     -7.836620  -22.488070    0.924240
  N     -8.010150  -23.619160    0.836950
  C     -9.926880  -20.331010    1.219250
  C    -10.544180  -19.096300    1.526620
  C    -11.921910  -19.004740    1.639410
  C    -12.679630  -20.149600    1.445760
  C    -12.075240  -21.364290    1.152000
  C    -10.697460  -21.469090    1.036240
  C     -9.506560  -18.094270    1.707400
  C     -9.630670  -16.930690    2.409940
  C    -10.857460  -16.425830    2.888200
  N    -11.829580  -15.957030    3.278880
  C     -8.536600  -16.144240    2.832900
  N     -7.691270  -15.509600    3.279870
  H     -7.064910    4.535240   -1.023080
  H     -9.386630    5.246110   -1.381670
  H    -11.052580    3.693230   -2.300360
  H    -10.428510    1.387860   -2.894650
  H     -4.624050   -0.355720   -1.187240
  H     -3.969830   -2.688570   -1.589150
  H    -10.265780   -1.247050   -0.438680
  H    -10.776400   -3.735570   -0.524070
  H     -8.693090   -6.184250   -0.773150
  H     -9.318160   -9.475150   -0.405530
  H     -5.165660  -10.132320   -0.849670
  H     -4.566120   -6.877090   -1.222220
  H     -8.469560  -11.949210   -0.235160
  H     -5.421630  -12.279590   -0.490150
  H     -8.785940  -14.073810   -0.112890
  H     -2.239770  -14.673430   -0.160910
  H     -2.555490  -17.153900    0.277730
  H     -6.262900  -18.664570    0.561300
  H    -12.401080  -18.064770    1.860520
  H    -13.754620  -20.093180    1.524030
  H    -12.685270  -22.242810    1.007310
  H    -10.246130  -22.419210    0.802100

 Total Charge           Charge          ....    0
 Multiplicity           Mult            ....    1
 Number of Electrons    NEL             ....  458
 Basis Dimension        Dim             .... 1090

ORBITAL ENERGIES
----------------

  NO   OCC          E(Eh)            E(eV)
   0   2.0000     -14.468720      -393.7139
   1   2.0000     -14.460201      -393.4821
   2   2.0000     -14.457148      -393.3990
   3   2.0000     -14.450881      -393.2285
   4   2.0000     -14.445560      -393.0837
   5   2.0000     -14.444811      -393.0633
   6   2.0000     -14.429784      -392.6544
   7   2.0000     -14.422924      -392.4677
   8   2.0000     -14.422297      -392.4507
   9   2.0000     -14.421468      -392.4281
  10   2.0000     -14.420744      -392.4084
  11   2.0000     -14.420526      -392.4025
  12   2.0000     -14.419846      -392.3840
  13   2.0000     -14.419426      -392.3725
  14   2.0000     -14.419132      -392.3645
  15   2.0000     -14.416289      -392.2872
  16   2.0000     -10.350850      -281.6610
  17   2.0000     -10.350477      -281.6508
  18   2.0000     -10.349013      -281.6109
  19   2.0000     -10.348510      -281.5973
  20   2.0000     -10.348399      -281.5943
  21   2.0000     -10.347757      -281.5768
  22   2.0000     -10.347224      -281.5623
  23   2.0000     -10.347123      -281.5595
  24   2.0000     -10.346637      -281.5463
  25   2.0000     -10.346634      -281.5462
  26   2.0000     -10.344790      -281.4960
  27   2.0000     -10.343687      -281.4660
  28   2.0000     -10.341944      -281.4186
  29   2.0000     -10.339424      -281.3500
  30   2.0000     -10.339070      -281.3404
  31   2.0000     -10.337328      -281.2930
  32   2.0000     -10.336586      -281.2728
  33   2.0000     -10.333615      -281.1920
  34   2.0000     -10.330921      -281.1187
  35   2.0000     -10.325133      -280.9612
  36   2.0000     -10.324976      -280.9569
  37   2.0000     -10.323745      -280.9234
  38   2.0000     -10.323414      -280.9144
  39   2.0000     -10.323233      -280.9094
  40   2.0000     -10.323134      -280.9068
  41   2.0000     -10.323049      -280.9044
  42   2.0000     -10.322601      -280.8923
  43   2.0000     -10.322208      -280.8816
  44   2.0000     -10.320882      -280.8455
  45   2.0000     -10.319811      -280.8163
  46   2.0000     -10.319348      -280.8037
  47   2.0000     -10.316742      -280.7328
  48   2.0000     -10.315124      -280.6888
  49   2.0000     -10.314611      -280.6748
  50   2.0000     -10.314122      -280.6615
  51   2.0000     -10.313792      -280.6526
  52   2.0000     -10.312270      -280.6111
  53   2.0000     -10.311919      -280.6016
  54   2.0000     -10.311379      -280.5869
  55   2.0000     -10.308594      -280.5111
  56   2.0000     -10.307492      -280.4811
  57   2.0000     -10.303437      -280.3708
  58   2.0000     -10.302830      -280.3543
  59   2.0000     -10.302774      -280.3527
  60   2.0000     -10.302543      -280.3465
  61   2.0000     -10.302072      -280.3336
  62   2.0000     -10.301427      -280.3161
  63   2.0000     -10.300327      -280.2862
  64   2.0000     -10.300032      -280.2781
  65   2.0000     -10.299601      -280.2664
  66   2.0000     -10.298489      -280.2361
  67   2.0000     -10.289861      -280.0013
  68   2.0000     -10.280278      -279.7406
  69   2.0000     -10.277954      -279.6773
  70   2.0000      -1.113501       -30.2999
  71   2.0000      -1.103759       -30.0348
  72   2.0000      -1.100600       -29.9489
  73   2.0000      -1.067119       -29.0378
  74   2.0000      -1.059154       -28.8210
  75   2.0000      -1.051807       -28.6211
  76   2.0000      -1.039304       -28.2809
  77   2.0000      -1.032729       -28.1020
  78   2.0000      -1.029714       -28.0199
  79   2.0000      -1.024453       -27.8768
  80   2.0000      -1.018451       -27.7135
  81   2.0000      -1.015878       -27.6434
  82   2.0000      -1.008593       -27.4452
  83   2.0000      -1.005891       -27.3717
  84   2.0000      -1.000503       -27.2251
  85   2.0000      -1.000009       -27.2116
  86   2.0000      -0.997542       -27.1445
  87   2.0000      -0.996463       -27.1151
  88   2.0000      -0.961580       -26.1659
  89   2.0000      -0.957941       -26.0669
  90   2.0000      -0.940483       -25.5919
  91   2.0000      -0.938596       -25.5405
  92   2.0000      -0.934192       -25.4207
  93   2.0000      -0.930622       -25.3235
  94   2.0000      -0.908478       -24.7209
  95   2.0000      -0.905482       -24.6394
  96   2.0000      -0.898942       -24.4615
  97   2.0000      -0.894982       -24.3537
  98   2.0000      -0.891941       -24.2709
  99   2.0000      -0.882779       -24.0216
 100   2.0000      -0.871559       -23.7163
 101   2.0000      -0.868325       -23.6283
 102   2.0000      -0.865823       -23.5602
 103   2.0000      -0.865278       -23.5454
 104   2.0000      -0.849983       -23.1292
 105   2.0000      -0.822993       -22.3948
 106   2.0000      -0.808416       -21.9981
 107   2.0000      -0.792498       -21.5650
 108   2.0000      -0.789656       -21.4876
 109   2.0000      -0.788818       -21.4648
 110   2.0000      -0.784011       -21.3340
 111   2.0000      -0.780768       -21.2458
 112   2.0000      -0.776705       -21.1352
 113   2.0000      -0.773612       -21.0510
 114   2.0000      -0.754508       -20.5312
 115   2.0000      -0.726737       -19.7755
 116   2.0000      -0.717743       -19.5308
 117   2.0000      -0.715651       -19.4739
 118   2.0000      -0.713795       -19.4233
 119   2.0000      -0.711904       -19.3719
 120   2.0000      -0.707110       -19.2414
 121   2.0000      -0.701506       -19.0890
 122   2.0000      -0.700198       -19.0534
 123   2.0000      -0.685879       -18.6637
 124   2.0000      -0.680813       -18.5259
 125   2.0000      -0.670847       -18.2547
 126   2.0000      -0.667887       -18.1741
 127   2.0000      -0.667025       -18.1507
 128   2.0000      -0.665629       -18.1127
 129   2.0000      -0.665020       -18.0961
 130   2.0000      -0.654007       -17.7964
 131   2.0000      -0.652697       -17.7608
 132   2.0000      -0.649783       -17.6815
 133   2.0000      -0.646551       -17.5936
 134   2.0000      -0.641990       -17.4694
 135   2.0000      -0.635752       -17.2997
 136   2.0000      -0.624626       -16.9969
 137   2.0000      -0.616479       -16.7753
 138   2.0000      -0.604321       -16.4444
 139   2.0000      -0.587851       -15.9962
 140   2.0000      -0.585604       -15.9351
 141   2.0000      -0.584234       -15.8978
 142   2.0000      -0.580678       -15.8011
 143   2.0000      -0.579146       -15.7594
 144   2.0000      -0.577345       -15.7104
 145   2.0000      -0.572683       -15.5835
 146   2.0000      -0.569535       -15.4978
 147   2.0000      -0.567226       -15.4350
 148   2.0000      -0.561007       -15.2658
 149   2.0000      -0.557911       -15.1815
 150   2.0000      -0.556104       -15.1324
 151   2.0000      -0.551893       -15.0178
 152   2.0000      -0.547146       -14.8886
 153   2.0000      -0.545159       -14.8345
 154   2.0000      -0.542845       -14.7716
 155   2.0000      -0.540758       -14.7148
 156   2.0000      -0.539152       -14.6711
 157   2.0000      -0.537216       -14.6184
 158   2.0000      -0.535528       -14.5725
 159   2.0000      -0.533242       -14.5102
 160   2.0000      -0.526398       -14.3240
 161   2.0000      -0.524577       -14.2745
 162   2.0000      -0.516190       -14.0462
 163   2.0000      -0.512442       -13.9443
 164   2.0000      -0.509531       -13.8650
 165   2.0000      -0.506536       -13.7836
 166   2.0000      -0.505150       -13.7458
 167   2.0000      -0.503260       -13.6944
 168   2.0000      -0.502190       -13.6653
 169   2.0000      -0.498144       -13.5552
 170   2.0000      -0.496027       -13.4976
 171   2.0000      -0.493898       -13.4397
 172   2.0000      -0.488362       -13.2890
 173   2.0000      -0.486734       -13.2447
 174   2.0000      -0.479844       -13.0572
 175   2.0000      -0.478254       -13.0140
 176   2.0000      -0.475348       -12.9349
 177   2.0000      -0.470364       -12.7993
 178   2.0000      -0.466736       -12.7005
 179   2.0000      -0.463998       -12.6260
 180   2.0000      -0.460334       -12.5263
 181   2.0000      -0.458524       -12.4771
 182   2.0000      -0.457332       -12.4446
 183   2.0000      -0.455551       -12.3962
 184   2.0000      -0.454754       -12.3745
 185   2.0000      -0.453993       -12.3538
 186   2.0000      -0.452042       -12.3007
 187   2.0000      -0.451595       -12.2885
 188   2.0000      -0.449840       -12.2408
 189   2.0000      -0.449381       -12.2283
 190   2.0000      -0.447667       -12.1816
 191   2.0000      -0.446837       -12.1590
 192   2.0000      -0.444841       -12.1047
 193   2.0000      -0.441892       -12.0245
 194   2.0000      -0.436427       -11.8758
 195   2.0000      -0.434066       -11.8115
 196   2.0000      -0.432288       -11.7632
 197   2.0000      -0.431022       -11.7287
 198   2.0000      -0.431017       -11.7286
 199   2.0000      -0.428440       -11.6585
 200   2.0000      -0.427046       -11.6205
 201   2.0000      -0.426546       -11.6069
 202   2.0000      -0.420804       -11.4507
 203   2.0000      -0.418780       -11.3956
 204   2.0000      -0.415615       -11.3095
 205   2.0000      -0.414166       -11.2700
 206   2.0000      -0.412898       -11.2355
 207   2.0000      -0.411129       -11.1874
 208   2.0000      -0.405427       -11.0322
 209   2.0000      -0.401703       -10.9309
 210   2.0000      -0.386294       -10.5116
 211   2.0000      -0.384601       -10.4655
 212   2.0000      -0.381151       -10.3716
 213   2.0000      -0.371846       -10.1184
 214   2.0000      -0.367250        -9.9934
 215   2.0000      -0.365421        -9.9436
 216   2.0000      -0.359914        -9.7937
 217   2.0000      -0.356998        -9.7144
 218   2.0000      -0.353104        -9.6084
 219   2.0000      -0.344313        -9.3692
 220   2.0000      -0.338899        -9.2219
 221   2.0000      -0.334743        -9.1088
 222   2.0000      -0.330753        -9.0003
 223   2.0000      -0.326193        -8.8762
 224   2.0000      -0.313244        -8.5238
 225   2.0000      -0.303419        -8.2565
 226   2.0000      -0.298518        -8.1231
 227   2.0000      -0.287930        -7.8350
 228   2.0000      -0.238186        -6.4814
 229   0.0000      -0.115567        -3.1447
 230   0.0000      -0.098552        -2.6817
 231   0.0000      -0.085850        -2.3361
 232   0.0000      -0.083964        -2.2848
 233   0.0000      -0.066862        -1.8194

MULLIKEN ATOMIC CHARGES
-----------------------
   0 C :   -0.036677
   1 C :    0.049277
   2 C :    0.046985
   3 C :   -0.041687
   4 C :    0.005184
   5 C :    0.017095
   6 C :    0.281683
   7 C :   -0.338912
   8 C :   -0.189708
   9 N :    0.162972
  10 C :   -0.186293
  11 N :    0.158906
  12 C :   -0.044116
  13 C :    0.279644
  14 C :   -0.352155
  15 C :   -0.192671
  16 N :    0.182063
  17 C :   -0.199375
  18 N :    0.162107
  19 C :    0.017001
  20 C :    0.006259
  21 C :    0.010919
  22 N :   -0.030735
  23 C :    0.009331
  24 C :    0.019142
  25 C :   -0.034194
  26 N :   -0.029231
  27 C :    0.057442
  28 C :    0.043435
  29 N :   -0.059334
  30 C :    0.013023
  31 N :   -0.004478
  32 C :    0.138265
  33 C :   -0.164956
  34 C :    0.082857
  35 N :   -0.032469
  36 C :    0.138026
  37 C :   -0.160107
  38 C :    0.069699
  39 C :   -0.034668
  40 C :    0.060318
  41 C :   -0.020367
  42 N :   -0.035407
  43 C :   -0.079600
  44 C :    0.003953
  45 C :   -0.012252
  46 N :   -0.024269
  47 C :    0.036519
  48 C :    0.039119
  49 N :    0.009414
  50 C :   -0.000390
  51 C :   -0.008251
  52 C :    0.280146
  53 C :   -0.330772
  54 C :   -0.190487
  55 N :    0.166475
  56 C :   -0.189602
  57 N :    0.160098
  58 C :    0.010842
  59 C :    0.009789
  60 C :   -0.031195
  61 C :    0.045005
  62 C :    0.045846
  63 C :   -0.030115
  64 C :    0.245150
  65 C :   -0.288003
  66 C :   -0.197185
  67 N :    0.160606
  68 C :   -0.192163
  69 N :    0.166248
  70 H :    0.007247
  71 H :    0.003735
  72 H :    0.003411
  73 H :    0.001878
  74 H :    0.017228
  75 H :    0.015673
  76 H :    0.024354
  77 H :    0.020335
  78 H :    0.125721
  79 H :   -0.026565
  80 H :    0.131587
  81 H :   -0.019009
  82 H :   -0.009939
  83 H :   -0.024330
  84 H :    0.000501
  85 H :    0.021431
  86 H :    0.030701
  87 H :    0.026974
  88 H :    0.005174
  89 H :    0.005728
  90 H :    0.003919
  91 H :    0.005229
Sum of atomic charges:   -0.0000000

LOEWDIN ATOMIC CHARGES
----------------------
   0 C :    0.005288
   1 C :    0.001564
   2 C :    0.003272
   3 C :   -0.001732
   4 C :   -0.006310
   5 C :   -0.011050
   6 C :    0.081634
   7 C :   -0.133091
   8 C :   -0.019281
   9 N :   -0.046592
  10 C :   -0.021825
  11 N :   -0.044219
  12 C :   -0.049777
  13 C :    0.086195
  14 C :   -0.142950
  15 C :   -0.020726
  16 N :   -0.046604
  17 C :   -0.021722
  18 N :   -0.054348
  19 C :    0.065243
  20 C :   -0.086809
  21 C :    0.067808
  22 N :   -0.068604
  23 C :    0.037772
  24 C :   -0.016943
  25 C :    0.016680
  26 N :   -0.029369
  27 C :    0.024064
  28 C :    0.009362
  29 N :   -0.029906
  30 C :   -0.009769
  31 N :    0.080101
  32 C :   -0.003143
  33 C :   -0.078984
  34 C :    0.011023
  35 N :    0.070192
  36 C :   -0.011107
  37 C :   -0.046966
  38 C :    0.002461
  39 C :   -0.038364
  40 C :   -0.016216
  41 C :    0.025577
  42 N :   -0.038428
  43 C :   -0.012946
  44 C :   -0.009196
  45 C :    0.004220
  46 N :   -0.036057
  47 C :    0.019033
  48 C :    0.020824
  49 N :   -0.022418
  50 C :    0.054747
  51 C :   -0.030373
  52 C :    0.077552
  53 C :   -0.127208
  54 C :   -0.024866
  55 N :   -0.036690
  56 C :   -0.018083
  57 N :   -0.045809
  58 C :   -0.014225
  59 C :   -0.006651
  60 C :    0.000680
  61 C :    0.004644
  62 C :    0.000391
  63 C :    0.004951
  64 C :    0.073796
  65 C :   -0.111740
  66 C :   -0.018208
  67 N :   -0.048182
  68 C :   -0.016975
  69 N :   -0.051925
  70 H :    0.041837
  71 H :    0.037575
  72 H :    0.037144
  73 H :    0.039275
  74 H :    0.047922
  75 H :    0.032801
  76 H :    0.032114
  77 H :    0.030912
  78 H :    0.070030
  79 H :    0.028491
  80 H :    0.092170
  81 H :    0.033755
  82 H :    0.036878
  83 H :    0.023174
  84 H :    0.022686
  85 H :    0.030858
  86 H :    0.035019
  87 H :    0.047631
  88 H :    0.040698
  89 H :    0.037685
  90 H :    0.037428
  91 H :    0.041236

  Mayer bond orders larger than 0.100000
B(  0-C ,  1-C ) :   1.3705 B(  0-C ,  5-C ) :   1.3817 B(  0-C , 70-H ) :   0.9827
B(  1-C ,  2-C ) :   1.3786 B(  1-C , 71-H ) :   0.9856 B(  2-C ,  3-C ) :   1.3637
B(  2-C , 72-H ) :   0.9864 B(  3-C ,  4-C ) :   1.3818 B(  3-C , 73-H ) :   0.9874
B(  4-C ,  5-C ) :   1.3137 B(  4-C , 13-C ) :   1.0170 B(  5-C ,  6-C ) :   0.9998
B(  6-C ,  7-C ) :   1.6448 B(  6-C , 12-C ) :   1.0560 B(  7-C ,  8-C ) :   1.1431
B(  7-C , 10-C ) :   1.1357 B(  8-C ,  9-N ) :   2.9813 B( 10-C , 11-N ) :   2.9831
B( 12-C , 13-C ) :   1.0100 B( 12-C , 19-C ) :   1.6329 B( 13-C , 14-C ) :   1.6338
B( 14-C , 15-C ) :   1.1610 B( 14-C , 17-C ) :   1.1525 B( 15-C , 16-N ) :   3.0052
B( 17-C , 18-N ) :   2.9938 B( 19-C , 20-C ) :   1.1131 B( 19-C , 74-H ) :   0.9285
B( 20-C , 21-C ) :   1.3003 B( 20-C , 25-C ) :   1.2192 B( 21-C , 22-N ) :   1.5305
B( 21-C , 75-H ) :   0.9813 B( 22-N , 23-C ) :   1.6312 B( 23-C , 24-C ) :   1.1109
B( 23-C , 30-C ) :   1.1199 B( 24-C , 25-C ) :   1.2686 B( 24-C , 29-N ) :   1.4615
B( 25-C , 26-N ) :   1.4507 B( 26-N , 27-C ) :   1.6066 B( 27-C , 28-C ) :   1.2568
B( 27-C , 76-H ) :   0.9741 B( 28-C , 29-N ) :   1.5964 B( 28-C , 77-H ) :   0.9749
B( 30-C , 31-N ) :   1.2484 B( 30-C , 37-C ) :   1.3206 B( 31-N , 32-C ) :   1.1974
B( 31-N , 78-H ) :   0.8800 B( 32-C , 33-C ) :   1.2540 B( 32-C , 36-C ) :   1.2575
B( 33-C , 34-C ) :   1.3358 B( 33-C , 79-H ) :   1.0427 B( 34-C , 35-N ) :   1.2059
B( 34-C , 38-C ) :   1.1734 B( 35-N , 36-C ) :   1.1554 B( 35-N , 80-H ) :   0.9300
B( 36-C , 37-C ) :   1.2602 B( 37-C , 81-H ) :   1.0500 B( 38-C , 39-C ) :   1.5556
B( 38-C , 82-H ) :   0.9576 B( 39-C , 40-C ) :   1.1610 B( 39-C , 83-H ) :   0.9740
B( 40-C , 41-C ) :   1.3198 B( 40-C , 43-C ) :   0.1042 B( 40-C , 45-C ) :   1.2074
B( 41-C , 42-N ) :   1.5042 B( 41-C , 84-H ) :   0.9778 B( 42-N , 43-C ) :   1.5340
B( 43-C , 44-C ) :   1.1561 B( 43-C , 50-C ) :   1.1575 B( 44-C , 45-C ) :   1.2521
B( 44-C , 49-N ) :   1.5031 B( 45-C , 46-N ) :   1.4542 B( 46-N , 47-C ) :   1.6628
B( 47-C , 48-C ) :   1.2150 B( 47-C , 85-H ) :   0.9750 B( 48-C , 49-N ) :   1.6618
B( 48-C , 86-H ) :   0.9762 B( 50-C , 51-C ) :   1.5975 B( 50-C , 87-H ) :   0.9276
B( 51-C , 52-C ) :   1.0399 B( 51-C , 64-C ) :   1.0002 B( 52-C , 53-C ) :   1.6536
B( 52-C , 58-C ) :   1.0043 B( 53-C , 54-C ) :   1.1316 B( 53-C , 56-C ) :   1.1431
B( 54-C , 55-N ) :   2.9895 B( 56-C , 57-N ) :   2.9804 B( 58-C , 59-C ) :   1.3068
B( 58-C , 63-C ) :   1.3796 B( 59-C , 60-C ) :   1.3804 B( 59-C , 64-C ) :   1.0134
B( 60-C , 61-C ) :   1.3678 B( 60-C , 88-H ) :   0.9867 B( 61-C , 62-C ) :   1.3729
B( 61-C , 89-H ) :   0.9872 B( 62-C , 63-C ) :   1.3747 B( 62-C , 90-H ) :   0.9864
B( 63-C , 91-H ) :   0.9841 B( 64-C , 65-C ) :   1.6942 B( 65-C , 66-C ) :   1.1447
B( 65-C , 68-C ) :   1.1469 B( 66-C , 67-N ) :   2.9924 B( 68-C , 69-N ) :   2.9995

-----------------------------------------------------------------------------
         ABSORPTION SPECTRUM VIA TRANSITION ELECTRIC DIPOLE MOMENTS
-----------------------------------------------------------------------------
State   Energy  Wavelength   fosc         T2         TX        TY        TZ
        (cm-1)    (nm)                  (au**2)     (au)      (au)      (au)
-----------------------------------------------------------------------------
   0   12620.6    792.4   2.013170656  52.51408  -0.20825  -7.15077   1.15641
   1   17313.6    577.6   0.044200443   0.84045   0.52284  -0.73059  -0.18256
   2   20244.6    494.0   0.048745088   0.79268   0.43005   0.65117   0.42861
   3   21717.2    460.5   0.082406983   1.24921  -0.38551   1.02336   0.23093
   4   22279.5    448.8   0.053605365   0.79210  -0.43160  -0.70202   0.33614
   5   22679.1    440.9   0.018081943   0.26248  -0.32499   0.11333   0.37950
   6   24418.9    409.5   0.019454906   0.26229  -0.46996  -0.14373   0.14411
   7   24957.2    400.7   0.045846931   0.60477   0.10686   0.76378   0.09997
   8   25570.2    391.1   0.050050998   0.64440  -0.76330  -0.09808   0.22838
   9   26153.1    382.4   0.015010183   0.18895   0.37800   0.15712  -0.14621
  10   26861.8    372.3   0.009336139   0.11442   0.26252  -0.06902   0.20184
  11   27677.6    361.3   0.060794996   0.72313  -0.75239  -0.09648   0.38436
  12   28671.6    348.8   0.018817660   0.21607   0.05011  -0.30939  -0.34327
  13   28898.3    346.0   0.042012654   0.47861  -0.06275   0.50300   0.47082
  14   29332.1    340.9   0.024370453   0.27352  -0.07193   0.49795   0.14282
  15   29607.9    337.7   0.049942604   0.55531  -0.27867   0.65929  -0.20735
  16   29808.4    335.5   0.146023898   1.61273   0.89327  -0.87790   0.20995
  17   30081.0    332.4   0.416226067   4.55525  -0.87822  -1.87353  -0.52332
  18   30286.6    330.2   0.058224599   0.63290  -0.54407  -0.58013   0.01812
  19   30792.8    324.8   0.410593115   4.38973   0.18273   2.07916  -0.18280
  20   31461.7    317.8   0.014302721   0.14966   0.35666   0.07642  -0.12891
  21   32000.9    312.5   0.031861100   0.32777  -0.38228  -0.35311   0.23864
  22   32042.4    312.1   0.172272635   1.76997  -0.01283   1.29037   0.32365
  23   32566.3    307.1   0.053978643   0.54567  -0.62686   0.02735  -0.38983
  24   32836.4    304.5   0.058861376   0.59013  -0.57467   0.42479   0.28186
  25   33251.7    300.7   0.531472748   5.26190  -0.53771  -1.91917  -1.13558
  26   33538.9    298.2   0.118868460   1.16679   0.86649  -0.33903   0.54868
  27   34135.9    292.9   0.036680727   0.35375   0.03692   0.22756   0.54828
  28   34457.5    290.2   0.109550285   1.04666  -0.90160   0.29825   0.38055
  29   34872.4    286.8   0.003318161   0.03133   0.17170   0.03616   0.02314
  30   34961.6    286.0   0.056883402   0.53564  -0.63557  -0.09046   0.35144
  31   35155.5    284.5   0.051115028   0.47866  -0.50877   0.45609   0.10861
  32   35499.4    281.7   0.365332486   3.38800  -1.79716  -0.38576  -0.09704
  33   35701.5    280.1   0.007753801   0.07150  -0.19999  -0.15244  -0.09093
  34   36435.3    274.5   0.338592241   3.05936  -1.49336   0.89605  -0.16224
  35   36529.8    273.7   0.067215747   0.60576   0.62388  -0.44711  -0.12892
  36   36958.7    270.6   0.086498874   0.77049  -0.80013   0.12402   0.33899
  37   37218.3    268.7   0.011879674   0.10508  -0.27178   0.15390   0.08678
  38   37515.5    266.6   0.000058155   0.00051  -0.00718  -0.01887   0.01013
  39   37595.5    266.0   0.023806247   0.20846  -0.15648   0.41106   0.12250
  40   37804.4    264.5   0.051275610   0.44652  -0.15095  -0.56925  -0.31574
  41   37858.9    264.1   0.050381768   0.43811  -0.25183  -0.59096  -0.15955
  42   38175.8    261.9   0.005174608   0.04462   0.01751  -0.14752  -0.15018
  43   38379.0    260.6   0.076230476   0.65390   0.77937   0.21107  -0.04390
  44   38824.2    257.6   0.024384784   0.20677  -0.01686   0.45027   0.06119
  45   39529.6    253.0   0.027729451   0.23094  -0.32820  -0.30663  -0.17088
  46   39870.8    250.8   0.069367273   0.57276  -0.18658  -0.70558   0.20027
  47   40097.4    249.4   0.041113757   0.33756  -0.50653   0.28159  -0.04108
  48   40248.7    248.5   0.080286425   0.65670   0.79797   0.04891   0.13245

FINAL SINGLE POINT ENERGY     -2943.073901810257

DIPOLE MOMENT
-------------
                                X             Y             Z
Electronic contribution:     10.00780      -1.23066       0.29664
Nuclear contribution   :    -12.41369       1.85475      -0.41153
                        -----------------------------------------
Total Dipole Moment    :     -2.40589       0.62410      -0.11489
                        -----------------------------------------
Magnitude (a.u.)       :      2.48817
Magnitude (Debye)      :      6.32443

Rotational constants in cm-1:     0.003252     0.000240     0.000229
Rotational constants in MHz :    97.486948     7.184238     6.862593

                             ****ORCA TERMINATED NORMALLY****
TOTAL RUN TIME: 0 days 0 hours 10 minutes 3 seconds 771 msec
