                         Program Version 4.2.0 -  RELEASE  -
|  1> # ORCA input file
|  2> # SCF done       -183.117359524735          0.001099293676
|  3> ! CAM-B3LYP def2-SVP def2/J RIJCOSX Grid4 TightSCF
|  4> %maxcore 5000
|  5> %tddft
|  6>     Mode sTDDFT
|  7>     Ethresh 5.0
|  8>     maxcore 5000
|  9> end
| 10>
| 11> %pal
| 12>   nprocs 6
| 13>   end
| 14> * xyz 0 1
| 15>    C       -6.76355         1.79920        -0.55714
| 16>    C       -7.93350         1.18396        -0.13748
| 17>    C       -8.14890        -0.16897        -0.35725
| 18>    C       -7.20264        -0.94557        -1.00903
| 19>    C       -6.02856        -0.34366        -1.43089
| 20>    C       -5.80454         1.03347        -1.20105
| 21>    C       -4.49535         1.39378        -1.72838
| 22>    C       -3.96390         2.65414        -1.78930
| 23>    C       -4.61476         3.81343        -1.31773
| 24>    N       -5.08405         4.79452        -0.95128
| 25>    C       -2.71545         2.97405        -2.36369
| 26>    N       -1.71428         3.29772        -2.82323
| 27>    C       -3.87328         0.15773        -2.18040
| 28>    C       -4.89344        -0.87953        -2.16715
| 29>    C       -4.86457        -2.06325        -2.85545
| 30>    C       -3.93364        -2.37906        -3.86643
| 31>    N       -3.28506        -2.66250        -4.77032
| 32>    C       -5.85111        -3.06486        -2.74142
| 33>    N       -6.60266        -3.92936        -2.66588
| 34>    C       -2.52564        -0.02711        -2.34539
| 35>    C       -1.91322        -1.25230        -2.46112
| 36>    C       -1.29722        -2.30592        -2.49354
| 37>    C       -0.75353        -3.56715        -2.55006
| 38>    S       -1.79891        -4.96567        -2.46037
| 39>    C       -0.42539        -6.02448        -2.61781
| 40>    C        0.75745        -5.31239        -2.73522
| 41>    C        0.57412        -3.93685        -2.69313
| 42>    C       -0.61499        -7.39299        -2.61844
| 43>    C       -0.87215        -8.58216        -2.61988
| 44>    C       -1.19939        -9.92784        -2.62266
| 45>    C       -2.47935       -10.33778        -2.43402
| 46>    C       -2.88339       -11.69108        -2.44034
| 47>    S       -4.60704       -12.07539        -2.15735
| 48>    C       -4.19384       -13.72400        -2.34063
| 49>    C       -2.82114       -13.86248        -2.59550
| 50>    N       -2.12506       -12.73551        -2.64351
| 51>    C       -2.45720       -15.30438        -2.76490
| 52>    C       -3.79268       -15.96478        -2.57831
| 53>    C       -4.78015       -15.00574        -2.32800
| 54>    S       -6.32828       -15.69917        -2.09950
| 55>    C       -5.65861       -17.30271        -2.34863
| 56>    C       -4.29269       -17.25987        -2.59141
| 57>    C       -6.54447       -18.40699        -2.27944
| 58>    C       -6.22078       -19.70445        -2.50486
| 59>    C       -7.17681       -20.70480        -2.40797
| 60>    C       -8.02390       -21.57326        -2.32464
| 61>    C       -9.05149       -22.48901        -2.19732
| 62>    S      -10.59455       -21.97813        -1.56947
| 63>    C      -11.22687       -23.59849        -1.74614
| 64>    C      -10.27221       -24.45654        -2.26486
| 65>    C       -9.05370       -23.83637        -2.51444
| 66>    C      -12.52361       -23.87577        -1.37376
| 67>    C      -13.67553       -24.05457        -1.01765
| 68>    C      -14.97391       -24.25072        -0.59880
| 69>    C      -15.69860       -23.26271         0.00248
| 70>    C      -17.03409       -23.44569         0.40423
| 71>    C      -17.79308       -22.55125         1.11674
| 72>    C      -19.24806       -22.53868         1.15921
| 73>    C      -20.09726       -23.56709         0.84599
| 74>    C      -19.69705       -24.86352         0.46092
| 75>    N      -19.44280       -25.93852         0.14641
| 76>    C      -21.50374       -23.47905         0.90824
| 77>    N      -22.65139       -23.47853         0.93547
| 78>    C      -19.64348       -21.20709         1.60228
| 79>    C      -18.48449       -20.48215         1.96117
| 80>    C      -18.57804       -19.17143         2.39725
| 81>    C      -19.83369       -18.58715         2.47310
| 82>    C      -20.97347       -19.29935         2.12938
| 83>    C      -20.89226       -20.61350         1.69289
| 84>    C      -17.33189       -21.35801         1.80867
| 85>    C      -16.11504       -21.18951         2.41673
| 86>    C      -15.73723       -20.01865         3.10586
| 87>    N      -15.36597       -19.08412         3.65956
| 88>    C      -15.14398       -22.20613         2.54390
| 89>    N      -14.34913       -23.01195         2.73412
| 90>    H       -6.61193         2.85076        -0.37700
| 91>    H       -8.68528         1.76934         0.36942
| 92>    H       -9.06553        -0.62646        -0.01764
| 93>    H       -7.38092        -1.99603        -1.17155
| 94>    H       -1.86408         0.82821        -2.29777
| 95>    H        1.71134        -5.79596        -2.84704
| 96>    H        1.36639        -3.21383        -2.77094
| 97>    H       -0.41324       -10.65318        -2.77874
| 98>    H       -3.25794        -9.60580        -2.26900
| 99>    H       -1.72846       -15.62709        -2.01900
|100>    H       -2.03147       -15.49958        -3.75087
|101>    H       -3.70060       -18.13994        -2.76402
|102>    H       -7.57135       -18.17214        -2.03052
|103>    H       -5.21528       -20.00055        -2.76926
|104>    H      -10.47284       -25.49752        -2.44576
|105>    H       -8.18930       -24.33460        -2.91570
|106>    H      -15.40112       -25.23687        -0.73253
|107>    H      -15.23145       -22.29654         0.13550
|108>    H      -17.52103       -24.33925         0.03730
|109>    H      -17.69886       -18.60650         2.66173
|110>    H      -19.92180       -17.56350         2.80351
|111>    H      -21.94056       -18.82517         2.19800
|112>    H      -21.78823       -21.14944         1.42626
|113> *
|114>
|115>                          ****END OF INPUT****

CARTESIAN COORDINATES (ANGSTROEM)
---------------------------------
  C     -6.763550    1.799200   -0.557140
  C     -7.933500    1.183960   -0.137480
  C     -8.148900   -0.168970   -0.357250
  C     -7.202640   -0.945570   -1.009030
  C     -6.028560   -0.343660   -1.430890
  C     -5.804540    1.033470   -1.201050
  C     -4.495350    1.393780   -1.728380
  C     -3.963900    2.654140   -1.789300
  C     -4.614760    3.813430   -1.317730
  N     -5.084050    4.794520   -0.951280
  C     -2.715450    2.974050   -2.363690
  N     -1.714280    3.297720   -2.823230
  C     -3.873280    0.157730   -2.180400
  C     -4.893440   -0.879530   -2.167150
  C     -4.864570   -2.063250   -2.855450
  C     -3.933640   -2.379060   -3.866430
  N     -3.285060   -2.662500   -4.770320
  C     -5.851110   -3.064860   -2.741420
  N     -6.602660   -3.929360   -2.665880
  C     -2.525640   -0.027110   -2.345390
  C     -1.913220   -1.252300   -2.461120
  C     -1.297220   -2.305920   -2.493540
  C     -0.753530   -3.567150   -2.550060
  S     -1.798910   -4.965670   -2.460370
  C     -0.425390   -6.024480   -2.617810
  C      0.757450   -5.312390   -2.735220
  C      0.574120   -3.936850   -2.693130
  C     -0.614990   -7.392990   -2.618440
  C     -0.872150   -8.582160   -2.619880
  C     -1.199390   -9.927840   -2.622660
  C     -2.479350  -10.337780   -2.434020
  C     -2.883390  -11.691080   -2.440340
  S     -4.607040  -12.075390   -2.157350
  C     -4.193840  -13.724000   -2.340630
  C     -2.821140  -13.862480   -2.595500
  N     -2.125060  -12.735510   -2.643510
  C     -2.457200  -15.304380   -2.764900
  C     -3.792680  -15.964780   -2.578310
  C     -4.780150  -15.005740   -2.328000
  S     -6.328280  -15.699170   -2.099500
  C     -5.658610  -17.302710   -2.348630
  C     -4.292690  -17.259870   -2.591410
  C     -6.544470  -18.406990   -2.279440
  C     -6.220780  -19.704450   -2.504860
  C     -7.176810  -20.704800   -2.407970
  C     -8.023900  -21.573260   -2.324640
  C     -9.051490  -22.489010   -2.197320
  S    -10.594550  -21.978130   -1.569470
  C    -11.226870  -23.598490   -1.746140
  C    -10.272210  -24.456540   -2.264860
  C     -9.053700  -23.836370   -2.514440
  C    -12.523610  -23.875770   -1.373760
  C    -13.675530  -24.054570   -1.017650
  C    -14.973910  -24.250720   -0.598800
  C    -15.698600  -23.262710    0.002480
  C    -17.034090  -23.445690    0.404230
  C    -17.793080  -22.551250    1.116740
  C    -19.248060  -22.538680    1.159210
  C    -20.097260  -23.567090    0.845990
  C    -19.697050  -24.863520    0.460920
  N    -19.442800  -25.938520    0.146410
  C    -21.503740  -23.479050    0.908240
  N    -22.651390  -23.478530    0.935470
  C    -19.643480  -21.207090    1.602280
  C    -18.484490  -20.482150    1.961170
  C    -18.578040  -19.171430    2.397250
  C    -19.833690  -18.587150    2.473100
  C    -20.973470  -19.299350    2.129380
  C    -20.892260  -20.613500    1.692890
  C    -17.331890  -21.358010    1.808670
  C    -16.115040  -21.189510    2.416730
  C    -15.737230  -20.018650    3.105860
  N    -15.365970  -19.084120    3.659560
  C    -15.143980  -22.206130    2.543900
  N    -14.349130  -23.011950    2.734120
  H     -6.611930    2.850760   -0.377000
  H     -8.685280    1.769340    0.369420
  H     -9.065530   -0.626460   -0.017640
  H     -7.380920   -1.996030   -1.171550
  H     -1.864080    0.828210   -2.297770
  H      1.711340   -5.795960   -2.847040
  H      1.366390   -3.213830   -2.770940
  H     -0.413240  -10.653180   -2.778740
  H     -3.257940   -9.605800   -2.269000
  H     -1.728460  -15.627090   -2.019000
  H     -2.031470  -15.499580   -3.750870
  H     -3.700600  -18.139940   -2.764020
  H     -7.571350  -18.172140   -2.030520
  H     -5.215280  -20.000550   -2.769260
  H    -10.472840  -25.497520   -2.445760
  H     -8.189300  -24.334600   -2.915700
  H    -15.401120  -25.236870   -0.732530
  H    -15.231450  -22.296540    0.135500
  H    -17.521030  -24.339250    0.037300
  H    -17.698860  -18.606500    2.661730
  H    -19.921800  -17.563500    2.803510
  H    -21.940560  -18.825170    2.198000
  H    -21.788230  -21.149440    1.426260

 Total Charge           Charge          ....    0
 Multiplicity           Mult            ....    1
 Number of Electrons    NEL             ....  522
 Basis Dimension        Dim             .... 1181

ORBITAL ENERGIES
----------------

  NO   OCC          E(Eh)            E(eV)
   0   2.0000     -88.978198     -2421.2199
   1   2.0000     -88.977829     -2421.2098
   2   2.0000     -88.974226     -2421.1118
   3   2.0000     -88.972448     -2421.0634
   4   2.0000     -14.425539      -392.5389
   5   2.0000     -14.424535      -392.5116
   6   2.0000     -14.423536      -392.4844
   7   2.0000     -14.423316      -392.4784
   8   2.0000     -14.422704      -392.4617
   9   2.0000     -14.422069      -392.4445
  10   2.0000     -14.419804      -392.3828
  11   2.0000     -14.418362      -392.3436
  12   2.0000     -14.418322      -392.3425
  13   2.0000     -10.354990      -281.7736
  14   2.0000     -10.354444      -281.7587
  15   2.0000     -10.352661      -281.7102
  16   2.0000     -10.351487      -281.6783
  17   2.0000     -10.350209      -281.6435
  18   2.0000     -10.348455      -281.5958
  19   2.0000     -10.348051      -281.5848
  20   2.0000     -10.346939      -281.5545
  21   2.0000     -10.344908      -281.4993
  22   2.0000     -10.339912      -281.3633
  23   2.0000     -10.338180      -281.3162
  24   2.0000     -10.331699      -281.1398
  25   2.0000     -10.331504      -281.1345
  26   2.0000     -10.327159      -281.0163
  27   2.0000     -10.326825      -281.0072
  28   2.0000     -10.326527      -280.9991
  29   2.0000     -10.325730      -280.9774
  30   2.0000     -10.325094      -280.9601
  31   2.0000     -10.324939      -280.9559
  32   2.0000     -10.324804      -280.9522
  33   2.0000     -10.324106      -280.9332
  34   2.0000     -10.323520      -280.9173
  35   2.0000     -10.322430      -280.8876
  36   2.0000     -10.320791      -280.8430
  37   2.0000     -10.320144      -280.8254
  38   2.0000     -10.317703      -280.7590
  39   2.0000     -10.317534      -280.7544
  40   2.0000     -10.317170      -280.7445
  41   2.0000     -10.317029      -280.7406
  42   2.0000     -10.315590      -280.7015
  43   2.0000     -10.315246      -280.6921
  44   2.0000     -10.314728      -280.6780
  45   2.0000     -10.313622      -280.6479
  46   2.0000     -10.312915      -280.6287
  47   2.0000     -10.312603      -280.6202
  48   2.0000     -10.304462      -280.3987
  49   2.0000     -10.303411      -280.3701
  50   2.0000     -10.303234      -280.3652
  51   2.0000     -10.303211      -280.3646
  52   2.0000     -10.303033      -280.3598
  53   2.0000     -10.302831      -280.3543
  54   2.0000     -10.302374      -280.3419
  55   2.0000     -10.302076      -280.3337
  56   2.0000     -10.301435      -280.3163
  57   2.0000     -10.301376      -280.3147
  58   2.0000     -10.301060      -280.3061
  59   2.0000     -10.300938      -280.3028
  60   2.0000     -10.300890      -280.3015
  61   2.0000     -10.300090      -280.2797
  62   2.0000     -10.299960      -280.2762
  63   2.0000     -10.299185      -280.2551
  64   2.0000     -10.298718      -280.2424
  65   2.0000     -10.296469      -280.1812
  66   2.0000     -10.295722      -280.1608
  67   2.0000     -10.293309      -280.0952
  68   2.0000     -10.293176      -280.0915
  69   2.0000     -10.292002      -280.0596
  70   2.0000     -10.291820      -280.0547
  71   2.0000     -10.290699      -280.0242
  72   2.0000     -10.289126      -279.9814
  73   2.0000     -10.287960      -279.9496
  74   2.0000     -10.283200      -279.8201
  75   2.0000      -8.073442      -219.6895
  76   2.0000      -8.073043      -219.6787
  77   2.0000      -8.069429      -219.5803
  78   2.0000      -8.067964      -219.5404
  79   2.0000      -6.042514      -164.4252
  80   2.0000      -6.042370      -164.4212
  81   2.0000      -6.038711      -164.3217
  82   2.0000      -6.038668      -164.3205
  83   2.0000      -6.038138      -164.3061
  84   2.0000      -6.037294      -164.2831
  85   2.0000      -6.035717      -164.2402
  86   2.0000      -6.035090      -164.2232
  87   2.0000      -6.034674      -164.2118
  88   2.0000      -6.033098      -164.1689
  89   2.0000      -6.031540      -164.1265
  90   2.0000      -6.029952      -164.0833
  91   2.0000      -1.078171       -29.3385
  92   2.0000      -1.039286       -28.2804
  93   2.0000      -1.036110       -28.1940
  94   2.0000      -1.020667       -27.7738
  95   2.0000      -1.018032       -27.7021
  96   2.0000      -1.010182       -27.4885
  97   2.0000      -1.008568       -27.4445
  98   2.0000      -1.007483       -27.4150
  99   2.0000      -1.005448       -27.3596
 100   2.0000      -1.002635       -27.2831
 101   2.0000      -0.999584       -27.2001
 102   2.0000      -0.999359       -27.1939
 103   2.0000      -0.999131       -27.1877
 104   2.0000      -0.998240       -27.1635
 105   2.0000      -0.963757       -26.2252
 106   2.0000      -0.961499       -26.1637
 107   2.0000      -0.945468       -25.7275
 108   2.0000      -0.943104       -25.6632
 109   2.0000      -0.940352       -25.5883
 110   2.0000      -0.935604       -25.4591
 111   2.0000      -0.923849       -25.1392
 112   2.0000      -0.919509       -25.0211
 113   2.0000      -0.909877       -24.7590
 114   2.0000      -0.905225       -24.6324
 115   2.0000      -0.898051       -24.4372
 116   2.0000      -0.897015       -24.4090
 117   2.0000      -0.893372       -24.3099
 118   2.0000      -0.890381       -24.2285
 119   2.0000      -0.875309       -23.8184
 120   2.0000      -0.868821       -23.6418
 121   2.0000      -0.866436       -23.5769
 122   2.0000      -0.863062       -23.4851
 123   2.0000      -0.854158       -23.2428
 124   2.0000      -0.850727       -23.1495
 125   2.0000      -0.844487       -22.9797
 126   2.0000      -0.838280       -22.8108
 127   2.0000      -0.828328       -22.5400
 128   2.0000      -0.819052       -22.2875
 129   2.0000      -0.800709       -21.7884
 130   2.0000      -0.797008       -21.6877
 131   2.0000      -0.794655       -21.6237
 132   2.0000      -0.791598       -21.5405
 133   2.0000      -0.786599       -21.4044
 134   2.0000      -0.780089       -21.2273
 135   2.0000      -0.757265       -20.6062
 136   2.0000      -0.735637       -20.0177
 137   2.0000      -0.730148       -19.8683
 138   2.0000      -0.720081       -19.5944
 139   2.0000      -0.718320       -19.5465
 140   2.0000      -0.717025       -19.5112
 141   2.0000      -0.714376       -19.4392
 142   2.0000      -0.711764       -19.3681
 143   2.0000      -0.702620       -19.1193
 144   2.0000      -0.699007       -19.0210
 145   2.0000      -0.681902       -18.5555
 146   2.0000      -0.679524       -18.4908
 147   2.0000      -0.674347       -18.3499
 148   2.0000      -0.670676       -18.2500
 149   2.0000      -0.669857       -18.2277
 150   2.0000      -0.668607       -18.1937
 151   2.0000      -0.666789       -18.1443
 152   2.0000      -0.661205       -17.9923
 153   2.0000      -0.651520       -17.7288
 154   2.0000      -0.643646       -17.5145
 155   2.0000      -0.639138       -17.3918
 156   2.0000      -0.635965       -17.3055
 157   2.0000      -0.630705       -17.1624
 158   2.0000      -0.626200       -17.0398
 159   2.0000      -0.613645       -16.6981
 160   2.0000      -0.608435       -16.5564
 161   2.0000      -0.605527       -16.4772
 162   2.0000      -0.602169       -16.3858
 163   2.0000      -0.591242       -16.0885
 164   2.0000      -0.590524       -16.0690
 165   2.0000      -0.589351       -16.0370
 166   2.0000      -0.586350       -15.9554
 167   2.0000      -0.581336       -15.8189
 168   2.0000      -0.580009       -15.7828
 169   2.0000      -0.565421       -15.3859
 170   2.0000      -0.561977       -15.2922
 171   2.0000      -0.552180       -15.0256
 172   2.0000      -0.550967       -14.9926
 173   2.0000      -0.547686       -14.9033
 174   2.0000      -0.545907       -14.8549
 175   2.0000      -0.545538       -14.8448
 176   2.0000      -0.543684       -14.7944
 177   2.0000      -0.541390       -14.7320
 178   2.0000      -0.539167       -14.6715
 179   2.0000      -0.536576       -14.6010
 180   2.0000      -0.532409       -14.4876
 181   2.0000      -0.524701       -14.2778
 182   2.0000      -0.523952       -14.2574
 183   2.0000      -0.521155       -14.1814
 184   2.0000      -0.518020       -14.0960
 185   2.0000      -0.512815       -13.9544
 186   2.0000      -0.512016       -13.9327
 187   2.0000      -0.511616       -13.9218
 188   2.0000      -0.508559       -13.8386
 189   2.0000      -0.506424       -13.7805
 190   2.0000      -0.502344       -13.6695
 191   2.0000      -0.501303       -13.6412
 192   2.0000      -0.500469       -13.6185
 193   2.0000      -0.499975       -13.6050
 194   2.0000      -0.494816       -13.4646
 195   2.0000      -0.491968       -13.3871
 196   2.0000      -0.489411       -13.3176
 197   2.0000      -0.486293       -13.2327
 198   2.0000      -0.484781       -13.1916
 199   2.0000      -0.483936       -13.1686
 200   2.0000      -0.477656       -12.9977
 201   2.0000      -0.473454       -12.8833
 202   2.0000      -0.471137       -12.8203
 203   2.0000      -0.469060       -12.7638
 204   2.0000      -0.464924       -12.6512
 205   2.0000      -0.461497       -12.5580
 206   2.0000      -0.461337       -12.5536
 207   2.0000      -0.457894       -12.4599
 208   2.0000      -0.457562       -12.4509
 209   2.0000      -0.456350       -12.4179
 210   2.0000      -0.455456       -12.3936
 211   2.0000      -0.453901       -12.3513
 212   2.0000      -0.452289       -12.3074
 213   2.0000      -0.451095       -12.2749
 214   2.0000      -0.448223       -12.1968
 215   2.0000      -0.447962       -12.1897
 216   2.0000      -0.446661       -12.1543
 217   2.0000      -0.445975       -12.1356
 218   2.0000      -0.445424       -12.1206
 219   2.0000      -0.442395       -12.0382
 220   2.0000      -0.441011       -12.0005
 221   2.0000      -0.437800       -11.9131
 222   2.0000      -0.435979       -11.8636
 223   2.0000      -0.435281       -11.8446
 224   2.0000      -0.433534       -11.7971
 225   2.0000      -0.432844       -11.7783
 226   2.0000      -0.431956       -11.7541
 227   2.0000      -0.431794       -11.7497
 228   2.0000      -0.429813       -11.6958
 229   2.0000      -0.429678       -11.6921
 230   2.0000      -0.428501       -11.6601
 231   2.0000      -0.422173       -11.4879
 232   2.0000      -0.419285       -11.4093
 233   2.0000      -0.415561       -11.3080
 234   2.0000      -0.415274       -11.3002
 235   2.0000      -0.412233       -11.2174
 236   2.0000      -0.411153       -11.1880
 237   2.0000      -0.401078       -10.9139
 238   2.0000      -0.388309       -10.5664
 239   2.0000      -0.386898       -10.5280
 240   2.0000      -0.385162       -10.4808
 241   2.0000      -0.374948       -10.2029
 242   2.0000      -0.368464       -10.0264
 243   2.0000      -0.364867        -9.9285
 244   2.0000      -0.362067        -9.8523
 245   2.0000      -0.361918        -9.8483
 246   2.0000      -0.351904        -9.5758
 247   2.0000      -0.351414        -9.5625
 248   2.0000      -0.349114        -9.4999
 249   2.0000      -0.343485        -9.3467
 250   2.0000      -0.339399        -9.2355
 251   2.0000      -0.336894        -9.1673
 252   2.0000      -0.335382        -9.1262
 253   2.0000      -0.334733        -9.1086
 254   2.0000      -0.332481        -9.0473
 255   2.0000      -0.320410        -8.7188
 256   2.0000      -0.311736        -8.4828
 257   2.0000      -0.300219        -8.1694
 258   2.0000      -0.280475        -7.6321
 259   2.0000      -0.262332        -7.1384
 260   2.0000      -0.236049        -6.4232
 261   0.0000      -0.109943        -2.9917
 262   0.0000      -0.106727        -2.9042
 263   0.0000      -0.090803        -2.4709
 264   0.0000      -0.087644        -2.3849
 265   0.0000      -0.075012        -2.0412

MULLIKEN ATOMIC CHARGES
-----------------------
   0 C :   -0.034993
   1 C :    0.047613
   2 C :    0.050015
   3 C :   -0.037286
   4 C :    0.017402
   5 C :    0.009946
   6 C :    0.288776
   7 C :   -0.341686
   8 C :   -0.187910
   9 N :    0.164583
  10 C :   -0.191941
  11 N :    0.172155
  12 C :   -0.080832
  13 C :    0.255890
  14 C :   -0.314997
  15 C :   -0.229054
  16 N :    0.188081
  17 C :   -0.181780
  18 N :    0.154880
  19 C :   -0.019869
  20 C :   -0.018560
  21 C :    0.103047
  22 C :   -0.169678
  23 S :    0.212908
  24 C :   -0.132945
  25 C :    0.053088
  26 C :    0.074036
  27 C :    0.065801
  28 C :   -0.013517
  29 C :   -0.065611
  30 C :    0.060503
  31 C :   -0.110608
  32 S :    0.144942
  33 C :   -0.061073
  34 C :   -0.225340
  35 N :   -0.010173
  36 C :    0.390242
  37 C :   -0.165118
  38 C :   -0.098810
  39 S :    0.163997
  40 C :   -0.090725
  41 C :   -0.002772
  42 C :    0.058158
  43 C :   -0.087230
  44 C :   -0.018212
  45 C :    0.053147
  46 C :   -0.136219
  47 S :    0.199714
  48 C :   -0.164500
  49 C :    0.064996
  50 C :    0.049941
  51 C :    0.086468
  52 C :   -0.000360
  53 C :   -0.052570
  54 C :   -0.007299
  55 C :    0.031383
  56 C :   -0.055231
  57 C :    0.299599
  58 C :   -0.339227
  59 C :   -0.182207
  60 N :    0.153957
  61 C :   -0.190096
  62 N :    0.157210
  63 C :    0.009307
  64 C :    0.012641
  65 C :   -0.036569
  66 C :    0.050518
  67 C :    0.045320
  68 C :   -0.032157
  69 C :    0.235924
  70 C :   -0.329136
  71 C :   -0.180811
  72 N :    0.159084
  73 C :   -0.214302
  74 N :    0.184712
  75 H :    0.006584
  76 H :    0.005184
  77 H :    0.004164
  78 H :    0.006321
  79 H :    0.055143
  80 H :    0.000174
  81 H :    0.006366
  82 H :    0.044083
  83 H :    0.008575
  84 H :    0.040323
  85 H :    0.039030
  86 H :   -0.020147
  87 H :    0.002529
  88 H :    0.024890
  89 H :    0.001311
  90 H :   -0.002705
  91 H :    0.050761
  92 H :    0.033223
  93 H :    0.016750
  94 H :    0.005694
  95 H :    0.004196
  96 H :    0.003751
  97 H :    0.005228
Sum of atomic charges:   -0.0000000

LOEWDIN ATOMIC CHARGES
----------------------
   0 C :    0.005419
   1 C :    0.001551
   2 C :    0.005225
   3 C :    0.000935
   4 C :   -0.009138
   5 C :   -0.014272
   6 C :    0.076014
   7 C :   -0.128493
   8 C :   -0.019097
   9 N :   -0.042823
  10 C :   -0.023330
  11 N :   -0.039318
  12 C :   -0.044485
  13 C :    0.068914
  14 C :   -0.123896
  15 C :   -0.025121
  16 N :   -0.037766
  17 C :   -0.018245
  18 N :   -0.046425
  19 C :    0.044011
  20 C :   -0.037823
  21 C :    0.010916
  22 C :   -0.194345
  23 S :    0.489039
  24 C :   -0.159423
  25 C :   -0.038753
  26 C :   -0.006190
  27 C :   -0.064873
  28 C :   -0.003264
  29 C :   -0.020895
  30 C :   -0.024122
  31 C :   -0.128912
  32 S :    0.423202
  33 C :   -0.213430
  34 C :   -0.033461
  35 N :   -0.081634
  36 C :   -0.011406
  37 C :   -0.045454
  38 C :   -0.197412
  39 S :    0.448995
  40 C :   -0.172269
  41 C :   -0.042957
  42 C :   -0.008363
  43 C :   -0.051537
  44 C :   -0.008367
  45 C :   -0.071546
  46 C :   -0.165660
  47 S :    0.474044
  48 C :   -0.194806
  49 C :   -0.016732
  50 C :   -0.041742
  51 C :   -0.016629
  52 C :   -0.031009
  53 C :    0.026814
  54 C :   -0.018246
  55 C :    0.057956
  56 C :   -0.058896
  57 C :    0.078049
  58 C :   -0.133195
  59 C :   -0.020843
  60 N :   -0.046532
  61 C :   -0.019066
  62 N :   -0.046953
  63 C :   -0.013509
  64 C :   -0.010086
  65 C :    0.000813
  66 C :    0.004150
  67 C :    0.001191
  68 C :    0.005043
  69 C :    0.069434
  70 C :   -0.130620
  71 C :   -0.019342
  72 N :   -0.045308
  73 C :   -0.027249
  74 N :   -0.037707
  75 H :    0.041736
  76 H :    0.037992
  77 H :    0.037756
  78 H :    0.041138
  79 H :    0.063480
  80 H :    0.039462
  81 H :    0.041807
  82 H :    0.050819
  83 H :    0.037905
  84 H :    0.057694
  85 H :    0.057200
  86 H :    0.032011
  87 H :    0.035962
  88 H :    0.041213
  89 H :    0.039537
  90 H :    0.037867
  91 H :    0.054712
  92 H :    0.039142
  93 H :    0.046428
  94 H :    0.040856
  95 H :    0.037565
  96 H :    0.037538
  97 H :    0.041439

  Mayer bond orders larger than 0.100000
B(  0-C ,  1-C ) :   1.3695 B(  0-C ,  5-C ) :   1.3820 B(  0-C , 75-H ) :   0.9845
B(  1-C ,  2-C ) :   1.3779 B(  1-C , 76-H ) :   0.9857 B(  2-C ,  3-C ) :   1.3651
B(  2-C , 77-H ) :   0.9858 B(  3-C ,  4-C ) :   1.3838 B(  3-C , 78-H ) :   0.9848
B(  4-C ,  5-C ) :   1.3092 B(  4-C , 13-C ) :   1.0187 B(  5-C ,  6-C ) :   1.0046
B(  6-C ,  7-C ) :   1.6477 B(  6-C , 12-C ) :   1.0396 B(  7-C ,  8-C ) :   1.1465
B(  7-C , 10-C ) :   1.1382 B(  8-C ,  9-N ) :   2.9780 B( 10-C , 11-N ) :   2.9892
B( 12-C , 13-C ) :   1.0327 B( 12-C , 19-C ) :   1.6064 B( 13-C , 14-C ) :   1.6357
B( 14-C , 15-C ) :   1.1559 B( 14-C , 17-C ) :   1.1340 B( 15-C , 16-N ) :   2.9996
B( 17-C , 18-N ) :   2.9840 B( 19-C , 20-C ) :   1.0325 B( 19-C , 79-H ) :   0.9349
B( 20-C , 21-C ) :   2.1156 B( 21-C , 22-C ) :   1.0575 B( 22-C , 23-S ) :   1.0944
B( 22-C , 24-C ) :   0.1050 B( 22-C , 26-C ) :   1.4344 B( 23-S , 24-C ) :   1.1426
B( 24-C , 25-C ) :   1.4514 B( 24-C , 27-C ) :   0.9936 B( 25-C , 26-C ) :   1.3035
B( 25-C , 80-H ) :   1.0020 B( 26-C , 81-H ) :   1.0008 B( 27-C , 28-C ) :   2.2783
B( 28-C , 29-C ) :   1.0263 B( 29-C , 30-C ) :   1.7059 B( 29-C , 82-H ) :   0.9573
B( 30-C , 31-C ) :   1.1312 B( 30-C , 83-H ) :   0.9503 B( 31-C , 32-S ) :   1.0688
B( 31-C , 35-N ) :   1.6390 B( 32-S , 33-C ) :   1.1012 B( 33-C , 34-C ) :   1.4636
B( 33-C , 38-C ) :   1.1978 B( 34-C , 35-N ) :   1.4582 B( 34-C , 36-C ) :   1.0424
B( 36-C , 37-C ) :   0.9797 B( 36-C , 84-H ) :   0.8618 B( 36-C , 85-H ) :   0.8623
B( 37-C , 38-C ) :   1.5070 B( 37-C , 41-C ) :   1.3307 B( 38-C , 39-S ) :   1.0968
B( 39-S , 40-C ) :   1.1020 B( 40-C , 41-C ) :   1.4512 B( 40-C , 42-C ) :   1.1372
B( 41-C , 86-H ) :   0.9950 B( 42-C , 43-C ) :   1.7050 B( 42-C , 87-H ) :   0.9615
B( 43-C , 44-C ) :   1.0409 B( 43-C , 88-H ) :   0.9512 B( 44-C , 45-C ) :   2.2845
B( 45-C , 46-C ) :   0.9900 B( 46-C , 47-S ) :   1.1314 B( 46-C , 48-C ) :   0.1052
B( 46-C , 50-C ) :   1.4662 B( 47-S , 48-C ) :   1.0950 B( 48-C , 49-C ) :   1.4600
B( 48-C , 51-C ) :   1.0186 B( 49-C , 50-C ) :   1.2952 B( 49-C , 89-H ) :   0.9999
B( 50-C , 90-H ) :   1.0002 B( 51-C , 52-C ) :   2.2207 B( 52-C , 53-C ) :   1.0232
B( 53-C , 54-C ) :   1.6100 B( 53-C , 91-H ) :   0.9621 B( 54-C , 55-C ) :   1.1875
B( 54-C , 92-H ) :   0.9726 B( 55-C , 56-C ) :   1.5436 B( 55-C , 93-H ) :   0.9446
B( 56-C , 57-C ) :   1.0565 B( 56-C , 69-C ) :   1.0331 B( 57-C , 58-C ) :   1.6351
B( 57-C , 63-C ) :   0.9973 B( 58-C , 59-C ) :   1.1376 B( 58-C , 61-C ) :   1.1460
B( 59-C , 60-N ) :   2.9732 B( 61-C , 62-N ) :   2.9765 B( 63-C , 64-C ) :   1.3120
B( 63-C , 68-C ) :   1.3855 B( 64-C , 65-C ) :   1.3826 B( 64-C , 69-C ) :   1.0106
B( 65-C , 66-C ) :   1.3643 B( 65-C , 94-H ) :   0.9866 B( 66-C , 67-C ) :   1.3794
B( 66-C , 95-H ) :   0.9858 B( 67-C , 68-C ) :   1.3683 B( 67-C , 96-H ) :   0.9864
B( 68-C , 97-H ) :   0.9842 B( 69-C , 70-C ) :   1.6400 B( 70-C , 71-C ) :   1.1405
B( 70-C , 73-C ) :   1.1485 B( 71-C , 72-N ) :   2.9899 B( 73-C , 74-N ) :   3.0207

-----------------------------------------------------------------------------
         ABSORPTION SPECTRUM VIA TRANSITION ELECTRIC DIPOLE MOMENTS
-----------------------------------------------------------------------------
State   Energy  Wavelength   fosc         T2         TX        TY        TZ
        (cm-1)    (nm)                  (au**2)     (au)      (au)      (au)
-----------------------------------------------------------------------------
   0   15245.9    655.9   1.988910080  42.94755   3.71987   5.27833  -1.11776
   1   17023.1    587.4   1.179337500  22.80737   3.49050  -3.01760  -1.23200
   2   21351.9    468.3   0.507671101   7.82748   1.39373   2.36765   0.52844
   3   21599.2    463.0   0.096194587   1.46619  -1.02458  -0.53457  -0.36147
   4   22181.8    450.8   0.234304026   3.47742  -1.31291  -1.28232  -0.33065
   5   22439.9    445.6   0.378729261   5.55627  -1.40829   1.74271   0.73209
   6   23581.4    424.1   0.425896214   5.94579  -1.18678  -2.09739   0.37189
   7   26638.2    375.4   0.050518875   0.62434   0.37857   0.69278   0.03283
   8   26643.3    375.3   0.048169479   0.59519  -0.14991   0.72824   0.20588
   9   26903.8    371.7   0.007369734   0.09018   0.28403   0.03659   0.09037
  10   27178.2    367.9   0.105144417   1.27362   0.88274   0.58103   0.39599
  11   28029.1    356.8   0.039957064   0.46931  -0.40855   0.47883   0.27039
  12   28694.5    348.5   0.075619009   0.86758   0.91792   0.08929  -0.13047
  13   29171.4    342.8   0.150323420   1.69647  -1.12476   0.48825   0.43930
  14   30184.4    331.3   0.040915298   0.44625   0.32465  -0.53306  -0.23811
  15   30955.6    323.0   0.259564257   2.76046  -0.08121  -1.57546  -0.52134
  16   31224.6    320.3   0.168809601   1.77982   1.25647   0.33327   0.30004
  17   32589.1    306.9   0.015733026   0.15893  -0.36730  -0.07125   0.13766
  18   32726.3    305.6   0.095824698   0.96395  -0.30354  -0.91285  -0.19629
  19   32997.4    303.1   0.070648710   0.70486   0.81344   0.11313   0.17425
  20   33226.0    301.0   0.434021052   4.30040   1.46862   1.31232   0.64913
  21   33312.9    300.2   0.431013949   4.25946   0.15742   1.94532   0.67112
  22   33393.2    299.5   0.046707059   0.46047  -0.15865  -0.58660   0.30199
  23   34054.8    293.6   0.059417253   0.57439   0.70585   0.07121   0.26664
  24   34211.4    292.3   0.113330617   1.09057  -0.87618  -0.41575  -0.38732
  25   34539.2    289.5   0.175485205   1.67265  -1.10234  -0.67533  -0.03756
  26   35060.5    285.2   0.269153477   2.52731   1.05066  -1.17903  -0.18248
  27   35144.2    284.5   0.017529906   0.16421   0.14333  -0.37349  -0.06459
  28   35453.6    282.1   0.258685108   2.40208   1.14173  -0.48471  -0.92929
  29   35643.4    280.6   0.083496335   0.77119   0.37556   0.79377   0.00860
  30   35980.2    277.9   0.011956439   0.10940  -0.06180  -0.31876   0.06302
  31   36790.1    271.8   0.503479932   4.50533   1.67634  -1.13652  -0.63524
  32   36967.8    270.5   0.127931544   1.13928  -0.45943   0.92624   0.26510
  33   37177.6    269.0   0.006191004   0.05482  -0.06809  -0.22103  -0.03647
  34   37368.0    267.6   0.059359427   0.52296  -0.43946   0.53485   0.20920
  35   37527.7    266.5   0.141830833   1.24421   0.89612   0.58231  -0.31953
  36   38127.7    262.3   0.037701722   0.32553   0.48135  -0.11604  -0.28349
  37   38175.5    261.9   0.006819471   0.05881  -0.16812   0.08272   0.15395
  38   38655.1    258.7   0.134541743   1.14584  -0.72120   0.74718   0.25969
  39   39795.5    251.3   0.058209139   0.48154  -0.61298  -0.01341   0.32498
  40   39916.9    250.5   0.038445119   0.31707  -0.08007  -0.55662  -0.02901
  41   40299.9    248.1   0.047419184   0.38737  -0.54125  -0.27298   0.14106

FINAL SINGLE POINT ENERGY     -4457.310289530728

DIPOLE MOMENT
-------------
                                X             Y             Z
Electronic contribution:      7.03902      17.71469      -2.78233
Nuclear contribution   :     -5.33019     -18.33084       2.58008
                        -----------------------------------------
Total Dipole Moment    :      1.70884      -0.61616      -0.20226
                        -----------------------------------------
Magnitude (a.u.)       :      1.82775
Magnitude (Debye)      :      4.64578

Rotational constants in cm-1:     0.000861     0.000136     0.000119
Rotational constants in MHz :    25.818256     4.066484     3.553473

                             ****ORCA TERMINATED NORMALLY****
TOTAL RUN TIME: 0 days 0 hours 9 minutes 19 seconds 923 msec
