                         Program Version 4.2.0 -  RELEASE  -
|  1> # ORCA input file
|  2> # SCF done       -212.030324521335          0.000288827695
|  3> ! CAM-B3LYP def2-SVP def2/J RIJCOSX Grid4 TightSCF
|  4> %maxcore 5000
|  5> %tddft
|  6>     Mode sTDDFT
|  7>     Ethresh 5.0
|  8>     maxcore 5000
|  9> end
| 10>
| 11> %pal
| 12>   nprocs 6
| 13>   end
| 14> * xyz 0 1
| 15>    C       -5.29947         1.96186         3.72585
| 16>    C       -5.04534         3.31453         3.87965
| 17>    C       -5.85093         4.04802         4.75368
| 18>    C       -5.60202         5.43106         4.93274
| 19>    N       -5.39430         6.54805         5.07479
| 20>    C       -6.90317         3.43942         5.46379
| 21>    C       -7.70451         4.20835         6.34060
| 22>    N       -8.36537         4.81114         7.05601
| 23>    C       -7.15329         2.07506         5.30705
| 24>    C       -6.34661         1.36248         4.44682
| 25>    C       -6.40242        -0.08621         4.13556
| 26>    O       -7.22372        -0.85804         4.58687
| 27>    C       -5.28136        -0.33668         3.21336
| 28>    C       -4.65312         0.93402         2.90744
| 29>    C       -3.66916         1.18471         1.98447
| 30>    C       -3.12043         2.46211         1.74237
| 31>    N       -2.63086         3.47127         1.49810
| 32>    C       -3.07813         0.24196         1.11621
| 33>    N       -2.55131        -0.44472         0.36089
| 34>    C       -4.79815        -1.54482         2.76109
| 35>    C       -5.25030        -2.85646         2.94450
| 36>    S       -4.22223        -4.13724         2.31036
| 37>    C       -5.30737        -5.35707         2.87918
| 38>    C       -6.41283        -4.78609         3.50488
| 39>    C       -6.38254        -3.40666         3.54112
| 40>    C       -5.02773        -6.73269         2.72807
| 41>    C       -3.92870        -7.32660         2.13260
| 42>    C       -3.93974        -8.71324         2.20520
| 43>    C       -5.05091        -9.22219         2.85861
| 44>    S       -6.10411        -7.94176         3.37720
| 45>    C       -5.34950       -10.57624         3.14996
| 46>    S       -6.83741       -11.02531         3.93197
| 47>    C       -6.37073       -12.70177         3.98216
| 48>    C       -5.12681       -12.87297         3.39811
| 49>    C       -4.56080       -11.69249         2.93104
| 50>    C       -7.23732       -13.64062         4.59722
| 51>    C       -6.91754       -14.92704         4.88536
| 52>    C       -7.78096       -15.84130         5.53966
| 53>    N       -7.32235       -17.07730         5.95462
| 54>    C       -8.33417       -17.72722         6.58623
| 55>    C       -8.67220       -18.89167         7.26781
| 56>    C      -10.01837       -18.75325         7.62786
| 57>    N      -10.48970       -17.53800         7.16924
| 58>    C       -9.47567       -16.88594         6.54432
| 59>    C       -9.12897       -15.70648         5.89521
| 60>    C      -10.86827       -19.62897         8.34967
| 61>    C      -10.46748       -20.76584         8.97096
| 62>    C      -11.32152       -21.62761         9.70649
| 63>    S      -10.62932       -22.91910        10.65014
| 64>    C      -12.19981       -23.42243        11.20832
| 65>    C      -13.18802       -22.62439        10.66417
| 66>    C      -12.69978       -21.62295         9.83266
| 67>    C      -12.34892       -24.49738        12.11716
| 68>    C      -11.35809       -25.22916        12.74521
| 69>    C      -11.85024       -26.19846        13.61156
| 70>    C      -13.23076       -26.24186        13.66402
| 71>    S      -13.92756       -25.04103        12.60721
| 72>    C      -14.05318       -27.09295        14.43651
| 73>    S      -13.38170       -28.20679        15.58334
| 74>    C      -14.97107       -28.77760        16.03385
| 75>    C      -15.94793       -28.11402        15.30222
| 76>    C      -15.43903       -27.17605        14.42084
| 77>    C      -15.10228       -29.73676        17.05349
| 78>    C      -16.27155       -30.34010        17.42532
| 79>    C      -16.39476       -31.29547        18.44874
| 80>    C      -15.57236       -31.57613        19.51335
| 81>    C      -15.69845       -32.89932        20.16684
| 82>    O      -16.56157       -33.72841        19.98678
| 83>    C      -14.51647       -33.01365        21.05585
| 84>    C      -14.10306       -34.09189        21.80744
| 85>    C      -12.92373       -33.96659        22.54518
| 86>    C      -12.18893       -32.76675        22.50418
| 87>    C      -12.62419       -31.67658        21.74677
| 88>    C      -13.79804       -31.80331        21.02553
| 89>    C      -14.51788       -30.84988        20.17424
| 90>    C      -14.34629       -29.48807        20.23221
| 91>    C      -15.19802       -28.55709        19.60722
| 92>    N      -15.87432       -27.75223        19.14594
| 93>    C      -13.34365       -28.84919        20.98841
| 94>    N      -12.53546       -28.27800        21.57053
| 95>    C      -10.98381       -32.66268        23.24135
| 96>    N      -10.00580       -32.57085        23.82972
| 97>    C      -12.46255       -35.05040        23.32964
| 98>    N      -12.10489       -35.93920        23.95724
| 99>    H       -4.24831         3.81793         3.35665
|100>    H       -7.95295         1.58956         5.84563
|101>    H       -3.88418        -1.49142         2.18132
|102>    H       -7.20401        -5.38595         3.91942
|103>    H       -7.14592        -2.79787         3.98889
|104>    H       -3.14756        -6.75086         1.66812
|105>    H       -3.16595        -9.33777         1.79834
|106>    H       -4.64921       -13.83166         3.30848
|107>    H       -3.59800       -11.64093         2.45575
|108>    H       -8.20855       -13.26498         4.88479
|109>    H       -5.92993       -15.29505         4.64024
|110>    H       -6.37958       -17.40493         5.83399
|111>    H       -8.05045       -19.73761         7.47828
|112>    H      -11.42303       -17.19572         7.31912
|113>    H       -9.75088       -14.85941         5.69010
|114>    H      -11.90603       -19.32984         8.41730
|115>    H       -9.42360       -21.04247         8.94383
|116>    H      -14.23076       -22.77590        10.88242
|117>    H      -13.33224       -20.91720         9.32594
|118>    H      -10.31260       -25.04462        12.57314
|119>    H      -11.23326       -26.86024        14.19340
|120>    H      -16.99787       -28.30208        15.43027
|121>    H      -16.03927       -26.55778        13.77681
|122>    H      -14.18214       -30.03824        17.53830
|123>    H      -17.16252       -30.14139        16.84726
|124>    H      -17.23870       -31.97463        18.36577
|125>    H      -14.67415       -35.00766        21.82448
|126>    H      -12.03373       -30.77409        21.73567
|127> *
|128>
|129>                          ****END OF INPUT****

CARTESIAN COORDINATES (ANGSTROEM)
---------------------------------
  C     -5.299470    1.961860    3.725850
  C     -5.045340    3.314530    3.879650
  C     -5.850930    4.048020    4.753680
  C     -5.602020    5.431060    4.932740
  N     -5.394300    6.548050    5.074790
  C     -6.903170    3.439420    5.463790
  C     -7.704510    4.208350    6.340600
  N     -8.365370    4.811140    7.056010
  C     -7.153290    2.075060    5.307050
  C     -6.346610    1.362480    4.446820
  C     -6.402420   -0.086210    4.135560
  O     -7.223720   -0.858040    4.586870
  C     -5.281360   -0.336680    3.213360
  C     -4.653120    0.934020    2.907440
  C     -3.669160    1.184710    1.984470
  C     -3.120430    2.462110    1.742370
  N     -2.630860    3.471270    1.498100
  C     -3.078130    0.241960    1.116210
  N     -2.551310   -0.444720    0.360890
  C     -4.798150   -1.544820    2.761090
  C     -5.250300   -2.856460    2.944500
  S     -4.222230   -4.137240    2.310360
  C     -5.307370   -5.357070    2.879180
  C     -6.412830   -4.786090    3.504880
  C     -6.382540   -3.406660    3.541120
  C     -5.027730   -6.732690    2.728070
  C     -3.928700   -7.326600    2.132600
  C     -3.939740   -8.713240    2.205200
  C     -5.050910   -9.222190    2.858610
  S     -6.104110   -7.941760    3.377200
  C     -5.349500  -10.576240    3.149960
  S     -6.837410  -11.025310    3.931970
  C     -6.370730  -12.701770    3.982160
  C     -5.126810  -12.872970    3.398110
  C     -4.560800  -11.692490    2.931040
  C     -7.237320  -13.640620    4.597220
  C     -6.917540  -14.927040    4.885360
  C     -7.780960  -15.841300    5.539660
  N     -7.322350  -17.077300    5.954620
  C     -8.334170  -17.727220    6.586230
  C     -8.672200  -18.891670    7.267810
  C    -10.018370  -18.753250    7.627860
  N    -10.489700  -17.538000    7.169240
  C     -9.475670  -16.885940    6.544320
  C     -9.128970  -15.706480    5.895210
  C    -10.868270  -19.628970    8.349670
  C    -10.467480  -20.765840    8.970960
  C    -11.321520  -21.627610    9.706490
  S    -10.629320  -22.919100   10.650140
  C    -12.199810  -23.422430   11.208320
  C    -13.188020  -22.624390   10.664170
  C    -12.699780  -21.622950    9.832660
  C    -12.348920  -24.497380   12.117160
  C    -11.358090  -25.229160   12.745210
  C    -11.850240  -26.198460   13.611560
  C    -13.230760  -26.241860   13.664020
  S    -13.927560  -25.041030   12.607210
  C    -14.053180  -27.092950   14.436510
  S    -13.381700  -28.206790   15.583340
  C    -14.971070  -28.777600   16.033850
  C    -15.947930  -28.114020   15.302220
  C    -15.439030  -27.176050   14.420840
  C    -15.102280  -29.736760   17.053490
  C    -16.271550  -30.340100   17.425320
  C    -16.394760  -31.295470   18.448740
  C    -15.572360  -31.576130   19.513350
  C    -15.698450  -32.899320   20.166840
  O    -16.561570  -33.728410   19.986780
  C    -14.516470  -33.013650   21.055850
  C    -14.103060  -34.091890   21.807440
  C    -12.923730  -33.966590   22.545180
  C    -12.188930  -32.766750   22.504180
  C    -12.624190  -31.676580   21.746770
  C    -13.798040  -31.803310   21.025530
  C    -14.517880  -30.849880   20.174240
  C    -14.346290  -29.488070   20.232210
  C    -15.198020  -28.557090   19.607220
  N    -15.874320  -27.752230   19.145940
  C    -13.343650  -28.849190   20.988410
  N    -12.535460  -28.278000   21.570530
  C    -10.983810  -32.662680   23.241350
  N    -10.005800  -32.570850   23.829720
  C    -12.462550  -35.050400   23.329640
  N    -12.104890  -35.939200   23.957240
  H     -4.248310    3.817930    3.356650
  H     -7.952950    1.589560    5.845630
  H     -3.884180   -1.491420    2.181320
  H     -7.204010   -5.385950    3.919420
  H     -7.145920   -2.797870    3.988890
  H     -3.147560   -6.750860    1.668120
  H     -3.165950   -9.337770    1.798340
  H     -4.649210  -13.831660    3.308480
  H     -3.598000  -11.640930    2.455750
  H     -8.208550  -13.264980    4.884790
  H     -5.929930  -15.295050    4.640240
  H     -6.379580  -17.404930    5.833990
  H     -8.050450  -19.737610    7.478280
  H    -11.423030  -17.195720    7.319120
  H     -9.750880  -14.859410    5.690100
  H    -11.906030  -19.329840    8.417300
  H     -9.423600  -21.042470    8.943830
  H    -14.230760  -22.775900   10.882420
  H    -13.332240  -20.917200    9.325940
  H    -10.312600  -25.044620   12.573140
  H    -11.233260  -26.860240   14.193400
  H    -16.997870  -28.302080   15.430270
  H    -16.039270  -26.557780   13.776810
  H    -14.182140  -30.038240   17.538300
  H    -17.162520  -30.141390   16.847260
  H    -17.238700  -31.974630   18.365770
  H    -14.674150  -35.007660   21.824480
  H    -12.033730  -30.774090   21.735670

 Total Charge           Charge          ....    0
 Multiplicity           Mult            ....    1
 Number of Electrons    NEL             ....  606
 Basis Dimension        Dim             .... 1340

ORBITAL ENERGIES
----------------

  NO   OCC          E(Eh)            E(eV)
   0   2.0000     -88.978571     -2421.2300
   1   2.0000     -88.978037     -2421.2155
   2   2.0000     -88.976979     -2421.1867
   3   2.0000     -88.972791     -2421.0727
   4   2.0000     -88.968302     -2420.9506
   5   2.0000     -88.965587     -2420.8767
   6   2.0000     -19.232094      -523.3319
   7   2.0000     -19.226474      -523.1790
   8   2.0000     -14.465872      -393.6364
   9   2.0000     -14.465314      -393.6212
  10   2.0000     -14.426297      -392.5595
  11   2.0000     -14.425518      -392.5383
  12   2.0000     -14.424472      -392.5098
  13   2.0000     -14.424063      -392.4987
  14   2.0000     -14.423915      -392.4947
  15   2.0000     -14.423501      -392.4834
  16   2.0000     -14.422976      -392.4691
  17   2.0000     -14.422108      -392.4455
  18   2.0000     -10.383408      -282.5469
  19   2.0000     -10.377761      -282.3932
  20   2.0000     -10.354630      -281.7638
  21   2.0000     -10.354444      -281.7587
  22   2.0000     -10.354092      -281.7492
  23   2.0000     -10.353765      -281.7403
  24   2.0000     -10.353664      -281.7375
  25   2.0000     -10.353566      -281.7349
  26   2.0000     -10.353200      -281.7249
  27   2.0000     -10.353195      -281.7248
  28   2.0000     -10.342500      -281.4337
  29   2.0000     -10.335305      -281.2380
  30   2.0000     -10.333915      -281.2001
  31   2.0000     -10.333668      -281.1934
  32   2.0000     -10.332472      -281.1609
  33   2.0000     -10.331255      -281.1277
  34   2.0000     -10.328613      -281.0559
  35   2.0000     -10.328319      -281.0479
  36   2.0000     -10.328175      -281.0439
  37   2.0000     -10.327405      -281.0230
  38   2.0000     -10.327078      -281.0141
  39   2.0000     -10.326966      -281.0110
  40   2.0000     -10.325887      -280.9817
  41   2.0000     -10.325530      -280.9719
  42   2.0000     -10.325159      -280.9618
  43   2.0000     -10.324895      -280.9547
  44   2.0000     -10.324284      -280.9380
  45   2.0000     -10.323699      -280.9221
  46   2.0000     -10.323575      -280.9188
  47   2.0000     -10.320884      -280.8455
  48   2.0000     -10.320829      -280.8440
  49   2.0000     -10.320707      -280.8407
  50   2.0000     -10.320274      -280.8289
  51   2.0000     -10.320063      -280.8232
  52   2.0000     -10.318659      -280.7850
  53   2.0000     -10.318370      -280.7771
  54   2.0000     -10.317665      -280.7579
  55   2.0000     -10.317545      -280.7547
  56   2.0000     -10.316509      -280.7265
  57   2.0000     -10.314715      -280.6777
  58   2.0000     -10.313131      -280.6346
  59   2.0000     -10.313099      -280.6337
  60   2.0000     -10.312961      -280.6299
  61   2.0000     -10.306876      -280.4644
  62   2.0000     -10.302535      -280.3462
  63   2.0000     -10.302377      -280.3419
  64   2.0000     -10.300615      -280.2940
  65   2.0000     -10.300339      -280.2865
  66   2.0000     -10.299740      -280.2702
  67   2.0000     -10.299709      -280.2693
  68   2.0000     -10.297005      -280.1958
  69   2.0000     -10.295470      -280.1540
  70   2.0000     -10.295213      -280.1470
  71   2.0000     -10.295213      -280.1470
  72   2.0000     -10.294955      -280.1400
  73   2.0000     -10.292974      -280.0861
  74   2.0000     -10.292606      -280.0761
  75   2.0000     -10.291627      -280.0494
  76   2.0000     -10.289444      -279.9900
  77   2.0000     -10.288781      -279.9720
  78   2.0000     -10.288571      -279.9663
  79   2.0000     -10.287619      -279.9404
  80   2.0000     -10.284301      -279.8501
  81   2.0000     -10.281926      -279.7854
  82   2.0000     -10.271568      -279.5036
  83   2.0000     -10.270911      -279.4857
  84   2.0000      -8.074392      -219.7154
  85   2.0000      -8.073737      -219.6976
  86   2.0000      -8.072736      -219.6703
  87   2.0000      -8.068226      -219.5476
  88   2.0000      -8.064243      -219.4392
  89   2.0000      -8.061244      -219.3576
  90   2.0000      -6.043632      -164.4556
  91   2.0000      -6.042955      -164.4372
  92   2.0000      -6.042088      -164.4136
  93   2.0000      -6.039617      -164.3463
  94   2.0000      -6.038968      -164.3287
  95   2.0000      -6.037980      -164.3018
  96   2.0000      -6.037601      -164.2915
  97   2.0000      -6.036361      -164.2577
  98   2.0000      -6.035823      -164.2431
  99   2.0000      -6.034631      -164.2107
 100   2.0000      -6.033551      -164.1813
 101   2.0000      -6.033506      -164.1800
 102   2.0000      -6.030518      -164.0987
 103   2.0000      -6.030113      -164.0877
 104   2.0000      -6.029437      -164.0693
 105   2.0000      -6.026507      -163.9896
 106   2.0000      -6.026307      -163.9842
 107   2.0000      -6.023293      -163.9021
 108   2.0000      -1.146758       -31.2049
 109   2.0000      -1.141494       -31.0616
 110   2.0000      -1.096950       -29.8495
 111   2.0000      -1.060768       -28.8650
 112   2.0000      -1.036743       -28.2112
 113   2.0000      -1.036481       -28.2041
 114   2.0000      -1.022665       -27.8281
 115   2.0000      -1.022534       -27.8246
 116   2.0000      -1.019426       -27.7400
 117   2.0000      -1.016032       -27.6476
 118   2.0000      -1.006204       -27.3802
 119   2.0000      -1.005586       -27.3634
 120   2.0000      -1.004108       -27.3232
 121   2.0000      -1.003547       -27.3079
 122   2.0000      -1.003071       -27.2950
 123   2.0000      -1.002316       -27.2744
 124   2.0000      -1.002106       -27.2687
 125   2.0000      -1.000920       -27.2364
 126   2.0000      -0.986021       -26.8310
 127   2.0000      -0.982818       -26.7439
 128   2.0000      -0.973349       -26.4862
 129   2.0000      -0.972450       -26.4617
 130   2.0000      -0.934755       -25.4360
 131   2.0000      -0.919595       -25.0235
 132   2.0000      -0.919392       -25.0179
 133   2.0000      -0.919190       -25.0124
 134   2.0000      -0.913009       -24.8442
 135   2.0000      -0.911062       -24.7913
 136   2.0000      -0.899012       -24.4634
 137   2.0000      -0.897856       -24.4319
 138   2.0000      -0.894677       -24.3454
 139   2.0000      -0.884770       -24.0758
 140   2.0000      -0.877074       -23.8664
 141   2.0000      -0.871261       -23.7082
 142   2.0000      -0.866777       -23.5862
 143   2.0000      -0.863833       -23.5061
 144   2.0000      -0.858864       -23.3709
 145   2.0000      -0.853072       -23.2133
 146   2.0000      -0.851593       -23.1730
 147   2.0000      -0.846005       -23.0210
 148   2.0000      -0.842466       -22.9247
 149   2.0000      -0.839949       -22.8562
 150   2.0000      -0.834780       -22.7155
 151   2.0000      -0.821153       -22.3447
 152   2.0000      -0.812495       -22.1091
 153   2.0000      -0.803467       -21.8635
 154   2.0000      -0.802770       -21.8445
 155   2.0000      -0.795100       -21.6358
 156   2.0000      -0.784760       -21.3544
 157   2.0000      -0.767572       -20.8867
 158   2.0000      -0.753341       -20.4995
 159   2.0000      -0.750451       -20.4208
 160   2.0000      -0.745356       -20.2822
 161   2.0000      -0.743253       -20.2249
 162   2.0000      -0.734139       -19.9769
 163   2.0000      -0.711566       -19.3627
 164   2.0000      -0.709303       -19.3011
 165   2.0000      -0.706827       -19.2337
 166   2.0000      -0.705935       -19.2095
 167   2.0000      -0.704009       -19.1571
 168   2.0000      -0.697594       -18.9825
 169   2.0000      -0.694031       -18.8855
 170   2.0000      -0.692147       -18.8343
 171   2.0000      -0.685957       -18.6658
 172   2.0000      -0.679053       -18.4780
 173   2.0000      -0.675284       -18.3754
 174   2.0000      -0.673111       -18.3163
 175   2.0000      -0.661624       -18.0037
 176   2.0000      -0.659927       -17.9575
 177   2.0000      -0.650130       -17.6909
 178   2.0000      -0.649936       -17.6856
 179   2.0000      -0.646008       -17.5788
 180   2.0000      -0.641543       -17.4573
 181   2.0000      -0.637488       -17.3469
 182   2.0000      -0.634642       -17.2695
 183   2.0000      -0.631958       -17.1965
 184   2.0000      -0.630437       -17.1551
 185   2.0000      -0.628014       -17.0891
 186   2.0000      -0.624380       -16.9903
 187   2.0000      -0.616619       -16.7791
 188   2.0000      -0.612537       -16.6680
 189   2.0000      -0.612280       -16.6610
 190   2.0000      -0.602670       -16.3995
 191   2.0000      -0.598963       -16.2986
 192   2.0000      -0.596831       -16.2406
 193   2.0000      -0.594519       -16.1777
 194   2.0000      -0.591370       -16.0920
 195   2.0000      -0.587375       -15.9833
 196   2.0000      -0.577768       -15.7219
 197   2.0000      -0.572121       -15.5682
 198   2.0000      -0.563576       -15.3357
 199   2.0000      -0.562679       -15.3113
 200   2.0000      -0.562517       -15.3069
 201   2.0000      -0.556658       -15.1474
 202   2.0000      -0.556460       -15.1420
 203   2.0000      -0.553742       -15.0681
 204   2.0000      -0.551347       -15.0029
 205   2.0000      -0.544775       -14.8241
 206   2.0000      -0.542974       -14.7751
 207   2.0000      -0.541968       -14.7477
 208   2.0000      -0.540881       -14.7181
 209   2.0000      -0.536601       -14.6017
 210   2.0000      -0.533170       -14.5083
 211   2.0000      -0.529166       -14.3993
 212   2.0000      -0.528946       -14.3934
 213   2.0000      -0.526172       -14.3179
 214   2.0000      -0.524461       -14.2713
 215   2.0000      -0.521921       -14.2022
 216   2.0000      -0.519033       -14.1236
 217   2.0000      -0.517759       -14.0889
 218   2.0000      -0.516993       -14.0681
 219   2.0000      -0.516197       -14.0464
 220   2.0000      -0.510296       -13.8859
 221   2.0000      -0.508696       -13.8423
 222   2.0000      -0.507283       -13.8039
 223   2.0000      -0.506325       -13.7778
 224   2.0000      -0.506043       -13.7701
 225   2.0000      -0.504702       -13.7336
 226   2.0000      -0.499411       -13.5897
 227   2.0000      -0.498836       -13.5740
 228   2.0000      -0.498479       -13.5643
 229   2.0000      -0.496170       -13.5015
 230   2.0000      -0.492070       -13.3899
 231   2.0000      -0.491212       -13.3666
 232   2.0000      -0.488947       -13.3049
 233   2.0000      -0.484239       -13.1768
 234   2.0000      -0.483419       -13.1545
 235   2.0000      -0.481310       -13.0971
 236   2.0000      -0.480102       -13.0642
 237   2.0000      -0.477062       -12.9815
 238   2.0000      -0.473940       -12.8966
 239   2.0000      -0.471125       -12.8200
 240   2.0000      -0.470508       -12.8032
 241   2.0000      -0.468624       -12.7519
 242   2.0000      -0.461904       -12.5691
 243   2.0000      -0.459099       -12.4927
 244   2.0000      -0.457205       -12.4412
 245   2.0000      -0.456147       -12.4124
 246   2.0000      -0.456021       -12.4089
 247   2.0000      -0.455795       -12.4028
 248   2.0000      -0.453823       -12.3492
 249   2.0000      -0.452878       -12.3234
 250   2.0000      -0.451708       -12.2916
 251   2.0000      -0.450540       -12.2598
 252   2.0000      -0.450215       -12.2510
 253   2.0000      -0.449514       -12.2319
 254   2.0000      -0.448286       -12.1985
 255   2.0000      -0.448074       -12.1927
 256   2.0000      -0.447270       -12.1708
 257   2.0000      -0.447010       -12.1638
 258   2.0000      -0.446819       -12.1586
 259   2.0000      -0.445771       -12.1300
 260   2.0000      -0.444414       -12.0931
 261   2.0000      -0.439882       -11.9698
 262   2.0000      -0.438123       -11.9219
 263   2.0000      -0.437066       -11.8932
 264   2.0000      -0.435963       -11.8631
 265   2.0000      -0.434428       -11.8214
 266   2.0000      -0.432683       -11.7739
 267   2.0000      -0.429913       -11.6985
 268   2.0000      -0.428001       -11.6465
 269   2.0000      -0.427949       -11.6451
 270   2.0000      -0.427642       -11.6367
 271   2.0000      -0.423786       -11.5318
 272   2.0000      -0.422962       -11.5094
 273   2.0000      -0.421242       -11.4626
 274   2.0000      -0.420988       -11.4557
 275   2.0000      -0.416022       -11.3205
 276   2.0000      -0.415850       -11.3159
 277   2.0000      -0.411969       -11.2103
 278   2.0000      -0.408418       -11.1136
 279   2.0000      -0.393856       -10.7174
 280   2.0000      -0.389250       -10.5920
 281   2.0000      -0.376299       -10.2396
 282   2.0000      -0.366227        -9.9656
 283   2.0000      -0.363113        -9.8808
 284   2.0000      -0.360670        -9.8143
 285   2.0000      -0.354396        -9.6436
 286   2.0000      -0.351903        -9.5758
 287   2.0000      -0.350901        -9.5485
 288   2.0000      -0.349697        -9.5157
 289   2.0000      -0.347644        -9.4599
 290   2.0000      -0.344706        -9.3799
 291   2.0000      -0.341481        -9.2922
 292   2.0000      -0.338025        -9.1981
 293   2.0000      -0.334985        -9.1154
 294   2.0000      -0.333382        -9.0718
 295   2.0000      -0.331000        -9.0070
 296   2.0000      -0.323147        -8.7933
 297   2.0000      -0.305539        -8.3141
 298   2.0000      -0.296774        -8.0756
 299   2.0000      -0.288184        -7.8419
 300   2.0000      -0.264886        -7.2079
 301   2.0000      -0.249122        -6.7790
 302   2.0000      -0.217125        -5.9083
 303   0.0000      -0.110660        -3.0112
 304   0.0000      -0.108516        -2.9529
 305   0.0000      -0.091049        -2.4776
 306   0.0000      -0.090123        -2.4524
 307   0.0000      -0.068354        -1.8600

MULLIKEN ATOMIC CHARGES
-----------------------
   0 C :    0.044566
   1 C :   -0.040820
   2 C :   -0.062380
   3 C :   -0.175294
   4 N :    0.197856
   5 C :   -0.063593
   6 C :   -0.175009
   7 N :    0.193370
   8 C :   -0.040485
   9 C :    0.000411
  10 C :    0.158611
  11 O :   -0.152034
  12 C :   -0.104352
  13 C :    0.311831
  14 C :   -0.347578
  15 C :   -0.188664
  16 N :    0.161948
  17 C :   -0.194720
  18 N :    0.160426
  19 C :    0.066506
  20 C :   -0.119736
  21 S :    0.147562
  22 C :   -0.011595
  23 C :   -0.021715
  24 C :    0.056466
  25 C :   -0.053354
  26 C :    0.012343
  27 C :   -0.004379
  28 C :   -0.015518
  29 S :    0.133728
  30 C :   -0.061756
  31 S :    0.125351
  32 C :   -0.057119
  33 C :   -0.000217
  34 C :    0.012212
  35 C :    0.040629
  36 C :    0.012889
  37 C :    0.096478
  38 N :   -0.034040
  39 C :    0.115296
  40 C :   -0.179390
  41 C :    0.101449
  42 N :   -0.034032
  43 C :    0.115472
  44 C :   -0.177253
  45 C :    0.008364
  46 C :    0.044496
  47 C :   -0.064587
  48 S :    0.124182
  49 C :   -0.058504
  50 C :   -0.002136
  51 C :    0.005515
  52 C :   -0.019302
  53 C :   -0.012260
  54 C :    0.004265
  55 C :   -0.043812
  56 S :    0.124794
  57 C :   -0.031509
  58 S :    0.145983
  59 C :   -0.104724
  60 C :    0.061575
  61 C :   -0.014801
  62 C :    0.099911
  63 C :   -0.004046
  64 C :    0.052626
  65 C :   -0.139794
  66 C :    0.137054
  67 O :   -0.135759
  68 C :    0.014399
  69 C :   -0.039019
  70 C :   -0.069123
  71 C :   -0.065234
  72 C :   -0.042855
  73 C :    0.028648
  74 C :    0.271809
  75 C :   -0.338032
  76 C :   -0.207733
  77 N :    0.180950
  78 C :   -0.176909
  79 N :    0.161578
  80 C :   -0.172176
  81 N :    0.197599
  82 C :   -0.173030
  83 N :    0.192850
  84 H :    0.019881
  85 H :    0.012923
  86 H :    0.007607
  87 H :   -0.000614
  88 H :    0.022242
  89 H :   -0.000321
  90 H :   -0.013367
  91 H :   -0.020201
  92 H :   -0.017356
  93 H :   -0.020287
  94 H :   -0.031836
  95 H :    0.119969
  96 H :   -0.035341
  97 H :    0.120120
  98 H :   -0.034709
  99 H :   -0.031800
 100 H :   -0.019475
 101 H :   -0.010750
 102 H :   -0.020737
 103 H :   -0.006622
 104 H :   -0.004317
 105 H :   -0.001400
 106 H :   -0.002140
 107 H :    0.009554
 108 H :    0.000163
 109 H :    0.030847
 110 H :    0.015320
 111 H :    0.021022
Sum of atomic charges:   -0.0000000

LOEWDIN ATOMIC CHARGES
----------------------
   0 C :    0.002524
   1 C :    0.032984
   2 C :   -0.026531
   3 C :   -0.031122
   4 N :   -0.014948
   5 C :   -0.030531
   6 C :   -0.031333
   7 N :   -0.017985
   8 C :    0.045119
   9 C :   -0.026961
  10 C :    0.085393
  11 O :   -0.139329
  12 C :   -0.116312
  13 C :    0.070835
  14 C :   -0.135448
  15 C :   -0.021871
  16 N :   -0.043768
  17 C :   -0.024727
  18 N :   -0.043956
  19 C :    0.054595
  20 C :   -0.186595
  21 S :    0.455358
  22 C :   -0.140872
  23 C :   -0.070150
  24 C :    0.010490
  25 C :   -0.203286
  26 C :   -0.031081
  27 C :   -0.059017
  28 C :   -0.159957
  29 S :    0.439745
  30 C :   -0.202567
  31 S :    0.428246
  32 C :   -0.153912
  33 C :   -0.064713
  34 C :   -0.038006
  35 C :   -0.055481
  36 C :   -0.020447
  37 C :   -0.005989
  38 N :    0.069361
  39 C :   -0.019273
  40 C :   -0.093722
  41 C :   -0.003051
  42 N :    0.069441
  43 C :   -0.020554
  44 C :   -0.091238
  45 C :   -0.024391
  46 C :   -0.051424
  47 C :   -0.158075
  48 S :    0.434292
  49 C :   -0.196635
  50 C :   -0.050905
  51 C :   -0.062596
  52 C :   -0.164429
  53 C :   -0.064846
  54 C :   -0.040468
  55 C :   -0.196003
  56 S :    0.440183
  57 C :   -0.153946
  58 S :    0.451118
  59 C :   -0.184212
  60 C :   -0.007598
  61 C :   -0.062476
  62 C :    0.036511
  63 C :   -0.054510
  64 C :    0.076593
  65 C :   -0.115937
  66 C :    0.080192
  67 O :   -0.137577
  68 C :   -0.029394
  69 C :    0.046581
  70 C :   -0.031695
  71 C :   -0.025927
  72 C :    0.029151
  73 C :    0.004929
  74 C :    0.057754
  75 C :   -0.139893
  76 C :   -0.017534
  77 N :   -0.034677
  78 C :   -0.025195
  79 N :   -0.045559
  80 C :   -0.030887
  81 N :   -0.015402
  82 C :   -0.031661
  83 N :   -0.017898
  84 H :    0.051882
  85 H :    0.052383
  86 H :    0.043696
  87 H :    0.030683
  88 H :    0.037721
  89 H :    0.032785
  90 H :    0.032367
  91 H :    0.028042
  92 H :    0.030863
  93 H :    0.026980
  94 H :    0.026181
  95 H :    0.088472
  96 H :    0.022985
  97 H :    0.088536
  98 H :    0.023108
  99 H :    0.026058
 100 H :    0.027155
 101 H :    0.027033
 102 H :    0.027394
 103 H :    0.029282
 104 H :    0.030377
 105 H :    0.037070
 106 H :    0.030270
 107 H :    0.034987
 108 H :    0.034815
 109 H :    0.048932
 110 H :    0.053554
 111 H :    0.051476

  Mayer bond orders larger than 0.100000
B(  0-C ,  1-C ) :   1.3601 B(  0-C ,  9-C ) :   1.3373 B(  0-C , 13-C ) :   0.9495
B(  1-C ,  2-C ) :   1.3874 B(  1-C , 84-H ) :   0.9862 B(  2-C ,  3-C ) :   1.0870
B(  2-C ,  5-C ) :   1.4063 B(  3-C ,  4-N ) :   3.0431 B(  5-C ,  6-C ) :   1.0858
B(  5-C ,  8-C ) :   1.3568 B(  6-C ,  7-N ) :   3.0453 B(  8-C ,  9-C ) :   1.3667
B(  8-C , 85-H ) :   1.0159 B(  9-C , 10-C ) :   0.9315 B( 10-C , 11-O ) :   2.1723
B( 10-C , 12-C ) :   0.9628 B( 12-C , 13-C ) :   1.1104 B( 12-C , 19-C ) :   1.5125
B( 13-C , 14-C ) :   1.6206 B( 14-C , 15-C ) :   1.1523 B( 14-C , 17-C ) :   1.1420
B( 15-C , 16-N ) :   2.9582 B( 17-C , 18-N ) :   2.9733 B( 19-C , 20-C ) :   1.2895
B( 19-C , 86-H ) :   0.9108 B( 20-C , 21-S ) :   1.0726 B( 20-C , 24-C ) :   1.3826
B( 21-S , 22-C ) :   1.1768 B( 22-C , 23-C ) :   1.3880 B( 22-C , 25-C ) :   1.1912
B( 23-C , 24-C ) :   1.3443 B( 23-C , 87-H ) :   0.9940 B( 24-C , 88-H ) :   0.9752
B( 25-C , 26-C ) :   1.4574 B( 25-C , 28-C ) :   0.1022 B( 25-C , 29-S ) :   1.1034
B( 26-C , 27-C ) :   1.3035 B( 26-C , 89-H ) :   0.9929 B( 27-C , 28-C ) :   1.4832
B( 27-C , 90-H ) :   0.9964 B( 28-C , 29-S ) :   1.1382 B( 28-C , 30-C ) :   1.1316
B( 30-C , 31-S ) :   1.1100 B( 30-C , 32-C ) :   0.1038 B( 30-C , 34-C ) :   1.4937
B( 31-S , 32-C ) :   1.1264 B( 32-C , 33-C ) :   1.4718 B( 32-C , 35-C ) :   1.1248
B( 33-C , 34-C ) :   1.2956 B( 33-C , 91-H ) :   0.9928 B( 34-C , 92-H ) :   0.9943
B( 35-C , 36-C ) :   1.6824 B( 35-C , 93-H ) :   0.9611 B( 36-C , 37-C ) :   1.1261
B( 36-C , 94-H ) :   0.9616 B( 37-C , 38-N ) :   1.1659 B( 37-C , 44-C ) :   1.3987
B( 38-N , 39-C ) :   1.1687 B( 38-N , 95-H ) :   0.9369 B( 39-C , 40-C ) :   1.2608
B( 39-C , 43-C ) :   1.3092 B( 40-C , 41-C ) :   1.4026 B( 40-C , 96-H ) :   1.0311
B( 41-C , 42-N ) :   1.1683 B( 41-C , 45-C ) :   1.1199 B( 42-N , 43-C ) :   1.1674
B( 42-N , 97-H ) :   0.9368 B( 43-C , 44-C ) :   1.2634 B( 44-C , 98-H ) :   1.0306
B( 45-C , 46-C ) :   1.6879 B( 45-C , 99-H ) :   0.9611 B( 46-C , 47-C ) :   1.1204
B( 46-C ,100-H ) :   0.9631 B( 47-C , 48-S ) :   1.1203 B( 47-C , 51-C ) :   1.4825
B( 48-S , 49-C ) :   1.1180 B( 49-C , 50-C ) :   1.4766 B( 49-C , 52-C ) :   1.1654
B( 50-C , 51-C ) :   1.2936 B( 50-C ,101-H ) :   0.9913 B( 51-C ,102-H ) :   0.9919
B( 52-C , 53-C ) :   1.4778 B( 52-C , 56-S ) :   1.1341 B( 53-C , 54-C ) :   1.2901
B( 53-C ,103-H ) :   0.9937 B( 54-C , 55-C ) :   1.4785 B( 54-C ,104-H ) :   0.9927
B( 55-C , 56-S ) :   1.1056 B( 55-C , 57-C ) :   1.1776 B( 57-C , 58-S ) :   1.1620
B( 57-C , 61-C ) :   1.4273 B( 58-S , 59-C ) :   1.0892 B( 59-C , 60-C ) :   1.4292
B( 59-C , 62-C ) :   1.2203 B( 60-C , 61-C ) :   1.3394 B( 60-C ,105-H ) :   0.9896
B( 61-C ,106-H ) :   0.9915 B( 62-C , 63-C ) :   1.5577 B( 62-C ,107-H ) :   0.9488
B( 63-C , 64-C ) :   1.2472 B( 63-C ,108-H ) :   0.9605 B( 64-C , 65-C ) :   1.5478
B( 64-C ,109-H ) :   0.9331 B( 65-C , 66-C ) :   0.9708 B( 65-C , 74-C ) :   1.0791
B( 66-C , 67-O ) :   2.2667 B( 66-C , 68-C ) :   0.8956 B( 68-C , 69-C ) :   1.3741
B( 68-C , 73-C ) :   1.3359 B( 69-C , 70-C ) :   1.3593 B( 69-C ,110-H ) :   1.0144
B( 70-C , 71-C ) :   1.4066 B( 70-C , 82-C ) :   1.0866 B( 71-C , 72-C ) :   1.3848
B( 71-C , 80-C ) :   1.0859 B( 72-C , 73-C ) :   1.3654 B( 72-C ,111-H ) :   0.9889
B( 73-C , 74-C ) :   0.9679 B( 74-C , 75-C ) :   1.6291 B( 75-C , 76-C ) :   1.1761
B( 75-C , 78-C ) :   1.1306 B( 76-C , 77-N ) :   2.9937 B( 78-C , 79-N ) :   2.9773
B( 80-C , 81-N ) :   3.0435 B( 82-C , 83-N ) :   3.0441

-----------------------------------------------------------------------------
         ABSORPTION SPECTRUM VIA TRANSITION ELECTRIC DIPOLE MOMENTS
-----------------------------------------------------------------------------
State   Energy  Wavelength   fosc         T2         TX        TY        TZ
        (cm-1)    (nm)                  (au**2)     (au)      (au)      (au)
-----------------------------------------------------------------------------
   0   12966.8    771.2   2.856866690  72.53226  -2.12924  -6.98455   4.38345
   1   14303.6    699.1   0.526865035  12.12632   0.48186   3.24072   1.17977
   2   18234.4    548.4   0.136516897   2.46474   1.08273   1.12787   0.14266
   3   19107.0    523.4   0.586505101  10.10544   0.97313   2.25013  -2.02370
   4   19704.8    507.5   0.138302594   2.31065  -0.65438  -0.28418   1.34227
   5   20217.6    494.6   0.525849979   8.56263   0.03789   2.92534  -0.05977
   6   21080.5    474.4   0.321483416   5.02057  -1.45234  -1.11661   1.29014
   7   23750.2    421.0   0.144722767   2.00606  -0.58893  -1.00633   0.80407
   8   24254.3    412.3   0.134929689   1.83145  -0.33266   1.30196   0.16031
   9   24791.1    403.4   0.011485570   0.15252   0.30828   0.10738  -0.21438
  10   25370.4    394.2   0.055010668   0.71383  -0.20835  -0.27062  -0.77278
  11   26058.5    383.8   0.061249732   0.77380  -0.18005  -0.85702   0.08311
  12   28041.5    356.6   0.000771444   0.00906   0.02053   0.05377  -0.07579
  13   28719.6    348.2   0.050429698   0.57807   0.27024   0.66398  -0.25334
  14   28939.5    345.5   0.038250739   0.43514  -0.09035  -0.62934  -0.17579
  15   29260.1    341.8   0.008470242   0.09530  -0.25360  -0.03197   0.17310
  16   29634.3    337.4   0.007661518   0.08511   0.24754   0.07040   0.13741
  17   29974.8    333.6   0.020153469   0.22134  -0.33980  -0.19829   0.25800
  18   30495.2    327.9   0.013077595   0.14118  -0.20250   0.22333   0.22427
  19   30616.6    326.6   0.087625623   0.94221   0.56429   0.52081  -0.59376
  20   30733.1    325.4   0.046615838   0.49935  -0.19039   0.64283  -0.22331
  21   30878.5    323.8   0.069862228   0.74484   0.05808   0.82736  -0.23863
  22   31341.6    319.1   0.038858082   0.40817  -0.58428  -0.20140   0.16193
  23   31455.0    317.9   0.007598988   0.07953   0.07880  -0.24796  -0.10880
  24   31923.3    313.3   0.024209944   0.24967   0.31502  -0.32520   0.21137
  25   32293.5    309.7   0.140466204   1.43197   0.43535  -1.06576   0.32647
  26   32534.6    307.4   0.047450237   0.48014  -0.27693   0.03577   0.63417
  27   33541.5    298.1   0.084306784   0.82748  -0.79204  -0.04856   0.44473
  28   33683.3    296.9   0.003449261   0.03371   0.15889   0.01342  -0.09102
  29   33762.4    296.2   0.107293966   1.04621   0.19995  -0.90416  -0.43442
  30   33846.1    295.5   0.038904773   0.37842   0.11118  -0.55720   0.23577
  31   34034.0    293.8   0.108114794   1.04580  -0.75866  -0.22082   0.64921
  32   34218.7    292.2   0.118496693   1.14004   0.14135  -1.05264  -0.10961
  33   34534.5    289.6   0.199633742   1.90308   0.89168  -0.79108  -0.69438
  34   34871.3    286.8   0.051750954   0.48857  -0.00069   0.35598  -0.60154
  35   35005.9    285.7   0.005311969   0.04996  -0.05924   0.04562  -0.21063
  36   35238.0    283.8   0.018720561   0.17490   0.20948  -0.35256  -0.08197
  37   35789.0    279.4   0.022742405   0.20920   0.03205   0.39431  -0.22954
  38   35926.4    278.3   0.297947909   2.73025  -0.68862   1.43184  -0.45376
  39   36051.5    277.4   0.211385663   1.93031   0.79771  -0.25081  -1.10953
  40   36235.9    276.0   0.009301108   0.08450   0.09745   0.01119   0.27364
  41   36440.1    274.4   0.103653913   0.93644   0.86087  -0.04927  -0.43922
  42   36551.9    273.6   0.013414163   0.12082   0.15646   0.13692   0.27855
  43   36815.4    271.6   0.056901980   0.50883  -0.35941  -0.31410   0.53009
  44   37257.0    268.4   0.084990256   0.75100  -0.63719   0.58712   0.01657
  45   37502.3    266.7   0.218322696   1.91654  -0.03888   1.31170  -0.44099
  46   37906.4    263.8   0.072672948   0.63116   0.10519   0.62428  -0.47996
  47   38093.2    262.5   0.017514250   0.15136   0.03797   0.37871   0.08064
  48   38289.4    261.2   0.089730797   0.77151  -0.67157   0.40872   0.39171
  49   38588.9    259.1   0.139742537   1.19218   0.69719  -0.32375  -0.77543
  50   38685.6    258.5   0.039307412   0.33450  -0.48826   0.23563   0.20145
  51   38731.8    258.2   0.041999155   0.35698   0.56859  -0.15105  -0.10430
  52   38845.0    257.4   0.038182599   0.32360   0.39599   0.15622   0.37734
  53   38940.4    256.8   0.052429014   0.44325   0.24688   0.53792  -0.30487
  54   38990.4    256.5   0.024087486   0.20338  -0.11060  -0.36260   0.24427
  55   39343.0    254.2   0.043700693   0.36568  -0.07717  -0.48714   0.34988
  56   39539.6    252.9   0.003153235   0.02625   0.05745   0.10540   0.10884
  57   39691.8    251.9   0.014318756   0.11876  -0.24774   0.05669  -0.23275
  58   39868.7    250.8   0.013597238   0.11228   0.25034   0.20247   0.09281
  59   39993.6    250.0   0.003481896   0.02866  -0.09320   0.08613  -0.11206
  60   40097.1    249.4   0.015587872   0.12798   0.27468  -0.19683  -0.11743

FINAL SINGLE POINT ENERGY     -5613.944726166619

DIPOLE MOMENT
-------------
                                X             Y             Z
Electronic contribution:      6.54618      30.92805      18.00398
Nuclear contribution   :     -7.89366     -35.18256     -22.41595
                        -----------------------------------------
Total Dipole Moment    :     -1.34747      -4.25451      -4.41197
                        -----------------------------------------
Magnitude (a.u.)       :      6.27551
Magnitude (Debye)      :     15.95107

Rotational constants in cm-1:     0.001210     0.000063     0.000061
Rotational constants in MHz :    36.285801     1.879720     1.830506

                             ****ORCA TERMINATED NORMALLY****
TOTAL RUN TIME: 0 days 0 hours 12 minutes 45 seconds 238 msec
