                         Program Version 4.2.0 -  RELEASE  -
|  1> # ORCA input file
|  2> # SCF done       -189.952866331356          0.000906881794
|  3> ! CAM-B3LYP def2-SVP def2/J RIJCOSX Grid4 TightSCF
|  4> %maxcore 5000
|  5> %tddft
|  6>     Mode sTDDFT
|  7>     Ethresh 5.0
|  8>     maxcore 5000
|  9> end
| 10>
| 11> %pal
| 12>   nprocs 6
| 13>   end
| 14> * xyz 0 1
| 15>    C       -1.74260        -7.43186        -5.94472
| 16>    C       -2.86832        -6.67443        -6.23846
| 17>    F       -3.40314        -6.76098        -7.46090
| 18>    C       -3.45304        -5.82980        -5.29492
| 19>    F       -4.53817        -5.11888        -5.62272
| 20>    C       -2.92071        -5.72169        -4.02039
| 21>    C       -1.80166        -6.47744        -3.73104
| 22>    C       -1.20348        -7.32960        -4.67288
| 23>    C       -0.05137        -7.97731        -4.04158
| 24>    C        0.75897        -8.88902        -4.66709
| 25>    C        0.59288        -9.29856        -6.00857
| 26>    N        0.52227        -9.67476        -7.09038
| 27>    C        1.86309        -9.57022        -4.10984
| 28>    N        2.76882       -10.18193        -3.75509
| 29>    C        0.03044        -7.49178        -2.67373
| 30>    C       -1.05673        -6.54948        -2.46408
| 31>    O       -1.33819        -5.89103        -1.46326
| 32>    C        1.03290        -7.88586        -1.80437
| 33>    C        1.33761        -7.68431        -0.46082
| 34>    O        2.50076        -8.31779        -0.06863
| 35>    C        2.68516        -8.13290         1.24138
| 36>    C        1.64094        -7.35212         1.76637
| 37>    C        0.78229        -7.06040         0.68637
| 38>    O       -0.32204        -6.35267         0.81261
| 39>    C        1.48527        -6.93769         3.17359
| 40>    O        2.27076        -7.24548         4.03638
| 41>    O        0.40945        -6.19927         3.44549
| 42>    C        3.77788        -8.69036         1.93143
| 43>    C        4.75590        -9.43441         1.33765
| 44>    C        5.82861       -10.03676         2.02231
| 45>    N        5.98229        -9.98707         3.39409
| 46>    C        7.09127       -10.68936         3.72788
| 47>    C        7.86504       -11.11451         4.79713
| 48>    C        8.91292       -11.86711         4.23853
| 49>    N        8.78193       -11.89328         2.86605
| 50>    C        7.67298       -11.19177         2.52355
| 51>    C        6.88103       -10.78604         1.46156
| 52>    C        9.98211       -12.54872         4.85670
| 53>    C       10.17694       -12.69397         6.19661
| 54>    C       11.27601       -13.42424         6.69736
| 55>    O       12.21186       -13.90900         5.85144
| 56>    C       13.12372       -14.62322         6.54156
| 57>    C       12.77621       -14.59825         7.90526
| 58>    C       11.59972       -13.82304         8.00511
| 59>    O       10.92324       -13.53738         9.11105
| 60>    C       13.39140       -15.19347         9.07734
| 61>    O       12.92387       -15.04928        10.19168
| 62>    O       14.49433       -15.90579         8.84761
| 63>    C       14.17462       -15.24324         5.84923
| 64>    C       14.34746       -15.06435         4.49939
| 65>    C       15.34481       -15.71989         3.77535
| 66>    C       15.68970       -15.63187         2.44631
| 67>    C       16.91695       -16.36504         2.04324
| 68>    O       17.55883       -17.12933         2.72827
| 69>    C       17.20034       -15.94716         0.65627
| 70>    C       16.19509       -15.06368         0.23075
| 71>    C       16.27571       -14.50242        -1.03433
| 72>    C       17.35085       -14.84971        -1.83979
| 73>    C       18.33466       -15.73913        -1.41007
| 74>    C       18.26831       -16.29856        -0.14422
| 75>    F       19.35210       -16.04871        -2.22233
| 76>    F       17.44117       -14.30942        -3.06048
| 77>    C       15.19293       -14.91287         1.29956
| 78>    C       13.99730       -14.26357         1.09987
| 79>    C       12.87888       -14.12592         1.94137
| 80>    N       11.87395       -13.92493         2.46590
| 81>    C       13.63775       -13.61624        -0.10534
| 82>    N       13.24372       -13.05639        -1.02739
| 83>    H       -1.33322        -8.06698        -6.71248
| 84>    H       -3.36812        -5.07150        -3.28573
| 85>    H        1.78399        -8.52914        -2.24784
| 86>    H       -0.75553        -6.15269        -0.08578
| 87>    H       -0.13442        -6.03555         2.65354
| 88>    H        3.77736        -8.47915         2.98955
| 89>    H        4.71938        -9.59064         0.26857
| 90>    H        5.35374        -9.51725         4.02285
| 91>    H        7.72001       -10.92097         5.83995
| 92>    H        9.41294       -12.38385         2.25338
| 93>    H        7.01111       -10.98204         0.41646
| 94>    H       10.69421       -13.01640         4.18865
| 95>    H        9.49555       -12.29247         6.92917
| 96>    H       11.38803       -13.96611         9.86262
| 97>    H       14.83601       -16.26762         9.68128
| 98>    H       14.83842       -15.87413         6.42014
| 99>    H       13.67900       -14.38519         3.99789
|100>    H       15.98903       -16.38966         4.33864
|101>    H       15.55285       -13.80549        -1.42360
|102>    H       19.02739       -16.98241         0.20042
|103> *
|104>
|105>                          ****END OF INPUT****

CARTESIAN COORDINATES (ANGSTROEM)
---------------------------------
  C     -1.742600   -7.431860   -5.944720
  C     -2.868320   -6.674430   -6.238460
  F     -3.403140   -6.760980   -7.460900
  C     -3.453040   -5.829800   -5.294920
  F     -4.538170   -5.118880   -5.622720
  C     -2.920710   -5.721690   -4.020390
  C     -1.801660   -6.477440   -3.731040
  C     -1.203480   -7.329600   -4.672880
  C     -0.051370   -7.977310   -4.041580
  C      0.758970   -8.889020   -4.667090
  C      0.592880   -9.298560   -6.008570
  N      0.522270   -9.674760   -7.090380
  C      1.863090   -9.570220   -4.109840
  N      2.768820  -10.181930   -3.755090
  C      0.030440   -7.491780   -2.673730
  C     -1.056730   -6.549480   -2.464080
  O     -1.338190   -5.891030   -1.463260
  C      1.032900   -7.885860   -1.804370
  C      1.337610   -7.684310   -0.460820
  O      2.500760   -8.317790   -0.068630
  C      2.685160   -8.132900    1.241380
  C      1.640940   -7.352120    1.766370
  C      0.782290   -7.060400    0.686370
  O     -0.322040   -6.352670    0.812610
  C      1.485270   -6.937690    3.173590
  O      2.270760   -7.245480    4.036380
  O      0.409450   -6.199270    3.445490
  C      3.777880   -8.690360    1.931430
  C      4.755900   -9.434410    1.337650
  C      5.828610  -10.036760    2.022310
  N      5.982290   -9.987070    3.394090
  C      7.091270  -10.689360    3.727880
  C      7.865040  -11.114510    4.797130
  C      8.912920  -11.867110    4.238530
  N      8.781930  -11.893280    2.866050
  C      7.672980  -11.191770    2.523550
  C      6.881030  -10.786040    1.461560
  C      9.982110  -12.548720    4.856700
  C     10.176940  -12.693970    6.196610
  C     11.276010  -13.424240    6.697360
  O     12.211860  -13.909000    5.851440
  C     13.123720  -14.623220    6.541560
  C     12.776210  -14.598250    7.905260
  C     11.599720  -13.823040    8.005110
  O     10.923240  -13.537380    9.111050
  C     13.391400  -15.193470    9.077340
  O     12.923870  -15.049280   10.191680
  O     14.494330  -15.905790    8.847610
  C     14.174620  -15.243240    5.849230
  C     14.347460  -15.064350    4.499390
  C     15.344810  -15.719890    3.775350
  C     15.689700  -15.631870    2.446310
  C     16.916950  -16.365040    2.043240
  O     17.558830  -17.129330    2.728270
  C     17.200340  -15.947160    0.656270
  C     16.195090  -15.063680    0.230750
  C     16.275710  -14.502420   -1.034330
  C     17.350850  -14.849710   -1.839790
  C     18.334660  -15.739130   -1.410070
  C     18.268310  -16.298560   -0.144220
  F     19.352100  -16.048710   -2.222330
  F     17.441170  -14.309420   -3.060480
  C     15.192930  -14.912870    1.299560
  C     13.997300  -14.263570    1.099870
  C     12.878880  -14.125920    1.941370
  N     11.873950  -13.924930    2.465900
  C     13.637750  -13.616240   -0.105340
  N     13.243720  -13.056390   -1.027390
  H     -1.333220   -8.066980   -6.712480
  H     -3.368120   -5.071500   -3.285730
  H      1.783990   -8.529140   -2.247840
  H     -0.755530   -6.152690   -0.085780
  H     -0.134420   -6.035550    2.653540
  H      3.777360   -8.479150    2.989550
  H      4.719380   -9.590640    0.268570
  H      5.353740   -9.517250    4.022850
  H      7.720010  -10.920970    5.839950
  H      9.412940  -12.383850    2.253380
  H      7.011110  -10.982040    0.416460
  H     10.694210  -13.016400    4.188650
  H      9.495550  -12.292470    6.929170
  H     11.388030  -13.966110    9.862620
  H     14.836010  -16.267620    9.681280
  H     14.838420  -15.874130    6.420140
  H     13.679000  -14.385190    3.997890
  H     15.989030  -16.389660    4.338640
  H     15.552850  -13.805490   -1.423600
  H     19.027390  -16.982410    0.200420

 Total Charge           Charge          ....    0
 Multiplicity           Mult            ....    1
 Number of Electrons    NEL             ....  466
 Basis Dimension        Dim             .... 1052

ORBITAL ENERGIES
----------------

  NO   OCC          E(Eh)            E(eV)
   0   2.0000     -24.804328      -674.9601
   1   2.0000     -24.802722      -674.9164
   2   2.0000     -24.802149      -674.9008
   3   2.0000     -24.801044      -674.8707
   4   2.0000     -19.318327      -525.6784
   5   2.0000     -19.305542      -525.3305
   6   2.0000     -19.299412      -525.1637
   7   2.0000     -19.273336      -524.4541
   8   2.0000     -19.265553      -524.2424
   9   2.0000     -19.246141      -523.7141
  10   2.0000     -19.242959      -523.6275
  11   2.0000     -19.240350      -523.5565
  12   2.0000     -19.221329      -523.0390
  13   2.0000     -19.192165      -522.2454
  14   2.0000     -14.466564      -393.6552
  15   2.0000     -14.465715      -393.6321
  16   2.0000     -14.434722      -392.7887
  17   2.0000     -14.422522      -392.4568
  18   2.0000     -14.417548      -392.3214
  19   2.0000     -14.413555      -392.2128
  20   2.0000     -10.444758      -284.2163
  21   2.0000     -10.403268      -283.0873
  22   2.0000     -10.389223      -282.7051
  23   2.0000     -10.388715      -282.6913
  24   2.0000     -10.387239      -282.6511
  25   2.0000     -10.386734      -282.6374
  26   2.0000     -10.386326      -282.6263
  27   2.0000     -10.383063      -282.5375
  28   2.0000     -10.373070      -282.2656
  29   2.0000     -10.370865      -282.2056
  30   2.0000     -10.367652      -282.1182
  31   2.0000     -10.364217      -282.0247
  32   2.0000     -10.355878      -281.7978
  33   2.0000     -10.354616      -281.7634
  34   2.0000     -10.352528      -281.7066
  35   2.0000     -10.351207      -281.6707
  36   2.0000     -10.344499      -281.4881
  37   2.0000     -10.342439      -281.4321
  38   2.0000     -10.341108      -281.3959
  39   2.0000     -10.326795      -281.0064
  40   2.0000     -10.326353      -280.9943
  41   2.0000     -10.321070      -280.8506
  42   2.0000     -10.320511      -280.8354
  43   2.0000     -10.319946      -280.8200
  44   2.0000     -10.319833      -280.8169
  45   2.0000     -10.318739      -280.7872
  46   2.0000     -10.317729      -280.7597
  47   2.0000     -10.317100      -280.7426
  48   2.0000     -10.317074      -280.7418
  49   2.0000     -10.314127      -280.6617
  50   2.0000     -10.311814      -280.5987
  51   2.0000     -10.311495      -280.5900
  52   2.0000     -10.311020      -280.5771
  53   2.0000     -10.310731      -280.5692
  54   2.0000     -10.308832      -280.5176
  55   2.0000     -10.306769      -280.4614
  56   2.0000     -10.306379      -280.4508
  57   2.0000     -10.305262      -280.4204
  58   2.0000     -10.304843      -280.4090
  59   2.0000     -10.300846      -280.3003
  60   2.0000     -10.298617      -280.2396
  61   2.0000     -10.296453      -280.1807
  62   2.0000     -10.292790      -280.0811
  63   2.0000     -10.292505      -280.0733
  64   2.0000     -10.290278      -280.0127
  65   2.0000     -10.283281      -279.8223
  66   2.0000     -10.282202      -279.7929
  67   2.0000     -10.274837      -279.5925
  68   2.0000      -1.327152       -36.1136
  69   2.0000      -1.325474       -36.0680
  70   2.0000      -1.311985       -35.7009
  71   2.0000      -1.310267       -35.6542
  72   2.0000      -1.240540       -33.7568
  73   2.0000      -1.229444       -33.4549
  74   2.0000      -1.226496       -33.3747
  75   2.0000      -1.182529       -32.1782
  76   2.0000      -1.169016       -31.8105
  77   2.0000      -1.167745       -31.7760
  78   2.0000      -1.148497       -31.2522
  79   2.0000      -1.136633       -30.9294
  80   2.0000      -1.128355       -30.7041
  81   2.0000      -1.101014       -29.9601
  82   2.0000      -1.088555       -29.6211
  83   2.0000      -1.064021       -28.9535
  84   2.0000      -1.032387       -28.0927
  85   2.0000      -1.022975       -27.8366
  86   2.0000      -1.012634       -27.5552
  87   2.0000      -1.005063       -27.3492
  88   2.0000      -1.003793       -27.3146
  89   2.0000      -0.994132       -27.0517
  90   2.0000      -0.963125       -26.2080
  91   2.0000      -0.960519       -26.1371
  92   2.0000      -0.948291       -25.8043
  93   2.0000      -0.933523       -25.4025
  94   2.0000      -0.927821       -25.2473
  95   2.0000      -0.919587       -25.0232
  96   2.0000      -0.917955       -24.9788
  97   2.0000      -0.908574       -24.7235
  98   2.0000      -0.906604       -24.6699
  99   2.0000      -0.899107       -24.4659
 100   2.0000      -0.888260       -24.1708
 101   2.0000      -0.878400       -23.9025
 102   2.0000      -0.876144       -23.8411
 103   2.0000      -0.873274       -23.7630
 104   2.0000      -0.871708       -23.7204
 105   2.0000      -0.850544       -23.1445
 106   2.0000      -0.837784       -22.7973
 107   2.0000      -0.812627       -22.1127
 108   2.0000      -0.805653       -21.9229
 109   2.0000      -0.794021       -21.6064
 110   2.0000      -0.783892       -21.3308
 111   2.0000      -0.779644       -21.2152
 112   2.0000      -0.771978       -21.0066
 113   2.0000      -0.759981       -20.6801
 114   2.0000      -0.750886       -20.4326
 115   2.0000      -0.739269       -20.1165
 116   2.0000      -0.727773       -19.8037
 117   2.0000      -0.723938       -19.6994
 118   2.0000      -0.721402       -19.6304
 119   2.0000      -0.714487       -19.4422
 120   2.0000      -0.710432       -19.3318
 121   2.0000      -0.705275       -19.1915
 122   2.0000      -0.701746       -19.0955
 123   2.0000      -0.700391       -19.0586
 124   2.0000      -0.695069       -18.9138
 125   2.0000      -0.690185       -18.7809
 126   2.0000      -0.688557       -18.7366
 127   2.0000      -0.681221       -18.5370
 128   2.0000      -0.677440       -18.4341
 129   2.0000      -0.660885       -17.9836
 130   2.0000      -0.657595       -17.8941
 131   2.0000      -0.652999       -17.7690
 132   2.0000      -0.647949       -17.6316
 133   2.0000      -0.646714       -17.5980
 134   2.0000      -0.639537       -17.4027
 135   2.0000      -0.633906       -17.2495
 136   2.0000      -0.630140       -17.1470
 137   2.0000      -0.627583       -17.0774
 138   2.0000      -0.621780       -16.9195
 139   2.0000      -0.613015       -16.6810
 140   2.0000      -0.609878       -16.5956
 141   2.0000      -0.603869       -16.4321
 142   2.0000      -0.599889       -16.3238
 143   2.0000      -0.597564       -16.2606
 144   2.0000      -0.596972       -16.2444
 145   2.0000      -0.595081       -16.1930
 146   2.0000      -0.592202       -16.1146
 147   2.0000      -0.590854       -16.0779
 148   2.0000      -0.590624       -16.0717
 149   2.0000      -0.586176       -15.9507
 150   2.0000      -0.577028       -15.7017
 151   2.0000      -0.574278       -15.6269
 152   2.0000      -0.567529       -15.4432
 153   2.0000      -0.567143       -15.4327
 154   2.0000      -0.564880       -15.3712
 155   2.0000      -0.560276       -15.2459
 156   2.0000      -0.556400       -15.1404
 157   2.0000      -0.555641       -15.1198
 158   2.0000      -0.553099       -15.0506
 159   2.0000      -0.552075       -15.0227
 160   2.0000      -0.550279       -14.9739
 161   2.0000      -0.549308       -14.9474
 162   2.0000      -0.545549       -14.8451
 163   2.0000      -0.543219       -14.7817
 164   2.0000      -0.541887       -14.7455
 165   2.0000      -0.540510       -14.7080
 166   2.0000      -0.534826       -14.5533
 167   2.0000      -0.532531       -14.4909
 168   2.0000      -0.529587       -14.4108
 169   2.0000      -0.526276       -14.3207
 170   2.0000      -0.525898       -14.3104
 171   2.0000      -0.522525       -14.2186
 172   2.0000      -0.518725       -14.1152
 173   2.0000      -0.515876       -14.0377
 174   2.0000      -0.514353       -13.9963
 175   2.0000      -0.510914       -13.9027
 176   2.0000      -0.509020       -13.8511
 177   2.0000      -0.506244       -13.7756
 178   2.0000      -0.504795       -13.7362
 179   2.0000      -0.502718       -13.6797
 180   2.0000      -0.500119       -13.6089
 181   2.0000      -0.499076       -13.5805
 182   2.0000      -0.497375       -13.5343
 183   2.0000      -0.496784       -13.5182
 184   2.0000      -0.493459       -13.4277
 185   2.0000      -0.492810       -13.4101
 186   2.0000      -0.487925       -13.2771
 187   2.0000      -0.484750       -13.1907
 188   2.0000      -0.483674       -13.1614
 189   2.0000      -0.471841       -12.8394
 190   2.0000      -0.468813       -12.7570
 191   2.0000      -0.463878       -12.6228
 192   2.0000      -0.461256       -12.5514
 193   2.0000      -0.459667       -12.5082
 194   2.0000      -0.459323       -12.4988
 195   2.0000      -0.453092       -12.3293
 196   2.0000      -0.451731       -12.2922
 197   2.0000      -0.451056       -12.2739
 198   2.0000      -0.449039       -12.2190
 199   2.0000      -0.448683       -12.2093
 200   2.0000      -0.446304       -12.1446
 201   2.0000      -0.445175       -12.1138
 202   2.0000      -0.443211       -12.0604
 203   2.0000      -0.441483       -12.0134
 204   2.0000      -0.440090       -11.9755
 205   2.0000      -0.433722       -11.8022
 206   2.0000      -0.433374       -11.7927
 207   2.0000      -0.431380       -11.7384
 208   2.0000      -0.426353       -11.6016
 209   2.0000      -0.423866       -11.5340
 210   2.0000      -0.416716       -11.3394
 211   2.0000      -0.414786       -11.2869
 212   2.0000      -0.407667       -11.0932
 213   2.0000      -0.406657       -11.0657
 214   2.0000      -0.397762       -10.8237
 215   2.0000      -0.396300       -10.7839
 216   2.0000      -0.385941       -10.5020
 217   2.0000      -0.376489       -10.2448
 218   2.0000      -0.370166       -10.0727
 219   2.0000      -0.369341       -10.0503
 220   2.0000      -0.359292        -9.7768
 221   2.0000      -0.352967        -9.6047
 222   2.0000      -0.351198        -9.5566
 223   2.0000      -0.348568        -9.4850
 224   2.0000      -0.346542        -9.4299
 225   2.0000      -0.342754        -9.3268
 226   2.0000      -0.328636        -8.9426
 227   2.0000      -0.320025        -8.7083
 228   2.0000      -0.315871        -8.5953
 229   2.0000      -0.300813        -8.1855
 230   2.0000      -0.291595        -7.9347
 231   2.0000      -0.268297        -7.3007
 232   2.0000      -0.226173        -6.1545
 233   0.0000      -0.116651        -3.1742
 234   0.0000      -0.091167        -2.4808
 235   0.0000      -0.076336        -2.0772
 236   0.0000      -0.072310        -1.9676
 237   0.0000      -0.047789        -1.3004

MULLIKEN ATOMIC CHARGES
-----------------------
   0 C :   -0.089434
   1 C :    0.236121
   2 F :   -0.163792
   3 C :    0.235544
   4 F :   -0.168927
   5 C :   -0.106089
   6 C :   -0.005275
   7 C :    0.043148
   8 C :    0.317217
   9 C :   -0.368577
  10 C :   -0.197046
  11 N :    0.155469
  12 C :   -0.186932
  13 N :    0.155981
  14 C :   -0.097793
  15 C :    0.177734
  16 O :   -0.243800
  17 C :   -0.041576
  18 C :    0.111859
  19 O :   -0.204242
  20 C :    0.148098
  21 C :   -0.112265
  22 C :    0.122047
  23 O :   -0.226658
  24 C :    0.169103
  25 O :   -0.199481
  26 O :   -0.155391
  27 C :   -0.089145
  28 C :    0.069649
  29 C :    0.075251
  30 N :   -0.033987
  31 C :    0.129736
  32 C :   -0.165344
  33 C :    0.110751
  34 N :   -0.026362
  35 C :    0.123898
  36 C :   -0.141358
  37 C :    0.021989
  38 C :   -0.053201
  39 C :    0.120513
  40 O :   -0.191773
  41 C :    0.142229
  42 C :   -0.031263
  43 C :    0.091459
  44 O :   -0.162697
  45 C :    0.146694
  46 O :   -0.241022
  47 O :   -0.153214
  48 C :   -0.024711
  49 C :    0.009313
  50 C :    0.017965
  51 C :   -0.112785
  52 C :    0.129125
  53 O :   -0.145677
  54 C :    0.005600
  55 C :    0.023179
  56 C :   -0.092328
  57 C :    0.236634
  58 C :    0.233921
  59 C :   -0.104526
  60 F :   -0.167826
  61 F :   -0.164574
  62 C :    0.349451
  63 C :   -0.349995
  64 C :   -0.179208
  65 N :    0.154343
  66 C :   -0.212388
  67 N :    0.151846
  68 H :    0.016768
  69 H :    0.011017
  70 H :    0.022211
  71 H :    0.229705
  72 H :    0.186106
  73 H :    0.003053
  74 H :    0.017347
  75 H :    0.138217
  76 H :   -0.026268
  77 H :    0.136986
  78 H :   -0.015515
  79 H :   -0.010487
  80 H :    0.004251
  81 H :    0.204673
  82 H :    0.204637
  83 H :    0.015650
  84 H :    0.013597
  85 H :    0.014239
  86 H :    0.017143
  87 H :    0.011467
Sum of atomic charges:   -0.0000000

LOEWDIN ATOMIC CHARGES
----------------------
   0 C :   -0.017721
   1 C :    0.074359
   2 F :   -0.042595
   3 C :    0.067914
   4 F :   -0.045791
   5 C :   -0.005840
   6 C :   -0.045127
   7 C :   -0.010498
   8 C :    0.078751
   9 C :   -0.145573
  10 C :   -0.019930
  11 N :   -0.053395
  12 C :   -0.024954
  13 N :   -0.051003
  14 C :   -0.142791
  15 C :    0.109361
  16 O :   -0.151959
  17 C :    0.052055
  18 C :   -0.036446
  19 O :    0.008708
  20 C :    0.116780
  21 C :   -0.165343
  22 C :    0.080517
  23 O :   -0.030065
  24 C :    0.084396
  25 O :   -0.183292
  26 O :   -0.026258
  27 C :   -0.091729
  28 C :    0.037369
  29 C :   -0.009059
  30 N :    0.073918
  31 C :    0.004669
  32 C :   -0.088824
  33 C :    0.015798
  34 N :    0.081285
  35 C :   -0.017184
  36 C :   -0.055476
  37 C :   -0.005786
  38 C :   -0.043111
  39 C :    0.026662
  40 O :    0.039211
  41 C :    0.045849
  42 C :   -0.131448
  43 C :    0.036920
  44 O :   -0.031562
  45 C :    0.099325
  46 O :   -0.190443
  47 O :   -0.018877
  48 C :    0.015031
  49 C :   -0.038586
  50 C :    0.065034
  51 C :   -0.108930
  52 C :    0.081059
  53 O :   -0.143828
  54 C :   -0.046114
  55 C :   -0.012627
  56 C :   -0.021348
  57 C :    0.073756
  58 C :    0.070319
  59 C :   -0.005327
  60 F :   -0.044911
  61 F :   -0.043814
  62 C :    0.076009
  63 C :   -0.147554
  64 C :    0.004266
  65 N :   -0.069344
  66 C :   -0.021170
  67 N :   -0.053727
  68 H :    0.052024
  69 H :    0.051604
  70 H :    0.058366
  71 H :    0.054415
  72 H :    0.076483
  73 H :    0.032960
  74 H :    0.046326
  75 H :    0.096365
  76 H :    0.027283
  77 H :    0.097172
  78 H :    0.033587
  79 H :    0.031013
  80 H :    0.040295
  81 H :    0.089943
  82 H :    0.111644
  83 H :    0.042713
  84 H :    0.031194
  85 H :    0.043380
  86 H :    0.050947
  87 H :    0.052328

  Mayer bond orders larger than 0.100000
B(  0-C ,  1-C ) :   1.3222 B(  0-C ,  5-C ) :   0.1035 B(  0-C ,  7-C ) :   1.3262
B(  0-C , 68-H ) :   0.9923 B(  1-C ,  2-F ) :   1.1478 B(  1-C ,  3-C ) :   1.2980
B(  3-C ,  4-F ) :   1.1309 B(  3-C ,  5-C ) :   1.3094 B(  5-C ,  6-C ) :   1.3138
B(  5-C , 69-H ) :   1.0218 B(  6-C ,  7-C ) :   1.3405 B(  6-C , 15-C ) :   0.9964
B(  7-C ,  8-C ) :   0.9855 B(  8-C ,  9-C ) :   1.6100 B(  8-C , 14-C ) :   1.1225
B(  9-C , 10-C ) :   1.1479 B(  9-C , 12-C ) :   1.1415 B( 10-C , 11-N ) :   2.9752
B( 12-C , 13-N ) :   2.9632 B( 14-C , 15-C ) :   1.0310 B( 14-C , 17-C ) :   1.3918
B( 15-C , 16-O ) :   1.9509 B( 16-O , 71-H ) :   0.2246 B( 17-C , 18-C ) :   1.3593
B( 17-C , 70-H ) :   0.9012 B( 18-C , 19-O ) :   1.0385 B( 18-C , 22-C ) :   1.2114
B( 19-O , 20-C ) :   1.2187 B( 20-C , 21-C ) :   1.2879 B( 20-C , 27-C ) :   1.2971
B( 21-C , 22-C ) :   1.2586 B( 21-C , 24-C ) :   0.9099 B( 22-C , 23-O ) :   1.3227
B( 23-O , 71-H ) :   0.8016 B( 24-C , 25-O ) :   2.1014 B( 24-C , 26-O ) :   1.3090
B( 26-O , 72-H ) :   0.9223 B( 27-C , 28-C ) :   1.4654 B( 27-C , 73-H ) :   0.9319
B( 28-C , 29-C ) :   1.1952 B( 28-C , 74-H ) :   0.9753 B( 29-C , 30-N ) :   1.1838
B( 29-C , 36-C ) :   1.3056 B( 30-N , 31-C ) :   1.1863 B( 30-N , 75-H ) :   0.9278
B( 31-C , 32-C ) :   1.2840 B( 31-C , 35-C ) :   1.2638 B( 32-C , 33-C ) :   1.3672
B( 32-C , 76-H ) :   1.0326 B( 33-C , 34-N ) :   1.1954 B( 33-C , 37-C ) :   1.1253
B( 34-N , 35-C ) :   1.1689 B( 34-N , 77-H ) :   0.9269 B( 35-C , 36-C ) :   1.2852
B( 36-C , 78-H ) :   1.0428 B( 37-C , 38-C ) :   1.5793 B( 37-C , 79-H ) :   0.9528
B( 38-C , 39-C ) :   1.1988 B( 38-C , 80-H ) :   0.9730 B( 39-C , 40-O ) :   1.1295
B( 39-C , 41-C ) :   0.1038 B( 39-C , 43-C ) :   1.2968 B( 40-O , 41-C ) :   1.1634
B( 41-C , 42-C ) :   1.2352 B( 41-C , 48-C ) :   1.2381 B( 42-C , 43-C ) :   1.2371
B( 42-C , 45-C ) :   0.9560 B( 43-C , 44-O ) :   1.3468 B( 44-O , 81-H ) :   0.9024
B( 45-C , 46-O ) :   2.0229 B( 45-C , 47-O ) :   1.3230 B( 46-O , 81-H ) :   0.1026
B( 47-O , 82-H ) :   0.9331 B( 48-C , 49-C ) :   1.5011 B( 48-C , 83-H ) :   0.9713
B( 49-C , 50-C ) :   1.1850 B( 49-C , 84-H ) :   0.9702 B( 50-C , 51-C ) :   1.5106
B( 50-C , 85-H ) :   0.9504 B( 51-C , 52-C ) :   0.9584 B( 51-C , 62-C ) :   1.0712
B( 52-C , 53-O ) :   2.2443 B( 52-C , 54-C ) :   0.9375 B( 54-C , 55-C ) :   1.3420
B( 54-C , 59-C ) :   1.3265 B( 55-C , 56-C ) :   1.3133 B( 55-C , 62-C ) :   1.0068
B( 56-C , 57-C ) :   1.3366 B( 56-C , 59-C ) :   0.1043 B( 56-C , 86-H ) :   0.9874
B( 57-C , 58-C ) :   1.2953 B( 57-C , 61-F ) :   1.1477 B( 58-C , 59-C ) :   1.3116
B( 58-C , 60-F ) :   1.1327 B( 59-C , 87-H ) :   1.0215 B( 62-C , 63-C ) :   1.5775
B( 63-C , 64-C ) :   1.1655 B( 63-C , 66-C ) :   1.1291 B( 64-C , 65-N ) :   2.9304
B( 66-C , 67-N ) :   2.9768

-----------------------------------------------------------------------------
         ABSORPTION SPECTRUM VIA TRANSITION ELECTRIC DIPOLE MOMENTS
-----------------------------------------------------------------------------
State   Energy  Wavelength   fosc         T2         TX        TY        TZ
        (cm-1)    (nm)                  (au**2)     (au)      (au)      (au)
-----------------------------------------------------------------------------
   0   10148.8    985.3   1.032141696  33.48120   5.16430  -2.59199   0.30464
   1   16350.9    611.6   1.368351562  27.55061   2.91638  -1.31533   4.16116
   2   20343.1    491.6   0.289791673   4.68970  -0.67792   0.51540   1.99110
   3   20577.7    486.0   0.275054286   4.40044  -1.08124   0.99045  -1.50012
   4   20926.9    477.9   0.006978047   0.10978   0.26834  -0.15240  -0.12061
   5   24736.0    404.3   0.059130272   0.78697  -0.11417   0.72698   0.49542
   6   25878.4    386.4   0.152325662   1.93781   0.75423  -0.88261   0.76808
   7   26062.8    383.7   0.079787587   1.00784   0.76815  -0.59712   0.24745
   8   27207.4    367.5   0.097822085   1.18366   0.60944  -0.36114   0.82573
   9   27662.8    361.5   0.088133026   1.04886  -0.80658   0.62854   0.05677
  10   28670.3    348.8   0.071296861   0.81868  -0.10533  -0.20342   0.87533
  11   29316.9    341.1   0.008949239   0.10049  -0.21446   0.06304  -0.22479
  12   29536.6    338.6   0.037100963   0.41352   0.55252  -0.14544  -0.29512
  13   30217.3    330.9   0.088076271   0.95958   0.19727  -0.15562  -0.94681
  14   30416.6    328.8   0.079719058   0.86283  -0.10378  -0.07958   0.91964
  15   31228.9    320.2   0.294868891   3.10848   1.39923  -0.50298  -0.94744
  16   31734.2    315.1   0.025864872   0.26832   0.25219  -0.28099   0.35464
  17   31857.1    313.9   0.035264801   0.36443   0.22218   0.09030  -0.55400
  18   32452.9    308.1   0.163735429   1.66098   0.02167   0.19095   1.27438
  19   33236.8    300.9   0.333596999   3.30429   0.18121  -0.22102   1.79516
  20   34439.9    290.4   0.026603790   0.25431   0.10490  -0.12838  -0.47626
  21   34876.3    286.7   0.216943102   2.04782   0.52898  -0.07140  -1.32774
  22   35482.9    281.8   0.445873793   4.13683  -1.50601   1.36393  -0.09199
  23   35945.0    278.2   0.292573489   2.67961   1.24119  -0.93659  -0.51171
  24   36186.5    276.3   0.000300673   0.00274   0.02656   0.01139  -0.04360
  25   36228.3    276.0   0.204289720   1.85641   1.06952  -0.37441  -0.75654
  26   36489.4    274.1   0.290029555   2.61668  -1.40469   0.71515   0.36344
  27   36783.0    271.9   0.002909343   0.02604   0.05171  -0.00206  -0.15284
  28   37215.3    268.7   0.064160922   0.56758   0.57444  -0.28760  -0.39356
  29   37254.6    268.4   0.070987861   0.62731   0.48961  -0.33839   0.52257
  30   37887.1    263.9   0.090721047   0.78830  -0.63784   0.49269  -0.37245
  31   38202.1    261.8   0.014194827   0.12233   0.07922   0.18584   0.28550
  32   38408.8    260.4   0.267289938   2.29101   0.77226  -0.74187  -1.06970
  33   38837.0    257.5   0.013349407   0.11316  -0.23898   0.14408   0.18786
  34   38868.0    257.3   0.001217684   0.01031  -0.08648   0.05309  -0.00393
  35   39038.7    256.2   0.029884174   0.25201  -0.26373   0.22030  -0.36596
  36   39326.9    254.3   0.011502288   0.09629  -0.05553   0.24970   0.17566
  37   39400.0    253.8   0.013733942   0.11476  -0.18165   0.12640  -0.25648
  38   40006.6    250.0   0.146418222   1.20487  -0.31159   0.09926  -1.04782
  39   40229.9    248.6   0.016890941   0.13822   0.12109  -0.23210   0.26399

FINAL SINGLE POINT ENERGY     -3317.222517606109

DIPOLE MOMENT
-------------
                                X             Y             Z
Electronic contribution:     -7.84992       5.90168     -47.35391
Nuclear contribution   :     10.01075      -6.84646      50.70522
                        -----------------------------------------
Total Dipole Moment    :      2.16083      -0.94478       3.35131
                        -----------------------------------------
Magnitude (a.u.)       :      4.09793
Magnitude (Debye)      :     10.41611

Rotational constants in cm-1:     0.001360     0.000257     0.000219
Rotational constants in MHz :    40.780514     7.698829     6.558568

                             ****ORCA TERMINATED NORMALLY****
TOTAL RUN TIME: 0 days 0 hours 8 minutes 25 seconds 83 msec
