                         Program Version 4.2.0 -  RELEASE  -
|  1> # ORCA input file
|  2> # SCF done       -200.504860500739          0.000874102516
|  3> ! CAM-B3LYP def2-SVP def2/J RIJCOSX Grid4 TightSCF
|  4> %maxcore 5000
|  5> %tddft
|  6>     Mode sTDDFT
|  7>     Ethresh 5.0
|  8>     maxcore 5000
|  9> end
| 10>
| 11> %pal
| 12>   nprocs 6
| 13>   end
| 14> * xyz 0 1
| 15>    C        4.59223        -0.25786        -1.49595
| 16>    C        3.20939        -0.33248        -1.58543
| 17>    C        2.49427        -1.55974        -1.30517
| 18>    N        1.15022        -1.56025        -1.32608
| 19>    C        0.51273        -0.46852        -1.66211
| 20>    C        1.22901         0.72870        -2.01824
| 21>    N        2.53048         0.77740        -1.95566
| 22>    C        0.50398         1.87739        -2.42738
| 23>    N       -0.12076         2.77898        -2.75684
| 24>    C       -0.90347        -0.47265        -1.67008
| 25>    N       -2.04878        -0.44604        -1.69967
| 26>    C        3.17081        -2.74933        -0.95838
| 27>    C        4.56986        -2.64873        -0.85008
| 28>    C        5.27254        -1.40946        -1.12372
| 29>    N        6.59798        -1.54882        -0.98862
| 30>    S        6.91893        -3.06089        -0.57753
| 31>    N        5.42367        -3.63232        -0.53910
| 32>    C        2.47604        -4.00541        -0.73440
| 33>    C        2.95305        -4.90348         0.23316
| 34>    C        2.29955        -6.09282         0.42819
| 35>    C        1.16498        -6.42477        -0.33441
| 36>    C        0.69008        -5.54544        -1.29765
| 37>    C        1.34580        -4.34708        -1.48910
| 38>    C        0.70265        -7.73075         0.07390
| 39>    C        1.54776        -8.20860         1.09110
| 40>    C        2.62952        -7.20007         1.40176
| 41>    C        4.03361        -7.77400         1.13570
| 42>    C        4.21128        -8.25997        -0.29747
| 43>    C        2.53947        -6.71023         2.85906
| 44>    C        1.17398        -6.12859         3.20488
| 45>    C        1.33508        -9.44022         1.65876
| 46>    C        0.26339       -10.23353         1.21708
| 47>    C       -0.56845        -9.74263         0.19962
| 48>    C       -0.35999        -8.50554        -0.37135
| 49>    C        0.01001       -11.53280         1.78954
| 50>    N        0.54016       -11.91929         3.00235
| 51>    C        0.12025       -13.18334         3.27797
| 52>    C        0.17824       -14.21384         4.21253
| 53>    C       -0.58275       -15.26179         3.68351
| 54>    N       -1.08985       -14.88242         2.45769
| 55>    C       -0.67756       -13.61529         2.19311
| 56>    C       -0.74987       -12.57772         1.26415
| 57>    C       -0.82406       -16.52464         4.28974
| 58>    C       -1.54854       -17.53374         3.75717
| 59>    C       -1.82102       -18.81173         4.36325
| 60>    C       -2.54717       -19.76067         3.62186
| 61>    C       -2.83636       -20.98474         4.16838
| 62>    C       -2.41633       -21.30151         5.47313
| 63>    C       -1.69503       -20.37640         6.21699
| 64>    C       -1.40479       -19.14928         5.66052
| 65>    C       -2.87076       -22.63439         5.79271
| 66>    C       -3.57004       -23.14639         4.68412
| 67>    C       -3.59161       -22.14146         3.55666
| 68>    C       -5.03354       -21.74769         3.18748
| 69>    C       -5.82231       -21.21400         4.37698
| 70>    C       -2.86905       -22.68507         2.30972
| 71>    C       -1.42856       -23.09494         2.59166
| 72>    C       -4.12613       -24.39870         4.72181
| 73>    C       -3.98824       -25.18018         5.87971
| 74>    C       -3.29158       -24.65979         6.97886
| 75>    C       -2.73514       -23.39809         6.94425
| 76>    C       -4.58638       -26.50276         5.93104
| 77>    C       -3.98953       -27.57976         6.62189
| 78>    C       -4.62961       -28.87556         6.70827
| 79>    N       -4.04773       -29.87246         7.41363
| 80>    C       -2.89159       -29.65513         7.97571
| 81>    C       -2.21649       -28.39257         7.82178
| 82>    N       -2.77333       -27.40635         7.16725
| 83>    C       -0.92831       -28.20919         8.38082
| 84>    N        0.10718       -28.09031         8.85752
| 85>    C       -2.27961       -30.68297         8.73838
| 86>    N       -1.75103       -31.48335         9.36455
| 87>    C       -5.84520       -29.13117         6.08966
| 88>    C       -6.43204       -28.09323         5.37841
| 89>    C       -5.80761       -26.78672         5.29263
| 90>    N       -6.56006       -25.93498         4.58447
| 91>    S       -7.87903       -26.69129         4.08352
| 92>    N       -7.59885       -28.13121         4.72141
| 93>    H        5.10741         0.66055        -1.71878
| 94>    H        3.81750        -4.64120         0.82163
| 95>    H       -0.17238        -5.79555        -1.89661
| 96>    H        0.99913        -3.67053        -2.25340
| 97>    H        4.21076        -8.60253         1.82522
| 98>    H        4.77222        -6.99829         1.34671
| 99>    H        3.48196        -9.03110        -0.53638
|100>    H        5.20766        -8.67493        -0.43039
|101>    H        4.08500        -7.43755        -0.99756
|102>    H        3.30756        -5.95079         3.01864
|103>    H        2.75719        -7.54843         3.52507
|104>    H        0.94747        -5.27681         2.56778
|105>    H        1.15948        -5.79693         4.24059
|106>    H        0.39201        -6.87284         3.07026
|107>    H        2.00649        -9.80514         2.42283
|108>    H       -1.40033       -10.34517        -0.12886
|109>    H       -1.01585        -8.14484        -1.14922
|110>    H        1.07381       -11.32403         3.61054
|111>    H        0.69154       -14.23266         5.15277
|112>    H       -1.67546       -15.45491         1.87635
|113>    H       -1.25651       -12.57928         0.32007
|114>    H       -0.36825       -16.64106         5.26205
|115>    H       -1.98358       -17.40420         2.77345
|116>    H       -2.87138       -19.51436         2.62010
|117>    H       -1.36766       -20.61293         7.21840
|118>    H       -0.84952       -18.43066         6.24269
|119>    H       -5.54191       -22.62509         2.78297
|120>    H       -4.99906       -20.98817         2.40328
|121>    H       -5.90477       -21.97276         5.15160
|122>    H       -6.82483       -20.93111         4.06447
|123>    H       -5.33394       -20.33957         4.80189
|124>    H       -2.88190       -21.91559         1.53464
|125>    H       -3.42448       -23.54691         1.93404
|126>    H       -0.84781       -22.24441         2.94187
|127>    H       -0.96464       -23.47891         1.68599
|128>    H       -1.39162       -23.87104         3.35280
|129>    H       -4.65333       -24.79806         3.87039
|130>    H       -3.21385       -25.24810         7.87888
|131>    H       -2.21231       -23.01045         7.80546
|132>    H       -6.31025       -30.09829         6.17293
|133> *
|134>
|135>                          ****END OF INPUT****

CARTESIAN COORDINATES (ANGSTROEM)
---------------------------------
  C      4.592230   -0.257860   -1.495950
  C      3.209390   -0.332480   -1.585430
  C      2.494270   -1.559740   -1.305170
  N      1.150220   -1.560250   -1.326080
  C      0.512730   -0.468520   -1.662110
  C      1.229010    0.728700   -2.018240
  N      2.530480    0.777400   -1.955660
  C      0.503980    1.877390   -2.427380
  N     -0.120760    2.778980   -2.756840
  C     -0.903470   -0.472650   -1.670080
  N     -2.048780   -0.446040   -1.699670
  C      3.170810   -2.749330   -0.958380
  C      4.569860   -2.648730   -0.850080
  C      5.272540   -1.409460   -1.123720
  N      6.597980   -1.548820   -0.988620
  S      6.918930   -3.060890   -0.577530
  N      5.423670   -3.632320   -0.539100
  C      2.476040   -4.005410   -0.734400
  C      2.953050   -4.903480    0.233160
  C      2.299550   -6.092820    0.428190
  C      1.164980   -6.424770   -0.334410
  C      0.690080   -5.545440   -1.297650
  C      1.345800   -4.347080   -1.489100
  C      0.702650   -7.730750    0.073900
  C      1.547760   -8.208600    1.091100
  C      2.629520   -7.200070    1.401760
  C      4.033610   -7.774000    1.135700
  C      4.211280   -8.259970   -0.297470
  C      2.539470   -6.710230    2.859060
  C      1.173980   -6.128590    3.204880
  C      1.335080   -9.440220    1.658760
  C      0.263390  -10.233530    1.217080
  C     -0.568450   -9.742630    0.199620
  C     -0.359990   -8.505540   -0.371350
  C      0.010010  -11.532800    1.789540
  N      0.540160  -11.919290    3.002350
  C      0.120250  -13.183340    3.277970
  C      0.178240  -14.213840    4.212530
  C     -0.582750  -15.261790    3.683510
  N     -1.089850  -14.882420    2.457690
  C     -0.677560  -13.615290    2.193110
  C     -0.749870  -12.577720    1.264150
  C     -0.824060  -16.524640    4.289740
  C     -1.548540  -17.533740    3.757170
  C     -1.821020  -18.811730    4.363250
  C     -2.547170  -19.760670    3.621860
  C     -2.836360  -20.984740    4.168380
  C     -2.416330  -21.301510    5.473130
  C     -1.695030  -20.376400    6.216990
  C     -1.404790  -19.149280    5.660520
  C     -2.870760  -22.634390    5.792710
  C     -3.570040  -23.146390    4.684120
  C     -3.591610  -22.141460    3.556660
  C     -5.033540  -21.747690    3.187480
  C     -5.822310  -21.214000    4.376980
  C     -2.869050  -22.685070    2.309720
  C     -1.428560  -23.094940    2.591660
  C     -4.126130  -24.398700    4.721810
  C     -3.988240  -25.180180    5.879710
  C     -3.291580  -24.659790    6.978860
  C     -2.735140  -23.398090    6.944250
  C     -4.586380  -26.502760    5.931040
  C     -3.989530  -27.579760    6.621890
  C     -4.629610  -28.875560    6.708270
  N     -4.047730  -29.872460    7.413630
  C     -2.891590  -29.655130    7.975710
  C     -2.216490  -28.392570    7.821780
  N     -2.773330  -27.406350    7.167250
  C     -0.928310  -28.209190    8.380820
  N      0.107180  -28.090310    8.857520
  C     -2.279610  -30.682970    8.738380
  N     -1.751030  -31.483350    9.364550
  C     -5.845200  -29.131170    6.089660
  C     -6.432040  -28.093230    5.378410
  C     -5.807610  -26.786720    5.292630
  N     -6.560060  -25.934980    4.584470
  S     -7.879030  -26.691290    4.083520
  N     -7.598850  -28.131210    4.721410
  H      5.107410    0.660550   -1.718780
  H      3.817500   -4.641200    0.821630
  H     -0.172380   -5.795550   -1.896610
  H      0.999130   -3.670530   -2.253400
  H      4.210760   -8.602530    1.825220
  H      4.772220   -6.998290    1.346710
  H      3.481960   -9.031100   -0.536380
  H      5.207660   -8.674930   -0.430390
  H      4.085000   -7.437550   -0.997560
  H      3.307560   -5.950790    3.018640
  H      2.757190   -7.548430    3.525070
  H      0.947470   -5.276810    2.567780
  H      1.159480   -5.796930    4.240590
  H      0.392010   -6.872840    3.070260
  H      2.006490   -9.805140    2.422830
  H     -1.400330  -10.345170   -0.128860
  H     -1.015850   -8.144840   -1.149220
  H      1.073810  -11.324030    3.610540
  H      0.691540  -14.232660    5.152770
  H     -1.675460  -15.454910    1.876350
  H     -1.256510  -12.579280    0.320070
  H     -0.368250  -16.641060    5.262050
  H     -1.983580  -17.404200    2.773450
  H     -2.871380  -19.514360    2.620100
  H     -1.367660  -20.612930    7.218400
  H     -0.849520  -18.430660    6.242690
  H     -5.541910  -22.625090    2.782970
  H     -4.999060  -20.988170    2.403280
  H     -5.904770  -21.972760    5.151600
  H     -6.824830  -20.931110    4.064470
  H     -5.333940  -20.339570    4.801890
  H     -2.881900  -21.915590    1.534640
  H     -3.424480  -23.546910    1.934040
  H     -0.847810  -22.244410    2.941870
  H     -0.964640  -23.478910    1.685990
  H     -1.391620  -23.871040    3.352800
  H     -4.653330  -24.798060    3.870390
  H     -3.213850  -25.248100    7.878880
  H     -2.212310  -23.010450    7.805460
  H     -6.310250  -30.098290    6.172930

 Total Charge           Charge          ....    0
 Multiplicity           Mult            ....    1
 Number of Electrons    NEL             ....  542
 Basis Dimension        Dim             .... 1300

ORBITAL ENERGIES
----------------

  NO   OCC          E(Eh)            E(eV)
   0   2.0000     -89.049625     -2423.1635
   1   2.0000     -89.048177     -2423.1241
   2   2.0000     -14.460940      -393.5022
   3   2.0000     -14.459586      -393.4654
   4   2.0000     -14.459515      -393.4634
   5   2.0000     -14.458194      -393.4275
   6   2.0000     -14.456458      -393.3802
   7   2.0000     -14.455031      -393.3414
   8   2.0000     -14.453173      -393.2908
   9   2.0000     -14.452597      -393.2751
  10   2.0000     -14.451651      -393.2494
  11   2.0000     -14.449948      -393.2031
  12   2.0000     -14.428875      -392.6296
  13   2.0000     -14.427702      -392.5977
  14   2.0000     -14.427388      -392.5892
  15   2.0000     -14.426162      -392.5558
  16   2.0000     -10.381337      -282.4905
  17   2.0000     -10.379909      -282.4517
  18   2.0000     -10.378552      -282.4148
  19   2.0000     -10.377129      -282.3760
  20   2.0000     -10.346226      -281.5351
  21   2.0000     -10.346000      -281.5290
  22   2.0000     -10.344849      -281.4977
  23   2.0000     -10.344538      -281.4892
  24   2.0000     -10.343988      -281.4742
  25   2.0000     -10.342901      -281.4446
  26   2.0000     -10.342470      -281.4329
  27   2.0000     -10.341420      -281.4044
  28   2.0000     -10.322090      -280.8783
  29   2.0000     -10.321795      -280.8703
  30   2.0000     -10.320962      -280.8477
  31   2.0000     -10.320663      -280.8395
  32   2.0000     -10.320646      -280.8390
  33   2.0000     -10.319719      -280.8138
  34   2.0000     -10.302778      -280.3528
  35   2.0000     -10.301221      -280.3105
  36   2.0000     -10.299696      -280.2690
  37   2.0000     -10.296704      -280.1876
  38   2.0000     -10.288455      -279.9631
  39   2.0000     -10.286439      -279.9082
  40   2.0000     -10.286176      -279.9011
  41   2.0000     -10.285059      -279.8707
  42   2.0000     -10.283456      -279.8271
  43   2.0000     -10.280556      -279.7481
  44   2.0000     -10.277892      -279.6757
  45   2.0000     -10.277107      -279.6543
  46   2.0000     -10.277080      -279.6536
  47   2.0000     -10.275903      -279.6215
  48   2.0000     -10.275770      -279.6179
  49   2.0000     -10.274804      -279.5916
  50   2.0000     -10.274406      -279.5808
  51   2.0000     -10.274285      -279.5775
  52   2.0000     -10.273953      -279.5685
  53   2.0000     -10.273834      -279.5652
  54   2.0000     -10.272180      -279.5202
  55   2.0000     -10.272145      -279.5193
  56   2.0000     -10.272085      -279.5176
  57   2.0000     -10.270928      -279.4862
  58   2.0000     -10.270260      -279.4680
  59   2.0000     -10.270070      -279.4628
  60   2.0000     -10.270063      -279.4626
  61   2.0000     -10.269280      -279.4413
  62   2.0000     -10.268260      -279.4136
  63   2.0000     -10.267197      -279.3846
  64   2.0000     -10.266907      -279.3767
  65   2.0000     -10.266850      -279.3752
  66   2.0000     -10.266828      -279.3746
  67   2.0000     -10.266463      -279.3646
  68   2.0000     -10.266211      -279.3578
  69   2.0000     -10.265615      -279.3416
  70   2.0000     -10.263111      -279.2735
  71   2.0000     -10.262758      -279.2638
  72   2.0000     -10.259321      -279.1703
  73   2.0000     -10.257758      -279.1278
  74   2.0000     -10.249128      -278.8930
  75   2.0000     -10.248003      -278.8623
  76   2.0000     -10.245756      -278.8012
  77   2.0000     -10.245517      -278.7947
  78   2.0000      -8.140935      -221.5261
  79   2.0000      -8.139480      -221.4865
  80   2.0000      -6.111781      -166.3100
  81   2.0000      -6.110317      -166.2702
  82   2.0000      -6.104184      -166.1033
  83   2.0000      -6.104011      -166.0986
  84   2.0000      -6.102737      -166.0639
  85   2.0000      -6.102565      -166.0592
  86   2.0000      -1.143800       -31.1244
  87   2.0000      -1.142367       -31.0854
  88   2.0000      -1.118020       -30.4229
  89   2.0000      -1.116630       -30.3851
  90   2.0000      -1.082936       -29.4682
  91   2.0000      -1.046977       -28.4897
  92   2.0000      -1.045253       -28.4428
  93   2.0000      -1.043893       -28.4058
  94   2.0000      -1.012298       -27.5460
  95   2.0000      -1.011017       -27.5112
  96   2.0000      -1.002469       -27.2786
  97   2.0000      -1.001165       -27.2431
  98   2.0000      -0.997263       -27.1369
  99   2.0000      -0.995710       -27.0946
 100   2.0000      -0.989912       -26.9369
 101   2.0000      -0.987208       -26.8633
 102   2.0000      -0.976388       -26.5689
 103   2.0000      -0.974779       -26.5251
 104   2.0000      -0.944796       -25.7092
 105   2.0000      -0.943337       -25.6695
 106   2.0000      -0.919679       -25.0257
 107   2.0000      -0.919256       -25.0142
 108   2.0000      -0.905599       -24.6426
 109   2.0000      -0.904155       -24.6033
 110   2.0000      -0.892264       -24.2797
 111   2.0000      -0.891165       -24.2498
 112   2.0000      -0.884423       -24.0664
 113   2.0000      -0.873996       -23.7826
 114   2.0000      -0.863566       -23.4988
 115   2.0000      -0.856965       -23.3192
 116   2.0000      -0.848276       -23.0828
 117   2.0000      -0.839863       -22.8538
 118   2.0000      -0.836710       -22.7680
 119   2.0000      -0.835963       -22.7477
 120   2.0000      -0.834420       -22.7057
 121   2.0000      -0.833495       -22.6806
 122   2.0000      -0.833212       -22.6728
 123   2.0000      -0.831819       -22.6349
 124   2.0000      -0.830408       -22.5966
 125   2.0000      -0.820794       -22.3349
 126   2.0000      -0.807220       -21.9656
 127   2.0000      -0.794001       -21.6059
 128   2.0000      -0.790077       -21.4991
 129   2.0000      -0.770673       -20.9711
 130   2.0000      -0.763449       -20.7745
 131   2.0000      -0.760629       -20.6978
 132   2.0000      -0.750434       -20.4204
 133   2.0000      -0.740604       -20.1529
 134   2.0000      -0.735142       -20.0042
 135   2.0000      -0.727202       -19.7882
 136   2.0000      -0.719728       -19.5848
 137   2.0000      -0.715489       -19.4694
 138   2.0000      -0.706954       -19.2372
 139   2.0000      -0.701660       -19.0931
 140   2.0000      -0.699396       -19.0315
 141   2.0000      -0.691205       -18.8086
 142   2.0000      -0.689462       -18.7612
 143   2.0000      -0.687899       -18.7187
 144   2.0000      -0.686154       -18.6712
 145   2.0000      -0.678534       -18.4638
 146   2.0000      -0.676886       -18.4190
 147   2.0000      -0.673782       -18.3345
 148   2.0000      -0.670160       -18.2360
 149   2.0000      -0.666637       -18.1401
 150   2.0000      -0.664070       -18.0703
 151   2.0000      -0.662052       -18.0154
 152   2.0000      -0.655718       -17.8430
 153   2.0000      -0.647690       -17.6245
 154   2.0000      -0.646609       -17.5951
 155   2.0000      -0.644221       -17.5302
 156   2.0000      -0.633483       -17.2380
 157   2.0000      -0.630788       -17.1646
 158   2.0000      -0.625251       -17.0139
 159   2.0000      -0.620259       -16.8781
 160   2.0000      -0.604114       -16.4388
 161   2.0000      -0.599456       -16.3120
 162   2.0000      -0.597306       -16.2535
 163   2.0000      -0.595299       -16.1989
 164   2.0000      -0.592370       -16.1192
 165   2.0000      -0.581811       -15.8319
 166   2.0000      -0.578347       -15.7376
 167   2.0000      -0.578225       -15.7343
 168   2.0000      -0.572417       -15.5762
 169   2.0000      -0.564532       -15.3617
 170   2.0000      -0.557998       -15.1839
 171   2.0000      -0.556497       -15.1430
 172   2.0000      -0.555136       -15.1060
 173   2.0000      -0.549466       -14.9517
 174   2.0000      -0.545694       -14.8491
 175   2.0000      -0.542879       -14.7725
 176   2.0000      -0.542460       -14.7611
 177   2.0000      -0.541206       -14.7270
 178   2.0000      -0.540078       -14.6963
 179   2.0000      -0.534701       -14.5500
 180   2.0000      -0.533924       -14.5288
 181   2.0000      -0.531391       -14.4599
 182   2.0000      -0.530301       -14.4302
 183   2.0000      -0.527903       -14.3650
 184   2.0000      -0.524569       -14.2742
 185   2.0000      -0.521094       -14.1797
 186   2.0000      -0.519702       -14.1418
 187   2.0000      -0.517802       -14.0901
 188   2.0000      -0.516899       -14.0655
 189   2.0000      -0.515300       -14.0220
 190   2.0000      -0.514958       -14.0127
 191   2.0000      -0.511437       -13.9169
 192   2.0000      -0.504322       -13.7233
 193   2.0000      -0.502652       -13.6779
 194   2.0000      -0.494533       -13.4569
 195   2.0000      -0.488874       -13.3029
 196   2.0000      -0.486662       -13.2427
 197   2.0000      -0.485887       -13.2217
 198   2.0000      -0.484381       -13.1807
 199   2.0000      -0.483685       -13.1617
 200   2.0000      -0.482838       -13.1387
 201   2.0000      -0.480413       -13.0727
 202   2.0000      -0.477972       -13.0063
 203   2.0000      -0.476669       -12.9708
 204   2.0000      -0.476148       -12.9566
 205   2.0000      -0.473961       -12.8971
 206   2.0000      -0.472685       -12.8624
 207   2.0000      -0.470331       -12.7984
 208   2.0000      -0.469040       -12.7632
 209   2.0000      -0.464453       -12.6384
 210   2.0000      -0.461581       -12.5602
 211   2.0000      -0.456505       -12.4221
 212   2.0000      -0.454645       -12.3715
 213   2.0000      -0.453187       -12.3319
 214   2.0000      -0.452425       -12.3111
 215   2.0000      -0.451337       -12.2815
 216   2.0000      -0.451056       -12.2739
 217   2.0000      -0.448969       -12.2171
 218   2.0000      -0.447623       -12.1804
 219   2.0000      -0.444651       -12.0996
 220   2.0000      -0.443417       -12.0660
 221   2.0000      -0.442485       -12.0406
 222   2.0000      -0.441578       -12.0159
 223   2.0000      -0.440723       -11.9927
 224   2.0000      -0.435577       -11.8527
 225   2.0000      -0.435264       -11.8441
 226   2.0000      -0.433145       -11.7865
 227   2.0000      -0.432148       -11.7593
 228   2.0000      -0.431677       -11.7465
 229   2.0000      -0.429963       -11.6999
 230   2.0000      -0.428282       -11.6541
 231   2.0000      -0.427351       -11.6288
 232   2.0000      -0.424783       -11.5589
 233   2.0000      -0.424210       -11.5434
 234   2.0000      -0.418797       -11.3960
 235   2.0000      -0.414950       -11.2914
 236   2.0000      -0.414159       -11.2698
 237   2.0000      -0.413384       -11.2487
 238   2.0000      -0.411871       -11.2076
 239   2.0000      -0.411306       -11.1922
 240   2.0000      -0.409451       -11.1417
 241   2.0000      -0.409396       -11.1402
 242   2.0000      -0.407627       -11.0921
 243   2.0000      -0.406748       -11.0682
 244   2.0000      -0.406560       -11.0631
 245   2.0000      -0.396274       -10.7832
 246   2.0000      -0.395153       -10.7526
 247   2.0000      -0.392385       -10.6773
 248   2.0000      -0.389252       -10.5921
 249   2.0000      -0.387553       -10.5459
 250   2.0000      -0.386663       -10.5216
 251   2.0000      -0.383192       -10.4272
 252   2.0000      -0.381863       -10.3910
 253   2.0000      -0.378989       -10.3128
 254   2.0000      -0.370321       -10.0769
 255   2.0000      -0.358120        -9.7449
 256   2.0000      -0.357231        -9.7208
 257   2.0000      -0.354733        -9.6528
 258   2.0000      -0.347059        -9.4440
 259   2.0000      -0.345707        -9.4072
 260   2.0000      -0.335860        -9.1392
 261   2.0000      -0.323877        -8.8131
 262   2.0000      -0.319581        -8.6962
 263   2.0000      -0.315844        -8.5945
 264   2.0000      -0.313745        -8.5374
 265   2.0000      -0.312775        -8.5110
 266   2.0000      -0.299511        -8.1501
 267   2.0000      -0.283857        -7.7241
 268   2.0000      -0.276814        -7.5325
 269   2.0000      -0.261124        -7.1055
 270   2.0000      -0.215564        -5.8658
 271   0.0000      -0.115763        -3.1501
 272   0.0000      -0.114203        -3.1076
 273   0.0000      -0.048840        -1.3290
 274   0.0000      -0.047164        -1.2834
 275   0.0000      -0.038800        -1.0558

MULLIKEN ATOMIC CHARGES
-----------------------
   0 C :   -0.083386
   1 C :    0.028581
   2 C :   -0.074754
   3 N :    0.048015
   4 C :   -0.140615
   5 C :   -0.148086
   6 N :    0.052610
   7 C :   -0.194925
   8 N :    0.231699
   9 C :   -0.201304
  10 N :    0.229538
  11 C :    0.137224
  12 C :   -0.027544
  13 C :    0.103963
  14 N :   -0.268118
  15 S :    0.545791
  16 N :   -0.286835
  17 C :   -0.001222
  18 C :   -0.056680
  19 C :   -0.004439
  20 C :    0.128817
  21 C :   -0.067250
  22 C :    0.041450
  23 C :    0.100695
  24 C :    0.011331
  25 C :   -0.136149
  26 C :    0.068980
  27 C :    0.025185
  28 C :    0.069958
  29 C :    0.023372
  30 C :   -0.127617
  31 C :    0.140622
  32 C :   -0.025464
  33 C :   -0.038151
  34 C :    0.065374
  35 N :   -0.034409
  36 C :    0.115122
  37 C :   -0.176634
  38 C :    0.073135
  39 N :   -0.034069
  40 C :    0.106726
  41 C :   -0.174958
  42 C :    0.067141
  43 C :   -0.035252
  44 C :    0.129755
  45 C :   -0.115320
  46 C :    0.022459
  47 C :    0.100861
  48 C :   -0.037335
  49 C :   -0.020551
  50 C :    0.129892
  51 C :   -0.007349
  52 C :   -0.139341
  53 C :    0.067921
  54 C :    0.027238
  55 C :    0.071393
  56 C :    0.022651
  57 C :   -0.053583
  58 C :   -0.003398
  59 C :    0.038911
  60 C :   -0.066122
  61 C :    0.141963
  62 C :   -0.072451
  63 C :    0.022541
  64 N :    0.054989
  65 C :   -0.147620
  66 C :   -0.148779
  67 N :    0.052369
  68 C :   -0.197724
  69 N :    0.232124
  70 C :   -0.198473
  71 N :    0.232518
  72 C :   -0.082547
  73 C :    0.108534
  74 C :   -0.036527
  75 N :   -0.282323
  76 S :    0.545541
  77 N :   -0.272319
  78 H :   -0.018600
  79 H :   -0.029018
  80 H :   -0.032781
  81 H :   -0.023229
  82 H :   -0.005169
  83 H :   -0.001329
  84 H :    0.022880
  85 H :    0.006505
  86 H :    0.024038
  87 H :   -0.002928
  88 H :   -0.008585
  89 H :    0.024125
  90 H :    0.008596
  91 H :    0.022740
  92 H :   -0.061273
  93 H :   -0.029890
  94 H :   -0.034036
  95 H :    0.121437
  96 H :   -0.041622
  97 H :    0.121027
  98 H :   -0.040326
  99 H :   -0.026198
 100 H :   -0.060824
 101 H :   -0.048111
 102 H :   -0.037017
 103 H :   -0.031324
 104 H :   -0.002710
 105 H :   -0.004064
 106 H :    0.023282
 107 H :    0.005041
 108 H :    0.020978
 109 H :   -0.003568
 110 H :   -0.004740
 111 H :    0.023749
 112 H :    0.007647
 113 H :    0.023616
 114 H :   -0.029999
 115 H :   -0.023738
 116 H :   -0.033158
 117 H :   -0.018792
Sum of atomic charges:   -0.0000000

LOEWDIN ATOMIC CHARGES
----------------------
   0 C :   -0.011453
   1 C :   -0.009085
   2 C :   -0.016747
   3 N :    0.012534
   4 C :   -0.036731
   5 C :   -0.026587
   6 N :   -0.001064
   7 C :   -0.034737
   8 N :   -0.003599
   9 C :   -0.037259
  10 N :   -0.008724
  11 C :    0.011122
  12 C :   -0.044675
  13 C :   -0.046706
  14 N :   -0.287656
  15 S :    0.686912
  16 N :   -0.282125
  17 C :   -0.029897
  18 C :   -0.000577
  19 C :   -0.004357
  20 C :    0.000346
  21 C :   -0.025834
  22 C :    0.007503
  23 C :   -0.029678
  24 C :    0.010555
  25 C :   -0.035276
  26 C :   -0.011816
  27 C :   -0.057472
  28 C :   -0.011962
  29 C :   -0.057979
  30 C :   -0.039311
  31 C :   -0.016384
  32 C :   -0.017581
  33 C :   -0.010377
  34 C :    0.001493
  35 N :    0.069521
  36 C :   -0.030471
  37 C :   -0.090706
  38 C :   -0.008025
  39 N :    0.068182
  40 C :   -0.020788
  41 C :   -0.099203
  42 C :   -0.017776
  43 C :   -0.052105
  44 C :   -0.013156
  45 C :   -0.029513
  46 C :    0.006953
  47 C :   -0.028694
  48 C :   -0.011547
  49 C :   -0.020530
  50 C :    0.000957
  51 C :   -0.003930
  52 C :   -0.035299
  53 C :   -0.012098
  54 C :   -0.057560
  55 C :   -0.011598
  56 C :   -0.057905
  57 C :   -0.000449
  58 C :   -0.030328
  59 C :    0.007128
  60 C :   -0.026136
  61 C :    0.011874
  62 C :   -0.017105
  63 C :   -0.009202
  64 N :   -0.001134
  65 C :   -0.026803
  66 C :   -0.037387
  67 N :    0.013007
  68 C :   -0.037217
  69 N :   -0.008994
  70 C :   -0.034683
  71 N :   -0.004168
  72 C :   -0.012285
  73 C :   -0.046298
  74 C :   -0.045205
  75 N :   -0.281203
  76 S :    0.686512
  77 N :   -0.288651
  78 H :    0.047697
  79 H :    0.023706
  80 H :    0.028439
  81 H :    0.026057
  82 H :    0.018209
  83 H :    0.020661
  84 H :    0.025919
  85 H :    0.023273
  86 H :    0.026349
  87 H :    0.019811
  88 H :    0.017258
  89 H :    0.026440
  90 H :    0.023804
  91 H :    0.025746
  92 H :    0.015683
  93 H :    0.027040
  94 H :    0.028184
  95 H :    0.084515
  96 H :    0.022380
  97 H :    0.085328
  98 H :    0.021762
  99 H :    0.032355
 100 H :    0.014415
 101 H :    0.020757
 102 H :    0.027170
 103 H :    0.024296
 104 H :    0.020086
 105 H :    0.018653
 106 H :    0.026134
 107 H :    0.022585
 108 H :    0.025466
 109 H :    0.019149
 110 H :    0.018942
 111 H :    0.026374
 112 H :    0.023562
 113 H :    0.025900
 114 H :    0.023467
 115 H :    0.025834
 116 H :    0.028239
 117 H :    0.047553

  Mayer bond orders larger than 0.100000
B(  0-C ,  1-C ) :   1.3166 B(  0-C , 11-C ) :   0.1393 B(  0-C , 13-C ) :   1.1793
B(  0-C , 78-H ) :   1.0591 B(  1-C ,  2-C ) :   1.1140 B(  1-C ,  6-N ) :   1.3292
B(  2-C ,  3-N ) :   1.4169 B(  2-C , 11-C ) :   1.3019 B(  3-N ,  4-C ) :   1.7532
B(  4-C ,  5-C ) :   1.1766 B(  4-C ,  9-C ) :   1.1473 B(  5-C ,  6-N ) :   1.7964
B(  5-C ,  7-C ) :   1.1445 B(  7-C ,  8-N ) :   3.0522 B(  9-C , 10-N ) :   3.0483
B( 11-C , 12-C ) :   1.2575 B( 11-C , 17-C ) :   1.0178 B( 12-C , 13-C ) :   1.1203
B( 12-C , 16-N ) :   1.4758 B( 13-C , 14-N ) :   1.4584 B( 14-N , 15-S ) :   1.3078
B( 14-N , 16-N ) :   0.1618 B( 15-S , 16-N ) :   1.2976 B( 17-C , 18-C ) :   1.3012
B( 17-C , 22-C ) :   1.3532 B( 18-C , 19-C ) :   1.4075 B( 18-C , 79-H ) :   0.9959
B( 19-C , 20-C ) :   1.3565 B( 19-C , 25-C ) :   0.9109 B( 20-C , 21-C ) :   1.3303
B( 20-C , 23-C ) :   0.9966 B( 21-C , 22-C ) :   1.3942 B( 21-C , 80-H ) :   0.9945
B( 22-C , 81-H ) :   0.9785 B( 23-C , 24-C ) :   1.3671 B( 23-C , 33-C ) :   1.3246
B( 24-C , 25-C ) :   0.9136 B( 24-C , 30-C ) :   1.4111 B( 25-C , 26-C ) :   1.0387
B( 25-C , 28-C ) :   1.0360 B( 26-C , 27-C ) :   1.1024 B( 26-C , 82-H ) :   0.9393
B( 26-C , 83-H ) :   0.9379 B( 27-C , 84-H ) :   0.9649 B( 27-C , 85-H ) :   0.9638
B( 27-C , 86-H ) :   0.9634 B( 28-C , 29-C ) :   1.1008 B( 28-C , 87-H ) :   0.9394
B( 28-C , 88-H ) :   0.9386 B( 29-C , 89-H ) :   0.9645 B( 29-C , 90-H ) :   0.9639
B( 29-C , 91-H ) :   0.9643 B( 30-C , 31-C ) :   1.2809 B( 30-C , 92-H ) :   0.9958
B( 31-C , 32-C ) :   1.3602 B( 31-C , 34-C ) :   1.0064 B( 32-C , 33-C ) :   1.3910
B( 32-C , 93-H ) :   0.9875 B( 33-C , 94-H ) :   0.9928 B( 34-C , 35-N ) :   1.2147
B( 34-C , 41-C ) :   1.4351 B( 35-N , 36-C ) :   1.1553 B( 35-N , 95-H ) :   0.9318
B( 36-C , 37-C ) :   1.2337 B( 36-C , 40-C ) :   1.3351 B( 37-C , 38-C ) :   1.3678
B( 37-C , 96-H ) :   1.0396 B( 38-C , 39-N ) :   1.1976 B( 38-C , 42-C ) :   1.1521
B( 39-N , 40-C ) :   1.1663 B( 39-N , 97-H ) :   0.9341 B( 40-C , 41-C ) :   1.2373
B( 41-C , 98-H ) :   1.0281 B( 42-C , 43-C ) :   1.6284 B( 42-C , 99-H ) :   0.9541
B( 43-C , 44-C ) :   1.0907 B( 43-C ,100-H ) :   0.9815 B( 44-C , 45-C ) :   1.2807
B( 44-C , 49-C ) :   1.3410 B( 45-C , 46-C ) :   1.3829 B( 45-C ,101-H ) :   1.0110
B( 46-C , 47-C ) :   1.3675 B( 46-C , 52-C ) :   0.9155 B( 47-C , 48-C ) :   1.3210
B( 47-C , 50-C ) :   1.0007 B( 48-C , 49-C ) :   1.4085 B( 48-C ,102-H ) :   0.9892
B( 49-C ,103-H ) :   0.9819 B( 50-C , 51-C ) :   1.3535 B( 50-C , 60-C ) :   1.3307
B( 51-C , 52-C ) :   0.9121 B( 51-C , 57-C ) :   1.4113 B( 52-C , 53-C ) :   1.0401
B( 52-C , 55-C ) :   1.0368 B( 53-C , 54-C ) :   1.1031 B( 53-C ,104-H ) :   0.9378
B( 53-C ,105-H ) :   0.9391 B( 54-C ,106-H ) :   0.9635 B( 54-C ,107-H ) :   0.9633
B( 54-C ,108-H ) :   0.9646 B( 55-C , 56-C ) :   1.1007 B( 55-C ,109-H ) :   0.9390
B( 55-C ,110-H ) :   0.9391 B( 56-C ,111-H ) :   0.9644 B( 56-C ,112-H ) :   0.9635
B( 56-C ,113-H ) :   0.9647 B( 57-C , 58-C ) :   1.3009 B( 57-C ,114-H ) :   0.9941
B( 58-C , 59-C ) :   1.3536 B( 58-C , 61-C ) :   1.0188 B( 59-C , 60-C ) :   1.3958
B( 59-C ,115-H ) :   0.9779 B( 60-C ,116-H ) :   0.9928 B( 61-C , 62-C ) :   1.3006
B( 61-C , 72-C ) :   0.1396 B( 61-C , 74-C ) :   1.2555 B( 62-C , 63-C ) :   1.1148
B( 62-C , 67-N ) :   1.4159 B( 63-C , 64-N ) :   1.3328 B( 63-C , 72-C ) :   1.3162
B( 64-N , 65-C ) :   1.7941 B( 65-C , 66-C ) :   1.1761 B( 65-C , 70-C ) :   1.1489
B( 66-C , 67-N ) :   1.7562 B( 66-C , 68-C ) :   1.1469 B( 68-C , 69-N ) :   3.0488
B( 70-C , 71-N ) :   3.0521 B( 72-C , 73-C ) :   1.1793 B( 72-C ,117-H ) :   1.0590
B( 73-C , 74-C ) :   1.1198 B( 73-C , 77-N ) :   1.4556 B( 74-C , 75-N ) :   1.4801
B( 75-N , 76-S ) :   1.2983 B( 75-N , 77-N ) :   0.1618 B( 76-S , 77-N ) :   1.3067

-----------------------------------------------------------------------------
         ABSORPTION SPECTRUM VIA TRANSITION ELECTRIC DIPOLE MOMENTS
-----------------------------------------------------------------------------
State   Energy  Wavelength   fosc         T2         TX        TY        TZ
        (cm-1)    (nm)                  (au**2)     (au)      (au)      (au)
-----------------------------------------------------------------------------
   0   12043.1    830.4   0.750864102  20.52578  -1.35918  -4.18348   1.08484
   1   12643.2    790.9   0.099260392   2.58461  -0.46078  -1.52550   0.21247
   2   18571.5    538.5   0.032464247   0.57548  -0.22995  -0.72264  -0.01986
   3   18652.2    536.1   0.191879570   3.38668   0.67162   1.69467  -0.25241
   4   23939.7    417.7   2.331578499  32.06326   1.35122   5.21622  -1.74028
   5   24217.4    412.9   0.004888421   0.06645   0.00470   0.06588   0.24918
   6   24365.5    410.4   0.004374936   0.05911   0.09683   0.02968   0.22103
   7   25740.9    388.5   0.012346217   0.15790   0.12910   0.37498  -0.02504
   8   25777.5    387.9   0.018646396   0.23814  -0.17200  -0.44414   0.10629
   9   27218.3    367.4   0.007590580   0.09181   0.10952   0.27902  -0.04432
  10   27480.5    363.9   0.002106425   0.02523   0.09504   0.04709  -0.11826
  11   27588.2    362.5   0.001702703   0.02032  -0.02669  -0.03977   0.13426
  12   27678.5    361.3   0.051506310   0.61262  -0.11695  -0.70567   0.31777
  13   27755.9    360.3   0.008780290   0.10414   0.13918   0.29100  -0.00956
  14   28832.5    346.8   0.000886498   0.01012  -0.07229  -0.06523  -0.02530
  15   29166.3    342.9   0.000658300   0.00743  -0.00178  -0.06322  -0.05857
  16   29305.9    341.2   0.002289545   0.02572  -0.13749   0.08186   0.01071
  17   29406.9    340.1   0.015607841   0.17473   0.29287  -0.13512   0.26590
  18   29852.9    335.0   0.007722908   0.08517   0.13009  -0.20282   0.16465
  19   30213.6    331.0   0.046025187   0.50150   0.60406  -0.36891   0.02276
  20   30483.0    328.1   0.299971501   3.23965  -1.66580   0.34248  -0.58946
  21   30889.8    323.7   0.018104950   0.19296  -0.07655   0.09909  -0.42104
  22   31124.7    321.3   0.008119589   0.08588   0.13572   0.01705   0.25918
  23   31732.3    315.1   0.002363774   0.02452   0.12990   0.07825   0.03906
  24   32680.4    306.0   0.000344371   0.00347   0.02796   0.05015  -0.01312
  25   32735.0    305.5   0.000090186   0.00091   0.00699   0.02677  -0.01189
  26   34166.1    292.7   0.037260176   0.35903   0.09060  -0.48190   0.34436
  27   34292.9    291.6   0.088981200   0.85422   0.11534  -0.87987   0.25837
  28   34554.3    289.4   0.003520181   0.03354   0.10578   0.07671   0.12831
  29   34735.5    287.9   0.040280684   0.38177   0.20779   0.55438  -0.17680
  30   34816.5    287.2   0.012044817   0.11389  -0.20612  -0.12520  -0.23607
  31   34910.4    286.4   0.123822424   1.16767   0.49633  -0.64038   0.71501
  32   35375.4    282.7   1.624054581  15.11383  -3.03094   2.08093  -1.26372
  33   35472.4    281.9   0.028586214   0.26530   0.22753   0.27678   0.37004
  34   36224.9    276.1   0.055430517   0.50375  -0.22322  -0.46159  -0.49078
  35   37499.6    266.7   0.048635302   0.42697   0.20987   0.08068   0.61353
  36   37756.8    264.9   0.009912839   0.08643  -0.11749  -0.17019  -0.20896
  37   37949.2    263.5   0.014088274   0.12222   0.10351   0.15058   0.29804
  38   38260.5    261.4   0.052071471   0.44805  -0.39887  -0.53584   0.04280
  39   38489.8    259.8   0.117042895   1.00109   0.50313   0.82555  -0.25774
  40   38709.3    258.3   0.360938073   3.06968   1.04136   1.39789  -0.17649
  41   39124.8    255.6   0.006049900   0.05091   0.08457   0.20398  -0.04630
  42   39384.0    253.9   0.057350092   0.47939   0.58627  -0.22398   0.29242
  43   39583.5    252.6   0.059901564   0.49820   0.57471  -0.23410   0.33630
  44   40015.3    249.9   0.003977525   0.03272  -0.09712   0.00247  -0.15260

FINAL SINGLE POINT ENERGY     -3945.267940720520

DIPOLE MOMENT
-------------
                                X             Y             Z
Electronic contribution:     -2.78303       3.62007      -0.27939
Nuclear contribution   :      3.17847      -3.50330      -0.73287
                        -----------------------------------------
Total Dipole Moment    :      0.39544       0.11677      -1.01226
                        -----------------------------------------
Magnitude (a.u.)       :      1.09302
Magnitude (Debye)      :      2.77823

Rotational constants in cm-1:     0.002840     0.000125     0.000121
Rotational constants in MHz :    85.130718     3.750798     3.639698

                             ****ORCA TERMINATED NORMALLY****
TOTAL RUN TIME: 0 days 0 hours 13 minutes 1 seconds 632 msec
