                         Program Version 4.2.0 -  RELEASE  -
|  1> # ORCA input file
|  2> # SCF done       -202.728266491528          0.000873187790
|  3> ! CAM-B3LYP def2-SVP def2/J RIJCOSX Grid4 TightSCF
|  4> %maxcore 5000
|  5> %tddft
|  6>     Mode sTDDFT
|  7>     Ethresh 5.0
|  8>     maxcore 5000
|  9> end
| 10>
| 11> %pal
| 12>   nprocs 6
| 13>   end
| 14> * xyz 0 1
| 15>    C      -13.17994         1.17863        -4.06228
| 16>    C      -14.54744         0.97214        -3.96482
| 17>    C      -15.06047        -0.12852        -3.29193
| 18>    C      -14.21970        -1.05266        -2.69116
| 19>    C      -12.85095        -0.85828        -2.78267
| 20>    C      -12.32600         0.25881        -3.47319
| 21>    C      -10.87201         0.20591        -3.42182
| 22>    C      -10.01042         1.19292        -3.81037
| 23>    C      -10.42011         2.42873        -4.35577
| 24>    N      -10.69089         3.45109        -4.80101
| 25>    C       -8.60699         1.14088        -3.66460
| 26>    N       -7.46448         1.16886        -3.55790
| 27>    C      -10.52236        -1.09509        -2.85008
| 28>    C      -11.74235        -1.62612        -2.24035
| 29>    C      -11.80345        -2.48837        -1.18147
| 30>    C      -10.66958        -2.97485        -0.49560
| 31>    N       -9.79206        -3.33420         0.15071
| 32>    C      -13.00970        -2.91439        -0.58765
| 33>    N      -13.96564        -3.30690        -0.08857
| 34>    C       -9.32672        -1.71693        -3.00420
| 35>    C       -9.03795        -3.11022        -2.77060
| 36>    C       -7.77610        -3.45925        -2.26631
| 37>    C       -7.50597        -4.77554        -1.98341
| 38>    C       -8.44186        -5.77600        -2.30670
| 39>    C       -9.66768        -5.44477        -2.86866
| 40>    C       -9.96715        -4.11495        -3.07323
| 41>    C       -7.86494        -7.06559        -1.99638
| 42>    C       -6.58150        -6.85875        -1.46606
| 43>    C       -6.27802        -5.38299        -1.35072
| 44>    C       -4.97939        -5.00676        -2.07786
| 45>    C       -4.99107        -5.41420        -3.54667
| 46>    C       -6.20289        -5.05142         0.16021
| 47>    C       -6.18037        -3.57041         0.51186
| 48>    C       -5.79211        -7.91996        -1.09584
| 49>    C       -6.27345        -9.22196        -1.27398
| 50>    C       -7.55836        -9.41969        -1.79728
| 51>    C       -8.35776        -8.35363        -2.15479
| 52>    C       -5.46827       -10.37717        -0.93196
| 53>    O       -6.03316       -11.60236        -1.03345
| 54>    C       -5.11946       -12.51947        -0.68190
| 55>    C       -3.94257       -11.92540        -0.35784
| 56>    C       -4.15437       -10.53288        -0.52458
| 57>    S       -2.90881        -9.34208        -0.15598
| 58>    C       -2.48221        -8.63060        -1.72120
| 59>    C       -1.40273        -7.74439        -1.70522
| 60>    C       -1.00765        -7.16267        -2.88488
| 61>    C       -1.69238        -7.44429        -4.08134
| 62>    C       -2.76638        -8.32103        -4.08743
| 63>    C       -3.15528        -8.91807        -2.90273
| 64>    C       -1.06219        -6.70851        -5.15285
| 65>    C        0.01926        -5.98148        -4.62199
| 66>    C        0.15043        -6.22717        -3.13813
| 67>    C        0.03192        -4.91973        -2.33413
| 68>    C       -1.25385        -4.15832        -2.62675
| 69>    C        1.49150        -6.91123        -2.80435
| 70>    C        1.69882        -8.22109        -3.55499
| 71>    C        0.79735        -5.19729        -5.43382
| 72>    C        0.47465        -5.08313        -6.79628
| 73>    C       -0.58355        -5.84184        -7.31936
| 74>    C       -1.34596        -6.65691        -6.51167
| 75>    C        1.28885        -4.23601        -7.62504
| 76>    C        0.91836        -3.54503        -8.73516
| 77>    C        1.85144        -3.01457        -9.72881
| 78>    C        3.18628        -2.76780        -9.56205
| 79>    C        3.90262        -2.93516        -8.35742
| 80>    N        4.54803        -3.03591        -7.41309
| 81>    C        4.02844        -2.25825       -10.57382
| 82>    N        4.76738        -1.85087       -11.35162
| 83>    C        1.08197        -2.78721       -10.94368
| 84>    C       -0.28914        -2.98714       -10.66229
| 85>    C       -1.24158        -2.84821       -11.65892
| 86>    C       -0.81961        -2.50902       -12.93518
| 87>    C        0.52525        -2.30530       -13.21183
| 88>    C        1.48791        -2.44081       -12.22330
| 89>    C       -0.42870        -3.30394        -9.25011
| 90>    C       -1.56731        -3.15447        -8.50729
| 91>    C       -2.83105        -2.85840        -9.05949
| 92>    N       -3.88534        -2.64547        -9.45951
| 93>    C       -1.61424        -3.19640        -7.09768
| 94>    N       -1.71830        -3.14316        -5.95592
| 95>    H      -12.79858         2.03552        -4.59300
| 96>    H      -15.22191         1.67897        -4.42337
| 97>    H      -16.12894        -0.26982        -3.23569
| 98>    H      -14.62811        -1.90761        -2.17676
| 99>    H       -8.49658        -1.13502        -3.38332
|100>    H       -7.05563        -2.68012        -2.07218
|101>    H      -10.37683        -6.21238        -3.13953
|102>    H      -10.91318        -3.84219        -3.52026
|103>    H       -4.14735        -5.50188        -1.57226
|104>    H       -4.82418        -3.92997        -2.00820
|105>    H       -5.08942        -6.49343        -3.64496
|106>    H       -4.06550        -5.10841        -4.02923
|107>    H       -5.82130        -4.94310        -4.06849
|108>    H       -5.30654        -5.53410         0.55617
|109>    H       -7.06892        -5.50617         0.64680
|110>    H       -5.38264        -3.04632        -0.00810
|111>    H       -6.01389        -3.46135         1.58120
|112>    H       -7.13329        -3.10663         0.27345
|113>    H       -4.81919        -7.75151        -0.66669
|114>    H       -7.91897       -10.42938        -1.92012
|115>    H       -9.34634        -8.52325        -2.55418
|116>    H       -5.42286       -13.54713        -0.70552
|117>    H       -3.03280       -12.39119        -0.04138
|118>    H       -0.89570        -7.54402        -0.77329
|119>    H       -3.29383        -8.54554        -5.00217
|120>    H       -3.98037        -9.61319        -2.89994
|121>    H        0.89060        -4.28802        -2.56964
|122>    H        0.07915        -5.16329        -1.27033
|123>    H       -1.30769        -3.87074        -3.67326
|124>    H       -1.29787        -3.25659        -2.02074
|125>    H       -2.11917        -4.77251        -2.39297
|126>    H        1.52538        -7.10139        -1.72985
|127>    H        2.30273        -6.22251        -3.04808
|128>    H        0.91608        -8.93517        -3.30860
|129>    H        2.65830        -8.65623        -3.28573
|130>    H        1.68621        -8.05615        -4.63027
|131>    H        1.62798        -4.63084        -5.03959
|132>    H       -0.77667        -5.81440        -8.38271
|133>    H       -2.14996        -7.24307        -6.93050
|134>    H        2.33206        -4.19612        -7.33947
|135>    H       -2.28804        -3.01007       -11.45691
|136>    H       -1.54923        -2.40354       -13.72341
|137>    H        0.83025        -2.04044       -14.21262
|138>    H        2.52804        -2.28473       -12.45751
|139> *
|140>
|141>                          ****END OF INPUT****

CARTESIAN COORDINATES (ANGSTROEM)
---------------------------------
  C    -13.179940    1.178630   -4.062280
  C    -14.547440    0.972140   -3.964820
  C    -15.060470   -0.128520   -3.291930
  C    -14.219700   -1.052660   -2.691160
  C    -12.850950   -0.858280   -2.782670
  C    -12.326000    0.258810   -3.473190
  C    -10.872010    0.205910   -3.421820
  C    -10.010420    1.192920   -3.810370
  C    -10.420110    2.428730   -4.355770
  N    -10.690890    3.451090   -4.801010
  C     -8.606990    1.140880   -3.664600
  N     -7.464480    1.168860   -3.557900
  C    -10.522360   -1.095090   -2.850080
  C    -11.742350   -1.626120   -2.240350
  C    -11.803450   -2.488370   -1.181470
  C    -10.669580   -2.974850   -0.495600
  N     -9.792060   -3.334200    0.150710
  C    -13.009700   -2.914390   -0.587650
  N    -13.965640   -3.306900   -0.088570
  C     -9.326720   -1.716930   -3.004200
  C     -9.037950   -3.110220   -2.770600
  C     -7.776100   -3.459250   -2.266310
  C     -7.505970   -4.775540   -1.983410
  C     -8.441860   -5.776000   -2.306700
  C     -9.667680   -5.444770   -2.868660
  C     -9.967150   -4.114950   -3.073230
  C     -7.864940   -7.065590   -1.996380
  C     -6.581500   -6.858750   -1.466060
  C     -6.278020   -5.382990   -1.350720
  C     -4.979390   -5.006760   -2.077860
  C     -4.991070   -5.414200   -3.546670
  C     -6.202890   -5.051420    0.160210
  C     -6.180370   -3.570410    0.511860
  C     -5.792110   -7.919960   -1.095840
  C     -6.273450   -9.221960   -1.273980
  C     -7.558360   -9.419690   -1.797280
  C     -8.357760   -8.353630   -2.154790
  C     -5.468270  -10.377170   -0.931960
  O     -6.033160  -11.602360   -1.033450
  C     -5.119460  -12.519470   -0.681900
  C     -3.942570  -11.925400   -0.357840
  C     -4.154370  -10.532880   -0.524580
  S     -2.908810   -9.342080   -0.155980
  C     -2.482210   -8.630600   -1.721200
  C     -1.402730   -7.744390   -1.705220
  C     -1.007650   -7.162670   -2.884880
  C     -1.692380   -7.444290   -4.081340
  C     -2.766380   -8.321030   -4.087430
  C     -3.155280   -8.918070   -2.902730
  C     -1.062190   -6.708510   -5.152850
  C      0.019260   -5.981480   -4.621990
  C      0.150430   -6.227170   -3.138130
  C      0.031920   -4.919730   -2.334130
  C     -1.253850   -4.158320   -2.626750
  C      1.491500   -6.911230   -2.804350
  C      1.698820   -8.221090   -3.554990
  C      0.797350   -5.197290   -5.433820
  C      0.474650   -5.083130   -6.796280
  C     -0.583550   -5.841840   -7.319360
  C     -1.345960   -6.656910   -6.511670
  C      1.288850   -4.236010   -7.625040
  C      0.918360   -3.545030   -8.735160
  C      1.851440   -3.014570   -9.728810
  C      3.186280   -2.767800   -9.562050
  C      3.902620   -2.935160   -8.357420
  N      4.548030   -3.035910   -7.413090
  C      4.028440   -2.258250  -10.573820
  N      4.767380   -1.850870  -11.351620
  C      1.081970   -2.787210  -10.943680
  C     -0.289140   -2.987140  -10.662290
  C     -1.241580   -2.848210  -11.658920
  C     -0.819610   -2.509020  -12.935180
  C      0.525250   -2.305300  -13.211830
  C      1.487910   -2.440810  -12.223300
  C     -0.428700   -3.303940   -9.250110
  C     -1.567310   -3.154470   -8.507290
  C     -2.831050   -2.858400   -9.059490
  N     -3.885340   -2.645470   -9.459510
  C     -1.614240   -3.196400   -7.097680
  N     -1.718300   -3.143160   -5.955920
  H    -12.798580    2.035520   -4.593000
  H    -15.221910    1.678970   -4.423370
  H    -16.128940   -0.269820   -3.235690
  H    -14.628110   -1.907610   -2.176760
  H     -8.496580   -1.135020   -3.383320
  H     -7.055630   -2.680120   -2.072180
  H    -10.376830   -6.212380   -3.139530
  H    -10.913180   -3.842190   -3.520260
  H     -4.147350   -5.501880   -1.572260
  H     -4.824180   -3.929970   -2.008200
  H     -5.089420   -6.493430   -3.644960
  H     -4.065500   -5.108410   -4.029230
  H     -5.821300   -4.943100   -4.068490
  H     -5.306540   -5.534100    0.556170
  H     -7.068920   -5.506170    0.646800
  H     -5.382640   -3.046320   -0.008100
  H     -6.013890   -3.461350    1.581200
  H     -7.133290   -3.106630    0.273450
  H     -4.819190   -7.751510   -0.666690
  H     -7.918970  -10.429380   -1.920120
  H     -9.346340   -8.523250   -2.554180
  H     -5.422860  -13.547130   -0.705520
  H     -3.032800  -12.391190   -0.041380
  H     -0.895700   -7.544020   -0.773290
  H     -3.293830   -8.545540   -5.002170
  H     -3.980370   -9.613190   -2.899940
  H      0.890600   -4.288020   -2.569640
  H      0.079150   -5.163290   -1.270330
  H     -1.307690   -3.870740   -3.673260
  H     -1.297870   -3.256590   -2.020740
  H     -2.119170   -4.772510   -2.392970
  H      1.525380   -7.101390   -1.729850
  H      2.302730   -6.222510   -3.048080
  H      0.916080   -8.935170   -3.308600
  H      2.658300   -8.656230   -3.285730
  H      1.686210   -8.056150   -4.630270
  H      1.627980   -4.630840   -5.039590
  H     -0.776670   -5.814400   -8.382710
  H     -2.149960   -7.243070   -6.930500
  H      2.332060   -4.196120   -7.339470
  H     -2.288040   -3.010070  -11.456910
  H     -1.549230   -2.403540  -13.723410
  H      0.830250   -2.040440  -14.212620
  H      2.528040   -2.284730  -12.457510

 Total Charge           Charge          ....    0
 Multiplicity           Mult            ....    1
 Number of Electrons    NEL             ....  544
 Basis Dimension        Dim             .... 1344

ORBITAL ENERGIES
----------------

  NO   OCC          E(Eh)            E(eV)
   0   2.0000     -88.941154     -2420.2118
   1   2.0000     -19.297397      -525.1089
   2   2.0000     -14.425109      -392.5272
   3   2.0000     -14.424373      -392.5071
   4   2.0000     -14.422791      -392.4641
   5   2.0000     -14.422759      -392.4632
   6   2.0000     -14.422535      -392.4571
   7   2.0000     -14.422113      -392.4456
   8   2.0000     -14.420948      -392.4139
   9   2.0000     -14.419600      -392.3773
  10   2.0000     -10.354390      -281.7573
  11   2.0000     -10.353407      -281.7305
  12   2.0000     -10.352459      -281.7047
  13   2.0000     -10.351806      -281.6870
  14   2.0000     -10.351480      -281.6781
  15   2.0000     -10.350924      -281.6630
  16   2.0000     -10.349544      -281.6254
  17   2.0000     -10.348468      -281.5961
  18   2.0000     -10.338852      -281.3345
  19   2.0000     -10.327493      -281.0254
  20   2.0000     -10.327133      -281.0156
  21   2.0000     -10.326448      -280.9969
  22   2.0000     -10.325311      -280.9660
  23   2.0000     -10.325047      -280.9588
  24   2.0000     -10.324982      -280.9571
  25   2.0000     -10.324741      -280.9505
  26   2.0000     -10.323927      -280.9283
  27   2.0000     -10.323249      -280.9099
  28   2.0000     -10.322581      -280.8917
  29   2.0000     -10.321613      -280.8654
  30   2.0000     -10.320138      -280.8252
  31   2.0000     -10.318010      -280.7673
  32   2.0000     -10.317133      -280.7435
  33   2.0000     -10.316790      -280.7341
  34   2.0000     -10.315699      -280.7044
  35   2.0000     -10.315373      -280.6956
  36   2.0000     -10.307996      -280.4948
  37   2.0000     -10.304992      -280.4131
  38   2.0000     -10.304610      -280.4027
  39   2.0000     -10.303887      -280.3830
  40   2.0000     -10.303619      -280.3757
  41   2.0000     -10.303297      -280.3670
  42   2.0000     -10.303092      -280.3614
  43   2.0000     -10.302578      -280.3474
  44   2.0000     -10.301713      -280.3239
  45   2.0000     -10.298318      -280.2315
  46   2.0000     -10.295799      -280.1629
  47   2.0000     -10.292198      -280.0649
  48   2.0000     -10.289061      -279.9796
  49   2.0000     -10.288962      -279.9769
  50   2.0000     -10.286870      -279.9200
  51   2.0000     -10.286261      -279.9034
  52   2.0000     -10.285132      -279.8727
  53   2.0000     -10.283408      -279.8258
  54   2.0000     -10.282598      -279.8037
  55   2.0000     -10.282341      -279.7967
  56   2.0000     -10.281489      -279.7735
  57   2.0000     -10.280428      -279.7447
  58   2.0000     -10.280223      -279.7391
  59   2.0000     -10.278311      -279.6871
  60   2.0000     -10.278241      -279.6851
  61   2.0000     -10.277568      -279.6668
  62   2.0000     -10.276834      -279.6469
  63   2.0000     -10.275414      -279.6082
  64   2.0000     -10.275334      -279.6060
  65   2.0000     -10.275067      -279.5988
  66   2.0000     -10.274957      -279.5958
  67   2.0000     -10.274398      -279.5806
  68   2.0000     -10.273402      -279.5535
  69   2.0000     -10.272714      -279.5348
  70   2.0000     -10.270161      -279.4653
  71   2.0000     -10.269616      -279.4505
  72   2.0000     -10.266316      -279.3607
  73   2.0000     -10.261384      -279.2265
  74   2.0000     -10.258101      -279.1371
  75   2.0000     -10.256570      -279.0955
  76   2.0000     -10.249473      -278.9023
  77   2.0000     -10.240459      -278.6571
  78   2.0000     -10.239520      -278.6315
  79   2.0000     -10.235787      -278.5299
  80   2.0000      -8.035184      -218.6485
  81   2.0000      -6.005720      -163.4239
  82   2.0000      -6.001510      -163.3094
  83   2.0000      -5.995059      -163.1339
  84   2.0000      -1.216718       -33.1086
  85   2.0000      -1.039454       -28.2850
  86   2.0000      -1.037627       -28.2353
  87   2.0000      -1.020994       -27.7826
  88   2.0000      -1.018496       -27.7147
  89   2.0000      -1.010545       -27.4983
  90   2.0000      -1.008159       -27.4334
  91   2.0000      -1.002577       -27.2815
  92   2.0000      -1.001852       -27.2618
  93   2.0000      -1.000157       -27.2157
  94   2.0000      -0.999575       -27.1998
  95   2.0000      -0.996796       -27.1242
  96   2.0000      -0.992027       -26.9944
  97   2.0000      -0.967406       -26.3244
  98   2.0000      -0.964367       -26.2418
  99   2.0000      -0.957863       -26.0648
 100   2.0000      -0.951588       -25.8940
 101   2.0000      -0.943664       -25.6784
 102   2.0000      -0.941564       -25.6213
 103   2.0000      -0.936671       -25.4881
 104   2.0000      -0.924715       -25.1628
 105   2.0000      -0.913873       -24.8677
 106   2.0000      -0.901267       -24.5247
 107   2.0000      -0.898324       -24.4446
 108   2.0000      -0.895630       -24.3713
 109   2.0000      -0.893172       -24.3044
 110   2.0000      -0.879388       -23.9294
 111   2.0000      -0.874748       -23.8031
 112   2.0000      -0.870234       -23.6803
 113   2.0000      -0.868654       -23.6373
 114   2.0000      -0.850832       -23.1523
 115   2.0000      -0.846663       -23.0389
 116   2.0000      -0.842460       -22.9245
 117   2.0000      -0.840685       -22.8762
 118   2.0000      -0.836497       -22.7623
 119   2.0000      -0.834929       -22.7196
 120   2.0000      -0.833185       -22.6721
 121   2.0000      -0.828516       -22.5451
 122   2.0000      -0.812699       -22.1147
 123   2.0000      -0.803521       -21.8649
 124   2.0000      -0.795073       -21.6350
 125   2.0000      -0.792531       -21.5659
 126   2.0000      -0.778519       -21.1846
 127   2.0000      -0.771604       -20.9964
 128   2.0000      -0.765166       -20.8212
 129   2.0000      -0.763225       -20.7684
 130   2.0000      -0.733609       -19.9625
 131   2.0000      -0.731368       -19.9015
 132   2.0000      -0.722673       -19.6649
 133   2.0000      -0.719862       -19.5884
 134   2.0000      -0.716863       -19.5068
 135   2.0000      -0.714409       -19.4401
 136   2.0000      -0.713658       -19.4196
 137   2.0000      -0.710925       -19.3452
 138   2.0000      -0.702077       -19.1045
 139   2.0000      -0.693212       -18.8632
 140   2.0000      -0.684714       -18.6320
 141   2.0000      -0.682639       -18.5755
 142   2.0000      -0.680547       -18.5186
 143   2.0000      -0.673281       -18.3209
 144   2.0000      -0.672145       -18.2900
 145   2.0000      -0.670155       -18.2358
 146   2.0000      -0.668965       -18.2035
 147   2.0000      -0.668447       -18.1894
 148   2.0000      -0.666422       -18.1343
 149   2.0000      -0.665485       -18.1088
 150   2.0000      -0.661706       -18.0059
 151   2.0000      -0.649956       -17.6862
 152   2.0000      -0.643986       -17.5238
 153   2.0000      -0.635042       -17.2804
 154   2.0000      -0.627048       -17.0629
 155   2.0000      -0.615953       -16.7609
 156   2.0000      -0.609089       -16.5741
 157   2.0000      -0.602492       -16.3946
 158   2.0000      -0.596544       -16.2328
 159   2.0000      -0.591872       -16.1056
 160   2.0000      -0.590387       -16.0652
 161   2.0000      -0.589606       -16.0440
 162   2.0000      -0.588276       -16.0078
 163   2.0000      -0.582988       -15.8639
 164   2.0000      -0.575398       -15.6574
 165   2.0000      -0.567949       -15.4547
 166   2.0000      -0.563544       -15.3348
 167   2.0000      -0.560832       -15.2610
 168   2.0000      -0.550932       -14.9916
 169   2.0000      -0.550152       -14.9704
 170   2.0000      -0.549085       -14.9414
 171   2.0000      -0.546960       -14.8835
 172   2.0000      -0.545872       -14.8539
 173   2.0000      -0.541797       -14.7430
 174   2.0000      -0.541415       -14.7327
 175   2.0000      -0.540665       -14.7122
 176   2.0000      -0.539612       -14.6836
 177   2.0000      -0.535652       -14.5758
 178   2.0000      -0.535201       -14.5636
 179   2.0000      -0.531243       -14.4559
 180   2.0000      -0.529862       -14.4183
 181   2.0000      -0.527492       -14.3538
 182   2.0000      -0.525209       -14.2917
 183   2.0000      -0.524822       -14.2811
 184   2.0000      -0.522169       -14.2090
 185   2.0000      -0.519585       -14.1386
 186   2.0000      -0.517309       -14.0767
 187   2.0000      -0.514833       -14.0093
 188   2.0000      -0.511737       -13.9251
 189   2.0000      -0.509745       -13.8709
 190   2.0000      -0.509109       -13.8535
 191   2.0000      -0.506095       -13.7715
 192   2.0000      -0.502475       -13.6730
 193   2.0000      -0.501255       -13.6398
 194   2.0000      -0.495440       -13.4816
 195   2.0000      -0.491721       -13.3804
 196   2.0000      -0.490247       -13.3403
 197   2.0000      -0.488607       -13.2957
 198   2.0000      -0.487232       -13.2583
 199   2.0000      -0.482631       -13.1331
 200   2.0000      -0.479406       -13.0453
 201   2.0000      -0.476262       -12.9598
 202   2.0000      -0.473982       -12.8977
 203   2.0000      -0.470476       -12.8023
 204   2.0000      -0.469455       -12.7745
 205   2.0000      -0.468574       -12.7506
 206   2.0000      -0.466247       -12.6872
 207   2.0000      -0.464091       -12.6285
 208   2.0000      -0.463055       -12.6004
 209   2.0000      -0.461293       -12.5524
 210   2.0000      -0.460907       -12.5419
 211   2.0000      -0.457711       -12.4549
 212   2.0000      -0.456150       -12.4125
 213   2.0000      -0.454831       -12.3766
 214   2.0000      -0.453628       -12.3438
 215   2.0000      -0.453455       -12.3391
 216   2.0000      -0.451519       -12.2865
 217   2.0000      -0.450941       -12.2707
 218   2.0000      -0.450543       -12.2599
 219   2.0000      -0.449927       -12.2431
 220   2.0000      -0.447560       -12.1787
 221   2.0000      -0.446699       -12.1553
 222   2.0000      -0.445877       -12.1329
 223   2.0000      -0.442258       -12.0345
 224   2.0000      -0.439637       -11.9631
 225   2.0000      -0.438261       -11.9257
 226   2.0000      -0.437653       -11.9091
 227   2.0000      -0.435345       -11.8464
 228   2.0000      -0.433245       -11.7892
 229   2.0000      -0.433065       -11.7843
 230   2.0000      -0.432178       -11.7602
 231   2.0000      -0.430903       -11.7255
 232   2.0000      -0.430628       -11.7180
 233   2.0000      -0.430290       -11.7088
 234   2.0000      -0.428231       -11.6527
 235   2.0000      -0.426394       -11.6028
 236   2.0000      -0.424751       -11.5581
 237   2.0000      -0.422406       -11.4943
 238   2.0000      -0.420361       -11.4386
 239   2.0000      -0.417780       -11.3684
 240   2.0000      -0.417093       -11.3497
 241   2.0000      -0.416180       -11.3248
 242   2.0000      -0.415872       -11.3165
 243   2.0000      -0.414380       -11.2759
 244   2.0000      -0.413172       -11.2430
 245   2.0000      -0.406542       -11.0626
 246   2.0000      -0.403079       -10.9684
 247   2.0000      -0.395093       -10.7510
 248   2.0000      -0.392893       -10.6912
 249   2.0000      -0.391619       -10.6565
 250   2.0000      -0.388625       -10.5750
 251   2.0000      -0.387935       -10.5563
 252   2.0000      -0.386706       -10.5228
 253   2.0000      -0.386389       -10.5142
 254   2.0000      -0.383471       -10.4348
 255   2.0000      -0.378155       -10.2901
 256   2.0000      -0.375149       -10.2083
 257   2.0000      -0.363560        -9.8930
 258   2.0000      -0.354474        -9.6457
 259   2.0000      -0.352845        -9.6014
 260   2.0000      -0.338293        -9.2054
 261   2.0000      -0.336945        -9.1687
 262   2.0000      -0.331150        -9.0111
 263   2.0000      -0.326172        -8.8756
 264   2.0000      -0.324788        -8.8379
 265   2.0000      -0.321898        -8.7593
 266   2.0000      -0.320379        -8.7180
 267   2.0000      -0.313872        -8.5409
 268   2.0000      -0.302590        -8.2339
 269   2.0000      -0.296959        -8.0807
 270   2.0000      -0.264948        -7.2096
 271   2.0000      -0.258210        -7.0263
 272   0.0000      -0.095029        -2.5859
 273   0.0000      -0.091174        -2.4810
 274   0.0000      -0.090516        -2.4631
 275   0.0000      -0.087963        -2.3936
 276   0.0000      -0.028366        -0.7719

MULLIKEN ATOMIC CHARGES
-----------------------
   0 C :   -0.033681
   1 C :    0.047919
   2 C :    0.046131
   3 C :   -0.032242
   4 C :    0.010548
   5 C :    0.014409
   6 C :    0.282182
   7 C :   -0.334887
   8 C :   -0.186601
   9 N :    0.163201
  10 C :   -0.190056
  11 N :    0.165031
  12 C :   -0.057841
  13 C :    0.210659
  14 C :   -0.326382
  15 C :   -0.170534
  16 N :    0.190174
  17 C :   -0.190439
  18 N :    0.167853
  19 C :    0.033351
  20 C :    0.016559
  21 C :   -0.066909
  22 C :    0.035251
  23 C :    0.123539
  24 C :   -0.060357
  25 C :    0.034535
  26 C :    0.101167
  27 C :    0.001108
  28 C :   -0.120319
  29 C :    0.015954
  30 C :    0.027074
  31 C :    0.083853
  32 C :    0.023084
  33 C :   -0.078072
  34 C :    0.049821
  35 C :   -0.015456
  36 C :   -0.041416
  37 C :    0.178191
  38 O :   -0.190712
  39 C :    0.142028
  40 C :    0.003960
  41 C :   -0.149576
  42 S :    0.056968
  43 C :   -0.046169
  44 C :   -0.045920
  45 C :    0.005859
  46 C :    0.114679
  47 C :   -0.048489
  48 C :    0.031417
  49 C :    0.129634
  50 C :    0.017987
  51 C :   -0.140052
  52 C :    0.063405
  53 C :    0.018834
  54 C :    0.066195
  55 C :    0.025389
  56 C :   -0.070998
  57 C :    0.031177
  58 C :    0.019481
  59 C :   -0.052330
  60 C :    0.025624
  61 C :   -0.052160
  62 C :    0.288187
  63 C :   -0.342770
  64 C :   -0.182711
  65 N :    0.160523
  66 C :   -0.186331
  67 N :    0.160737
  68 C :    0.016883
  69 C :    0.005846
  70 C :   -0.033594
  71 C :    0.046775
  72 C :    0.049106
  73 C :   -0.034380
  74 C :    0.221312
  75 C :   -0.330457
  76 C :   -0.190036
  77 N :    0.167752
  78 C :   -0.181104
  79 N :    0.205098
  80 H :    0.007185
  81 H :    0.005783
  82 H :    0.006893
  83 H :    0.006582
  84 H :    0.031553
  85 H :   -0.018966
  86 H :   -0.030097
  87 H :   -0.013699
  88 H :    0.023915
  89 H :    0.015226
  90 H :    0.019004
  91 H :    0.017995
  92 H :    0.010292
  93 H :   -0.002071
  94 H :    0.010475
  95 H :   -0.001385
  96 H :    0.011243
  97 H :    0.032984
  98 H :   -0.028278
  99 H :   -0.017378
 100 H :   -0.034635
 101 H :    0.012824
 102 H :   -0.009110
 103 H :   -0.031511
 104 H :   -0.031740
 105 H :   -0.008794
 106 H :    0.000004
 107 H :   -0.003486
 108 H :    0.037362
 109 H :    0.005588
 110 H :    0.009523
 111 H :    0.001996
 112 H :    0.003141
 113 H :    0.023039
 114 H :    0.011417
 115 H :    0.018600
 116 H :   -0.020594
 117 H :   -0.009095
 118 H :   -0.029854
 119 H :    0.026697
 120 H :    0.007572
 121 H :    0.007311
 122 H :    0.005436
 123 H :    0.007586
Sum of atomic charges:   -0.0000000

LOEWDIN ATOMIC CHARGES
----------------------
   0 C :    0.005796
   1 C :    0.002889
   2 C :    0.004890
   3 C :    0.001777
   4 C :   -0.010486
   5 C :   -0.012704
   6 C :    0.079566
   7 C :   -0.129682
   8 C :   -0.018915
   9 N :   -0.044373
  10 C :   -0.022391
  11 N :   -0.040133
  12 C :   -0.056381
  13 C :    0.068627
  14 C :   -0.123628
  15 C :   -0.011505
  16 N :   -0.035194
  17 C :   -0.019623
  18 N :   -0.044357
  19 C :    0.079400
  20 C :   -0.049148
  21 C :    0.011139
  22 C :    0.014122
  23 C :    0.008957
  24 C :   -0.017785
  25 C :   -0.005772
  26 C :   -0.020680
  27 C :    0.013887
  28 C :   -0.034233
  29 C :   -0.014961
  30 C :   -0.057866
  31 C :   -0.005963
  32 C :   -0.060135
  33 C :   -0.013126
  34 C :   -0.038028
  35 C :   -0.014743
  36 C :   -0.014348
  37 C :    0.027298
  38 O :    0.025565
  39 C :    0.036392
  40 C :   -0.073225
  41 C :   -0.224203
  42 S :    0.349295
  43 C :   -0.138114
  44 C :   -0.049379
  45 C :    0.015736
  46 C :   -0.033648
  47 C :   -0.002009
  48 C :   -0.047752
  49 C :    0.012536
  50 C :    0.008670
  51 C :   -0.035466
  52 C :   -0.010672
  53 C :   -0.063743
  54 C :   -0.010213
  55 C :   -0.058186
  56 C :    0.009751
  57 C :   -0.049861
  58 C :   -0.001900
  59 C :   -0.017680
  60 C :    0.077903
  61 C :   -0.058365
  62 C :    0.079921
  63 C :   -0.131643
  64 C :   -0.021597
  65 N :   -0.043597
  66 C :   -0.018975
  67 N :   -0.044743
  68 C :   -0.012801
  69 C :   -0.010792
  70 C :    0.001965
  71 C :    0.005347
  72 C :    0.003453
  73 C :    0.005795
  74 C :    0.068684
  75 C :   -0.125609
  76 C :   -0.019616
  77 N :   -0.044072
  78 C :   -0.007541
  79 N :   -0.030132
  80 H :    0.041953
  81 H :    0.038268
  82 H :    0.038291
  83 H :    0.041165
  84 H :    0.049158
  85 H :    0.033237
  86 H :    0.029646
  87 H :    0.028173
  88 H :    0.021399
  89 H :    0.022461
  90 H :    0.021574
  91 H :    0.027503
  92 H :    0.022420
  93 H :    0.020195
  94 H :    0.029317
  95 H :    0.017059
  96 H :    0.028607
  97 H :    0.025200
  98 H :    0.017557
  99 H :    0.028436
 100 H :    0.027375
 101 H :    0.024367
 102 H :    0.033195
 103 H :    0.025030
 104 H :    0.028584
 105 H :    0.032102
 106 H :    0.020762
 107 H :    0.019188
 108 H :    0.024798
 109 H :    0.025049
 110 H :    0.021619
 111 H :    0.021737
 112 H :    0.021818
 113 H :    0.025726
 114 H :    0.025458
 115 H :    0.023928
 116 H :    0.032545
 117 H :    0.029055
 118 H :    0.030077
 119 H :    0.048140
 120 H :    0.041339
 121 H :    0.038498
 122 H :    0.038274
 123 H :    0.042048

  Mayer bond orders larger than 0.100000
B(  0-C ,  1-C ) :   1.3744 B(  0-C ,  5-C ) :   1.3795 B(  0-C , 80-H ) :   0.9842
B(  1-C ,  2-C ) :   1.3722 B(  1-C , 81-H ) :   0.9864 B(  2-C ,  3-C ) :   1.3681
B(  2-C , 82-H ) :   0.9871 B(  3-C ,  4-C ) :   1.3795 B(  3-C , 83-H ) :   0.9879
B(  4-C ,  5-C ) :   1.3099 B(  4-C , 13-C ) :   1.0140 B(  5-C ,  6-C ) :   1.0054
B(  6-C ,  7-C ) :   1.6628 B(  6-C , 12-C ) :   1.0254 B(  7-C ,  8-C ) :   1.1418
B(  7-C , 10-C ) :   1.1337 B(  8-C ,  9-N ) :   2.9828 B( 10-C , 11-N ) :   2.9913
B( 12-C , 13-C ) :   0.9954 B( 12-C , 19-C ) :   1.6808 B( 13-C , 14-C ) :   1.6818
B( 14-C , 15-C ) :   1.1431 B( 14-C , 17-C ) :   1.1437 B( 15-C , 16-N ) :   2.9922
B( 17-C , 18-N ) :   2.9959 B( 19-C , 20-C ) :   1.0499 B( 19-C , 84-H ) :   0.9369
B( 20-C , 21-C ) :   1.2805 B( 20-C , 25-C ) :   1.3442 B( 21-C , 22-C ) :   1.3940
B( 21-C , 85-H ) :   1.0072 B( 22-C , 23-C ) :   1.3768 B( 22-C , 28-C ) :   0.9176
B( 23-C , 24-C ) :   1.3243 B( 23-C , 26-C ) :   0.9959 B( 24-C , 25-C ) :   1.3969
B( 24-C , 86-H ) :   0.9934 B( 25-C , 87-H ) :   0.9817 B( 26-C , 27-C ) :   1.3688
B( 26-C , 36-C ) :   1.3287 B( 27-C , 28-C ) :   0.9243 B( 27-C , 33-C ) :   1.4214
B( 28-C , 29-C ) :   1.0203 B( 28-C , 31-C ) :   1.0151 B( 29-C , 30-C ) :   1.1091
B( 29-C , 88-H ) :   0.9319 B( 29-C , 89-H ) :   0.9407 B( 30-C , 90-H ) :   0.9574
B( 30-C , 91-H ) :   0.9621 B( 30-C , 92-H ) :   0.9591 B( 31-C , 32-C ) :   1.1192
B( 31-C , 93-H ) :   0.9366 B( 31-C , 94-H ) :   0.9364 B( 32-C , 95-H ) :   0.9610
B( 32-C , 96-H ) :   0.9563 B( 32-C , 97-H ) :   0.9537 B( 33-C , 34-C ) :   1.3196
B( 33-C , 98-H ) :   0.9841 B( 34-C , 35-C ) :   1.3419 B( 34-C , 37-C ) :   1.0495
B( 35-C , 36-C ) :   1.3747 B( 35-C , 99-H ) :   0.9919 B( 36-C ,100-H ) :   0.9926
B( 37-C , 38-O ) :   1.1888 B( 37-C , 41-C ) :   1.4900 B( 38-O , 39-C ) :   1.1258
B( 39-C , 40-C ) :   1.5525 B( 39-C ,101-H ) :   1.0054 B( 40-C , 41-C ) :   1.2411
B( 40-C ,102-H ) :   1.0080 B( 41-C , 42-S ) :   1.0035 B( 42-S , 43-C ) :   0.9775
B( 43-C , 44-C ) :   1.3154 B( 43-C , 48-C ) :   1.3964 B( 44-C , 45-C ) :   1.4256
B( 44-C ,103-H ) :   0.9964 B( 45-C , 46-C ) :   1.3612 B( 45-C , 51-C ) :   0.9211
B( 46-C , 47-C ) :   1.3409 B( 46-C , 49-C ) :   1.0023 B( 47-C , 48-C ) :   1.3806
B( 47-C ,104-H ) :   0.9908 B( 48-C ,105-H ) :   0.9796 B( 49-C , 50-C ) :   1.3561
B( 49-C , 59-C ) :   1.3303 B( 50-C , 51-C ) :   0.9138 B( 50-C , 56-C ) :   1.3888
B( 51-C , 52-C ) :   1.0387 B( 51-C , 54-C ) :   1.0351 B( 52-C , 53-C ) :   1.1002
B( 52-C ,106-H ) :   0.9381 B( 52-C ,107-H ) :   0.9384 B( 53-C ,108-H ) :   0.9484
B( 53-C ,109-H ) :   0.9516 B( 53-C ,110-H ) :   0.9623 B( 54-C , 55-C ) :   1.0994
B( 54-C ,111-H ) :   0.9398 B( 54-C ,112-H ) :   0.9400 B( 55-C ,113-H ) :   0.9644
B( 55-C ,114-H ) :   0.9638 B( 55-C ,115-H ) :   0.9641 B( 56-C , 57-C ) :   1.2771
B( 56-C ,116-H ) :   1.0140 B( 57-C , 58-C ) :   1.3328 B( 57-C , 60-C ) :   1.0667
B( 58-C , 59-C ) :   1.4002 B( 58-C ,117-H ) :   0.9818 B( 59-C ,118-H ) :   0.9939
B( 60-C , 61-C ) :   1.6551 B( 60-C ,119-H ) :   0.9359 B( 61-C , 62-C ) :   1.0357
B( 61-C , 74-C ) :   0.9990 B( 62-C , 63-C ) :   1.6521 B( 62-C , 68-C ) :   1.0031
B( 63-C , 64-C ) :   1.1346 B( 63-C , 66-C ) :   1.1443 B( 64-C , 65-N ) :   2.9819
B( 66-C , 67-N ) :   2.9790 B( 68-C , 69-C ) :   1.3100 B( 68-C , 73-C ) :   1.3777
B( 69-C , 70-C ) :   1.3787 B( 69-C , 74-C ) :   1.0135 B( 70-C , 71-C ) :   1.3679
B( 70-C ,120-H ) :   0.9877 B( 71-C , 72-C ) :   1.3724 B( 71-C ,121-H ) :   0.9872
B( 72-C , 73-C ) :   1.3739 B( 72-C ,122-H ) :   0.9864 B( 73-C ,123-H ) :   0.9847
B( 74-C , 75-C ) :   1.6724 B( 75-C , 76-C ) :   1.1438 B( 75-C , 78-C ) :   1.1406
B( 76-C , 77-N ) :   2.9941 B( 78-C , 79-N ) :   2.9968

-----------------------------------------------------------------------------
         ABSORPTION SPECTRUM VIA TRANSITION ELECTRIC DIPOLE MOMENTS
-----------------------------------------------------------------------------
State   Energy  Wavelength   fosc         T2         TX        TY        TZ
        (cm-1)    (nm)                  (au**2)     (au)      (au)      (au)
-----------------------------------------------------------------------------
   0   20262.4    493.5   0.344996323   5.60531   1.15283   0.80487  -1.90486
   1   20942.3    477.5   0.578791094   9.09856   1.49138  -2.57965   0.46876
   2   23092.8    433.0   0.246395165   3.51262   1.51748   0.46735  -0.99572
   3   23392.8    427.5   0.451992590   6.36098  -0.02328  -2.30819   1.01622
   4   25855.3    386.8   0.003084206   0.03927  -0.11695   0.15111  -0.05251
   5   26909.3    371.6   0.005982104   0.07319  -0.20155  -0.12278  -0.13225
   6   28270.6    353.7   0.075331035   0.87723  -0.36152  -0.07571   0.86070
   7   28467.9    351.3   0.041503405   0.47996   0.47641   0.15967  -0.47697
   8   28627.4    349.3   0.125470188   1.44289  -0.63738   0.81099  -0.61557
   9   29410.7    340.0   0.030738003   0.34407   0.29357   0.41760  -0.28895
  10   30742.0    325.3   0.221725953   2.37443   1.44966   0.15858  -0.49778
  11   30863.2    324.0   0.095311078   1.01666  -0.06635   0.82043  -0.58237
  12   30948.4    323.1   0.285084789   3.03258  -1.57718  -0.65311   0.34427
  13   31004.8    322.5   0.124401121   1.32090   0.19859  -0.82770   0.77225
  14   32432.3    308.3   0.008935298   0.09070  -0.00643  -0.17529   0.24481
  15   32597.5    306.8   0.068539812   0.69220  -0.39653  -0.68599   0.25373
  16   33644.2    297.2   0.274433905   2.68536  -1.01726   1.23767  -0.34454
  17   33918.2    294.8   0.180695772   1.75384   1.21038  -0.35919  -0.39977
  18   34026.3    293.9   0.058257128   0.56365  -0.07808   0.51502  -0.54065
  19   34340.7    291.2   0.016054903   0.15391   0.14209  -0.09116   0.35414
  20   34427.6    290.5   0.036109240   0.34529  -0.10534   0.55256   0.16992
  21   34531.3    289.6   0.281563742   2.68435  -1.44189  -0.32212   0.70820
  22   34602.0    289.0   0.006072337   0.05777  -0.12899   0.11651   0.16602
  23   34779.8    287.5   0.168092587   1.59110  -1.19248  -0.00823   0.41113
  24   35108.6    284.8   0.327322186   3.06929  -0.22801  -1.39828   1.03059
  25   35154.8    284.5   0.053042012   0.49672  -0.24641  -0.54711   0.36968
  26   35838.2    279.0   0.492801680   4.52691   1.27685  -1.57947   0.63391
  27   35861.7    278.8   0.290107704   2.66320  -0.61469   0.34500   1.47185
  28   35967.8    278.0   0.523233970   4.78914   1.80377  -0.19465   1.22380
  29   37041.2    270.0   0.183493310   1.63084   0.89072  -0.85095   0.33667
  30   37074.3    269.7   0.023488425   0.20857  -0.25607   0.22080  -0.30699
  31   37522.4    266.5   0.416984209   3.65851   0.13521   1.22892  -1.45944
  32   37853.6    264.2   0.387177674   3.36727  -0.21918  -1.16583   1.40002
  33   38168.3    262.0   0.005655546   0.04878  -0.09308   0.19967   0.01574
  34   38339.9    260.8   0.001759154   0.01511  -0.00117   0.10676  -0.06087
  35   38922.9    256.9   0.029444409   0.24904  -0.12059  -0.31187   0.37046
  36   39547.1    252.9   0.020035631   0.16679  -0.16632  -0.04852   0.36983
  37   39708.1    251.8   0.007554230   0.06263   0.04243   0.21245  -0.12528
  38   39939.6    250.4   0.001928314   0.01589  -0.12091  -0.03530   0.00532
  39   40247.2    248.5   0.087523606   0.71592   0.22002   0.33154  -0.74672

FINAL SINGLE POINT ENERGY     -3600.968583703481

DIPOLE MOMENT
-------------
                                X             Y             Z
Electronic contribution:    -23.78687      27.70046     -27.30637
Nuclear contribution   :     22.28176     -30.63758      25.60832
                        -----------------------------------------
Total Dipole Moment    :     -1.50511      -2.93711      -1.69804
                        -----------------------------------------
Magnitude (a.u.)       :      3.71152
Magnitude (Debye)      :      9.43392

Rotational constants in cm-1:     0.000867     0.000459     0.000328
Rotational constants in MHz :    26.001525    13.771764     9.831832

                             ****ORCA TERMINATED NORMALLY****
TOTAL RUN TIME: 0 days 0 hours 14 minutes 17 seconds 84 msec
