                         Program Version 4.2.0 -  RELEASE  -
|  1> # ORCA input file
|  2> # SCF done       -207.286312015956          0.000462165899
|  3> ! CAM-B3LYP def2-SVP def2/J RIJCOSX Grid4 TightSCF
|  4> %maxcore 5000
|  5> %tddft
|  6>     Mode sTDDFT
|  7>     Ethresh 5.0
|  8>     maxcore 5000
|  9> end
| 10>
| 11> %pal
| 12>   nprocs 6
| 13>   end
| 14> * xyz 0 1
| 15>    C      -12.49468         1.53160        -9.38679
| 16>    C      -11.61150         1.87891       -10.39849
| 17>    C      -10.33747         1.33235       -10.45775
| 18>    C       -9.90569         0.42741        -9.49971
| 19>    C      -10.77931         0.07328        -8.48572
| 20>    C      -12.08131         0.62018        -8.42793
| 21>    C      -12.78087         0.05675        -7.27889
| 22>    C      -14.02271         0.42679        -6.83463
| 23>    C      -14.81121         1.43100        -7.43503
| 24>    N      -15.50460         2.23475        -7.87194
| 25>    C      -14.67607        -0.10433        -5.70315
| 26>    N      -15.26538        -0.48950        -4.79566
| 27>    C      -11.91228        -0.97384        -6.72525
| 28>    C      -10.60193        -0.80151        -7.33828
| 29>    C       -9.40146        -1.13512        -6.76930
| 30>    C       -9.28173        -1.68684        -5.47623
| 31>    N       -9.14675        -2.08283        -4.40738
| 32>    C       -8.15047        -0.87948        -7.36503
| 33>    N       -7.10752        -0.71688        -7.81609
| 34>    C      -12.32150        -1.97009        -5.87996
| 35>    C      -11.72467        -3.22783        -5.65493
| 36>    S      -10.62270        -4.00220        -6.77085
| 37>    C      -10.53882        -5.42208        -5.77722
| 38>    C      -11.33475        -5.28920        -4.65193
| 39>    C      -12.01143        -4.08032        -4.59817
| 40>    C       -9.72848        -6.51743        -6.15647
| 41>    C       -8.96230        -6.64821        -7.29909
| 42>    C       -8.27016        -7.85181        -7.36551
| 43>    C       -8.48474        -8.66972        -6.27233
| 44>    S       -9.57952        -7.92784        -5.14372
| 45>    C       -7.91631        -9.94438        -6.02178
| 46>    S       -6.86588       -10.69283        -7.18642
| 47>    C       -6.62688       -12.07439        -6.15437
| 48>    C       -7.33982       -11.93442        -4.97818
| 49>    C       -8.06158       -10.74672        -4.90606
| 50>    C       -5.77492       -13.12317        -6.59155
| 51>    C       -5.45302       -14.21825        -5.86726
| 52>    C       -4.56880       -15.23092        -6.32896
| 53>    C       -4.13749       -16.35640        -5.64246
| 54>    C       -4.66455       -16.69925        -4.30238
| 55>    O       -4.99747       -15.88754        -3.48127
| 56>    O       -4.81414       -18.01460        -4.05492
| 57>    C       -3.22490       -17.15032        -6.40553
| 58>    C       -3.02086       -16.62802        -7.65561
| 59>    S       -3.89614       -15.18684        -7.93550
| 60>    C       -2.47346       -18.30288        -5.94889
| 61>    S       -1.79396       -18.37352        -4.34703
| 62>    C       -0.98133       -19.86568        -4.71976
| 63>    C       -1.23930       -20.26176        -6.01161
| 64>    C       -2.07250       -19.37739        -6.70394
| 65>    C       -0.15043       -20.50158        -3.75663
| 66>    C        0.04416       -20.15765        -2.43596
| 67>    C        0.96550       -20.97376        -1.78224
| 68>    C        1.49930       -21.95560        -2.59117
| 69>    S        0.82607       -21.87130        -4.19653
| 70>    C        2.48765       -22.91945        -2.27129
| 71>    S        3.19448       -23.00280        -0.69114
| 72>    C        4.25679       -24.29945        -1.18170
| 73>    C        4.02881       -24.63522        -2.50929
| 74>    C        3.04408       -23.86960        -3.11352
| 75>    C        5.17174       -24.84475        -0.25930
| 76>    C        6.13302       -25.76334        -0.56842
| 77>    C        7.01458       -26.26572         0.40347
| 78>    C        7.97446       -27.23073         0.22616
| 79>    C        9.10458       -27.43697         1.12150
| 80>    C        9.21565       -27.03125         2.42528
| 81>    C        8.21263       -26.36723         3.16229
| 82>    N        7.44432       -25.83105         3.82662
| 83>    C       10.34858       -27.26507         3.23287
| 84>    N       11.23589       -27.41925         3.94473
| 85>    C       10.11167       -28.17076         0.36563
| 86>    C        9.56722       -28.53185        -0.88754
| 87>    C       10.33095       -29.21903        -1.81612
| 88>    C       11.63835       -29.54561        -1.48760
| 89>    C       12.17101       -29.20126        -0.25388
| 90>    C       11.41606       -28.51296         0.68435
| 91>    C        8.18142       -28.08592        -0.93188
| 92>    C        7.22068       -28.57165        -1.78059
| 93>    C        7.49415       -29.41861        -2.87495
| 94>    N        7.65086       -30.08378        -3.79750
| 95>    C        5.83093       -28.39074        -1.61522
| 96>    N        4.68890       -28.32541        -1.51758
| 97>    H      -13.48079         1.96501        -9.36026
| 98>    H      -11.92509         2.58461       -11.15250
| 99>    H       -9.67165         1.61344       -11.25934
|100>    H       -8.91609         0.00337        -9.55597
|101>    H      -13.26381        -1.83532        -5.36427
|102>    H      -11.41062        -6.06286        -3.90886
|103>    H      -12.67621        -3.79634        -3.80206
|104>    H       -8.91618        -5.88109        -8.05185
|105>    H       -7.62107        -8.13310        -8.17555
|106>    H       -7.33040       -12.67386        -4.19865
|107>    H       -8.67352       -10.45966        -4.06902
|108>    H       -5.35037       -13.00334        -7.58141
|109>    H       -5.83316       -14.35448        -4.86596
|110>    H       -4.52901       -18.57030        -4.79366
|111>    H       -2.36504       -17.00666        -8.41387
|112>    H       -0.83221       -21.16319        -6.43346
|113>    H       -2.38845       -19.52669        -7.72079
|114>    H       -0.47198       -19.33684        -1.97020
|115>    H        1.24968       -20.85927        -0.75128
|116>    H        4.55092       -25.43094        -3.00791
|117>    H        2.72859       -23.98345        -4.13570
|118>    H        5.08622       -24.50812         0.76614
|119>    H        6.24483       -26.07716        -1.59456
|120>    H        6.97650       -25.77462         1.36638
|121>    H        9.93137       -29.48763        -2.78048
|122>    H       12.24755       -30.07430        -2.20469
|123>    H       13.18997       -29.46801        -0.01849
|124>    H       11.84786       -28.24933         1.63570
|125> *
|126>
|127>                          ****END OF INPUT****

CARTESIAN COORDINATES (ANGSTROEM)
---------------------------------
  C    -12.494680    1.531600   -9.386790
  C    -11.611500    1.878910  -10.398490
  C    -10.337470    1.332350  -10.457750
  C     -9.905690    0.427410   -9.499710
  C    -10.779310    0.073280   -8.485720
  C    -12.081310    0.620180   -8.427930
  C    -12.780870    0.056750   -7.278890
  C    -14.022710    0.426790   -6.834630
  C    -14.811210    1.431000   -7.435030
  N    -15.504600    2.234750   -7.871940
  C    -14.676070   -0.104330   -5.703150
  N    -15.265380   -0.489500   -4.795660
  C    -11.912280   -0.973840   -6.725250
  C    -10.601930   -0.801510   -7.338280
  C     -9.401460   -1.135120   -6.769300
  C     -9.281730   -1.686840   -5.476230
  N     -9.146750   -2.082830   -4.407380
  C     -8.150470   -0.879480   -7.365030
  N     -7.107520   -0.716880   -7.816090
  C    -12.321500   -1.970090   -5.879960
  C    -11.724670   -3.227830   -5.654930
  S    -10.622700   -4.002200   -6.770850
  C    -10.538820   -5.422080   -5.777220
  C    -11.334750   -5.289200   -4.651930
  C    -12.011430   -4.080320   -4.598170
  C     -9.728480   -6.517430   -6.156470
  C     -8.962300   -6.648210   -7.299090
  C     -8.270160   -7.851810   -7.365510
  C     -8.484740   -8.669720   -6.272330
  S     -9.579520   -7.927840   -5.143720
  C     -7.916310   -9.944380   -6.021780
  S     -6.865880  -10.692830   -7.186420
  C     -6.626880  -12.074390   -6.154370
  C     -7.339820  -11.934420   -4.978180
  C     -8.061580  -10.746720   -4.906060
  C     -5.774920  -13.123170   -6.591550
  C     -5.453020  -14.218250   -5.867260
  C     -4.568800  -15.230920   -6.328960
  C     -4.137490  -16.356400   -5.642460
  C     -4.664550  -16.699250   -4.302380
  O     -4.997470  -15.887540   -3.481270
  O     -4.814140  -18.014600   -4.054920
  C     -3.224900  -17.150320   -6.405530
  C     -3.020860  -16.628020   -7.655610
  S     -3.896140  -15.186840   -7.935500
  C     -2.473460  -18.302880   -5.948890
  S     -1.793960  -18.373520   -4.347030
  C     -0.981330  -19.865680   -4.719760
  C     -1.239300  -20.261760   -6.011610
  C     -2.072500  -19.377390   -6.703940
  C     -0.150430  -20.501580   -3.756630
  C      0.044160  -20.157650   -2.435960
  C      0.965500  -20.973760   -1.782240
  C      1.499300  -21.955600   -2.591170
  S      0.826070  -21.871300   -4.196530
  C      2.487650  -22.919450   -2.271290
  S      3.194480  -23.002800   -0.691140
  C      4.256790  -24.299450   -1.181700
  C      4.028810  -24.635220   -2.509290
  C      3.044080  -23.869600   -3.113520
  C      5.171740  -24.844750   -0.259300
  C      6.133020  -25.763340   -0.568420
  C      7.014580  -26.265720    0.403470
  C      7.974460  -27.230730    0.226160
  C      9.104580  -27.436970    1.121500
  C      9.215650  -27.031250    2.425280
  C      8.212630  -26.367230    3.162290
  N      7.444320  -25.831050    3.826620
  C     10.348580  -27.265070    3.232870
  N     11.235890  -27.419250    3.944730
  C     10.111670  -28.170760    0.365630
  C      9.567220  -28.531850   -0.887540
  C     10.330950  -29.219030   -1.816120
  C     11.638350  -29.545610   -1.487600
  C     12.171010  -29.201260   -0.253880
  C     11.416060  -28.512960    0.684350
  C      8.181420  -28.085920   -0.931880
  C      7.220680  -28.571650   -1.780590
  C      7.494150  -29.418610   -2.874950
  N      7.650860  -30.083780   -3.797500
  C      5.830930  -28.390740   -1.615220
  N      4.688900  -28.325410   -1.517580
  H    -13.480790    1.965010   -9.360260
  H    -11.925090    2.584610  -11.152500
  H     -9.671650    1.613440  -11.259340
  H     -8.916090    0.003370   -9.555970
  H    -13.263810   -1.835320   -5.364270
  H    -11.410620   -6.062860   -3.908860
  H    -12.676210   -3.796340   -3.802060
  H     -8.916180   -5.881090   -8.051850
  H     -7.621070   -8.133100   -8.175550
  H     -7.330400  -12.673860   -4.198650
  H     -8.673520  -10.459660   -4.069020
  H     -5.350370  -13.003340   -7.581410
  H     -5.833160  -14.354480   -4.865960
  H     -4.529010  -18.570300   -4.793660
  H     -2.365040  -17.006660   -8.413870
  H     -0.832210  -21.163190   -6.433460
  H     -2.388450  -19.526690   -7.720790
  H     -0.471980  -19.336840   -1.970200
  H      1.249680  -20.859270   -0.751280
  H      4.550920  -25.430940   -3.007910
  H      2.728590  -23.983450   -4.135700
  H      5.086220  -24.508120    0.766140
  H      6.244830  -26.077160   -1.594560
  H      6.976500  -25.774620    1.366380
  H      9.931370  -29.487630   -2.780480
  H     12.247550  -30.074300   -2.204690
  H     13.189970  -29.468010   -0.018490
  H     11.847860  -28.249330    1.635700

 Total Charge           Charge          ....    0
 Multiplicity           Mult            ....    1
 Number of Electrons    NEL             ....  602
 Basis Dimension        Dim             .... 1316

ORBITAL ENERGIES
----------------

  NO   OCC          E(Eh)            E(eV)
   0   2.0000     -88.977632     -2421.2045
   1   2.0000     -88.977276     -2421.1948
   2   2.0000     -88.976608     -2421.1766
   3   2.0000     -88.975583     -2421.1487
   4   2.0000     -88.975428     -2421.1445
   5   2.0000     -88.975115     -2421.1360
   6   2.0000     -88.969374     -2420.9798
   7   2.0000     -19.261145      -524.1224
   8   2.0000     -19.202847      -522.5360
   9   2.0000     -14.421383      -392.4258
  10   2.0000     -14.421198      -392.4208
  11   2.0000     -14.420976      -392.4147
  12   2.0000     -14.420710      -392.4075
  13   2.0000     -14.420235      -392.3945
  14   2.0000     -14.417736      -392.3265
  15   2.0000     -14.417593      -392.3226
  16   2.0000     -14.416693      -392.2981
  17   2.0000     -10.409793      -283.2649
  18   2.0000     -10.350995      -281.6649
  19   2.0000     -10.349673      -281.6289
  20   2.0000     -10.347599      -281.5725
  21   2.0000     -10.347539      -281.5709
  22   2.0000     -10.346922      -281.5541
  23   2.0000     -10.346869      -281.5526
  24   2.0000     -10.346000      -281.5290
  25   2.0000     -10.345110      -281.5048
  26   2.0000     -10.336924      -281.2820
  27   2.0000     -10.333923      -281.2003
  28   2.0000     -10.328822      -281.0615
  29   2.0000     -10.328317      -281.0478
  30   2.0000     -10.327305      -281.0203
  31   2.0000     -10.326473      -280.9976
  32   2.0000     -10.324789      -280.9518
  33   2.0000     -10.324528      -280.9447
  34   2.0000     -10.323708      -280.9224
  35   2.0000     -10.323685      -280.9218
  36   2.0000     -10.323601      -280.9195
  37   2.0000     -10.323429      -280.9148
  38   2.0000     -10.323146      -280.9071
  39   2.0000     -10.322859      -280.8993
  40   2.0000     -10.322850      -280.8990
  41   2.0000     -10.322585      -280.8918
  42   2.0000     -10.321897      -280.8731
  43   2.0000     -10.321433      -280.8605
  44   2.0000     -10.320608      -280.8380
  45   2.0000     -10.320505      -280.8352
  46   2.0000     -10.320474      -280.8344
  47   2.0000     -10.320015      -280.8219
  48   2.0000     -10.318613      -280.7837
  49   2.0000     -10.315152      -280.6896
  50   2.0000     -10.315125      -280.6888
  51   2.0000     -10.314719      -280.6778
  52   2.0000     -10.313254      -280.6379
  53   2.0000     -10.312228      -280.6100
  54   2.0000     -10.311820      -280.5989
  55   2.0000     -10.311672      -280.5949
  56   2.0000     -10.311491      -280.5899
  57   2.0000     -10.311293      -280.5845
  58   2.0000     -10.305233      -280.4196
  59   2.0000     -10.301227      -280.3106
  60   2.0000     -10.300480      -280.2903
  61   2.0000     -10.300184      -280.2823
  62   2.0000     -10.300102      -280.2800
  63   2.0000     -10.299953      -280.2760
  64   2.0000     -10.299760      -280.2707
  65   2.0000     -10.299678      -280.2685
  66   2.0000     -10.299302      -280.2583
  67   2.0000     -10.299021      -280.2506
  68   2.0000     -10.298192      -280.2280
  69   2.0000     -10.298099      -280.2255
  70   2.0000     -10.297713      -280.2150
  71   2.0000     -10.296997      -280.1955
  72   2.0000     -10.295499      -280.1548
  73   2.0000     -10.295210      -280.1469
  74   2.0000     -10.294380      -280.1243
  75   2.0000     -10.293598      -280.1030
  76   2.0000     -10.292538      -280.0742
  77   2.0000     -10.292241      -280.0661
  78   2.0000     -10.291285      -280.0401
  79   2.0000     -10.290616      -280.0219
  80   2.0000     -10.289523      -279.9922
  81   2.0000     -10.285920      -279.8941
  82   2.0000      -8.073389      -219.6881
  83   2.0000      -8.073306      -219.6858
  84   2.0000      -8.071639      -219.6405
  85   2.0000      -8.071126      -219.6265
  86   2.0000      -8.070804      -219.6178
  87   2.0000      -8.070639      -219.6133
  88   2.0000      -8.065062      -219.4615
  89   2.0000      -6.042636      -164.4285
  90   2.0000      -6.042453      -164.4235
  91   2.0000      -6.041061      -164.3856
  92   2.0000      -6.040515      -164.3708
  93   2.0000      -6.040182      -164.3617
  94   2.0000      -6.039901      -164.3541
  95   2.0000      -6.038577      -164.3180
  96   2.0000      -6.038231      -164.3086
  97   2.0000      -6.036920      -164.2729
  98   2.0000      -6.036403      -164.2589
  99   2.0000      -6.036077      -164.2500
 100   2.0000      -6.035766      -164.2416
 101   2.0000      -6.035685      -164.2393
 102   2.0000      -6.035453      -164.2330
 103   2.0000      -6.034302      -164.2017
 104   2.0000      -6.033498      -164.1798
 105   2.0000      -6.032999      -164.1663
 106   2.0000      -6.032729      -164.1589
 107   2.0000      -6.032721      -164.1587
 108   2.0000      -6.030260      -164.0917
 109   2.0000      -6.027194      -164.0083
 110   2.0000      -1.185748       -32.2658
 111   2.0000      -1.100578       -29.9483
 112   2.0000      -1.035755       -28.1843
 113   2.0000      -1.034572       -28.1521
 114   2.0000      -1.019403       -27.7394
 115   2.0000      -1.018268       -27.7085
 116   2.0000      -1.017439       -27.6859
 117   2.0000      -1.015667       -27.6377
 118   2.0000      -1.012535       -27.5525
 119   2.0000      -1.006815       -27.3968
 120   2.0000      -1.005989       -27.3743
 121   2.0000      -1.003903       -27.3176
 122   2.0000      -1.001257       -27.2456
 123   2.0000      -0.999081       -27.1864
 124   2.0000      -0.997637       -27.1471
 125   2.0000      -0.997580       -27.1455
 126   2.0000      -0.995984       -27.1021
 127   2.0000      -0.986247       -26.8372
 128   2.0000      -0.984572       -26.7916
 129   2.0000      -0.959745       -26.1160
 130   2.0000      -0.957719       -26.0609
 131   2.0000      -0.938983       -25.5510
 132   2.0000      -0.938706       -25.5435
 133   2.0000      -0.931771       -25.3548
 134   2.0000      -0.919917       -25.0322
 135   2.0000      -0.908949       -24.7337
 136   2.0000      -0.898420       -24.4472
 137   2.0000      -0.893452       -24.3121
 138   2.0000      -0.892287       -24.2804
 139   2.0000      -0.883197       -24.0330
 140   2.0000      -0.876044       -23.8384
 141   2.0000      -0.866509       -23.5789
 142   2.0000      -0.865374       -23.5480
 143   2.0000      -0.865369       -23.5479
 144   2.0000      -0.860402       -23.4127
 145   2.0000      -0.858441       -23.3594
 146   2.0000      -0.857210       -23.3259
 147   2.0000      -0.849209       -23.1081
 148   2.0000      -0.845188       -22.9987
 149   2.0000      -0.843573       -22.9548
 150   2.0000      -0.841536       -22.8994
 151   2.0000      -0.829745       -22.5785
 152   2.0000      -0.820342       -22.3226
 153   2.0000      -0.804895       -21.9023
 154   2.0000      -0.791327       -21.5331
 155   2.0000      -0.790693       -21.5159
 156   2.0000      -0.789705       -21.4890
 157   2.0000      -0.776562       -21.1313
 158   2.0000      -0.769865       -20.9491
 159   2.0000      -0.742107       -20.1938
 160   2.0000      -0.732080       -19.9209
 161   2.0000      -0.724351       -19.7106
 162   2.0000      -0.716433       -19.4951
 163   2.0000      -0.715327       -19.4650
 164   2.0000      -0.714568       -19.4444
 165   2.0000      -0.713964       -19.4280
 166   2.0000      -0.712823       -19.3969
 167   2.0000      -0.710898       -19.3445
 168   2.0000      -0.701434       -19.0870
 169   2.0000      -0.695872       -18.9356
 170   2.0000      -0.683855       -18.6086
 171   2.0000      -0.682267       -18.5654
 172   2.0000      -0.678018       -18.4498
 173   2.0000      -0.673293       -18.3212
 174   2.0000      -0.666354       -18.1324
 175   2.0000      -0.665621       -18.1125
 176   2.0000      -0.663645       -18.0587
 177   2.0000      -0.661952       -18.0126
 178   2.0000      -0.651583       -17.7305
 179   2.0000      -0.650163       -17.6918
 180   2.0000      -0.640959       -17.4414
 181   2.0000      -0.634448       -17.2642
 182   2.0000      -0.633456       -17.2372
 183   2.0000      -0.631146       -17.1743
 184   2.0000      -0.631033       -17.1713
 185   2.0000      -0.629529       -17.1304
 186   2.0000      -0.629207       -17.1216
 187   2.0000      -0.626211       -17.0401
 188   2.0000      -0.622046       -16.9267
 189   2.0000      -0.611813       -16.6483
 190   2.0000      -0.603994       -16.4355
 191   2.0000      -0.595059       -16.1924
 192   2.0000      -0.585453       -15.9310
 193   2.0000      -0.585065       -15.9204
 194   2.0000      -0.584637       -15.9088
 195   2.0000      -0.578872       -15.7519
 196   2.0000      -0.573387       -15.6027
 197   2.0000      -0.564020       -15.3478
 198   2.0000      -0.555855       -15.1256
 199   2.0000      -0.549019       -14.9396
 200   2.0000      -0.548109       -14.9148
 201   2.0000      -0.546689       -14.8762
 202   2.0000      -0.543278       -14.7833
 203   2.0000      -0.543168       -14.7804
 204   2.0000      -0.542358       -14.7583
 205   2.0000      -0.541192       -14.7266
 206   2.0000      -0.537872       -14.6362
 207   2.0000      -0.537641       -14.6300
 208   2.0000      -0.534373       -14.5410
 209   2.0000      -0.531137       -14.4530
 210   2.0000      -0.527419       -14.3518
 211   2.0000      -0.525768       -14.3069
 212   2.0000      -0.521823       -14.1995
 213   2.0000      -0.520625       -14.1669
 214   2.0000      -0.520106       -14.1528
 215   2.0000      -0.517086       -14.0706
 216   2.0000      -0.515222       -14.0199
 217   2.0000      -0.510128       -13.8813
 218   2.0000      -0.509525       -13.8649
 219   2.0000      -0.508472       -13.8362
 220   2.0000      -0.506435       -13.7808
 221   2.0000      -0.506319       -13.7777
 222   2.0000      -0.502424       -13.6717
 223   2.0000      -0.500208       -13.6114
 224   2.0000      -0.499233       -13.5848
 225   2.0000      -0.496087       -13.4992
 226   2.0000      -0.494013       -13.4428
 227   2.0000      -0.491923       -13.3859
 228   2.0000      -0.488764       -13.2999
 229   2.0000      -0.484604       -13.1868
 230   2.0000      -0.484375       -13.1805
 231   2.0000      -0.483054       -13.1446
 232   2.0000      -0.480789       -13.0829
 233   2.0000      -0.479989       -13.0612
 234   2.0000      -0.477718       -12.9994
 235   2.0000      -0.476766       -12.9735
 236   2.0000      -0.472963       -12.8700
 237   2.0000      -0.472308       -12.8522
 238   2.0000      -0.469310       -12.7706
 239   2.0000      -0.465500       -12.6669
 240   2.0000      -0.464417       -12.6374
 241   2.0000      -0.462274       -12.5791
 242   2.0000      -0.459889       -12.5142
 243   2.0000      -0.458330       -12.4718
 244   2.0000      -0.457309       -12.4440
 245   2.0000      -0.455686       -12.3998
 246   2.0000      -0.453853       -12.3500
 247   2.0000      -0.452721       -12.3192
 248   2.0000      -0.452300       -12.3077
 249   2.0000      -0.451437       -12.2842
 250   2.0000      -0.450902       -12.2697
 251   2.0000      -0.447501       -12.1771
 252   2.0000      -0.446924       -12.1614
 253   2.0000      -0.446441       -12.1483
 254   2.0000      -0.445177       -12.1139
 255   2.0000      -0.444855       -12.1051
 256   2.0000      -0.443671       -12.0729
 257   2.0000      -0.440035       -11.9740
 258   2.0000      -0.434024       -11.8104
 259   2.0000      -0.433033       -11.7834
 260   2.0000      -0.432298       -11.7634
 261   2.0000      -0.431593       -11.7442
 262   2.0000      -0.430912       -11.7257
 263   2.0000      -0.430665       -11.7190
 264   2.0000      -0.429478       -11.6867
 265   2.0000      -0.428588       -11.6625
 266   2.0000      -0.428301       -11.6547
 267   2.0000      -0.425801       -11.5866
 268   2.0000      -0.425167       -11.5694
 269   2.0000      -0.424235       -11.5440
 270   2.0000      -0.423406       -11.5215
 271   2.0000      -0.415363       -11.3026
 272   2.0000      -0.414661       -11.2835
 273   2.0000      -0.413650       -11.2560
 274   2.0000      -0.410962       -11.1829
 275   2.0000      -0.410548       -11.1716
 276   2.0000      -0.408463       -11.1149
 277   2.0000      -0.397363       -10.8128
 278   2.0000      -0.389393       -10.5959
 279   2.0000      -0.384778       -10.4703
 280   2.0000      -0.383663       -10.4400
 281   2.0000      -0.380744       -10.3606
 282   2.0000      -0.362063        -9.8522
 283   2.0000      -0.359448        -9.7811
 284   2.0000      -0.351498        -9.5647
 285   2.0000      -0.348984        -9.4963
 286   2.0000      -0.346905        -9.4398
 287   2.0000      -0.343586        -9.3494
 288   2.0000      -0.341834        -9.3018
 289   2.0000      -0.338350        -9.2070
 290   2.0000      -0.335521        -9.1300
 291   2.0000      -0.334790        -9.1101
 292   2.0000      -0.333458        -9.0739
 293   2.0000      -0.332906        -9.0588
 294   2.0000      -0.328089        -8.9278
 295   2.0000      -0.314261        -8.5515
 296   2.0000      -0.307149        -8.3579
 297   2.0000      -0.290600        -7.9076
 298   2.0000      -0.279094        -7.5945
 299   2.0000      -0.253438        -6.8964
 300   2.0000      -0.245079        -6.6689
 301   0.0000      -0.105409        -2.8683
 302   0.0000      -0.103844        -2.8257
 303   0.0000      -0.087007        -2.3676
 304   0.0000      -0.086196        -2.3455
 305   0.0000      -0.066730        -1.8158

MULLIKEN ATOMIC CHARGES
-----------------------
   0 C :   -0.030523
   1 C :    0.044289
   2 C :    0.047593
   3 C :   -0.031008
   4 C :    0.004584
   5 C :    0.012344
   6 C :    0.302896
   7 C :   -0.349111
   8 C :   -0.186360
   9 N :    0.155162
  10 C :   -0.179321
  11 N :    0.150039
  12 C :   -0.076910
  13 C :    0.212141
  14 C :   -0.322649
  15 C :   -0.202853
  16 N :    0.183520
  17 C :   -0.179347
  18 N :    0.159305
  19 C :    0.058116
  20 C :   -0.122683
  21 S :    0.140998
  22 C :   -0.015391
  23 C :   -0.003474
  24 C :    0.083131
  25 C :   -0.046739
  26 C :    0.007611
  27 C :   -0.009333
  28 C :   -0.021478
  29 S :    0.140939
  30 C :   -0.053693
  31 S :    0.129540
  32 C :   -0.080156
  33 C :    0.018542
  34 C :   -0.002037
  35 C :    0.063479
  36 C :    0.011003
  37 C :   -0.121139
  38 C :   -0.010461
  39 C :    0.139612
  40 O :   -0.183533
  41 O :   -0.157038
  42 C :    0.112847
  43 C :   -0.107710
  44 S :    0.133764
  45 C :   -0.202503
  46 S :    0.163963
  47 C :   -0.044954
  48 C :   -0.014477
  49 C :    0.039410
  50 C :   -0.025773
  51 C :   -0.007853
  52 C :   -0.000834
  53 C :   -0.036764
  54 S :    0.128609
  55 C :   -0.034931
  56 S :    0.151504
  57 C :   -0.088797
  58 C :    0.054011
  59 C :   -0.012839
  60 C :    0.083583
  61 C :   -0.013114
  62 C :    0.036011
  63 C :   -0.063440
  64 C :    0.298833
  65 C :   -0.346901
  66 C :   -0.184748
  67 N :    0.152253
  68 C :   -0.188438
  69 N :    0.155808
  70 C :    0.008813
  71 C :    0.012713
  72 C :   -0.037828
  73 C :    0.047482
  74 C :    0.047220
  75 C :   -0.032282
  76 C :    0.245199
  77 C :   -0.335712
  78 C :   -0.184310
  79 N :    0.155461
  80 C :   -0.217705
  81 N :    0.177267
  82 H :    0.005008
  83 H :    0.003448
  84 H :    0.003794
  85 H :    0.004505
  86 H :    0.020327
  87 H :   -0.000752
  88 H :    0.010774
  89 H :    0.000617
  90 H :   -0.003781
  91 H :    0.000553
  92 H :   -0.006201
  93 H :   -0.011125
  94 H :    0.020686
  95 H :    0.187019
  96 H :    0.027687
  97 H :   -0.006865
  98 H :   -0.013169
  99 H :    0.000875
 100 H :   -0.002243
 101 H :    0.000916
 102 H :   -0.001914
 103 H :    0.012830
 104 H :    0.017390
 105 H :    0.009851
 106 H :    0.004677
 107 H :    0.004496
 108 H :    0.003303
 109 H :    0.004848
Sum of atomic charges:   -0.0000000

LOEWDIN ATOMIC CHARGES
----------------------
   0 C :    0.005138
   1 C :    0.000067
   2 C :    0.003553
   3 C :   -0.000188
   4 C :   -0.009651
   5 C :   -0.013451
   6 C :    0.079848
   7 C :   -0.137649
   8 C :   -0.019089
   9 N :   -0.049562
  10 C :   -0.020394
  11 N :   -0.048605
  12 C :   -0.071707
  13 C :    0.058434
  14 C :   -0.137607
  15 C :   -0.035907
  16 N :   -0.041683
  17 C :   -0.019718
  18 N :   -0.047489
  19 C :    0.047395
  20 C :   -0.187742
  21 S :    0.465121
  22 C :   -0.139145
  23 C :   -0.064466
  24 C :    0.011210
  25 C :   -0.193889
  26 C :   -0.037148
  27 C :   -0.060649
  28 C :   -0.166243
  29 S :    0.449990
  30 C :   -0.187525
  31 S :    0.442704
  32 C :   -0.165760
  33 C :   -0.041531
  34 C :   -0.049782
  35 C :   -0.035385
  36 C :   -0.032161
  37 C :   -0.129531
  38 C :   -0.122997
  39 C :    0.076353
  40 O :   -0.159931
  41 O :   -0.028780
  42 C :   -0.082682
  43 C :   -0.173857
  44 S :    0.462252
  45 C :   -0.192818
  46 S :    0.460056
  47 C :   -0.181649
  48 C :   -0.061994
  49 C :   -0.050725
  50 C :   -0.174299
  51 C :   -0.055788
  52 C :   -0.044498
  53 C :   -0.187519
  54 S :    0.444650
  55 C :   -0.160851
  56 S :    0.454946
  57 C :   -0.183886
  58 C :   -0.010534
  59 C :   -0.060250
  60 C :    0.030381
  61 C :   -0.037558
  62 C :    0.061637
  63 C :   -0.069437
  64 C :    0.078697
  65 C :   -0.137176
  66 C :   -0.021554
  67 N :   -0.049666
  68 C :   -0.019190
  69 N :   -0.049535
  70 C :   -0.012918
  71 C :   -0.010829
  72 C :    0.000630
  73 C :    0.002839
  74 C :    0.001267
  75 C :    0.004620
  76 C :    0.073203
  77 C :   -0.138405
  78 C :   -0.020110
  79 N :   -0.048889
  80 C :   -0.026749
  81 N :   -0.046431
  82 H :    0.041440
  83 H :    0.037329
  84 H :    0.037242
  85 H :    0.040357
  86 H :    0.052168
  87 H :    0.031915
  88 H :    0.043260
  89 H :    0.031393
  90 H :    0.029853
  91 H :    0.037106
  92 H :    0.029729
  93 H :    0.019996
  94 H :    0.039904
  95 H :    0.084421
  96 H :    0.026745
  97 H :    0.028426
  98 H :    0.032396
  99 H :    0.032261
 100 H :    0.031362
 101 H :    0.037893
 102 H :    0.030454
 103 H :    0.040521
 104 H :    0.031786
 105 H :    0.045591
 106 H :    0.040528
 107 H :    0.037390
 108 H :    0.037351
 109 H :    0.041355

  Mayer bond orders larger than 0.100000
B(  0-C ,  1-C ) :   1.3703 B(  0-C ,  5-C ) :   1.3833 B(  0-C , 82-H ) :   0.9833
B(  1-C ,  2-C ) :   1.3781 B(  1-C , 83-H ) :   0.9865 B(  2-C ,  3-C ) :   1.3635
B(  2-C , 84-H ) :   0.9866 B(  3-C ,  4-C ) :   1.3847 B(  3-C , 85-H ) :   0.9866
B(  4-C ,  5-C ) :   1.3139 B(  4-C , 13-C ) :   1.0132 B(  5-C ,  6-C ) :   0.9984
B(  6-C ,  7-C ) :   1.6310 B(  6-C , 12-C ) :   1.0688 B(  7-C ,  8-C ) :   1.1474
B(  7-C , 10-C ) :   1.1384 B(  8-C ,  9-N ) :   2.9747 B( 10-C , 11-N ) :   2.9651
B( 12-C , 13-C ) :   1.0245 B( 12-C , 19-C ) :   1.5562 B( 13-C , 14-C ) :   1.6475
B( 14-C , 15-C ) :   1.1451 B( 14-C , 17-C ) :   1.1450 B( 15-C , 16-N ) :   3.0293
B( 17-C , 18-N ) :   2.9942 B( 19-C , 20-C ) :   1.2049 B( 19-C , 86-H ) :   0.9345
B( 20-C , 21-S ) :   1.0883 B( 20-C , 24-C ) :   1.4030 B( 21-S , 22-C ) :   1.1533
B( 22-C , 23-C ) :   1.4401 B( 22-C , 25-C ) :   1.1777 B( 23-C , 24-C ) :   1.3140
B( 23-C , 87-H ) :   0.9927 B( 24-C , 88-H ) :   0.9985 B( 25-C , 26-C ) :   1.4746
B( 25-C , 29-S ) :   1.1099 B( 26-C , 27-C ) :   1.2941 B( 26-C , 89-H ) :   0.9910
B( 27-C , 28-C ) :   1.4778 B( 27-C , 90-H ) :   0.9927 B( 28-C , 29-S ) :   1.1385
B( 28-C , 30-C ) :   1.1595 B( 30-C , 31-S ) :   1.1317 B( 30-C , 32-C ) :   0.1001
B( 30-C , 34-C ) :   1.4755 B( 31-S , 32-C ) :   1.1182 B( 32-C , 33-C ) :   1.4949
B( 32-C , 35-C ) :   1.1221 B( 33-C , 34-C ) :   1.2895 B( 33-C , 91-H ) :   0.9935
B( 34-C , 92-H ) :   0.9926 B( 35-C , 36-C ) :   1.6676 B( 35-C , 93-H ) :   0.9572
B( 36-C , 37-C ) :   1.1759 B( 36-C , 94-H ) :   0.9568 B( 37-C , 38-C ) :   1.4946
B( 37-C , 44-S ) :   1.1500 B( 38-C , 39-C ) :   0.9194 B( 38-C , 42-C ) :   1.2018
B( 39-C , 40-O ) :   2.1182 B( 39-C , 41-O ) :   1.2370 B( 41-O , 95-H ) :   0.9481
B( 42-C , 43-C ) :   1.5843 B( 42-C , 45-C ) :   0.9864 B( 43-C , 44-S ) :   1.1504
B( 43-C , 96-H ) :   0.9679 B( 45-C , 46-S ) :   1.1401 B( 45-C , 47-C ) :   0.1089
B( 45-C , 49-C ) :   1.5328 B( 46-S , 47-C ) :   1.1359 B( 47-C , 48-C ) :   1.5097
B( 47-C , 50-C ) :   1.1390 B( 48-C , 49-C ) :   1.2486 B( 48-C , 97-H ) :   0.9933
B( 49-C , 98-H ) :   1.0022 B( 50-C , 51-C ) :   1.4984 B( 50-C , 53-C ) :   0.1003
B( 50-C , 54-S ) :   1.1312 B( 51-C , 52-C ) :   1.2758 B( 51-C , 99-H ) :   0.9946
B( 52-C , 53-C ) :   1.4950 B( 52-C ,100-H ) :   0.9929 B( 53-C , 54-S ) :   1.1152
B( 53-C , 55-C ) :   1.1632 B( 55-C , 56-S ) :   1.1600 B( 55-C , 59-C ) :   1.4434
B( 56-S , 57-C ) :   1.0927 B( 57-C , 58-C ) :   1.4408 B( 57-C , 60-C ) :   1.1561
B( 58-C , 59-C ) :   1.3268 B( 58-C ,101-H ) :   0.9901 B( 59-C ,102-H ) :   0.9910
B( 60-C , 61-C ) :   1.5953 B( 60-C ,103-H ) :   0.9722 B( 61-C , 62-C ) :   1.2128
B( 61-C ,104-H ) :   0.9644 B( 62-C , 63-C ) :   1.5124 B( 62-C ,105-H ) :   0.9474
B( 63-C , 64-C ) :   1.0612 B( 63-C , 76-C ) :   1.0367 B( 64-C , 65-C ) :   1.6305
B( 64-C , 70-C ) :   0.9963 B( 65-C , 66-C ) :   1.1382 B( 65-C , 68-C ) :   1.1463
B( 66-C , 67-N ) :   2.9765 B( 68-C , 69-N ) :   2.9764 B( 70-C , 71-C ) :   1.3125
B( 70-C , 75-C ) :   1.3871 B( 71-C , 72-C ) :   1.3817 B( 71-C , 76-C ) :   1.0118
B( 72-C , 73-C ) :   1.3656 B( 72-C ,106-H ) :   0.9858 B( 73-C , 74-C ) :   1.3801
B( 73-C ,107-H ) :   0.9858 B( 74-C , 75-C ) :   1.3672 B( 74-C ,108-H ) :   0.9860
B( 75-C ,109-H ) :   0.9838 B( 76-C , 77-C ) :   1.6275 B( 77-C , 78-C ) :   1.1390
B( 77-C , 80-C ) :   1.1526 B( 78-C , 79-N ) :   2.9875 B( 80-C , 81-N ) :   3.0139

-----------------------------------------------------------------------------
         ABSORPTION SPECTRUM VIA TRANSITION ELECTRIC DIPOLE MOMENTS
-----------------------------------------------------------------------------
State   Energy  Wavelength   fosc         T2         TX        TY        TZ
        (cm-1)    (nm)                  (au**2)     (au)      (au)      (au)
-----------------------------------------------------------------------------
   0   16210.7    616.9   2.152604684  43.71581   2.95957  -5.82923   0.98834
   1   17158.9    582.8   1.062801903  20.39105   3.48182  -2.34876   1.65871
   2   21157.5    472.6   0.262334183   4.08194  -1.61107   1.21745  -0.06493
   3   21606.6    462.8   0.184774997   2.81535  -0.93463  -0.07798  -1.39131
   4   23702.7    421.9   0.272850295   3.78968  -1.43077   1.31529   0.11222
   5   24385.4    410.1   0.009004948   0.12157   0.03095  -0.28031   0.20503
   6   25000.9    400.0   0.448333357   5.90365   1.29215  -2.05198  -0.15289
   7   26249.2    381.0   0.032922116   0.41290  -0.50901  -0.02087  -0.39163
   8   26608.8    375.8   0.078227150   0.96785  -0.45122   0.82066  -0.30127
   9   28213.5    354.4   0.098910655   1.15415   1.05793  -0.17377   0.06884
  10   28287.3    353.5   0.248676358   2.89413   0.45088  -0.89192   1.37670
  11   28938.6    345.6   0.192445940   2.18931   1.17624  -0.78509   0.43521
  12   29305.1    341.2   0.222664137   2.50140   1.24678  -0.96728   0.10643
  13   29823.4    335.3   0.097240107   1.07341   0.51456   0.24004   0.86661
  14   30198.8    331.1   0.004337724   0.04729   0.04360   0.15068  -0.15061
  15   30911.5    323.5   0.203652324   2.16893   0.59356   0.48767   1.25650
  16   31460.5    317.9   0.044215919   0.46269  -0.66043   0.14099  -0.08154
  17   31660.6    315.8   0.027046513   0.28123  -0.32349   0.40769  -0.10189
  18   31856.0    313.9   0.021342289   0.22056  -0.33105   0.05695   0.32821
  19   32403.6    308.6   0.010176140   0.10339  -0.22224   0.22810  -0.04435
  20   32484.6    307.8   0.001988970   0.02016   0.12906  -0.05500  -0.02179
  21   32905.5    303.9   0.019378282   0.19388  -0.15435  -0.15415  -0.38248
  22   33153.8    301.6   0.537580737   5.33809   1.99975  -1.09619   0.37076
  23   33223.7    301.0   0.003960288   0.03924  -0.09050   0.00658  -0.17609
  24   33618.4    297.5   0.511460826   5.00854   1.19285   0.58719   1.80024
  25   33901.0    295.0   0.027942709   0.27135   0.27885   0.34804  -0.26918
  26   34176.2    292.6   0.057156373   0.55057  -0.44598  -0.58821   0.07545
  27   34737.6    287.9   0.247686066   2.34735   1.30743  -0.56499  -0.56457
  28   34918.2    286.4   0.054525988   0.51408   0.23186  -0.50039  -0.45818
  29   35020.1    285.6   0.222724199   2.09375   0.61689   0.49491  -1.21172
  30   35719.9    280.0   0.023674820   0.21820   0.17544   0.16783  -0.39907
  31   35830.6    279.1   0.054590299   0.50158  -0.58980  -0.04252   0.38975
  32   36773.2    271.9   0.288198175   2.58009  -0.51439  -0.65607   1.37297
  33   37017.1    270.1   0.154091979   1.37042  -0.90361   0.59379   0.44868
  34   37273.3    268.3   0.079123902   0.69885  -0.23190   0.18989   0.78040
  35   37307.5    268.0   0.010380748   0.09160   0.28701   0.09522  -0.01276
  36   37999.6    263.2   0.031993425   0.27718  -0.11323  -0.29166   0.42343
  37   38006.1    263.1   0.001733039   0.01501   0.02585  -0.01184   0.11918
  38   38145.6    262.2   0.023677923   0.20435  -0.42901   0.11750   0.08060
  39   38388.7    260.5   0.006920718   0.05935   0.17973  -0.16202  -0.02820
  40   38697.5    258.4   0.011005054   0.09362   0.11906   0.10314   0.26232
  41   39192.2    255.2   0.041475199   0.34839   0.06810  -0.44802   0.37819
  42   39488.1    253.2   0.023274887   0.19404   0.37090  -0.11241  -0.20938
  43   39841.3    251.0   0.042830354   0.35391   0.04241  -0.28806  -0.51878
  44   39917.2    250.5   0.007466864   0.06158  -0.13465   0.16049   0.13302

FINAL SINGLE POINT ENERGY     -5864.581818706299

DIPOLE MOMENT
-------------
                                X             Y             Z
Electronic contribution:    -14.81711      15.87700       4.98882
Nuclear contribution   :     15.89008     -16.94777      -9.39626
                        -----------------------------------------
Total Dipole Moment    :      1.07297      -1.07077      -4.40744
                        -----------------------------------------
Magnitude (a.u.)       :      4.66083
Magnitude (Debye)      :     11.84688

Rotational constants in cm-1:     0.002139     0.000080     0.000079
Rotational constants in MHz :    64.135469     2.393672     2.369489

                             ****ORCA TERMINATED NORMALLY****
TOTAL RUN TIME: 0 days 0 hours 12 minutes 22 seconds 287 msec
