                         Program Version 4.2.0 -  RELEASE  -
|  1> # ORCA input file
|  2> # SCF done       -194.453116863754          0.000983764965
|  3> ! CAM-B3LYP def2-SVP def2/J RIJCOSX Grid4 TightSCF
|  4> %maxcore 5000
|  5> %tddft
|  6>     Mode sTDDFT
|  7>     Ethresh 5.0
|  8>     maxcore 5000
|  9> end
| 10>
| 11> %pal
| 12>   nprocs 6
| 13>   end
| 14> * xyz 0 1
| 15>    C       -6.87979        -4.26729        12.42354
| 16>    C       -7.48971        -4.97462        13.44898
| 17>    C       -8.52821        -5.85724        13.19065
| 18>    C       -8.99120        -6.05424        11.89837
| 19>    C       -8.38875        -5.35487        10.86669
| 20>    C       -7.32714        -4.45986        11.12647
| 21>    C       -6.87207        -3.88871         9.86656
| 22>    C       -5.93703        -2.89814         9.72846
| 23>    C       -5.28103        -2.27227        10.81065
| 24>    N       -4.71572        -1.70977        11.63598
| 25>    C       -5.52076        -2.31795         8.51163
| 26>    N       -5.13614        -1.79241         7.56546
| 27>    C       -7.60062        -4.57624         8.80627
| 28>    C       -8.66516        -5.33992         9.43944
| 29>    C       -9.82237        -5.77972         8.84918
| 30>    C      -10.22743        -5.45770         7.53965
| 31>    N      -10.64935        -5.18072         6.50768
| 32>    C      -10.81125        -6.53484         9.51182
| 33>    N      -11.63786        -7.18549         9.97154
| 34>    C       -7.23788        -4.54589         7.48523
| 35>    C       -7.63855        -5.38429         6.42535
| 36>    S       -7.73160        -4.66440         4.84701
| 37>    C       -8.48223        -6.05111         4.14500
| 38>    C       -8.52496        -7.11466         5.07600
| 39>    C       -8.02950        -6.73494         6.36172
| 40>    C       -7.90143        -7.73044         7.36350
| 41>    C       -7.20487        -7.50810         8.56954
| 42>    N       -6.59788        -7.40656         9.53849
| 43>    C       -8.35885        -9.01321         7.11595
| 44>    C       -8.88206        -9.35709         5.86894
| 45>    C       -8.93146        -8.43832         4.84952
| 46>    C       -8.98630        -5.91677         2.83612
| 47>    C       -9.92432        -6.68998         2.22297
| 48>    C      -10.42493        -6.42911         0.93412
| 49>    S       -9.83017        -5.06287        -0.06283
| 50>    C      -10.97811        -5.51799        -1.24489
| 51>    C      -11.70362        -6.64742        -0.81848
| 52>    N      -11.38044        -7.12575         0.36857
| 53>    C      -12.72643        -7.03673        -1.83710
| 54>    C      -12.51265        -5.97900        -2.87921
| 55>    C      -11.47099        -5.11517        -2.49798
| 56>    S      -11.18891        -3.86924        -3.63910
| 57>    C      -12.49387        -4.48728        -4.64157
| 58>    C      -13.08480        -5.62195        -4.08472
| 59>    C      -12.88170        -3.84071        -5.82812
| 60>    C      -12.27844        -2.72316        -6.32908
| 61>    C      -12.71487        -2.02528        -7.46580
| 62>    S      -14.14778        -2.49826        -8.32095
| 63>    C      -14.04549        -1.16717        -9.42958
| 64>    C      -12.90483        -0.37761        -9.15007
| 65>    C      -12.15176        -0.86449        -8.04397
| 66>    C      -10.97985        -0.16565        -7.66116
| 67>    C      -10.14030        -0.57597        -6.60212
| 68>    N       -9.40745        -0.85530        -5.76447
| 69>    C      -10.60762         0.97339        -8.35422
| 70>    C      -11.36740         1.44432        -9.42767
| 71>    C      -12.49974         0.78179        -9.82862
| 72>    C      -15.03505        -0.91760       -10.37929
| 73>    C      -16.13270        -1.71376       -10.59641
| 74>    C      -17.17060        -1.45125       -11.50087
| 75>    C      -17.54300        -0.24722       -12.06379
| 76>    C      -18.29224        -0.12843       -13.30413
| 77>    C      -18.96315        -1.11780       -13.97801
| 78>    C      -19.08560        -2.46353       -13.57568
| 79>    N      -19.23564        -3.57506       -13.32669
| 80>    C      -19.67202        -0.91402       -15.18053
| 81>    N      -20.26924        -0.82618       -16.15760
| 82>    C      -18.18896         1.26236       -13.73252
| 83>    C      -17.52044         1.99753       -12.72892
| 84>    C      -17.26311         3.34787       -12.89530
| 85>    C      -17.68064         3.96282       -14.06642
| 86>    C      -18.34773         3.24560       -15.04818
| 87>    C      -18.60837         1.89171       -14.89335
| 88>    C      -17.23657         1.10084       -11.61658
| 89>    C      -16.99230         1.51101       -10.32857
| 90>    C      -16.76220         2.85012        -9.95707
| 91>    N      -16.52854         3.91415        -9.59311
| 92>    C      -16.99412         0.66909        -9.19924
| 93>    N      -17.01953         0.05758        -8.22745
| 94>    H       -6.06970        -3.59169        12.64298
| 95>    H       -7.14436        -4.83782        14.46239
| 96>    H       -8.98127        -6.40322        14.00404
| 97>    H       -9.79124        -6.75111        11.70896
| 98>    H       -6.55856        -3.75771         7.18547
| 99>    H       -8.26909        -9.76087         7.88994
|100>    H       -9.20927       -10.37083         5.69869
|101>    H       -9.24804        -8.74369         3.86667
|102>    H       -8.63028        -5.04372         2.30042
|103>    H      -10.39633        -7.51898         2.72597
|104>    H      -13.73611        -7.01471        -1.42330
|105>    H      -12.54952        -8.04218        -2.22382
|106>    H      -13.90099        -6.13562        -4.55986
|107>    H      -13.73085        -4.26513        -6.34937
|108>    H      -11.41791        -2.32539        -5.81043
|109>    H       -9.71433         1.50114        -8.05526
|110>    H      -11.05193         2.33803        -9.94315
|111>    H      -13.07686         1.14892       -10.66281
|112>    H      -14.90323        -0.03243       -10.98769
|113>    H      -16.17293        -2.66467       -10.08059
|114>    H      -17.71558        -2.32488       -11.83258
|115>    H      -16.74065         3.91543       -12.14245
|116>    H      -17.48156         5.01351       -14.21236
|117>    H      -18.66779         3.74443       -15.95017
|118>    H      -19.12417         1.35165       -15.66971
|119> *
|120>
|121>                          ****END OF INPUT****

CARTESIAN COORDINATES (ANGSTROEM)
---------------------------------
  C     -6.879790   -4.267290   12.423540
  C     -7.489710   -4.974620   13.448980
  C     -8.528210   -5.857240   13.190650
  C     -8.991200   -6.054240   11.898370
  C     -8.388750   -5.354870   10.866690
  C     -7.327140   -4.459860   11.126470
  C     -6.872070   -3.888710    9.866560
  C     -5.937030   -2.898140    9.728460
  C     -5.281030   -2.272270   10.810650
  N     -4.715720   -1.709770   11.635980
  C     -5.520760   -2.317950    8.511630
  N     -5.136140   -1.792410    7.565460
  C     -7.600620   -4.576240    8.806270
  C     -8.665160   -5.339920    9.439440
  C     -9.822370   -5.779720    8.849180
  C    -10.227430   -5.457700    7.539650
  N    -10.649350   -5.180720    6.507680
  C    -10.811250   -6.534840    9.511820
  N    -11.637860   -7.185490    9.971540
  C     -7.237880   -4.545890    7.485230
  C     -7.638550   -5.384290    6.425350
  S     -7.731600   -4.664400    4.847010
  C     -8.482230   -6.051110    4.145000
  C     -8.524960   -7.114660    5.076000
  C     -8.029500   -6.734940    6.361720
  C     -7.901430   -7.730440    7.363500
  C     -7.204870   -7.508100    8.569540
  N     -6.597880   -7.406560    9.538490
  C     -8.358850   -9.013210    7.115950
  C     -8.882060   -9.357090    5.868940
  C     -8.931460   -8.438320    4.849520
  C     -8.986300   -5.916770    2.836120
  C     -9.924320   -6.689980    2.222970
  C    -10.424930   -6.429110    0.934120
  S     -9.830170   -5.062870   -0.062830
  C    -10.978110   -5.517990   -1.244890
  C    -11.703620   -6.647420   -0.818480
  N    -11.380440   -7.125750    0.368570
  C    -12.726430   -7.036730   -1.837100
  C    -12.512650   -5.979000   -2.879210
  C    -11.470990   -5.115170   -2.497980
  S    -11.188910   -3.869240   -3.639100
  C    -12.493870   -4.487280   -4.641570
  C    -13.084800   -5.621950   -4.084720
  C    -12.881700   -3.840710   -5.828120
  C    -12.278440   -2.723160   -6.329080
  C    -12.714870   -2.025280   -7.465800
  S    -14.147780   -2.498260   -8.320950
  C    -14.045490   -1.167170   -9.429580
  C    -12.904830   -0.377610   -9.150070
  C    -12.151760   -0.864490   -8.043970
  C    -10.979850   -0.165650   -7.661160
  C    -10.140300   -0.575970   -6.602120
  N     -9.407450   -0.855300   -5.764470
  C    -10.607620    0.973390   -8.354220
  C    -11.367400    1.444320   -9.427670
  C    -12.499740    0.781790   -9.828620
  C    -15.035050   -0.917600  -10.379290
  C    -16.132700   -1.713760  -10.596410
  C    -17.170600   -1.451250  -11.500870
  C    -17.543000   -0.247220  -12.063790
  C    -18.292240   -0.128430  -13.304130
  C    -18.963150   -1.117800  -13.978010
  C    -19.085600   -2.463530  -13.575680
  N    -19.235640   -3.575060  -13.326690
  C    -19.672020   -0.914020  -15.180530
  N    -20.269240   -0.826180  -16.157600
  C    -18.188960    1.262360  -13.732520
  C    -17.520440    1.997530  -12.728920
  C    -17.263110    3.347870  -12.895300
  C    -17.680640    3.962820  -14.066420
  C    -18.347730    3.245600  -15.048180
  C    -18.608370    1.891710  -14.893350
  C    -17.236570    1.100840  -11.616580
  C    -16.992300    1.511010  -10.328570
  C    -16.762200    2.850120   -9.957070
  N    -16.528540    3.914150   -9.593110
  C    -16.994120    0.669090   -9.199240
  N    -17.019530    0.057580   -8.227450
  H     -6.069700   -3.591690   12.642980
  H     -7.144360   -4.837820   14.462390
  H     -8.981270   -6.403220   14.004040
  H     -9.791240   -6.751110   11.708960
  H     -6.558560   -3.757710    7.185470
  H     -8.269090   -9.760870    7.889940
  H     -9.209270  -10.370830    5.698690
  H     -9.248040   -8.743690    3.866670
  H     -8.630280   -5.043720    2.300420
  H    -10.396330   -7.518980    2.725970
  H    -13.736110   -7.014710   -1.423300
  H    -12.549520   -8.042180   -2.223820
  H    -13.900990   -6.135620   -4.559860
  H    -13.730850   -4.265130   -6.349370
  H    -11.417910   -2.325390   -5.810430
  H     -9.714330    1.501140   -8.055260
  H    -11.051930    2.338030   -9.943150
  H    -13.076860    1.148920  -10.662810
  H    -14.903230   -0.032430  -10.987690
  H    -16.172930   -2.664670  -10.080590
  H    -17.715580   -2.324880  -11.832580
  H    -16.740650    3.915430  -12.142450
  H    -17.481560    5.013510  -14.212360
  H    -18.667790    3.744430  -15.950170
  H    -19.124170    1.351650  -15.669710

 Total Charge           Charge          ....    0
 Multiplicity           Mult            ....    1
 Number of Electrons    NEL             ....  550
 Basis Dimension        Dim             .... 1247

ORBITAL ENERGIES
----------------

  NO   OCC          E(Eh)            E(eV)
   0   2.0000     -88.996757     -2421.7249
   1   2.0000     -88.990434     -2421.5528
   2   2.0000     -88.988042     -2421.4877
   3   2.0000     -88.983384     -2421.3610
   4   2.0000     -14.433958      -392.7680
   5   2.0000     -14.423630      -392.4869
   6   2.0000     -14.421067      -392.4172
   7   2.0000     -14.420726      -392.4079
   8   2.0000     -14.419429      -392.3726
   9   2.0000     -14.418095      -392.3363
  10   2.0000     -14.417367      -392.3165
  11   2.0000     -14.417223      -392.3126
  12   2.0000     -14.416838      -392.3021
  13   2.0000     -14.415247      -392.2588
  14   2.0000     -14.413545      -392.2125
  15   2.0000     -10.356638      -281.8185
  16   2.0000     -10.347235      -281.5626
  17   2.0000     -10.346529      -281.5434
  18   2.0000     -10.346505      -281.5427
  19   2.0000     -10.345958      -281.5278
  20   2.0000     -10.344242      -281.4811
  21   2.0000     -10.344020      -281.4751
  22   2.0000     -10.343733      -281.4673
  23   2.0000     -10.343361      -281.4572
  24   2.0000     -10.342532      -281.4346
  25   2.0000     -10.341747      -281.4133
  26   2.0000     -10.336645      -281.2744
  27   2.0000     -10.334356      -281.2121
  28   2.0000     -10.334299      -281.2106
  29   2.0000     -10.331432      -281.1326
  30   2.0000     -10.329622      -281.0833
  31   2.0000     -10.328950      -281.0650
  32   2.0000     -10.328437      -281.0511
  33   2.0000     -10.327312      -281.0204
  34   2.0000     -10.326115      -280.9879
  35   2.0000     -10.325454      -280.9699
  36   2.0000     -10.323734      -280.9231
  37   2.0000     -10.323149      -280.9072
  38   2.0000     -10.322908      -280.9006
  39   2.0000     -10.321514      -280.8627
  40   2.0000     -10.321166      -280.8532
  41   2.0000     -10.321045      -280.8499
  42   2.0000     -10.320914      -280.8464
  43   2.0000     -10.320727      -280.8413
  44   2.0000     -10.319690      -280.8130
  45   2.0000     -10.319492      -280.8077
  46   2.0000     -10.319479      -280.8073
  47   2.0000     -10.319212      -280.8000
  48   2.0000     -10.318302      -280.7753
  49   2.0000     -10.318122      -280.7704
  50   2.0000     -10.317603      -280.7563
  51   2.0000     -10.317119      -280.7431
  52   2.0000     -10.317079      -280.7420
  53   2.0000     -10.316991      -280.7396
  54   2.0000     -10.316953      -280.7386
  55   2.0000     -10.315134      -280.6891
  56   2.0000     -10.314730      -280.6781
  57   2.0000     -10.313839      -280.6538
  58   2.0000     -10.311318      -280.5852
  59   2.0000     -10.309007      -280.5223
  60   2.0000     -10.308518      -280.5090
  61   2.0000     -10.308138      -280.4987
  62   2.0000     -10.307556      -280.4829
  63   2.0000     -10.306650      -280.4582
  64   2.0000     -10.305003      -280.4134
  65   2.0000     -10.304740      -280.4062
  66   2.0000     -10.304587      -280.4021
  67   2.0000     -10.304423      -280.3976
  68   2.0000     -10.303844      -280.3818
  69   2.0000     -10.303601      -280.3752
  70   2.0000     -10.297778      -280.2168
  71   2.0000     -10.296731      -280.1883
  72   2.0000     -10.296518      -280.1825
  73   2.0000     -10.295669      -280.1594
  74   2.0000     -10.295377      -280.1514
  75   2.0000     -10.293385      -280.0973
  76   2.0000     -10.293038      -280.0878
  77   2.0000     -10.292628      -280.0766
  78   2.0000     -10.291572      -280.0479
  79   2.0000      -8.091998      -220.1945
  80   2.0000      -8.085460      -220.0166
  81   2.0000      -8.083050      -219.9510
  82   2.0000      -8.078101      -219.8163
  83   2.0000      -6.060868      -164.9246
  84   2.0000      -6.056766      -164.8130
  85   2.0000      -6.054885      -164.7618
  86   2.0000      -6.054401      -164.7486
  87   2.0000      -6.052200      -164.6887
  88   2.0000      -6.050401      -164.6398
  89   2.0000      -6.048348      -164.5839
  90   2.0000      -6.048174      -164.5792
  91   2.0000      -6.047449      -164.5594
  92   2.0000      -6.045180      -164.4977
  93   2.0000      -6.043341      -164.4477
  94   2.0000      -6.040142      -164.3606
  95   2.0000      -1.089125       -29.6366
  96   2.0000      -1.039542       -28.2874
  97   2.0000      -1.032387       -28.0927
  98   2.0000      -1.030376       -28.0380
  99   2.0000      -1.027138       -27.9498
 100   2.0000      -1.019215       -27.7343
 101   2.0000      -1.015675       -27.6379
 102   2.0000      -1.013974       -27.5916
 103   2.0000      -1.009119       -27.4595
 104   2.0000      -1.008358       -27.4388
 105   2.0000      -1.003391       -27.3037
 106   2.0000      -1.003299       -27.3011
 107   2.0000      -0.997048       -27.1310
 108   2.0000      -0.995983       -27.1021
 109   2.0000      -0.995973       -27.1018
 110   2.0000      -0.993474       -27.0338
 111   2.0000      -0.968912       -26.3654
 112   2.0000      -0.967999       -26.3406
 113   2.0000      -0.958748       -26.0888
 114   2.0000      -0.955983       -26.0136
 115   2.0000      -0.953602       -25.9488
 116   2.0000      -0.939789       -25.5730
 117   2.0000      -0.936771       -25.4908
 118   2.0000      -0.935345       -25.4520
 119   2.0000      -0.933778       -25.4094
 120   2.0000      -0.917943       -24.9785
 121   2.0000      -0.911704       -24.8087
 122   2.0000      -0.900134       -24.4939
 123   2.0000      -0.893146       -24.3037
 124   2.0000      -0.891523       -24.2596
 125   2.0000      -0.889638       -24.2083
 126   2.0000      -0.881769       -23.9942
 127   2.0000      -0.869784       -23.6680
 128   2.0000      -0.867247       -23.5990
 129   2.0000      -0.862604       -23.4727
 130   2.0000      -0.862434       -23.4680
 131   2.0000      -0.859415       -23.3859
 132   2.0000      -0.858046       -23.3486
 133   2.0000      -0.842358       -22.9217
 134   2.0000      -0.828087       -22.5334
 135   2.0000      -0.808456       -21.9992
 136   2.0000      -0.799948       -21.7677
 137   2.0000      -0.792264       -21.5586
 138   2.0000      -0.788060       -21.4442
 139   2.0000      -0.787345       -21.4248
 140   2.0000      -0.773891       -21.0587
 141   2.0000      -0.763670       -20.7805
 142   2.0000      -0.760109       -20.6836
 143   2.0000      -0.756262       -20.5789
 144   2.0000      -0.736822       -20.0499
 145   2.0000      -0.724174       -19.7058
 146   2.0000      -0.719113       -19.5681
 147   2.0000      -0.712804       -19.3964
 148   2.0000      -0.712070       -19.3764
 149   2.0000      -0.709613       -19.3095
 150   2.0000      -0.708253       -19.2725
 151   2.0000      -0.701098       -19.0779
 152   2.0000      -0.696914       -18.9640
 153   2.0000      -0.690517       -18.7899
 154   2.0000      -0.677397       -18.4329
 155   2.0000      -0.673369       -18.3233
 156   2.0000      -0.668185       -18.1822
 157   2.0000      -0.666973       -18.1493
 158   2.0000      -0.661588       -18.0027
 159   2.0000      -0.661212       -17.9925
 160   2.0000      -0.657822       -17.9003
 161   2.0000      -0.654992       -17.8232
 162   2.0000      -0.648430       -17.6447
 163   2.0000      -0.637611       -17.3503
 164   2.0000      -0.632293       -17.2056
 165   2.0000      -0.628489       -17.1021
 166   2.0000      -0.622229       -16.9317
 167   2.0000      -0.616792       -16.7838
 168   2.0000      -0.607662       -16.5353
 169   2.0000      -0.601741       -16.3742
 170   2.0000      -0.593426       -16.1479
 171   2.0000      -0.591524       -16.0962
 172   2.0000      -0.588238       -16.0068
 173   2.0000      -0.585391       -15.9293
 174   2.0000      -0.582923       -15.8621
 175   2.0000      -0.581350       -15.8193
 176   2.0000      -0.581170       -15.8144
 177   2.0000      -0.579181       -15.7603
 178   2.0000      -0.572330       -15.5739
 179   2.0000      -0.571476       -15.5506
 180   2.0000      -0.565569       -15.3899
 181   2.0000      -0.560553       -15.2534
 182   2.0000      -0.555585       -15.1182
 183   2.0000      -0.547600       -14.9010
 184   2.0000      -0.545258       -14.8372
 185   2.0000      -0.545020       -14.8307
 186   2.0000      -0.541835       -14.7441
 187   2.0000      -0.540312       -14.7026
 188   2.0000      -0.537436       -14.6244
 189   2.0000      -0.536846       -14.6083
 190   2.0000      -0.534626       -14.5479
 191   2.0000      -0.532367       -14.4864
 192   2.0000      -0.531737       -14.4693
 193   2.0000      -0.529973       -14.4213
 194   2.0000      -0.520433       -14.1617
 195   2.0000      -0.519812       -14.1448
 196   2.0000      -0.513741       -13.9796
 197   2.0000      -0.511808       -13.9270
 198   2.0000      -0.511045       -13.9062
 199   2.0000      -0.505577       -13.7575
 200   2.0000      -0.502914       -13.6850
 201   2.0000      -0.502462       -13.6727
 202   2.0000      -0.500074       -13.6077
 203   2.0000      -0.497957       -13.5501
 204   2.0000      -0.494494       -13.4559
 205   2.0000      -0.493526       -13.4295
 206   2.0000      -0.487687       -13.2707
 207   2.0000      -0.485519       -13.2116
 208   2.0000      -0.481183       -13.0937
 209   2.0000      -0.480107       -13.0644
 210   2.0000      -0.478264       -13.0142
 211   2.0000      -0.476513       -12.9666
 212   2.0000      -0.475730       -12.9453
 213   2.0000      -0.473994       -12.8980
 214   2.0000      -0.473845       -12.8940
 215   2.0000      -0.469351       -12.7717
 216   2.0000      -0.467155       -12.7119
 217   2.0000      -0.465106       -12.6562
 218   2.0000      -0.463718       -12.6184
 219   2.0000      -0.456271       -12.4158
 220   2.0000      -0.455303       -12.3894
 221   2.0000      -0.454586       -12.3699
 222   2.0000      -0.454114       -12.3571
 223   2.0000      -0.453925       -12.3519
 224   2.0000      -0.451377       -12.2826
 225   2.0000      -0.451189       -12.2775
 226   2.0000      -0.450784       -12.2665
 227   2.0000      -0.449232       -12.2242
 228   2.0000      -0.448489       -12.2040
 229   2.0000      -0.448058       -12.1923
 230   2.0000      -0.446542       -12.1510
 231   2.0000      -0.446251       -12.1431
 232   2.0000      -0.444537       -12.0965
 233   2.0000      -0.443694       -12.0735
 234   2.0000      -0.442976       -12.0540
 235   2.0000      -0.441791       -12.0218
 236   2.0000      -0.440188       -11.9781
 237   2.0000      -0.437509       -11.9052
 238   2.0000      -0.435102       -11.8397
 239   2.0000      -0.434285       -11.8175
 240   2.0000      -0.433932       -11.8079
 241   2.0000      -0.430087       -11.7033
 242   2.0000      -0.428773       -11.6675
 243   2.0000      -0.428576       -11.6621
 244   2.0000      -0.426059       -11.5937
 245   2.0000      -0.425820       -11.5872
 246   2.0000      -0.422220       -11.4892
 247   2.0000      -0.420528       -11.4432
 248   2.0000      -0.416930       -11.3452
 249   2.0000      -0.416675       -11.3383
 250   2.0000      -0.411374       -11.1941
 251   2.0000      -0.410915       -11.1816
 252   2.0000      -0.408727       -11.1220
 253   2.0000      -0.407400       -11.0859
 254   2.0000      -0.405957       -11.0467
 255   2.0000      -0.397399       -10.8138
 256   2.0000      -0.381501       -10.3812
 257   2.0000      -0.380253       -10.3472
 258   2.0000      -0.377312       -10.2672
 259   2.0000      -0.371836       -10.1182
 260   2.0000      -0.370816       -10.0904
 261   2.0000      -0.368248       -10.0205
 262   2.0000      -0.351658        -9.5691
 263   2.0000      -0.348347        -9.4790
 264   2.0000      -0.348070        -9.4715
 265   2.0000      -0.346633        -9.4324
 266   2.0000      -0.338954        -9.2234
 267   2.0000      -0.331257        -9.0140
 268   2.0000      -0.329925        -8.9777
 269   2.0000      -0.327421        -8.9096
 270   2.0000      -0.309086        -8.4107
 271   2.0000      -0.303963        -8.2713
 272   2.0000      -0.288740        -7.8570
 273   2.0000      -0.261841        -7.1250
 274   2.0000      -0.235633        -6.4119
 275   0.0000      -0.126944        -3.4543
 276   0.0000      -0.110632        -3.0105
 277   0.0000      -0.084838        -2.3086
 278   0.0000      -0.083204        -2.2641
 279   0.0000      -0.073197        -1.9918

MULLIKEN ATOMIC CHARGES
-----------------------
   0 C :   -0.034411
   1 C :    0.047331
   2 C :    0.051991
   3 C :   -0.036673
   4 C :    0.041934
   5 C :    0.024175
   6 C :    0.307395
   7 C :   -0.351385
   8 C :   -0.193041
   9 N :    0.162682
  10 C :   -0.178889
  11 N :    0.153007
  12 C :   -0.044298
  13 C :    0.186916
  14 C :   -0.330686
  15 C :   -0.197148
  16 N :    0.169195
  17 C :   -0.191873
  18 N :    0.159529
  19 C :    0.086742
  20 C :   -0.246150
  21 S :    0.234940
  22 C :   -0.083434
  23 C :    0.086104
  24 C :    0.200736
  25 C :   -0.129041
  26 C :   -0.202343
  27 N :    0.134358
  28 C :    0.039782
  29 C :    0.030819
  30 C :   -0.009104
  31 C :    0.036065
  32 C :    0.037158
  33 C :   -0.084783
  34 S :    0.134727
  35 C :   -0.046755
  36 C :   -0.225055
  37 N :   -0.004860
  38 C :    0.389614
  39 C :   -0.144000
  40 C :   -0.083981
  41 S :    0.169615
  42 C :   -0.055398
  43 C :   -0.016619
  44 C :    0.030104
  45 C :   -0.050088
  46 C :   -0.080174
  47 S :    0.167445
  48 C :   -0.097414
  49 C :    0.120485
  50 C :    0.163077
  51 C :   -0.113702
  52 C :   -0.174140
  53 N :    0.096137
  54 C :    0.029880
  55 C :    0.036985
  56 C :   -0.017256
  57 C :    0.027040
  58 C :   -0.024527
  59 C :    0.042813
  60 C :   -0.076360
  61 C :    0.307435
  62 C :   -0.355680
  63 C :   -0.181674
  64 N :    0.150851
  65 C :   -0.191547
  66 N :    0.151957
  67 C :    0.014524
  68 C :   -0.000854
  69 C :   -0.039083
  70 C :    0.045679
  71 C :    0.047366
  72 C :   -0.038460
  73 C :    0.229857
  74 C :   -0.365666
  75 C :   -0.184361
  76 N :    0.155360
  77 C :   -0.193477
  78 N :    0.173657
  79 H :    0.003703
  80 H :    0.000729
  81 H :    0.000832
  82 H :    0.001213
  83 H :    0.014404
  84 H :    0.007158
  85 H :    0.003818
  86 H :   -0.009323
  87 H :    0.004233
  88 H :    0.017947
  89 H :    0.044893
  90 H :    0.043281
  91 H :   -0.012279
  92 H :    0.005898
  93 H :    0.020980
  94 H :    0.004347
  95 H :    0.005286
  96 H :   -0.011386
  97 H :    0.019644
  98 H :    0.002984
  99 H :    0.019261
 100 H :    0.002615
 101 H :    0.002163
 102 H :    0.001611
 103 H :    0.004909
Sum of atomic charges:   -0.0000000

LOEWDIN ATOMIC CHARGES
----------------------
   0 C :    0.007163
   1 C :    0.001098
   2 C :    0.005813
   3 C :    0.002996
   4 C :   -0.001984
   5 C :   -0.008578
   6 C :    0.085383
   7 C :   -0.133551
   8 C :   -0.018397
   9 N :   -0.047557
  10 C :   -0.020278
  11 N :   -0.049796
  12 C :   -0.053685
  13 C :    0.070935
  14 C :   -0.139891
  15 C :   -0.014075
  16 N :   -0.058568
  17 C :   -0.019933
  18 N :   -0.052129
  19 C :    0.023020
  20 C :   -0.192128
  21 S :    0.541496
  22 C :   -0.129631
  23 C :   -0.038805
  24 C :   -0.014683
  25 C :   -0.073702
  26 C :   -0.021775
  27 N :   -0.055026
  28 C :    0.039633
  29 C :   -0.023273
  30 C :    0.021691
  31 C :   -0.046106
  32 C :   -0.020287
  33 C :   -0.122439
  34 S :    0.422850
  35 C :   -0.206674
  36 C :   -0.030453
  37 N :   -0.075377
  38 C :   -0.010643
  39 C :   -0.045536
  40 C :   -0.183409
  41 S :    0.464866
  42 C :   -0.166090
  43 C :   -0.033205
  44 C :   -0.006784
  45 C :   -0.067705
  46 C :   -0.126351
  47 S :    0.502252
  48 C :   -0.182908
  49 C :   -0.017448
  50 C :   -0.036255
  51 C :   -0.057181
  52 C :   -0.024503
  53 N :   -0.056645
  54 C :    0.018954
  55 C :   -0.008900
  56 C :    0.007521
  57 C :    0.023095
  58 C :   -0.060577
  59 C :    0.055712
  60 C :   -0.076147
  61 C :    0.076989
  62 C :   -0.141406
  63 C :   -0.022101
  64 N :   -0.051755
  65 C :   -0.019093
  66 N :   -0.054280
  67 C :   -0.012568
  68 C :   -0.012714
  69 C :   -0.002697
  70 C :    0.000416
  71 C :   -0.000391
  72 C :    0.003294
  73 C :    0.063834
  74 C :   -0.148675
  75 C :   -0.022760
  76 N :   -0.057262
  77 C :   -0.017901
  78 N :   -0.048164
  79 H :    0.040865
  80 H :    0.036443
  81 H :    0.036465
  82 H :    0.039657
  83 H :    0.045731
  84 H :    0.046421
  85 H :    0.038666
  86 H :    0.035920
  87 H :    0.026658
  88 H :    0.045283
  89 H :    0.059891
  90 H :    0.059646
  91 H :    0.036173
  92 H :    0.032549
  93 H :    0.034516
  94 H :    0.043961
  95 H :    0.039339
  96 H :    0.034556
  97 H :    0.038448
  98 H :    0.029185
  99 H :    0.047754
 100 H :    0.039344
 101 H :    0.036462
 102 H :    0.036675
 103 H :    0.041221

  Mayer bond orders larger than 0.100000
B(  0-C ,  1-C ) :   1.3677 B(  0-C ,  5-C ) :   1.3785 B(  0-C , 79-H ) :   0.9837
B(  1-C ,  2-C ) :   1.3769 B(  1-C , 80-H ) :   0.9859 B(  2-C ,  3-C ) :   1.3653
B(  2-C , 81-H ) :   0.9856 B(  3-C ,  4-C ) :   1.3822 B(  3-C , 82-H ) :   0.9855
B(  4-C ,  5-C ) :   1.3107 B(  4-C , 13-C ) :   1.0212 B(  5-C ,  6-C ) :   1.0004
B(  6-C ,  7-C ) :   1.6281 B(  6-C , 12-C ) :   1.0682 B(  7-C ,  8-C ) :   1.1486
B(  7-C , 10-C ) :   1.1409 B(  8-C ,  9-N ) :   2.9791 B( 10-C , 11-N ) :   2.9600
B( 12-C , 13-C ) :   1.0199 B( 12-C , 19-C ) :   1.6033 B( 13-C , 14-C ) :   1.6322
B( 14-C , 15-C ) :   1.1690 B( 14-C , 17-C ) :   1.1337 B( 15-C , 16-N ) :   2.9969
B( 17-C , 18-N ) :   2.9905 B( 19-C , 20-C ) :   1.1957 B( 19-C , 83-H ) :   0.9013
B( 20-C , 21-S ) :   1.1447 B( 20-C , 22-C ) :   0.1056 B( 20-C , 24-C ) :   1.2722
B( 21-S , 22-C ) :   1.2112 B( 22-C , 23-C ) :   1.2679 B( 22-C , 31-C ) :   1.1882
B( 23-C , 24-C ) :   1.2322 B( 23-C , 30-C ) :   1.2508 B( 24-C , 25-C ) :   1.2544
B( 25-C , 26-C ) :   1.1126 B( 25-C , 28-C ) :   1.5010 B( 26-C , 27-N ) :   2.9988
B( 28-C , 29-C ) :   1.2457 B( 28-C , 84-H ) :   0.9963 B( 29-C , 30-C ) :   1.4713
B( 29-C , 85-H ) :   0.9840 B( 30-C , 86-H ) :   0.9926 B( 31-C , 32-C ) :   1.5944
B( 31-C , 87-H ) :   0.9391 B( 32-C , 33-C ) :   1.1722 B( 32-C , 88-H ) :   0.9696
B( 33-C , 34-S ) :   1.0615 B( 33-C , 37-N ) :   1.6039 B( 34-S , 35-C ) :   1.1011
B( 35-C , 36-C ) :   1.4384 B( 35-C , 40-C ) :   1.2170 B( 36-C , 37-N ) :   1.4748
B( 36-C , 38-C ) :   1.0421 B( 38-C , 39-C ) :   0.9791 B( 38-C , 89-H ) :   0.8644
B( 38-C , 90-H ) :   0.8594 B( 39-C , 40-C ) :   1.4711 B( 39-C , 43-C ) :   1.3352
B( 40-C , 41-S ) :   1.1019 B( 41-S , 42-C ) :   1.0944 B( 42-C , 43-C ) :   1.3837
B( 42-C , 44-C ) :   1.2212 B( 43-C , 91-H ) :   1.0086 B( 44-C , 45-C ) :   1.5396
B( 44-C , 92-H ) :   0.9767 B( 45-C , 46-C ) :   1.2483 B( 45-C , 93-H ) :   0.9508
B( 46-C , 47-S ) :   1.1650 B( 46-C , 50-C ) :   1.2730 B( 47-S , 48-C ) :   1.1027
B( 48-C , 49-C ) :   1.2383 B( 48-C , 57-C ) :   1.3381 B( 49-C , 50-C ) :   1.2292
B( 49-C , 56-C ) :   1.2459 B( 50-C , 51-C ) :   1.2299 B( 51-C , 52-C ) :   1.0868
B( 51-C , 54-C ) :   1.5293 B( 52-C , 53-N ) :   2.9645 B( 54-C , 55-C ) :   1.2340
B( 54-C , 94-H ) :   0.9932 B( 55-C , 56-C ) :   1.4990 B( 55-C , 95-H ) :   0.9843
B( 56-C , 96-H ) :   0.9932 B( 57-C , 58-C ) :   1.4763 B( 57-C , 97-H ) :   0.9545
B( 58-C , 59-C ) :   1.3012 B( 58-C , 98-H ) :   0.9542 B( 59-C , 60-C ) :   1.4860
B( 59-C , 99-H ) :   0.9250 B( 60-C , 61-C ) :   1.0916 B( 60-C , 73-C ) :   1.0523
B( 61-C , 62-C ) :   1.6075 B( 61-C , 67-C ) :   0.9886 B( 62-C , 63-C ) :   1.1409
B( 62-C , 65-C ) :   1.1527 B( 63-C , 64-N ) :   2.9632 B( 65-C , 66-N ) :   2.9713
B( 67-C , 68-C ) :   1.3168 B( 67-C , 72-C ) :   1.3846 B( 68-C , 69-C ) :   1.3855
B( 68-C , 73-C ) :   1.0029 B( 69-C , 70-C ) :   1.3609 B( 69-C ,100-H ) :   0.9860
B( 70-C , 71-C ) :   1.3820 B( 70-C ,101-H ) :   0.9867 B( 71-C , 72-C ) :   1.3660
B( 71-C ,102-H ) :   0.9857 B( 72-C ,103-H ) :   0.9832 B( 73-C , 74-C ) :   1.6126
B( 74-C , 75-C ) :   1.1436 B( 74-C , 77-C ) :   1.1643 B( 75-C , 76-N ) :   2.9863
B( 77-C , 78-N ) :   2.9951

-----------------------------------------------------------------------------
         ABSORPTION SPECTRUM VIA TRANSITION ELECTRIC DIPOLE MOMENTS
-----------------------------------------------------------------------------
State   Energy  Wavelength   fosc         T2         TX        TY        TZ
        (cm-1)    (nm)                  (au**2)     (au)      (au)      (au)
-----------------------------------------------------------------------------
   0    9976.1   1002.4   1.950730554  64.37392   3.66324  -2.30265   6.75666
   1   14407.3    694.1   0.456613504  10.43376   0.25207  -1.08646  -3.03147
   2   18093.7    552.7   0.066654401   1.21277  -0.23195   0.01802   1.07640
   3   18439.4    542.3   0.081151600   1.44886  -0.60279  -0.08143  -1.03868
   4   20150.0    496.3   0.112394207   1.83630   0.06781   1.22799  -0.56899
   5   21122.8    473.4   0.194830207   3.03654   1.08362   1.32692   0.31877
   6   21838.5    457.9   0.049919146   0.75252   0.79991   0.28434   0.17836
   7   23250.8    430.1   0.044382596   0.62842   0.49080  -0.61994   0.05669
   8   23894.5    418.5   0.012683452   0.17475   0.07814  -0.40558  -0.06440
   9   24462.1    408.8   0.069914665   0.94091   0.69377  -0.26125   0.62558
  10   24759.1    403.9   0.201158391   2.67473  -0.27328   0.23783  -1.59483
  11   26291.7    380.3   0.056280058   0.70471   0.30112   0.57272  -0.53482
  12   27672.2    361.4   0.033964052   0.40406  -0.55106   0.28272   0.14305
  13   28127.2    355.5   0.156855694   1.83590   0.85657   0.80549   0.67333
  14   28323.7    353.1   0.010041744   0.11672  -0.22776   0.05827  -0.24788
  15   28734.2    348.0   0.051901978   0.59465   0.44461   0.46565   0.42443
  16   29436.9    339.7   0.012776978   0.14289  -0.24326  -0.22957  -0.17611
  17   29708.3    336.6   0.098842115   1.09532   0.68701   0.34501   0.71014
  18   30036.0    332.9   0.046664673   0.51147  -0.59720   0.25628  -0.29856
  19   30301.7    330.0   0.050795278   0.55186   0.30940   0.64083  -0.21322
  20   30956.4    323.0   0.107572458   1.14400   0.86529   0.33083   0.53463
  21   31313.8    319.3   0.301133656   3.16591  -1.32204  -1.16831  -0.23061
  22   31934.2    313.1   0.015515478   0.15995  -0.29438  -0.12859   0.23823
  23   32136.7    311.2   0.125828458   1.28900  -0.51964  -0.53792  -0.85417
  24   32261.2    310.0   0.633986843   6.46957  -1.21327  -1.73493  -1.40982
  25   32280.0    309.8   0.093575197   0.95434  -0.13034  -0.52517   0.81336
  26   32535.0    307.4   0.024187197   0.24474   0.42040  -0.12312  -0.22988
  27   32960.9    303.4   0.088498574   0.88392   0.47523   0.79339  -0.16911
  28   33529.7    298.2   0.042538776   0.41767  -0.06124   0.44410  -0.46550
  29   33730.8    296.5   0.054485302   0.53178   0.24842  -0.34410   0.59301
  30   33945.6    294.6   0.158057663   1.53288  -0.28255  -0.75051   0.94328
  31   34447.5    290.3   0.069694782   0.66607   0.45480   0.59243  -0.32901
  32   34570.1    289.3   0.061119063   0.58204  -0.25228  -0.38431  -0.60885
  33   34859.9    286.9   0.037024205   0.34965  -0.14474   0.22464   0.52748
  34   34979.0    285.9   0.113447666   1.06774  -0.39419   0.25613  -0.92019
  35   35088.4    285.0   0.003816808   0.03581   0.10110  -0.06707   0.14523
  36   35317.9    283.1   0.012024578   0.11209  -0.03037   0.12461   0.30925
  37   35903.2    278.5   0.194839963   1.78657   0.11600   0.66118  -1.15584
  38   36203.3    276.2   0.119926843   1.09054   0.64282   0.24195   0.78663
  39   36348.7    275.1   0.026317827   0.23836   0.13899   0.46751  -0.02197
  40   36650.9    272.8   0.044743464   0.40190  -0.62611  -0.08932   0.04369
  41   37583.9    266.1   0.136494614   1.19561  -0.57232  -0.75298   0.54870
  42   38237.2    261.5   0.025947177   0.22340  -0.24858   0.04133   0.39987
  43   38484.3    259.8   0.005180363   0.04432   0.05551  -0.19243   0.06484
  44   38579.3    259.2   0.005416438   0.04622   0.12733   0.16982  -0.03421
  45   38650.0    258.7   0.007621278   0.06492   0.22069   0.12616   0.01714
  46   38853.3    257.4   0.023759547   0.20132  -0.27439   0.31189  -0.16958
  47   39240.0    254.8   0.046352814   0.38889   0.48605   0.22881   0.31668
  48   39373.6    254.0   0.130024299   1.08717  -0.02810   0.99434  -0.31252
  49   39567.5    252.7   0.076685845   0.63805   0.56519   0.56437  -0.00970
  50   39865.2    250.8   0.004409671   0.03642  -0.18453   0.04790   0.00842
  51   40192.0    248.8   0.021104313   0.17287   0.19262   0.36304  -0.06297
  52   40272.5    248.3   0.021169386   0.17305  -0.04682   0.35890  -0.20506

FINAL SINGLE POINT ENERGY     -4644.205752013338

DIPOLE MOMENT
-------------
                                X             Y             Z
Electronic contribution:      9.88378      -0.67953      16.07334
Nuclear contribution   :     -8.52525      -1.21739     -17.50871
                        -----------------------------------------
Total Dipole Moment    :      1.35853      -1.89692      -1.43538
                        -----------------------------------------
Magnitude (a.u.)       :      2.73939
Magnitude (Debye)      :      6.96297

Rotational constants in cm-1:     0.002047     0.000151     0.000147
Rotational constants in MHz :    61.363731     4.526044     4.418482

                             ****ORCA TERMINATED NORMALLY****
TOTAL RUN TIME: 0 days 0 hours 13 minutes 39 seconds 48 msec
