                         Program Version 4.2.0 -  RELEASE  -
|  1> # ORCA input file
|  2> # SCF done       -204.502089194019          0.000644700930
|  3> ! CAM-B3LYP def2-SVP def2/J RIJCOSX Grid4 TightSCF
|  4> %maxcore 5000
|  5> %tddft
|  6>     Mode sTDDFT
|  7>     Ethresh 5.0
|  8>     maxcore 5000
|  9> end
| 10>
| 11> %pal
| 12>   nprocs 6
| 13>   end
| 14> * xyz 0 1
| 15>    C       -7.56432        -5.97665         4.22426
| 16>    C       -6.68804        -7.00107         4.55134
| 17>    C       -6.92591        -8.30590         4.14399
| 18>    C       -8.05399        -8.62651         3.40364
| 19>    C       -8.93478        -7.61162         3.07101
| 20>    C       -8.69052        -6.27976         3.47565
| 21>    C       -9.76200        -5.42829         2.97103
| 22>    C       -9.93398        -4.09965         3.25835
| 23>    C       -9.08126        -3.35532         4.10025
| 24>    N       -8.42877        -2.69013         4.77083
| 25>    C      -10.99844        -3.29725         2.79803
| 26>    N      -11.83373        -2.58467         2.46047
| 27>    C      -10.58636        -6.26237         2.10737
| 28>    C      -10.19977        -7.64439         2.35458
| 29>    C      -11.01193        -8.73994         2.22382
| 30>    C      -12.36936        -8.65697         1.84800
| 31>    N      -13.49053        -8.61797         1.60514
| 32>    C      -10.61811       -10.05370         2.54518
| 33>    N      -10.34162       -11.14471         2.77152
| 34>    C      -11.45911        -5.78425         1.16567
| 35>    C      -11.95042        -6.42854         0.01340
| 36>    S      -11.20708        -7.82283        -0.73442
| 37>    C      -12.36424        -7.81395        -2.02497
| 38>    C      -13.26201        -6.76647        -1.87869
| 39>    C      -13.01623        -5.98692        -0.76032
| 40>    C      -12.33049        -8.80349        -3.03631
| 41>    C      -13.20764        -8.98023        -4.09178
| 42>    C      -12.90903       -10.08583        -4.88045
| 43>    C      -11.79126       -10.78119        -4.45422
| 44>    S      -11.10397       -10.03924        -3.04312
| 45>    C      -11.22362       -11.95621        -5.01369
| 46>    S       -9.71544       -12.58940        -4.42092
| 47>    C       -9.78161       -13.92677        -5.53225
| 48>    C      -10.92269       -13.85628        -6.30586
| 49>    C      -11.72646       -12.75327        -6.02294
| 50>    C       -8.76348       -14.92091        -5.57560
| 51>    C       -7.62338       -14.86667        -4.85656
| 52>    C       -6.60862       -15.87438        -4.89573
| 53>    C       -5.42688       -15.79247        -4.26410
| 54>    C       -5.00927       -14.60911        -3.44307
| 55>    C       -4.39408       -16.89520        -4.33067
| 56>    N       -4.75374       -18.05357        -5.09857
| 57>    C       -5.48957       -19.07076        -4.58807
| 58>    C       -5.99823       -20.08973        -5.31454
| 59>    C       -6.69240       -21.20049        -4.75768
| 60>    S       -7.12878       -22.53860        -5.77909
| 61>    C       -7.83499       -23.40528        -4.44021
| 62>    C       -7.73243       -22.66074        -3.28061
| 63>    C       -7.09659       -21.43526        -3.45680
| 64>    C       -8.38864       -24.69917        -4.59801
| 65>    C       -8.97809       -25.48976        -3.62437
| 66>    C       -9.39459       -26.72851        -4.09273
| 67>    C       -9.13797       -26.92749        -5.43914
| 68>    S       -8.36545       -25.52349        -6.12716
| 69>    C       -9.41013       -28.07959        -6.21170
| 70>    S       -9.01746       -28.17066        -7.89668
| 71>    C       -9.61769       -29.80899        -8.00591
| 72>    C      -10.09558       -30.22645        -6.76719
| 73>    C       -9.98314       -29.27076        -5.77522
| 74>    C       -9.54366       -30.50460        -9.22253
| 75>    C       -9.95541       -31.79683        -9.41474
| 76>    C       -9.83642       -32.43338       -10.65557
| 77>    C      -10.11314       -33.75527       -10.93136
| 78>    C      -10.39004       -34.28054       -12.25656
| 79>    C      -10.12367       -33.68539       -13.46416
| 80>    C       -9.48006       -32.44437       -13.64440
| 81>    N       -8.95846       -31.44726       -13.87696
| 82>    C      -10.42844       -34.26026       -14.71481
| 83>    N      -10.64735       -34.66443       -15.76739
| 84>    C      -11.02462       -35.58107       -12.07279
| 85>    C      -11.02371       -35.89672       -10.69575
| 86>    C      -11.59150       -37.07505       -10.24221
| 87>    C      -12.15994       -37.93718       -11.16863
| 88>    C      -12.15397       -37.63335       -12.52155
| 89>    C      -11.58699       -36.45602       -12.98779
| 90>    C      -10.33382       -34.82984        -9.98243
| 91>    C       -9.79735       -34.94108        -8.72315
| 92>    C      -10.04127       -36.02549        -7.85680
| 93>    N      -10.22108       -36.86153        -7.09001
| 94>    C       -8.84375       -34.05987        -8.17243
| 95>    N       -8.02497       -33.41986        -7.68359
| 96>    H       -7.36034        -4.96928         4.54763
| 97>    H       -5.80572        -6.77499         5.13046
| 98>    H       -6.22497        -9.08387         4.40566
| 99>    H       -8.22897        -9.64193         3.08650
|100>    H      -11.76724        -4.74984         1.25058
|101>    H      -14.06294        -6.58491        -2.57116
|102>    H      -13.60676        -5.13280        -0.48013
|103>    H      -14.04204        -8.32790        -4.27349
|104>    H      -13.48385       -10.37578        -5.74076
|105>    H      -11.15905       -14.58934        -7.05659
|106>    H      -12.65316       -12.54541        -6.52614
|107>    H       -8.94648       -15.75177        -6.24501
|108>    H       -7.46086       -14.01240        -4.21393
|109>    H       -6.84136       -16.75518        -5.48020
|110>    H       -5.72816       -14.41584        -2.64843
|111>    H       -4.94950       -13.71473        -4.06221
|112>    H       -4.03502       -14.77809        -2.99109
|113>    H       -4.17370       -17.22067        -3.30681
|114>    H       -3.46735       -16.47922        -4.74491
|115>    H       -4.72274       -17.96591        -6.10304
|116>    H       -5.60480       -19.04708        -3.51426
|117>    H       -5.85311       -20.10185        -6.38611
|118>    H       -8.10590       -23.00407        -2.33280
|119>    H       -6.93870       -20.73525        -2.65672
|120>    H       -9.09543       -25.16919        -2.60555
|121>    H       -9.86807       -27.46819        -3.47326
|122>    H      -10.49945       -31.20807        -6.59965
|123>    H      -10.29633       -29.42522        -4.75894
|124>    H       -9.09147       -29.98059       -10.05506
|125>    H      -10.40943       -32.32786        -8.59206
|126>    H       -9.57283       -31.79659       -11.48890
|127>    H      -11.60702       -37.32120        -9.19293
|128>    H      -12.61257       -38.85602       -10.82806
|129>    H      -12.59913       -38.31969       -13.22575
|130>    H      -11.59430       -36.23598       -14.04250
|131> *
|132>
|133>                          ****END OF INPUT****

CARTESIAN COORDINATES (ANGSTROEM)
---------------------------------
  C     -7.564320   -5.976650    4.224260
  C     -6.688040   -7.001070    4.551340
  C     -6.925910   -8.305900    4.143990
  C     -8.053990   -8.626510    3.403640
  C     -8.934780   -7.611620    3.071010
  C     -8.690520   -6.279760    3.475650
  C     -9.762000   -5.428290    2.971030
  C     -9.933980   -4.099650    3.258350
  C     -9.081260   -3.355320    4.100250
  N     -8.428770   -2.690130    4.770830
  C    -10.998440   -3.297250    2.798030
  N    -11.833730   -2.584670    2.460470
  C    -10.586360   -6.262370    2.107370
  C    -10.199770   -7.644390    2.354580
  C    -11.011930   -8.739940    2.223820
  C    -12.369360   -8.656970    1.848000
  N    -13.490530   -8.617970    1.605140
  C    -10.618110  -10.053700    2.545180
  N    -10.341620  -11.144710    2.771520
  C    -11.459110   -5.784250    1.165670
  C    -11.950420   -6.428540    0.013400
  S    -11.207080   -7.822830   -0.734420
  C    -12.364240   -7.813950   -2.024970
  C    -13.262010   -6.766470   -1.878690
  C    -13.016230   -5.986920   -0.760320
  C    -12.330490   -8.803490   -3.036310
  C    -13.207640   -8.980230   -4.091780
  C    -12.909030  -10.085830   -4.880450
  C    -11.791260  -10.781190   -4.454220
  S    -11.103970  -10.039240   -3.043120
  C    -11.223620  -11.956210   -5.013690
  S     -9.715440  -12.589400   -4.420920
  C     -9.781610  -13.926770   -5.532250
  C    -10.922690  -13.856280   -6.305860
  C    -11.726460  -12.753270   -6.022940
  C     -8.763480  -14.920910   -5.575600
  C     -7.623380  -14.866670   -4.856560
  C     -6.608620  -15.874380   -4.895730
  C     -5.426880  -15.792470   -4.264100
  C     -5.009270  -14.609110   -3.443070
  C     -4.394080  -16.895200   -4.330670
  N     -4.753740  -18.053570   -5.098570
  C     -5.489570  -19.070760   -4.588070
  C     -5.998230  -20.089730   -5.314540
  C     -6.692400  -21.200490   -4.757680
  S     -7.128780  -22.538600   -5.779090
  C     -7.834990  -23.405280   -4.440210
  C     -7.732430  -22.660740   -3.280610
  C     -7.096590  -21.435260   -3.456800
  C     -8.388640  -24.699170   -4.598010
  C     -8.978090  -25.489760   -3.624370
  C     -9.394590  -26.728510   -4.092730
  C     -9.137970  -26.927490   -5.439140
  S     -8.365450  -25.523490   -6.127160
  C     -9.410130  -28.079590   -6.211700
  S     -9.017460  -28.170660   -7.896680
  C     -9.617690  -29.808990   -8.005910
  C    -10.095580  -30.226450   -6.767190
  C     -9.983140  -29.270760   -5.775220
  C     -9.543660  -30.504600   -9.222530
  C     -9.955410  -31.796830   -9.414740
  C     -9.836420  -32.433380  -10.655570
  C    -10.113140  -33.755270  -10.931360
  C    -10.390040  -34.280540  -12.256560
  C    -10.123670  -33.685390  -13.464160
  C     -9.480060  -32.444370  -13.644400
  N     -8.958460  -31.447260  -13.876960
  C    -10.428440  -34.260260  -14.714810
  N    -10.647350  -34.664430  -15.767390
  C    -11.024620  -35.581070  -12.072790
  C    -11.023710  -35.896720  -10.695750
  C    -11.591500  -37.075050  -10.242210
  C    -12.159940  -37.937180  -11.168630
  C    -12.153970  -37.633350  -12.521550
  C    -11.586990  -36.456020  -12.987790
  C    -10.333820  -34.829840   -9.982430
  C     -9.797350  -34.941080   -8.723150
  C    -10.041270  -36.025490   -7.856800
  N    -10.221080  -36.861530   -7.090010
  C     -8.843750  -34.059870   -8.172430
  N     -8.024970  -33.419860   -7.683590
  H     -7.360340   -4.969280    4.547630
  H     -5.805720   -6.774990    5.130460
  H     -6.224970   -9.083870    4.405660
  H     -8.228970   -9.641930    3.086500
  H    -11.767240   -4.749840    1.250580
  H    -14.062940   -6.584910   -2.571160
  H    -13.606760   -5.132800   -0.480130
  H    -14.042040   -8.327900   -4.273490
  H    -13.483850  -10.375780   -5.740760
  H    -11.159050  -14.589340   -7.056590
  H    -12.653160  -12.545410   -6.526140
  H     -8.946480  -15.751770   -6.245010
  H     -7.460860  -14.012400   -4.213930
  H     -6.841360  -16.755180   -5.480200
  H     -5.728160  -14.415840   -2.648430
  H     -4.949500  -13.714730   -4.062210
  H     -4.035020  -14.778090   -2.991090
  H     -4.173700  -17.220670   -3.306810
  H     -3.467350  -16.479220   -4.744910
  H     -4.722740  -17.965910   -6.103040
  H     -5.604800  -19.047080   -3.514260
  H     -5.853110  -20.101850   -6.386110
  H     -8.105900  -23.004070   -2.332800
  H     -6.938700  -20.735250   -2.656720
  H     -9.095430  -25.169190   -2.605550
  H     -9.868070  -27.468190   -3.473260
  H    -10.499450  -31.208070   -6.599650
  H    -10.296330  -29.425220   -4.758940
  H     -9.091470  -29.980590  -10.055060
  H    -10.409430  -32.327860   -8.592060
  H     -9.572830  -31.796590  -11.488900
  H    -11.607020  -37.321200   -9.192930
  H    -12.612570  -38.856020  -10.828060
  H    -12.599130  -38.319690  -13.225750
  H    -11.594300  -36.235980  -14.042500

 Total Charge           Charge          ....    0
 Multiplicity           Mult            ....    1
 Number of Electrons    NEL             ....  590
 Basis Dimension        Dim             .... 1333

ORBITAL ENERGIES
----------------

  NO   OCC          E(Eh)            E(eV)
   0   2.0000     -88.978046     -2421.2157
   1   2.0000     -88.976033     -2421.1609
   2   2.0000     -88.968096     -2420.9450
   3   2.0000     -88.966679     -2420.9064
   4   2.0000     -88.962889     -2420.8033
   5   2.0000     -88.952821     -2420.5293
   6   2.0000     -14.443239      -393.0205
   7   2.0000     -14.421673      -392.4337
   8   2.0000     -14.421157      -392.4196
   9   2.0000     -14.417804      -392.3284
  10   2.0000     -14.417128      -392.3100
  11   2.0000     -14.412092      -392.1730
  12   2.0000     -14.411412      -392.1545
  13   2.0000     -14.409289      -392.0967
  14   2.0000     -14.408664      -392.0797
  15   2.0000     -10.349949      -281.6364
  16   2.0000     -10.347639      -281.5736
  17   2.0000     -10.347080      -281.5584
  18   2.0000     -10.345635      -281.5190
  19   2.0000     -10.339379      -281.3488
  20   2.0000     -10.338851      -281.3344
  21   2.0000     -10.336815      -281.2790
  22   2.0000     -10.336027      -281.2576
  23   2.0000     -10.335887      -281.2538
  24   2.0000     -10.329401      -281.0773
  25   2.0000     -10.328648      -281.0568
  26   2.0000     -10.327257      -281.0189
  27   2.0000     -10.326517      -280.9988
  28   2.0000     -10.324084      -280.9326
  29   2.0000     -10.323805      -280.9250
  30   2.0000     -10.323730      -280.9230
  31   2.0000     -10.323365      -280.9131
  32   2.0000     -10.322380      -280.8862
  33   2.0000     -10.320799      -280.8432
  34   2.0000     -10.319115      -280.7974
  35   2.0000     -10.319060      -280.7959
  36   2.0000     -10.316463      -280.7252
  37   2.0000     -10.315093      -280.6880
  38   2.0000     -10.314916      -280.6831
  39   2.0000     -10.314436      -280.6701
  40   2.0000     -10.312933      -280.6292
  41   2.0000     -10.312901      -280.6283
  42   2.0000     -10.312322      -280.6126
  43   2.0000     -10.312283      -280.6115
  44   2.0000     -10.312224      -280.6099
  45   2.0000     -10.312108      -280.6067
  46   2.0000     -10.312012      -280.6041
  47   2.0000     -10.309664      -280.5402
  48   2.0000     -10.309631      -280.5393
  49   2.0000     -10.306174      -280.4453
  50   2.0000     -10.305454      -280.4257
  51   2.0000     -10.302085      -280.3340
  52   2.0000     -10.301766      -280.3253
  53   2.0000     -10.300973      -280.3037
  54   2.0000     -10.300483      -280.2904
  55   2.0000     -10.300456      -280.2897
  56   2.0000     -10.300035      -280.2782
  57   2.0000     -10.299302      -280.2583
  58   2.0000     -10.298809      -280.2448
  59   2.0000     -10.298408      -280.2339
  60   2.0000     -10.294342      -280.1233
  61   2.0000     -10.293212      -280.0925
  62   2.0000     -10.291797      -280.0540
  63   2.0000     -10.291607      -280.0489
  64   2.0000     -10.291190      -280.0375
  65   2.0000     -10.290860      -280.0285
  66   2.0000     -10.290496      -280.0186
  67   2.0000     -10.290158      -280.0094
  68   2.0000     -10.289591      -279.9940
  69   2.0000     -10.288708      -279.9700
  70   2.0000     -10.286524      -279.9105
  71   2.0000     -10.286026      -279.8970
  72   2.0000     -10.285208      -279.8747
  73   2.0000     -10.285109      -279.8720
  74   2.0000     -10.284950      -279.8677
  75   2.0000     -10.280272      -279.7404
  76   2.0000     -10.276936      -279.6497
  77   2.0000     -10.276836      -279.6469
  78   2.0000     -10.275215      -279.6028
  79   2.0000     -10.266107      -279.3550
  80   2.0000     -10.265827      -279.3473
  81   2.0000      -8.073262      -219.6846
  82   2.0000      -8.071873      -219.6468
  83   2.0000      -8.064011      -219.4329
  84   2.0000      -8.062443      -219.3902
  85   2.0000      -8.058718      -219.2889
  86   2.0000      -8.048813      -219.0193
  87   2.0000      -6.042631      -164.4283
  88   2.0000      -6.041201      -164.3894
  89   2.0000      -6.038502      -164.3160
  90   2.0000      -6.037030      -164.2759
  91   2.0000      -6.035185      -164.2257
  92   2.0000      -6.033888      -164.1904
  93   2.0000      -6.033247      -164.1730
  94   2.0000      -6.031664      -164.1299
  95   2.0000      -6.029187      -164.0625
  96   2.0000      -6.028092      -164.0327
  97   2.0000      -6.027708      -164.0223
  98   2.0000      -6.026076      -163.9779
  99   2.0000      -6.024517      -163.9355
 100   2.0000      -6.023951      -163.9200
 101   2.0000      -6.020624      -163.8295
 102   2.0000      -6.018103      -163.7609
 103   2.0000      -6.014108      -163.6522
 104   2.0000      -6.010754      -163.5609
 105   2.0000      -1.046085       -28.4654
 106   2.0000      -1.036170       -28.1956
 107   2.0000      -1.024515       -27.8785
 108   2.0000      -1.019342       -27.7377
 109   2.0000      -1.016252       -27.6536
 110   2.0000      -1.007957       -27.4279
 111   2.0000      -1.006370       -27.3847
 112   2.0000      -1.006247       -27.3814
 113   2.0000      -1.003783       -27.3143
 114   2.0000      -0.997909       -27.1545
 115   2.0000      -0.997323       -27.1385
 116   2.0000      -0.996338       -27.1117
 117   2.0000      -0.990269       -26.9466
 118   2.0000      -0.988785       -26.9062
 119   2.0000      -0.988585       -26.9008
 120   2.0000      -0.984954       -26.8020
 121   2.0000      -0.971265       -26.4295
 122   2.0000      -0.958330       -26.0775
 123   2.0000      -0.950220       -25.8568
 124   2.0000      -0.939015       -25.5519
 125   2.0000      -0.929381       -25.2897
 126   2.0000      -0.928666       -25.2703
 127   2.0000      -0.921516       -25.0757
 128   2.0000      -0.911688       -24.8083
 129   2.0000      -0.898969       -24.4622
 130   2.0000      -0.892678       -24.2910
 131   2.0000      -0.887855       -24.1598
 132   2.0000      -0.883492       -24.0410
 133   2.0000      -0.875365       -23.8199
 134   2.0000      -0.869593       -23.6628
 135   2.0000      -0.866107       -23.5680
 136   2.0000      -0.862992       -23.4832
 137   2.0000      -0.856294       -23.3009
 138   2.0000      -0.853265       -23.2185
 139   2.0000      -0.848786       -23.0966
 140   2.0000      -0.846269       -23.0282
 141   2.0000      -0.838081       -22.8053
 142   2.0000      -0.835581       -22.7373
 143   2.0000      -0.834226       -22.7005
 144   2.0000      -0.823981       -22.4217
 145   2.0000      -0.818337       -22.2681
 146   2.0000      -0.812169       -22.1002
 147   2.0000      -0.796213       -21.6660
 148   2.0000      -0.790248       -21.5037
 149   2.0000      -0.786903       -21.4127
 150   2.0000      -0.781051       -21.2535
 151   2.0000      -0.776601       -21.1324
 152   2.0000      -0.764500       -20.8031
 153   2.0000      -0.751984       -20.4625
 154   2.0000      -0.728235       -19.8163
 155   2.0000      -0.722360       -19.6564
 156   2.0000      -0.715752       -19.4766
 157   2.0000      -0.714023       -19.4296
 158   2.0000      -0.712515       -19.3885
 159   2.0000      -0.706384       -19.2217
 160   2.0000      -0.701736       -19.0952
 161   2.0000      -0.701070       -19.0771
 162   2.0000      -0.693353       -18.8671
 163   2.0000      -0.690030       -18.7767
 164   2.0000      -0.681172       -18.5356
 165   2.0000      -0.678595       -18.4655
 166   2.0000      -0.670309       -18.2400
 167   2.0000      -0.667715       -18.1695
 168   2.0000      -0.664946       -18.0941
 169   2.0000      -0.656022       -17.8513
 170   2.0000      -0.653820       -17.7914
 171   2.0000      -0.651980       -17.7413
 172   2.0000      -0.645593       -17.5675
 173   2.0000      -0.642833       -17.4924
 174   2.0000      -0.637528       -17.3480
 175   2.0000      -0.633536       -17.2394
 176   2.0000      -0.632926       -17.2228
 177   2.0000      -0.627563       -17.0769
 178   2.0000      -0.625523       -17.0214
 179   2.0000      -0.622082       -16.9277
 180   2.0000      -0.618758       -16.8373
 181   2.0000      -0.616275       -16.7697
 182   2.0000      -0.609217       -16.5776
 183   2.0000      -0.606563       -16.5054
 184   2.0000      -0.592350       -16.1187
 185   2.0000      -0.589970       -16.0539
 186   2.0000      -0.585334       -15.9278
 187   2.0000      -0.581814       -15.8320
 188   2.0000      -0.578782       -15.7495
 189   2.0000      -0.575063       -15.6483
 190   2.0000      -0.569998       -15.5104
 191   2.0000      -0.566883       -15.4257
 192   2.0000      -0.564548       -15.3621
 193   2.0000      -0.558277       -15.1915
 194   2.0000      -0.555380       -15.1127
 195   2.0000      -0.546028       -14.8582
 196   2.0000      -0.541582       -14.7372
 197   2.0000      -0.540974       -14.7207
 198   2.0000      -0.537822       -14.6349
 199   2.0000      -0.532461       -14.4890
 200   2.0000      -0.531818       -14.4715
 201   2.0000      -0.530364       -14.4319
 202   2.0000      -0.528922       -14.3927
 203   2.0000      -0.526092       -14.3157
 204   2.0000      -0.522978       -14.2310
 205   2.0000      -0.519490       -14.1360
 206   2.0000      -0.517582       -14.0841
 207   2.0000      -0.515639       -14.0312
 208   2.0000      -0.512584       -13.9481
 209   2.0000      -0.508727       -13.8432
 210   2.0000      -0.507465       -13.8088
 211   2.0000      -0.507072       -13.7981
 212   2.0000      -0.506237       -13.7754
 213   2.0000      -0.503882       -13.7113
 214   2.0000      -0.503454       -13.6997
 215   2.0000      -0.499669       -13.5967
 216   2.0000      -0.499574       -13.5941
 217   2.0000      -0.496788       -13.5183
 218   2.0000      -0.495491       -13.4830
 219   2.0000      -0.493186       -13.4203
 220   2.0000      -0.488254       -13.2861
 221   2.0000      -0.487763       -13.2727
 222   2.0000      -0.484720       -13.1899
 223   2.0000      -0.484129       -13.1738
 224   2.0000      -0.482641       -13.1333
 225   2.0000      -0.481104       -13.0915
 226   2.0000      -0.479290       -13.0421
 227   2.0000      -0.474428       -12.9099
 228   2.0000      -0.473996       -12.8981
 229   2.0000      -0.470976       -12.8159
 230   2.0000      -0.467413       -12.7190
 231   2.0000      -0.466617       -12.6973
 232   2.0000      -0.463639       -12.6163
 233   2.0000      -0.462643       -12.5892
 234   2.0000      -0.459636       -12.5073
 235   2.0000      -0.459029       -12.4908
 236   2.0000      -0.456744       -12.4286
 237   2.0000      -0.454551       -12.3690
 238   2.0000      -0.453158       -12.3311
 239   2.0000      -0.451932       -12.2977
 240   2.0000      -0.450662       -12.2631
 241   2.0000      -0.450237       -12.2516
 242   2.0000      -0.448604       -12.2071
 243   2.0000      -0.447029       -12.1643
 244   2.0000      -0.445587       -12.1250
 245   2.0000      -0.445352       -12.1186
 246   2.0000      -0.443353       -12.0642
 247   2.0000      -0.443217       -12.0606
 248   2.0000      -0.441922       -12.0253
 249   2.0000      -0.440696       -11.9919
 250   2.0000      -0.440351       -11.9826
 251   2.0000      -0.438217       -11.9245
 252   2.0000      -0.436928       -11.8894
 253   2.0000      -0.435649       -11.8546
 254   2.0000      -0.432993       -11.7823
 255   2.0000      -0.431317       -11.7367
 256   2.0000      -0.429616       -11.6905
 257   2.0000      -0.428992       -11.6735
 258   2.0000      -0.424509       -11.5515
 259   2.0000      -0.424462       -11.5502
 260   2.0000      -0.423903       -11.5350
 261   2.0000      -0.422353       -11.4928
 262   2.0000      -0.421334       -11.4651
 263   2.0000      -0.420300       -11.4370
 264   2.0000      -0.416705       -11.3391
 265   2.0000      -0.415614       -11.3094
 266   2.0000      -0.414179       -11.2704
 267   2.0000      -0.413461       -11.2509
 268   2.0000      -0.410944       -11.1824
 269   2.0000      -0.406517       -11.0619
 270   2.0000      -0.405310       -11.0290
 271   2.0000      -0.401767       -10.9326
 272   2.0000      -0.398028       -10.8309
 273   2.0000      -0.388503       -10.5717
 274   2.0000      -0.383947       -10.4477
 275   2.0000      -0.375398       -10.2151
 276   2.0000      -0.372159       -10.1270
 277   2.0000      -0.360726        -9.8158
 278   2.0000      -0.350147        -9.5280
 279   2.0000      -0.343802        -9.3553
 280   2.0000      -0.341126        -9.2825
 281   2.0000      -0.340800        -9.2737
 282   2.0000      -0.333869        -9.0850
 283   2.0000      -0.333515        -9.0754
 284   2.0000      -0.331404        -9.0180
 285   2.0000      -0.329196        -8.9579
 286   2.0000      -0.324488        -8.8298
 287   2.0000      -0.320838        -8.7304
 288   2.0000      -0.313293        -8.5251
 289   2.0000      -0.308153        -8.3853
 290   2.0000      -0.293908        -7.9976
 291   2.0000      -0.280701        -7.6383
 292   2.0000      -0.260180        -7.0799
 293   2.0000      -0.245926        -6.6920
 294   2.0000      -0.223488        -6.0814
 295   0.0000      -0.104469        -2.8427
 296   0.0000      -0.097171        -2.6442
 297   0.0000      -0.086602        -2.3566
 298   0.0000      -0.078239        -2.1290
 299   0.0000      -0.057123        -1.5544

MULLIKEN ATOMIC CHARGES
-----------------------
   0 C :   -0.033660
   1 C :    0.046932
   2 C :    0.047042
   3 C :   -0.033587
   4 C :    0.008122
   5 C :    0.011399
   6 C :    0.298472
   7 C :   -0.348464
   8 C :   -0.185645
   9 N :    0.156370
  10 C :   -0.181087
  11 N :    0.148494
  12 C :   -0.076369
  13 C :    0.208629
  14 C :   -0.321704
  15 C :   -0.202383
  16 N :    0.179579
  17 C :   -0.176220
  18 N :    0.158315
  19 C :    0.063667
  20 C :   -0.120969
  21 S :    0.141295
  22 C :   -0.010321
  23 C :    0.004450
  24 C :    0.077614
  25 C :   -0.047157
  26 C :    0.015234
  27 C :   -0.004315
  28 C :   -0.021752
  29 S :    0.140273
  30 C :   -0.043787
  31 S :    0.107754
  32 C :   -0.042466
  33 C :    0.012585
  34 C :    0.009369
  35 C :    0.028808
  36 C :    0.000732
  37 C :    0.007027
  38 C :   -0.219924
  39 C :    0.076129
  40 C :    0.189839
  41 N :   -0.155687
  42 C :    0.070610
  43 C :    0.018726
  44 C :   -0.061797
  45 S :    0.110487
  46 C :   -0.067633
  47 C :    0.007354
  48 C :   -0.011212
  49 C :   -0.012341
  50 C :   -0.012249
  51 C :    0.013752
  52 C :   -0.052569
  53 S :    0.130785
  54 C :   -0.027502
  55 S :    0.148187
  56 C :   -0.090502
  57 C :    0.059989
  58 C :   -0.006919
  59 C :    0.089052
  60 C :   -0.022965
  61 C :    0.031714
  62 C :   -0.068365
  63 C :    0.309469
  64 C :   -0.355087
  65 C :   -0.185024
  66 N :    0.146566
  67 C :   -0.189669
  68 N :    0.151036
  69 C :    0.009049
  70 C :    0.006733
  71 C :   -0.039347
  72 C :    0.047945
  73 C :    0.047171
  74 C :   -0.039416
  75 C :    0.250273
  76 C :   -0.340457
  77 C :   -0.185227
  78 N :    0.150330
  79 C :   -0.224381
  80 N :    0.177056
  81 H :    0.004685
  82 H :    0.002733
  83 H :    0.002780
  84 H :    0.004423
  85 H :    0.018885
  86 H :   -0.010440
  87 H :    0.009770
  88 H :   -0.010332
  89 H :   -0.013816
  90 H :   -0.015181
  91 H :   -0.016107
  92 H :   -0.011751
  93 H :   -0.009477
  94 H :   -0.025449
  95 H :    0.041961
  96 H :    0.039334
  97 H :    0.009830
  98 H :    0.026643
  99 H :    0.028456
 100 H :    0.121476
 101 H :    0.004625
 102 H :   -0.034818
 103 H :   -0.023216
 104 H :   -0.030295
 105 H :   -0.019938
 106 H :   -0.015110
 107 H :   -0.004196
 108 H :   -0.013820
 109 H :    0.010179
 110 H :    0.015803
 111 H :    0.007319
 112 H :    0.003831
 113 H :    0.000036
 114 H :    0.000779
 115 H :    0.004140
Sum of atomic charges:   -0.0000000

LOEWDIN ATOMIC CHARGES
----------------------
   0 C :    0.004995
   1 C :   -0.000293
   2 C :    0.002524
   3 C :   -0.000522
   4 C :   -0.009344
   5 C :   -0.013238
   6 C :    0.080031
   7 C :   -0.138923
   8 C :   -0.019195
   9 N :   -0.050439
  10 C :   -0.020509
  11 N :   -0.049639
  12 C :   -0.073857
  13 C :    0.059001
  14 C :   -0.138873
  15 C :   -0.036946
  16 N :   -0.042719
  17 C :   -0.019055
  18 N :   -0.048688
  19 C :    0.047690
  20 C :   -0.189658
  21 S :    0.460136
  22 C :   -0.139707
  23 C :   -0.058787
  24 C :    0.010414
  25 C :   -0.198597
  26 C :   -0.028612
  27 C :   -0.055077
  28 C :   -0.165470
  29 S :    0.435709
  30 C :   -0.189604
  31 S :    0.426335
  32 C :   -0.159170
  33 C :   -0.054876
  34 C :   -0.045202
  35 C :   -0.038748
  36 C :   -0.025428
  37 C :   -0.059063
  38 C :   -0.039718
  39 C :   -0.051729
  40 C :    0.035906
  41 N :   -0.003032
  42 C :    0.054613
  43 C :   -0.145303
  44 C :   -0.140665
  45 S :    0.415469
  46 C :   -0.212989
  47 C :   -0.037024
  48 C :   -0.088187
  49 C :   -0.159490
  50 C :   -0.066753
  51 C :   -0.031524
  52 C :   -0.206831
  53 S :    0.424967
  54 C :   -0.152062
  55 S :    0.444159
  56 C :   -0.190280
  57 C :   -0.006200
  58 C :   -0.058397
  59 C :    0.034608
  60 C :   -0.044927
  61 C :    0.061492
  62 C :   -0.078590
  63 C :    0.079000
  64 C :   -0.143285
  65 C :   -0.020837
  66 N :   -0.055754
  67 C :   -0.018957
  68 N :   -0.056308
  69 C :   -0.013143
  70 C :   -0.010723
  71 C :   -0.001155
  72 C :    0.000489
  73 C :   -0.001797
  74 C :    0.002682
  75 C :    0.071972
  76 C :   -0.143277
  77 C :   -0.020285
  78 N :   -0.055258
  79 C :   -0.026915
  80 N :   -0.049954
  81 H :    0.041295
  82 H :    0.037083
  83 H :    0.036761
  84 H :    0.040122
  85 H :    0.052160
  86 H :    0.033933
  87 H :    0.043038
  88 H :    0.034177
  89 H :    0.032627
  90 H :    0.032045
  91 H :    0.030717
  92 H :    0.034906
  93 H :    0.018269
  94 H :    0.023961
  95 H :    0.040713
  96 H :    0.040925
  97 H :    0.028765
  98 H :    0.034575
  99 H :    0.034476
 100 H :    0.078808
 101 H :    0.028639
 102 H :    0.020426
 103 H :    0.028474
 104 H :    0.023634
 105 H :    0.029860
 106 H :    0.031862
 107 H :    0.036730
 108 H :    0.032337
 109 H :    0.040196
 110 H :    0.030473
 111 H :    0.044490
 112 H :    0.040081
 113 H :    0.035883
 114 H :    0.036162
 115 H :    0.040790

  Mayer bond orders larger than 0.100000
B(  0-C ,  1-C ) :   1.3706 B(  0-C ,  5-C ) :   1.3856 B(  0-C , 81-H ) :   0.9836
B(  1-C ,  2-C ) :   1.3783 B(  1-C , 82-H ) :   0.9857 B(  2-C ,  3-C ) :   1.3634
B(  2-C , 83-H ) :   0.9864 B(  3-C ,  4-C ) :   1.3835 B(  3-C , 84-H ) :   0.9874
B(  4-C ,  5-C ) :   1.3141 B(  4-C , 13-C ) :   1.0142 B(  5-C ,  6-C ) :   0.9975
B(  6-C ,  7-C ) :   1.6294 B(  6-C , 12-C ) :   1.0715 B(  7-C ,  8-C ) :   1.1467
B(  7-C , 10-C ) :   1.1390 B(  8-C ,  9-N ) :   2.9760 B( 10-C , 11-N ) :   2.9661
B( 12-C , 13-C ) :   1.0260 B( 12-C , 19-C ) :   1.5487 B( 13-C , 14-C ) :   1.6468
B( 14-C , 15-C ) :   1.1428 B( 14-C , 17-C ) :   1.1447 B( 15-C , 16-N ) :   3.0303
B( 17-C , 18-N ) :   2.9937 B( 19-C , 20-C ) :   1.2167 B( 19-C , 85-H ) :   0.9330
B( 20-C , 21-S ) :   1.0860 B( 20-C , 24-C ) :   1.3920 B( 21-S , 22-C ) :   1.1510
B( 22-C , 23-C ) :   1.4520 B( 22-C , 25-C ) :   1.1436 B( 23-C , 24-C ) :   1.3203
B( 23-C , 86-H ) :   0.9962 B( 24-C , 87-H ) :   0.9983 B( 25-C , 26-C ) :   1.4873
B( 25-C , 28-C ) :   0.1110 B( 25-C , 29-S ) :   1.1054 B( 26-C , 27-C ) :   1.2913
B( 26-C , 88-H ) :   0.9960 B( 27-C , 28-C ) :   1.4924 B( 27-C , 89-H ) :   0.9973
B( 28-C , 29-S ) :   1.1371 B( 28-C , 30-C ) :   1.1215 B( 30-C , 31-S ) :   1.1127
B( 30-C , 32-C ) :   0.1030 B( 30-C , 34-C ) :   1.5140 B( 31-S , 32-C ) :   1.1154
B( 32-C , 33-C ) :   1.4773 B( 32-C , 35-C ) :   1.1256 B( 33-C , 34-C ) :   1.2639
B( 33-C , 90-H ) :   1.0007 B( 34-C , 91-H ) :   0.9967 B( 35-C , 36-C ) :   1.6824
B( 35-C , 92-H ) :   0.9859 B( 36-C , 37-C ) :   1.1129 B( 36-C , 93-H ) :   0.9660
B( 37-C , 38-C ) :   1.7871 B( 37-C , 94-H ) :   0.9672 B( 38-C , 39-C ) :   1.0757
B( 38-C , 40-C ) :   0.9988 B( 39-C , 95-H ) :   0.9460 B( 39-C , 96-H ) :   0.9488
B( 39-C , 97-H ) :   0.9568 B( 40-C , 41-N ) :   1.0598 B( 40-C , 98-H ) :   0.9260
B( 40-C , 99-H ) :   0.9339 B( 41-N , 42-C ) :   1.2060 B( 41-N ,100-H ) :   0.9407
B( 42-C , 43-C ) :   1.6537 B( 42-C ,101-H ) :   0.9647 B( 43-C , 44-C ) :   1.1356
B( 43-C ,102-H ) :   0.9522 B( 44-C , 45-S ) :   1.1321 B( 44-C , 48-C ) :   1.4905
B( 45-S , 46-C ) :   1.0914 B( 46-C , 47-C ) :   1.5060 B( 46-C , 49-C ) :   1.1384
B( 47-C , 48-C ) :   1.2865 B( 47-C ,103-H ) :   0.9937 B( 48-C ,104-H ) :   0.9900
B( 49-C , 50-C ) :   1.4835 B( 49-C , 52-C ) :   0.1087 B( 49-C , 53-S ) :   1.1355
B( 50-C , 51-C ) :   1.2961 B( 50-C ,105-H ) :   0.9961 B( 51-C , 52-C ) :   1.4843
B( 51-C ,106-H ) :   0.9940 B( 52-C , 53-S ) :   1.0941 B( 52-C , 54-C ) :   1.1516
B( 54-C , 55-S ) :   1.1620 B( 54-C , 58-C ) :   1.4322 B( 55-S , 56-C ) :   1.0798
B( 56-C , 57-C ) :   1.4062 B( 56-C , 59-C ) :   1.1939 B( 57-C , 58-C ) :   1.3550
B( 57-C ,107-H ) :   0.9885 B( 58-C ,108-H ) :   0.9951 B( 59-C , 60-C ) :   1.5495
B( 59-C ,109-H ) :   0.9713 B( 60-C , 61-C ) :   1.2495 B( 60-C ,110-H ) :   0.9647
B( 61-C , 62-C ) :   1.4658 B( 61-C ,111-H ) :   0.9460 B( 62-C , 63-C ) :   1.0804
B( 62-C , 75-C ) :   1.0548 B( 63-C , 64-C ) :   1.6104 B( 63-C , 69-C ) :   0.9895
B( 64-C , 65-C ) :   1.1422 B( 64-C , 67-C ) :   1.1514 B( 65-C , 66-N ) :   2.9665
B( 67-C , 68-N ) :   2.9722 B( 69-C , 70-C ) :   1.3163 B( 69-C , 74-C ) :   1.3861
B( 70-C , 71-C ) :   1.3855 B( 70-C , 75-C ) :   1.0071 B( 71-C , 72-C ) :   1.3604
B( 71-C ,112-H ) :   0.9860 B( 72-C , 73-C ) :   1.3829 B( 72-C ,113-H ) :   0.9859
B( 73-C , 74-C ) :   1.3635 B( 73-C ,114-H ) :   0.9861 B( 74-C ,115-H ) :   0.9845
B( 75-C , 76-C ) :   1.6097 B( 76-C , 77-C ) :   1.1415 B( 76-C , 79-C ) :   1.1558
B( 77-C , 78-N ) :   2.9848 B( 79-C , 80-N ) :   3.0214

-----------------------------------------------------------------------------
         ABSORPTION SPECTRUM VIA TRANSITION ELECTRIC DIPOLE MOMENTS
-----------------------------------------------------------------------------
State   Energy  Wavelength   fosc         T2         TX        TY        TZ
        (cm-1)    (nm)                  (au**2)     (au)      (au)      (au)
-----------------------------------------------------------------------------
   0   14165.9    705.9   1.913021188  44.45815  -1.07362  -5.67931  -3.32429
   1   15785.7    633.5   0.613134722  12.78700   0.07327  -1.87817  -3.04206
   2   19093.3    523.7   0.002588655   0.04463  -0.08908   0.02919  -0.18933
   3   19531.5    512.0   0.103896638   1.75122  -0.19621   0.05559  -1.30753
   4   20770.4    481.5   0.203633665   3.22761  -0.13699  -1.65908  -0.67549
   5   22240.5    449.6   0.087350390   1.29299   0.40954  -0.12557  -1.05333
   6   23586.7    424.0   0.196178737   2.73817   0.96773  -1.16459   0.66739
   7   23957.8    417.4   0.000821551   0.01129  -0.07759  -0.00100  -0.07258
   8   25697.9    389.1   0.446804240   5.72393   0.13165   2.38856   0.03712
   9   26025.6    384.2   0.142364146   1.80084   0.60353   1.19609   0.07716
  10   26536.9    376.8   0.022630230   0.28075   0.49877  -0.12856   0.12430
  11   26863.6    372.3   0.560503624   6.86894   2.20402  -1.41214   0.13075
  12   26969.6    370.8   0.127941934   1.56176   0.27082   0.33823  -1.17218
  13   27400.1    365.0   0.152226886   1.82901  -0.39430  -0.92949  -0.89977
  14   27672.7    361.4   0.131216342   1.56103  -0.90160   0.47662  -0.72179
  15   28327.6    353.0   0.242430865   2.81743   0.80942   1.20462   0.84331
  16   28515.8    350.7   0.041561738   0.47983   0.38274   0.41460   0.40180
  17   31257.5    319.9   0.265095672   2.79205  -0.11968   0.40170  -1.61752
  18   31315.0    319.3   0.091779595   0.96487  -0.35672  -0.88317  -0.24006
  19   31736.2    315.1   0.019992626   0.20739   0.27170  -0.32684   0.16354
  20   32112.8    311.4   0.000599347   0.00614   0.00237  -0.02336   0.07479
  21   32338.0    309.2   0.009568958   0.09742   0.06183   0.24144   0.18788
  22   32911.5    303.8   0.038594354   0.38606  -0.15530  -0.59592  -0.08253
  23   32976.3    303.2   0.378204683   3.77572  -0.53586  -1.84566  -0.28654
  24   33233.4    300.9   0.071635377   0.70962   0.32907  -0.20698   0.74733
  25   33342.7    299.9   0.454216686   4.48475   0.00651  -0.58802   2.03444
  26   33530.1    298.2   0.009825765   0.09647   0.26404  -0.00735   0.16341
  27   33639.8    297.3   0.011627406   0.11379   0.21493   0.20437  -0.16071
  28   33834.0    295.6   0.017979605   0.17495  -0.03590  -0.41663   0.00880
  29   33992.0    294.2   0.024078453   0.23320  -0.13666  -0.26508   0.37982
  30   34452.9    290.3   0.059251331   0.56617   0.34299   0.66971  -0.00405
  31   34582.3    289.2   0.035234398   0.33542   0.13740   0.55237   0.10690
  32   34719.8    288.0   0.384250637   3.64346   1.12313   1.45383   0.51807
  33   34764.0    287.7   0.012523942   0.11860   0.10400  -0.31440   0.09455
  34   34904.0    286.5   0.007926390   0.07476   0.06032   0.20744   0.16761
  35   35081.0    285.1   0.440718672   4.13586   1.82211   0.05538   0.90151
  36   35685.5    280.2   0.430826316   3.97453   1.48388  -1.19883   0.57917
  37   35919.1    278.4   0.013714304   0.12570  -0.24313  -0.13414  -0.22044
  38   36108.3    276.9   0.006123858   0.05583   0.22237  -0.05241  -0.06031
  39   36157.4    276.6   0.024177092   0.22013  -0.15817  -0.30988   0.31479
  40   36267.7    275.7   0.008401947   0.07627   0.08614   0.16358  -0.20516
  41   36568.9    273.5   0.002139673   0.01926   0.10007   0.04440   0.08531
  42   36989.9    270.3   0.041598680   0.37023   0.41845  -0.25474   0.36089
  43   37175.6    269.0   0.009066531   0.08029   0.24379   0.02467   0.14230
  44   37320.5    267.9   0.072044783   0.63552  -0.60297  -0.01002  -0.52139
  45   37774.2    264.7   0.056367736   0.49126  -0.23349  -0.28134   0.59799
  46   38447.8    260.1   0.014499815   0.12416   0.34482   0.05316  -0.04929
  47   39610.1    252.5   0.207848895   1.72750  -0.74534  -1.06946   0.16796
  48   40055.6    249.7   0.000024575   0.00020   0.00320   0.01278   0.00534
  49   40281.4    248.3   0.113980261   0.93154  -0.45164  -0.76179  -0.38371

FINAL SINGLE POINT ENERGY     -5413.118422547245

DIPOLE MOMENT
-------------
                                X             Y             Z
Electronic contribution:    -21.86545       2.57439       2.13483
Nuclear contribution   :     22.52669       0.11709      -1.97503
                        -----------------------------------------
Total Dipole Moment    :      0.66124       2.69148       0.15980
                        -----------------------------------------
Magnitude (a.u.)       :      2.77612
Magnitude (Debye)      :      7.05632

Rotational constants in cm-1:     0.001577     0.000097     0.000096
Rotational constants in MHz :    47.286627     2.921222     2.873668

                             ****ORCA TERMINATED NORMALLY****
TOTAL RUN TIME: 0 days 0 hours 12 minutes 3 seconds 566 msec
