                         Program Version 4.2.0 -  RELEASE  -
|  1> # ORCA input file
|  2> # SCF done       -201.258561860601          0.000823415858
|  3> ! CAM-B3LYP def2-SVP def2/J RIJCOSX Grid4 TightSCF
|  4> %maxcore 5000
|  5> %tddft
|  6>     Mode sTDDFT
|  7>     Ethresh 5.0
|  8>     maxcore 5000
|  9> end
| 10>
| 11> %pal
| 12>   nprocs 6
| 13>   end
| 14> * xyz 0 1
| 15>    C      -19.03474        -4.51903        -1.25654
| 16>    C      -19.73431        -5.65803        -0.88583
| 17>    C      -19.38432        -6.90688        -1.37879
| 18>    C      -18.32836        -7.05188        -2.26610
| 19>    C      -17.62339        -5.92161        -2.64306
| 20>    C      -17.97021        -4.64944        -2.13436
| 21>    C      -17.05244        -3.65562        -2.67924
| 22>    C      -17.13789        -2.30023        -2.49679
| 23>    C      -18.15547        -1.66398        -1.75506
| 24>    N      -18.95214        -1.07909        -1.17104
| 25>    C      -16.25956        -1.34316        -3.04563
| 26>    N      -15.58803        -0.50649        -3.45631
| 27>    C      -16.03880        -4.38728        -3.42656
| 28>    C      -16.52035        -5.75337        -3.57547
| 29>    C      -16.21420        -6.60389        -4.60529
| 30>    C      -15.39126        -6.24515        -5.69343
| 31>    N      -14.77987        -5.96265        -6.62301
| 32>    C      -16.76587        -7.89185        -4.75237
| 33>    N      -17.16473        -8.95742        -4.90560
| 34>    C      -14.82975        -3.87328        -3.81368
| 35>    C      -13.64372        -4.56184        -4.13857
| 36>    S      -13.26686        -6.18890        -3.61408
| 37>    C      -11.70746        -6.12175        -4.37235
| 38>    C      -11.50378        -4.89441        -4.98202
| 39>    C      -12.56696        -4.02012        -4.82658
| 40>    C      -10.82504        -7.22624        -4.34011
| 41>    C      -10.95576        -8.42002        -3.65718
| 42>    C       -9.90082        -9.30147        -3.87367
| 43>    C       -8.94334        -8.80965        -4.73978
| 44>    S       -9.35275        -7.20553        -5.27347
| 45>    C       -7.77776        -9.44937        -5.23136
| 46>    S       -7.25672       -11.00306        -4.64261
| 47>    C       -5.92488       -11.03807        -5.76574
| 48>    C       -5.90614        -9.88689        -6.52918
| 49>    C       -6.93394        -8.99939        -6.22650
| 50>    C       -5.04679       -12.16011        -5.80916
| 51>    C       -4.19548       -12.37855        -6.83706
| 52>    C       -3.25263       -13.42746        -7.01148
| 53>    O       -2.63320       -13.47104        -8.22593
| 54>    C       -1.76768       -14.48720        -8.21428
| 55>    C       -1.78226       -15.13183        -7.01741
| 56>    C       -2.74462       -14.45658        -6.21969
| 57>    N       -3.08786       -14.77411        -4.92270
| 58>    C       -2.24989       -15.41918        -4.05675
| 59>    S       -2.89920       -16.33819        -2.72592
| 60>    C       -1.28639       -16.77364        -2.19946
| 61>    C       -0.34252       -16.22165        -3.03231
| 62>    C       -0.87698       -15.45804        -4.07377
| 63>    C       -1.06558       -17.59754        -1.06745
| 64>    C       -1.98610       -18.19410        -0.22941
| 65>    C       -1.40422       -18.96163         0.77699
| 66>    C       -0.02447       -18.97147         0.73538
| 67>    S        0.55930       -17.99628        -0.58936
| 68>    C        0.88984       -19.64141         1.58155
| 69>    S        0.36461       -20.65702         2.88568
| 70>    C        2.01532       -21.02874         3.32663
| 71>    C        2.89964       -20.37462         2.47975
| 72>    C        2.27512       -19.60738         1.51117
| 73>    C        2.27703       -21.91801         4.38617
| 74>    C        3.52190       -22.21048         4.86501
| 75>    C        3.81441       -23.08388         5.93191
| 76>    C        3.07262       -24.12231         6.44108
| 77>    C        3.24998       -24.66110         7.78306
| 78>    C        4.30767       -24.46426         8.63305
| 79>    C        5.47238       -23.71918         8.35448
| 80>    N        6.45276       -23.13628         8.21634
| 81>    C        4.40101       -25.02844         9.92286
| 82>    N        4.55042       -25.45322        10.97908
| 83>    C        2.06911       -25.46413         8.07693
| 84>    C        1.27188       -25.54256         6.91364
| 85>    C        0.06988       -26.23012         6.92611
| 86>    C       -0.32990       -26.84398         8.10374
| 87>    C        0.45704       -26.77821         9.24419
| 88>    C        1.66100       -26.08947         9.24433
| 89>    C        1.95501       -24.83480         5.83990
| 90>    C        1.73353       -25.04243         4.50260
| 91>    C        0.68234       -25.82986         3.99123
| 92>    N       -0.16261       -26.44036         3.50972
| 93>    C        2.56548       -24.57005         3.46795
| 94>    N        3.21704       -24.25598         2.57637
| 95>    H      -19.32054        -3.55855        -0.86058
| 96>    H      -20.56283        -5.56776        -0.20003
| 97>    H      -19.93992        -7.77893        -1.06940
| 98>    H      -18.06019        -8.02659        -2.64065
| 99>    H      -14.72216        -2.79593        -3.81613
|100>    H      -10.59718        -4.66181        -5.51163
|101>    H      -12.59175        -3.02265        -5.22759
|102>    H      -11.80025        -8.63116        -3.02495
|103>    H       -9.82893       -10.27957        -3.43215
|104>    H       -5.15723        -9.68791        -7.27330
|105>    H       -7.08021        -8.05332        -6.71749
|106>    H       -5.11872       -12.84852        -4.98010
|107>    H       -4.20753       -11.69108        -7.67157
|108>    H       -1.20200       -14.66348        -9.10766
|109>    H       -1.20984       -15.99173        -6.74017
|110>    H       -4.03083       -14.58891        -4.61947
|111>    H        0.71201       -16.36538        -2.87694
|112>    H       -0.28094       -14.92740        -4.79226
|113>    H       -3.04681       -18.07052        -0.35903
|114>    H       -1.95994       -19.50397         1.52148
|115>    H        3.96606       -20.47334         2.56266
|116>    H        2.79364       -19.03457         0.76258
|117>    H        1.40918       -22.35929         4.86031
|118>    H        4.36459       -21.66283         4.46790
|119>    H        4.73554       -22.85575         6.45237
|120>    H       -0.55385       -26.28201         6.04855
|121>    H       -1.26718       -27.37848         8.13028
|122>    H        0.12853       -27.26614        10.14915
|123>    H        2.25515       -26.04475        10.14191
|124> *
|125>
|126>                          ****END OF INPUT****

CARTESIAN COORDINATES (ANGSTROEM)
---------------------------------
  C    -19.034740   -4.519030   -1.256540
  C    -19.734310   -5.658030   -0.885830
  C    -19.384320   -6.906880   -1.378790
  C    -18.328360   -7.051880   -2.266100
  C    -17.623390   -5.921610   -2.643060
  C    -17.970210   -4.649440   -2.134360
  C    -17.052440   -3.655620   -2.679240
  C    -17.137890   -2.300230   -2.496790
  C    -18.155470   -1.663980   -1.755060
  N    -18.952140   -1.079090   -1.171040
  C    -16.259560   -1.343160   -3.045630
  N    -15.588030   -0.506490   -3.456310
  C    -16.038800   -4.387280   -3.426560
  C    -16.520350   -5.753370   -3.575470
  C    -16.214200   -6.603890   -4.605290
  C    -15.391260   -6.245150   -5.693430
  N    -14.779870   -5.962650   -6.623010
  C    -16.765870   -7.891850   -4.752370
  N    -17.164730   -8.957420   -4.905600
  C    -14.829750   -3.873280   -3.813680
  C    -13.643720   -4.561840   -4.138570
  S    -13.266860   -6.188900   -3.614080
  C    -11.707460   -6.121750   -4.372350
  C    -11.503780   -4.894410   -4.982020
  C    -12.566960   -4.020120   -4.826580
  C    -10.825040   -7.226240   -4.340110
  C    -10.955760   -8.420020   -3.657180
  C     -9.900820   -9.301470   -3.873670
  C     -8.943340   -8.809650   -4.739780
  S     -9.352750   -7.205530   -5.273470
  C     -7.777760   -9.449370   -5.231360
  S     -7.256720  -11.003060   -4.642610
  C     -5.924880  -11.038070   -5.765740
  C     -5.906140   -9.886890   -6.529180
  C     -6.933940   -8.999390   -6.226500
  C     -5.046790  -12.160110   -5.809160
  C     -4.195480  -12.378550   -6.837060
  C     -3.252630  -13.427460   -7.011480
  O     -2.633200  -13.471040   -8.225930
  C     -1.767680  -14.487200   -8.214280
  C     -1.782260  -15.131830   -7.017410
  C     -2.744620  -14.456580   -6.219690
  N     -3.087860  -14.774110   -4.922700
  C     -2.249890  -15.419180   -4.056750
  S     -2.899200  -16.338190   -2.725920
  C     -1.286390  -16.773640   -2.199460
  C     -0.342520  -16.221650   -3.032310
  C     -0.876980  -15.458040   -4.073770
  C     -1.065580  -17.597540   -1.067450
  C     -1.986100  -18.194100   -0.229410
  C     -1.404220  -18.961630    0.776990
  C     -0.024470  -18.971470    0.735380
  S      0.559300  -17.996280   -0.589360
  C      0.889840  -19.641410    1.581550
  S      0.364610  -20.657020    2.885680
  C      2.015320  -21.028740    3.326630
  C      2.899640  -20.374620    2.479750
  C      2.275120  -19.607380    1.511170
  C      2.277030  -21.918010    4.386170
  C      3.521900  -22.210480    4.865010
  C      3.814410  -23.083880    5.931910
  C      3.072620  -24.122310    6.441080
  C      3.249980  -24.661100    7.783060
  C      4.307670  -24.464260    8.633050
  C      5.472380  -23.719180    8.354480
  N      6.452760  -23.136280    8.216340
  C      4.401010  -25.028440    9.922860
  N      4.550420  -25.453220   10.979080
  C      2.069110  -25.464130    8.076930
  C      1.271880  -25.542560    6.913640
  C      0.069880  -26.230120    6.926110
  C     -0.329900  -26.843980    8.103740
  C      0.457040  -26.778210    9.244190
  C      1.661000  -26.089470    9.244330
  C      1.955010  -24.834800    5.839900
  C      1.733530  -25.042430    4.502600
  C      0.682340  -25.829860    3.991230
  N     -0.162610  -26.440360    3.509720
  C      2.565480  -24.570050    3.467950
  N      3.217040  -24.255980    2.576370
  H    -19.320540   -3.558550   -0.860580
  H    -20.562830   -5.567760   -0.200030
  H    -19.939920   -7.778930   -1.069400
  H    -18.060190   -8.026590   -2.640650
  H    -14.722160   -2.795930   -3.816130
  H    -10.597180   -4.661810   -5.511630
  H    -12.591750   -3.022650   -5.227590
  H    -11.800250   -8.631160   -3.024950
  H     -9.828930  -10.279570   -3.432150
  H     -5.157230   -9.687910   -7.273300
  H     -7.080210   -8.053320   -6.717490
  H     -5.118720  -12.848520   -4.980100
  H     -4.207530  -11.691080   -7.671570
  H     -1.202000  -14.663480   -9.107660
  H     -1.209840  -15.991730   -6.740170
  H     -4.030830  -14.588910   -4.619470
  H      0.712010  -16.365380   -2.876940
  H     -0.280940  -14.927400   -4.792260
  H     -3.046810  -18.070520   -0.359030
  H     -1.959940  -19.503970    1.521480
  H      3.966060  -20.473340    2.562660
  H      2.793640  -19.034570    0.762580
  H      1.409180  -22.359290    4.860310
  H      4.364590  -21.662830    4.467900
  H      4.735540  -22.855750    6.452370
  H     -0.553850  -26.282010    6.048550
  H     -1.267180  -27.378480    8.130280
  H      0.128530  -27.266140   10.149150
  H      2.255150  -26.044750   10.141910

 Total Charge           Charge          ....    0
 Multiplicity           Mult            ....    1
 Number of Electrons    NEL             ....  580
 Basis Dimension        Dim             .... 1289

ORBITAL ENERGIES
----------------

  NO   OCC          E(Eh)            E(eV)
   0   2.0000     -88.976178     -2421.1649
   1   2.0000     -88.973512     -2421.0924
   2   2.0000     -88.972501     -2421.0648
   3   2.0000     -88.970556     -2421.0119
   4   2.0000     -88.968100     -2420.9451
   5   2.0000     -88.968082     -2420.9446
   6   2.0000     -19.297423      -525.1096
   7   2.0000     -14.470133      -393.7523
   8   2.0000     -14.421094      -392.4179
   9   2.0000     -14.420008      -392.3884
  10   2.0000     -14.417601      -392.3229
  11   2.0000     -14.417139      -392.3103
  12   2.0000     -14.417101      -392.3093
  13   2.0000     -14.416972      -392.3058
  14   2.0000     -14.416170      -392.2839
  15   2.0000     -14.414556      -392.2400
  16   2.0000     -10.354262      -281.7538
  17   2.0000     -10.348917      -281.6083
  18   2.0000     -10.347022      -281.5568
  19   2.0000     -10.346358      -281.5387
  20   2.0000     -10.345414      -281.5130
  21   2.0000     -10.344628      -281.4916
  22   2.0000     -10.344041      -281.4757
  23   2.0000     -10.343675      -281.4657
  24   2.0000     -10.343097      -281.4500
  25   2.0000     -10.337932      -281.3094
  26   2.0000     -10.336121      -281.2601
  27   2.0000     -10.335037      -281.2306
  28   2.0000     -10.331567      -281.1362
  29   2.0000     -10.330000      -281.0936
  30   2.0000     -10.328233      -281.0455
  31   2.0000     -10.325998      -280.9847
  32   2.0000     -10.323511      -280.9170
  33   2.0000     -10.322313      -280.8844
  34   2.0000     -10.322293      -280.8839
  35   2.0000     -10.321070      -280.8506
  36   2.0000     -10.320869      -280.8451
  37   2.0000     -10.320142      -280.8253
  38   2.0000     -10.320115      -280.8246
  39   2.0000     -10.320102      -280.8243
  40   2.0000     -10.319238      -280.8008
  41   2.0000     -10.318387      -280.7776
  42   2.0000     -10.318282      -280.7747
  43   2.0000     -10.317762      -280.7606
  44   2.0000     -10.317755      -280.7604
  45   2.0000     -10.316407      -280.7237
  46   2.0000     -10.316030      -280.7134
  47   2.0000     -10.315625      -280.7024
  48   2.0000     -10.315038      -280.6865
  49   2.0000     -10.314357      -280.6679
  50   2.0000     -10.311844      -280.5995
  51   2.0000     -10.311167      -280.5811
  52   2.0000     -10.310919      -280.5744
  53   2.0000     -10.310857      -280.5727
  54   2.0000     -10.309108      -280.5251
  55   2.0000     -10.308758      -280.5156
  56   2.0000     -10.304293      -280.3941
  57   2.0000     -10.299603      -280.2664
  58   2.0000     -10.299304      -280.2583
  59   2.0000     -10.298704      -280.2420
  60   2.0000     -10.298004      -280.2229
  61   2.0000     -10.297725      -280.2153
  62   2.0000     -10.297564      -280.2110
  63   2.0000     -10.297332      -280.2046
  64   2.0000     -10.296895      -280.1928
  65   2.0000     -10.296472      -280.1813
  66   2.0000     -10.296309      -280.1768
  67   2.0000     -10.296105      -280.1713
  68   2.0000     -10.295976      -280.1677
  69   2.0000     -10.292730      -280.0794
  70   2.0000     -10.292230      -280.0658
  71   2.0000     -10.291137      -280.0361
  72   2.0000     -10.290276      -280.0127
  73   2.0000     -10.289332      -279.9870
  74   2.0000     -10.288304      -279.9590
  75   2.0000     -10.287671      -279.9418
  76   2.0000     -10.284974      -279.8684
  77   2.0000     -10.282135      -279.7911
  78   2.0000     -10.281547      -279.7751
  79   2.0000     -10.277279      -279.6590
  80   2.0000      -8.071220      -219.6291
  81   2.0000      -8.069149      -219.5727
  82   2.0000      -8.068004      -219.5416
  83   2.0000      -8.066481      -219.5001
  84   2.0000      -8.063620      -219.4223
  85   2.0000      -8.063614      -219.4221
  86   2.0000      -6.040658      -164.3747
  87   2.0000      -6.038405      -164.3134
  88   2.0000      -6.037405      -164.2861
  89   2.0000      -6.036504      -164.2616
  90   2.0000      -6.036060      -164.2496
  91   2.0000      -6.034379      -164.2038
  92   2.0000      -6.033281      -164.1739
  93   2.0000      -6.033060      -164.1679
  94   2.0000      -6.033057      -164.1678
  95   2.0000      -6.032913      -164.1639
  96   2.0000      -6.031967      -164.1382
  97   2.0000      -6.031216      -164.1177
  98   2.0000      -6.029879      -164.0813
  99   2.0000      -6.028942      -164.0559
 100   2.0000      -6.028892      -164.0545
 101   2.0000      -6.027938      -164.0285
 102   2.0000      -6.025694      -163.9675
 103   2.0000      -6.025408      -163.9597
 104   2.0000      -1.217779       -33.1375
 105   2.0000      -1.073518       -29.2119
 106   2.0000      -1.035127       -28.1672
 107   2.0000      -1.031608       -28.0715
 108   2.0000      -1.017316       -27.6826
 109   2.0000      -1.014543       -27.6071
 110   2.0000      -1.014167       -27.5969
 111   2.0000      -1.011245       -27.5174
 112   2.0000      -1.005493       -27.3608
 113   2.0000      -1.003610       -27.3096
 114   2.0000      -1.002148       -27.2698
 115   2.0000      -0.997196       -27.1351
 116   2.0000      -0.996181       -27.1075
 117   2.0000      -0.995205       -27.0809
 118   2.0000      -0.994348       -27.0576
 119   2.0000      -0.994263       -27.0553
 120   2.0000      -0.983423       -26.7603
 121   2.0000      -0.974886       -26.5280
 122   2.0000      -0.957181       -26.0462
 123   2.0000      -0.956907       -26.0388
 124   2.0000      -0.938083       -25.5265
 125   2.0000      -0.935692       -25.4615
 126   2.0000      -0.925735       -25.1905
 127   2.0000      -0.919966       -25.0335
 128   2.0000      -0.907778       -24.7019
 129   2.0000      -0.900936       -24.5157
 130   2.0000      -0.892010       -24.2728
 131   2.0000      -0.891354       -24.2550
 132   2.0000      -0.885527       -24.0964
 133   2.0000      -0.879490       -23.9321
 134   2.0000      -0.864984       -23.5374
 135   2.0000      -0.864876       -23.5345
 136   2.0000      -0.862840       -23.4791
 137   2.0000      -0.859303       -23.3828
 138   2.0000      -0.855795       -23.2874
 139   2.0000      -0.852659       -23.2020
 140   2.0000      -0.845686       -23.0123
 141   2.0000      -0.841606       -22.9013
 142   2.0000      -0.840653       -22.8753
 143   2.0000      -0.839589       -22.8464
 144   2.0000      -0.824599       -22.4385
 145   2.0000      -0.820022       -22.3139
 146   2.0000      -0.799372       -21.7520
 147   2.0000      -0.794589       -21.6219
 148   2.0000      -0.789383       -21.4802
 149   2.0000      -0.787875       -21.4392
 150   2.0000      -0.772762       -21.0279
 151   2.0000      -0.771589       -20.9960
 152   2.0000      -0.737043       -20.0560
 153   2.0000      -0.732450       -19.9310
 154   2.0000      -0.726079       -19.7576
 155   2.0000      -0.721240       -19.6259
 156   2.0000      -0.714281       -19.4366
 157   2.0000      -0.713370       -19.4118
 158   2.0000      -0.712039       -19.3756
 159   2.0000      -0.710884       -19.3441
 160   2.0000      -0.709271       -19.3002
 161   2.0000      -0.696429       -18.9508
 162   2.0000      -0.689407       -18.7597
 163   2.0000      -0.681047       -18.5322
 164   2.0000      -0.675615       -18.3844
 165   2.0000      -0.673408       -18.3244
 166   2.0000      -0.665680       -18.1141
 167   2.0000      -0.662994       -18.0410
 168   2.0000      -0.662065       -18.0157
 169   2.0000      -0.660172       -17.9642
 170   2.0000      -0.657073       -17.8799
 171   2.0000      -0.649831       -17.6828
 172   2.0000      -0.644487       -17.5374
 173   2.0000      -0.638158       -17.3652
 174   2.0000      -0.632535       -17.2122
 175   2.0000      -0.629951       -17.1418
 176   2.0000      -0.629386       -17.1265
 177   2.0000      -0.627064       -17.0633
 178   2.0000      -0.624475       -16.9928
 179   2.0000      -0.623061       -16.9544
 180   2.0000      -0.619198       -16.8492
 181   2.0000      -0.610858       -16.6223
 182   2.0000      -0.606704       -16.5093
 183   2.0000      -0.602549       -16.3962
 184   2.0000      -0.592981       -16.1358
 185   2.0000      -0.584428       -15.9031
 186   2.0000      -0.582565       -15.8524
 187   2.0000      -0.581960       -15.8359
 188   2.0000      -0.580317       -15.7912
 189   2.0000      -0.572143       -15.5688
 190   2.0000      -0.564655       -15.3650
 191   2.0000      -0.563450       -15.3323
 192   2.0000      -0.553084       -15.0502
 193   2.0000      -0.547378       -14.8949
 194   2.0000      -0.546623       -14.8744
 195   2.0000      -0.544592       -14.8191
 196   2.0000      -0.540783       -14.7155
 197   2.0000      -0.537627       -14.6296
 198   2.0000      -0.537027       -14.6132
 199   2.0000      -0.536461       -14.5978
 200   2.0000      -0.534789       -14.5524
 201   2.0000      -0.533025       -14.5044
 202   2.0000      -0.530117       -14.4252
 203   2.0000      -0.526190       -14.3184
 204   2.0000      -0.522498       -14.2179
 205   2.0000      -0.520642       -14.1674
 206   2.0000      -0.518203       -14.1010
 207   2.0000      -0.515312       -14.0224
 208   2.0000      -0.514941       -14.0123
 209   2.0000      -0.510383       -13.8882
 210   2.0000      -0.508289       -13.8312
 211   2.0000      -0.506040       -13.7700
 212   2.0000      -0.505179       -13.7466
 213   2.0000      -0.504050       -13.7159
 214   2.0000      -0.501480       -13.6460
 215   2.0000      -0.500080       -13.6079
 216   2.0000      -0.498936       -13.5767
 217   2.0000      -0.496155       -13.5011
 218   2.0000      -0.491286       -13.3686
 219   2.0000      -0.488650       -13.2968
 220   2.0000      -0.487403       -13.2629
 221   2.0000      -0.486090       -13.2272
 222   2.0000      -0.482305       -13.1242
 223   2.0000      -0.481582       -13.1045
 224   2.0000      -0.478599       -13.0233
 225   2.0000      -0.476936       -12.9781
 226   2.0000      -0.475158       -12.9297
 227   2.0000      -0.472306       -12.8521
 228   2.0000      -0.468478       -12.7479
 229   2.0000      -0.465419       -12.6647
 230   2.0000      -0.464832       -12.6487
 231   2.0000      -0.463648       -12.6165
 232   2.0000      -0.460573       -12.5328
 233   2.0000      -0.457891       -12.4599
 234   2.0000      -0.457444       -12.4477
 235   2.0000      -0.455485       -12.3944
 236   2.0000      -0.454624       -12.3709
 237   2.0000      -0.452408       -12.3106
 238   2.0000      -0.451326       -12.2812
 239   2.0000      -0.450934       -12.2705
 240   2.0000      -0.449046       -12.2192
 241   2.0000      -0.447602       -12.1799
 242   2.0000      -0.446337       -12.1455
 243   2.0000      -0.444796       -12.1035
 244   2.0000      -0.444672       -12.1001
 245   2.0000      -0.442823       -12.0498
 246   2.0000      -0.442570       -12.0429
 247   2.0000      -0.441199       -12.0056
 248   2.0000      -0.439414       -11.9571
 249   2.0000      -0.435370       -11.8470
 250   2.0000      -0.431696       -11.7470
 251   2.0000      -0.430871       -11.7246
 252   2.0000      -0.430357       -11.7106
 253   2.0000      -0.429621       -11.6906
 254   2.0000      -0.428321       -11.6552
 255   2.0000      -0.428121       -11.6498
 256   2.0000      -0.427669       -11.6375
 257   2.0000      -0.426309       -11.6004
 258   2.0000      -0.423487       -11.5237
 259   2.0000      -0.421727       -11.4758
 260   2.0000      -0.421545       -11.4708
 261   2.0000      -0.419614       -11.4183
 262   2.0000      -0.413424       -11.2498
 263   2.0000      -0.411088       -11.1863
 264   2.0000      -0.410737       -11.1767
 265   2.0000      -0.409861       -11.1529
 266   2.0000      -0.406763       -11.0686
 267   2.0000      -0.397891       -10.8272
 268   2.0000      -0.384642       -10.4666
 269   2.0000      -0.382821       -10.4171
 270   2.0000      -0.381494       -10.3810
 271   2.0000      -0.375294       -10.2123
 272   2.0000      -0.355446        -9.6722
 273   2.0000      -0.354303        -9.6411
 274   2.0000      -0.345592        -9.4040
 275   2.0000      -0.344825        -9.3832
 276   2.0000      -0.340791        -9.2734
 277   2.0000      -0.340113        -9.2550
 278   2.0000      -0.334182        -9.0935
 279   2.0000      -0.333105        -9.0643
 280   2.0000      -0.332360        -9.0440
 281   2.0000      -0.331432        -9.0187
 282   2.0000      -0.329479        -8.9656
 283   2.0000      -0.322766        -8.7829
 284   2.0000      -0.308916        -8.4060
 285   2.0000      -0.301994        -8.2177
 286   2.0000      -0.282351        -7.6832
 287   2.0000      -0.269616        -7.3366
 288   2.0000      -0.246317        -6.7026
 289   2.0000      -0.232710        -6.3324
 290   0.0000      -0.103686        -2.8214
 291   0.0000      -0.102448        -2.7878
 292   0.0000      -0.085800        -2.3347
 293   0.0000      -0.084230        -2.2920
 294   0.0000      -0.057566        -1.5664

MULLIKEN ATOMIC CHARGES
-----------------------
   0 C :   -0.030381
   1 C :    0.042826
   2 C :    0.047882
   3 C :   -0.031041
   4 C :    0.005795
   5 C :    0.008740
   6 C :    0.303674
   7 C :   -0.347269
   8 C :   -0.187665
   9 N :    0.155797
  10 C :   -0.180706
  11 N :    0.148197
  12 C :   -0.078395
  13 C :    0.217562
  14 C :   -0.326998
  15 C :   -0.199631
  16 N :    0.178718
  17 C :   -0.178300
  18 N :    0.160939
  19 C :    0.052145
  20 C :   -0.126347
  21 S :    0.147273
  22 C :   -0.014489
  23 C :   -0.003000
  24 C :    0.086562
  25 C :   -0.048373
  26 C :    0.007706
  27 C :   -0.010318
  28 C :   -0.019306
  29 S :    0.129919
  30 C :   -0.057996
  31 S :    0.125663
  32 C :   -0.081935
  33 C :    0.007607
  34 C :   -0.000115
  35 C :    0.040269
  36 C :   -0.006497
  37 C :    0.116841
  38 O :   -0.192293
  39 C :    0.157400
  40 C :   -0.074508
  41 C :    0.053937
  42 N :   -0.036855
  43 C :   -0.029652
  44 S :    0.106013
  45 C :   -0.055887
  46 C :   -0.006402
  47 C :   -0.012790
  48 C :   -0.021074
  49 C :   -0.020075
  50 C :    0.002605
  51 C :   -0.040980
  52 S :    0.114057
  53 C :   -0.031349
  54 S :    0.144550
  55 C :   -0.110289
  56 C :    0.059707
  57 C :   -0.014987
  58 C :    0.105807
  59 C :   -0.023615
  60 C :    0.044462
  61 C :   -0.066461
  62 C :    0.305506
  63 C :   -0.357345
  64 C :   -0.177461
  65 N :    0.150996
  66 C :   -0.190202
  67 N :    0.155407
  68 C :    0.014201
  69 C :   -0.000201
  70 C :   -0.037419
  71 C :    0.047966
  72 C :    0.048122
  73 C :   -0.038443
  74 C :    0.232076
  75 C :   -0.346332
  76 C :   -0.183153
  77 N :    0.158111
  78 C :   -0.200908
  79 N :    0.181048
  80 H :    0.004406
  81 H :    0.004350
  82 H :    0.003469
  83 H :    0.004568
  84 H :    0.022746
  85 H :   -0.001945
  86 H :    0.009286
  87 H :   -0.003466
  88 H :   -0.008797
  89 H :   -0.012782
  90 H :   -0.007604
  91 H :   -0.051356
  92 H :    0.001384
  93 H :    0.017133
  94 H :   -0.003472
  95 H :    0.139305
  96 H :   -0.005600
  97 H :   -0.006338
  98 H :   -0.011628
  99 H :   -0.006975
 100 H :    0.001415
 101 H :   -0.002371
 102 H :    0.010154
 103 H :    0.002154
 104 H :    0.018185
 105 H :    0.005296
 106 H :    0.002644
 107 H :    0.002117
 108 H :    0.005081
Sum of atomic charges:   -0.0000000

LOEWDIN ATOMIC CHARGES
----------------------
   0 C :    0.005128
   1 C :   -0.000274
   2 C :    0.003347
   3 C :   -0.000187
   4 C :   -0.009645
   5 C :   -0.013728
   6 C :    0.079767
   7 C :   -0.138007
   8 C :   -0.019254
   9 N :   -0.049915
  10 C :   -0.020450
  11 N :   -0.049358
  12 C :   -0.072947
  13 C :    0.059343
  14 C :   -0.137708
  15 C :   -0.035105
  16 N :   -0.043399
  17 C :   -0.019722
  18 N :   -0.048182
  19 C :    0.047051
  20 C :   -0.188886
  21 S :    0.463041
  22 C :   -0.139193
  23 C :   -0.065673
  24 C :    0.011793
  25 C :   -0.195091
  26 C :   -0.036499
  27 C :   -0.064015
  28 C :   -0.161390
  29 S :    0.447344
  30 C :   -0.195972
  31 S :    0.431174
  32 C :   -0.158589
  33 C :   -0.059570
  34 C :   -0.048993
  35 C :   -0.066137
  36 C :   -0.018467
  37 C :   -0.013614
  38 O :    0.016732
  39 C :    0.052026
  40 C :   -0.087730
  41 C :   -0.008986
  42 N :    0.010295
  43 C :   -0.111205
  44 S :    0.401873
  45 C :   -0.205243
  46 C :   -0.042899
  47 C :   -0.107562
  48 C :   -0.161779
  49 C :   -0.072207
  50 C :   -0.041924
  51 C :   -0.194967
  52 S :    0.437516
  53 C :   -0.157194
  54 S :    0.447284
  55 C :   -0.183260
  56 C :   -0.009761
  57 C :   -0.063277
  58 C :    0.029049
  59 C :   -0.048360
  60 C :    0.060256
  61 C :   -0.070074
  62 C :    0.078411
  63 C :   -0.138792
  64 C :   -0.022314
  65 N :   -0.048779
  66 C :   -0.018836
  67 N :   -0.052002
  68 C :   -0.012896
  69 C :   -0.011655
  70 C :   -0.000563
  71 C :    0.002031
  72 C :    0.000408
  73 C :    0.003850
  74 C :    0.064885
  75 C :   -0.139985
  76 C :   -0.021371
  77 N :   -0.052180
  78 C :   -0.018581
  79 N :   -0.040671
  80 H :    0.041234
  81 H :    0.037374
  82 H :    0.037125
  83 H :    0.040315
  84 H :    0.052326
  85 H :    0.030874
  86 H :    0.042978
  87 H :    0.031371
  88 H :    0.029668
  89 H :    0.030383
  90 H :    0.027771
  91 H :    0.016050
  92 H :    0.040523
  93 H :    0.026593
  94 H :    0.034976
  95 H :    0.082678
  96 H :    0.028180
  97 H :    0.032406
  98 H :    0.027841
  99 H :    0.030065
 100 H :    0.037652
 101 H :    0.029382
 102 H :    0.034305
 103 H :    0.036793
 104 H :    0.048249
 105 H :    0.040269
 106 H :    0.036863
 107 H :    0.036909
 108 H :    0.041265

  Mayer bond orders larger than 0.100000
B(  0-C ,  1-C ) :   1.3702 B(  0-C ,  5-C ) :   1.3844 B(  0-C , 80-H ) :   0.9840
B(  1-C ,  2-C ) :   1.3776 B(  1-C , 81-H ) :   0.9867 B(  2-C ,  3-C ) :   1.3635
B(  2-C , 82-H ) :   0.9867 B(  3-C ,  4-C ) :   1.3833 B(  3-C , 83-H ) :   0.9878
B(  4-C ,  5-C ) :   1.3141 B(  4-C , 13-C ) :   1.0125 B(  5-C ,  6-C ) :   0.9984
B(  6-C ,  7-C ) :   1.6288 B(  6-C , 12-C ) :   1.0703 B(  7-C ,  8-C ) :   1.1473
B(  7-C , 10-C ) :   1.1390 B(  8-C ,  9-N ) :   2.9751 B( 10-C , 11-N ) :   2.9625
B( 12-C , 13-C ) :   1.0266 B( 12-C , 19-C ) :   1.5534 B( 13-C , 14-C ) :   1.6448
B( 14-C , 15-C ) :   1.1457 B( 14-C , 17-C ) :   1.1454 B( 15-C , 16-N ) :   3.0252
B( 17-C , 18-N ) :   2.9939 B( 19-C , 20-C ) :   1.2061 B( 19-C , 84-H ) :   0.9337
B( 20-C , 21-S ) :   1.0882 B( 20-C , 24-C ) :   1.3993 B( 21-S , 22-C ) :   1.1519
B( 22-C , 23-C ) :   1.4370 B( 22-C , 25-C ) :   1.1769 B( 23-C , 24-C ) :   1.3174
B( 23-C , 85-H ) :   0.9913 B( 24-C , 86-H ) :   0.9976 B( 25-C , 26-C ) :   1.4794
B( 25-C , 29-S ) :   1.1064 B( 26-C , 27-C ) :   1.2870 B( 26-C , 87-H ) :   0.9928
B( 27-C , 28-C ) :   1.4823 B( 27-C , 88-H ) :   0.9940 B( 28-C , 29-S ) :   1.1402
B( 28-C , 30-C ) :   1.1593 B( 30-C , 31-S ) :   1.1174 B( 30-C , 34-C ) :   1.4832
B( 31-S , 32-C ) :   1.1195 B( 32-C , 33-C ) :   1.4998 B( 32-C , 35-C ) :   1.1243
B( 33-C , 34-C ) :   1.2874 B( 33-C , 89-H ) :   0.9925 B( 34-C , 90-H ) :   0.9907
B( 35-C , 36-C ) :   1.6817 B( 35-C , 91-H ) :   0.9530 B( 36-C , 37-C ) :   1.1576
B( 36-C , 92-H ) :   0.9449 B( 37-C , 38-O ) :   1.1136 B( 37-C , 41-C ) :   1.4377
B( 38-O , 39-C ) :   1.1682 B( 39-C , 40-C ) :   1.5058 B( 39-C , 93-H ) :   1.0033
B( 40-C , 41-C ) :   1.2329 B( 40-C , 94-H ) :   1.0157 B( 41-C , 42-N ) :   1.1023
B( 42-N , 43-C ) :   1.1327 B( 42-N , 95-H ) :   0.9117 B( 43-C , 44-S ) :   1.1298
B( 43-C , 47-C ) :   1.4964 B( 44-S , 45-C ) :   1.0747 B( 45-C , 46-C ) :   1.5218
B( 45-C , 48-C ) :   1.1730 B( 46-C , 47-C ) :   1.2502 B( 46-C , 96-H ) :   0.9890
B( 47-C , 97-H ) :   0.9983 B( 48-C , 49-C ) :   1.4888 B( 48-C , 52-S ) :   1.1336
B( 49-C , 50-C ) :   1.2768 B( 49-C , 98-H ) :   0.9937 B( 50-C , 51-C ) :   1.4923
B( 50-C , 99-H ) :   0.9931 B( 51-C , 52-S ) :   1.1021 B( 51-C , 53-C ) :   1.1748
B( 53-C , 54-S ) :   1.1577 B( 53-C , 57-C ) :   1.4321 B( 54-S , 55-C ) :   1.0892
B( 55-C , 56-C ) :   1.4377 B( 55-C , 58-C ) :   1.2094 B( 56-C , 57-C ) :   1.3347
B( 56-C ,100-H ) :   0.9887 B( 57-C ,101-H ) :   0.9901 B( 58-C , 59-C ) :   1.5817
B( 58-C ,102-H ) :   0.9513 B( 59-C , 60-C ) :   1.2469 B( 59-C ,103-H ) :   0.9546
B( 60-C , 61-C ) :   1.5421 B( 60-C ,104-H ) :   0.9228 B( 61-C , 62-C ) :   1.0768
B( 61-C , 74-C ) :   1.0342 B( 62-C , 63-C ) :   1.6183 B( 62-C , 68-C ) :   0.9908
B( 63-C , 64-C ) :   1.1383 B( 63-C , 66-C ) :   1.1531 B( 64-C , 65-N ) :   2.9652
B( 66-C , 67-N ) :   2.9733 B( 68-C , 69-C ) :   1.3166 B( 68-C , 73-C ) :   1.3827
B( 69-C , 70-C ) :   1.3829 B( 69-C , 74-C ) :   1.0027 B( 70-C , 71-C ) :   1.3638
B( 70-C ,105-H ) :   0.9866 B( 71-C , 72-C ) :   1.3790 B( 71-C ,106-H ) :   0.9863
B( 72-C , 73-C ) :   1.3698 B( 72-C ,107-H ) :   0.9859 B( 73-C ,108-H ) :   0.9834
B( 74-C , 75-C ) :   1.6340 B( 75-C , 76-C ) :   1.1392 B( 75-C , 78-C ) :   1.1613
B( 76-C , 77-N ) :   2.9905 B( 78-C , 79-N ) :   3.0053

-----------------------------------------------------------------------------
         ABSORPTION SPECTRUM VIA TRANSITION ELECTRIC DIPOLE MOMENTS
-----------------------------------------------------------------------------
State   Energy  Wavelength   fosc         T2         TX        TY        TZ
        (cm-1)    (nm)                  (au**2)     (au)      (au)      (au)
-----------------------------------------------------------------------------
   0   14628.7    683.6   1.672849131  37.64670  -3.00780   4.32066  -3.15146
   1   15863.3    630.4   0.950107921  19.71765  -3.90241   1.39036   1.59866
   2   20004.8    499.9   0.282452379   4.64822  -1.10798   0.59814  -1.75010
   3   20707.6    482.9   0.213844080   3.39972   0.72159  -1.52073  -0.75259
   4   21629.6    462.3   0.005172072   0.07872  -0.14381  -0.19223   0.14522
   5   21928.1    456.0   0.025879301   0.38853  -0.39520  -0.44333   0.18922
   6   24577.5    406.9   0.560130811   7.50288   1.83976  -1.85011   0.83381
   7   24787.6    403.4   0.234185543   3.11029  -0.95330   1.33964   0.63787
   8   24973.6    400.4   0.022015173   0.29021  -0.07918  -0.03870  -0.53146
   9   26723.3    374.2   0.076187346   0.93857   0.18543  -0.87836  -0.36424
  10   27069.8    369.4   0.045213724   0.54987   0.68375   0.19557   0.21004
  11   27298.4    366.3   0.158708788   1.91399  -0.06890  -0.31786  -1.34469
  12   27888.4    358.6   0.169602121   2.00209  -0.57499   0.64361  -1.12127
  13   28019.3    356.9   0.283160577   3.32698  -0.88366  -0.26332   1.57378
  14   29348.6    340.7   0.175790585   1.97189   0.86772  -1.04456  -0.35754
  15   29437.3    339.7   0.081243061   0.90858   0.07010  -0.81572  -0.48813
  16   30053.0    332.7   0.128352426   1.40602  -0.60588  -0.24490  -0.98942
  17   31184.0    320.7   0.006865847   0.07248   0.26272  -0.03176  -0.04954
  18   31270.6    319.8   0.013185834   0.13882  -0.36663  -0.06560  -0.00982
  19   31641.0    316.0   0.003670462   0.03819  -0.18656   0.04717  -0.03408
  20   31763.5    314.8   0.076440222   0.79226   0.22442  -0.80686  -0.30146
  21   31841.2    314.1   0.008240289   0.08520   0.12920  -0.01222   0.26145
  22   32524.7    307.5   0.041498725   0.42005   0.50401  -0.29235  -0.28382
  23   33168.4    301.5   0.240922503   2.39127  -0.69854   1.23224   0.62040
  24   33267.0    300.6   0.752033872   7.44216   1.06748   0.72188   2.40448
  25   33516.4    298.4   0.181812454   1.78584   0.52334  -1.16258  -0.40046
  26   33980.3    294.3   0.053979540   0.52297  -0.67754   0.16323   0.19304
  27   34235.0    292.1   0.161777070   1.55569   0.66865   0.83350  -0.64334
  28   34289.7    291.6   0.012303774   0.11813  -0.12870  -0.19098   0.25513
  29   34566.1    289.3   0.008077987   0.07694  -0.19467  -0.01959  -0.19661
  30   35271.1    283.5   0.028649826   0.26741   0.01747  -0.38008   0.35021
  31   35469.3    281.9   0.207517681   1.92610  -0.86464  -0.78809   0.74660
  32   35671.6    280.3   0.183867120   1.69690  -1.12678  -0.44140   0.48210
  33   35744.9    279.8   0.135764175   1.25039  -0.67126  -0.84504   0.29275
  34   35981.9    277.9   0.104614372   0.95716   0.57778   0.64555  -0.45452
  35   36032.9    277.5   0.023807708   0.21752   0.29131   0.22474  -0.28662
  36   36338.8    275.2   0.007728612   0.07002   0.23641   0.08260   0.08545
  37   36800.6    271.7   0.117400575   1.05025   0.88669   0.34767  -0.37836
  38   37651.5    265.6   0.054254074   0.47438  -0.02073   0.49031  -0.48326
  39   38089.2    262.5   0.007553390   0.06529  -0.03900   0.05530   0.24639
  40   38220.3    261.6   0.009420874   0.08115  -0.10625  -0.16186   0.20895
  41   38439.5    260.1   0.044927588   0.38478   0.50270   0.22800  -0.28299
  42   38868.3    257.3   0.004591234   0.03889   0.18315   0.07298   0.00437
  43   39048.9    256.1   0.023125333   0.19496  -0.24719  -0.08493   0.35588
  44   39109.9    255.7   0.028965101   0.24382  -0.12144  -0.23186   0.41870
  45   39463.9    253.4   0.060900799   0.50804  -0.02667  -0.46819   0.53678
  46   39641.8    252.3   0.019114979   0.15874   0.30244   0.04816  -0.25487
  47   40044.7    249.7   0.007453089   0.06127   0.24450   0.01337   0.03626

FINAL SINGLE POINT ENERGY     -5408.544831044096

DIPOLE MOMENT
-------------
                                X             Y             Z
Electronic contribution:    -12.24018      12.55548       1.79237
Nuclear contribution   :     12.09159     -12.59124      -2.85200
                        -----------------------------------------
Total Dipole Moment    :     -0.14859      -0.03576      -1.05962
                        -----------------------------------------
Magnitude (a.u.)       :      1.07059
Magnitude (Debye)      :      2.72122

Rotational constants in cm-1:     0.000944     0.000110     0.000101
Rotational constants in MHz :    28.296026     3.283261     3.038849

                             ****ORCA TERMINATED NORMALLY****
TOTAL RUN TIME: 0 days 0 hours 11 minutes 48 seconds 843 msec
