                         Program Version 4.2.0 -  RELEASE  -
|  1> # ORCA input file
|  2> # SCF done       -152.672021312026          0.000298777278
|  3> ! CAM-B3LYP def2-SVP def2/J RIJCOSX Grid4 TightSCF
|  4> %maxcore 5000
|  5> %tddft
|  6>     Mode sTDDFT
|  7>     Ethresh 5.0
|  8>     maxcore 5000
|  9> end
| 10>
| 11> %pal
| 12>   nprocs 6
| 13>   end
| 14> * xyz 0 1
| 15>    C       -1.33879        -0.77742         0.95540
| 16>    C       -0.86734         0.35988         1.58989
| 17>    C       -0.72974         0.33899         2.97949
| 18>    C       -0.25387         1.49394         3.64850
| 19>    N        0.13005         2.43004         4.18411
| 20>    C       -1.05724        -0.80645         3.72979
| 21>    C       -0.91006        -0.79840         5.13752
| 22>    N       -0.80056        -0.81531         6.27733
| 23>    C       -1.53065        -1.95071         3.08598
| 24>    C       -1.66413        -1.91656         1.71467
| 25>    C       -2.15172        -2.98963         0.81664
| 26>    O       -2.50466        -4.09727         1.16111
| 27>    C       -2.11322        -2.41276        -0.54527
| 28>    C       -1.59659        -1.06376        -0.45837
| 29>    C       -1.37126        -0.18892        -1.48988
| 30>    C       -0.86051         1.11680        -1.32608
| 31>    N       -0.45057         2.18664        -1.26024
| 32>    C       -1.60475        -0.45273        -2.85656
| 33>    N       -1.76524        -0.58708        -3.98544
| 34>    C       -2.53291        -3.06373        -1.68044
| 35>    C       -3.04707        -4.37048        -1.70831
| 36>    C       -3.50101        -4.94087        -2.86814
| 37>    C       -4.07187        -6.22716        -2.98942
| 38>    C       -4.13034        -7.14987        -1.98288
| 39>    C       -4.74996        -8.42018        -2.06145
| 40>    C       -4.68498        -9.29230        -0.93398
| 41>    C       -5.31288       -10.57851        -0.90422
| 42>    N       -5.21328       -11.33879         0.20655
| 43>    C       -4.52951       -10.88800         1.22034
| 44>    C       -3.90401        -9.62554         1.18596
| 45>    N       -3.99165        -8.85670         0.13835
| 46>    C       -6.05605       -11.06647        -2.01591
| 47>    C       -6.11436       -10.20223        -3.13548
| 48>    C       -5.47242        -8.91151        -3.17233
| 49>    N       -5.67463        -8.29981        -4.34258
| 50>    S       -6.56663        -9.24121        -5.28543
| 51>    N       -6.75393       -10.46896        -4.27744
| 52>    C       -6.74160       -12.30502        -2.09453
| 53>    C       -6.74576       -13.31457        -1.17658
| 54>    C       -7.47859       -14.49947        -1.38155
| 55>    C       -7.49501       -15.53374        -0.48765
| 56>    C       -8.26071       -16.71149        -0.59898
| 57>    C       -8.88573       -17.28058        -1.67772
| 58>    C       -9.99078       -18.24092        -1.41811
| 59>    O      -10.27964       -18.75319        -0.36284
| 60>    C      -10.69117       -18.38906        -2.71597
| 61>    C      -11.86343       -19.05954        -2.99139
| 62>    C      -12.35545       -19.01445        -4.29748
| 63>    C      -11.66192       -18.29659        -5.29028
| 64>    C      -10.46736       -17.63241        -5.00250
| 65>    C       -9.98116       -17.68582        -3.70819
| 66>    C       -8.77284       -17.11316        -3.10692
| 67>    C       -7.66169       -16.72974        -3.81354
| 68>    C       -6.43022       -16.39894        -3.21329
| 69>    N       -5.40526       -16.14050        -2.76723
| 70>    C       -7.59830       -16.68791        -5.22165
| 71>    N       -7.50419       -16.61697        -6.36312
| 72>    C      -12.18891       -18.23825        -6.60440
| 73>    N      -12.61027       -18.17741        -7.66712
| 74>    C      -13.56080       -19.68257        -4.62179
| 75>    N      -14.53908       -20.22606        -4.86408
| 76>    H       -0.60646         1.25725         1.05223
| 77>    H       -1.78776        -2.83777         3.64479
| 78>    H       -2.48395        -2.53888        -2.62599
| 79>    H       -3.09752        -4.91147        -0.77642
| 80>    H       -3.44896        -4.34906        -3.77479
| 81>    H       -4.49038        -6.49265        -3.95019
| 82>    H       -3.67571        -6.94179        -1.02455
| 83>    H       -4.47322       -11.52735         2.09080
| 84>    H       -3.33846        -9.24387         2.02455
| 85>    H       -7.30504       -12.43429        -3.01159
| 86>    H       -6.16017       -13.21648        -0.27560
| 87>    H       -8.09409       -14.55197        -2.27115
| 88>    H       -6.94101       -15.41108         0.43360
| 89>    H       -8.46827       -17.22711         0.33516
| 90>    H      -12.38803       -19.60039        -2.21853
| 91>    H       -9.96474       -17.08802        -5.78641
| 92> *
| 93>
| 94>                          ****END OF INPUT****

CARTESIAN COORDINATES (ANGSTROEM)
---------------------------------
  C     -1.338790   -0.777420    0.955400
  C     -0.867340    0.359880    1.589890
  C     -0.729740    0.338990    2.979490
  C     -0.253870    1.493940    3.648500
  N      0.130050    2.430040    4.184110
  C     -1.057240   -0.806450    3.729790
  C     -0.910060   -0.798400    5.137520
  N     -0.800560   -0.815310    6.277330
  C     -1.530650   -1.950710    3.085980
  C     -1.664130   -1.916560    1.714670
  C     -2.151720   -2.989630    0.816640
  O     -2.504660   -4.097270    1.161110
  C     -2.113220   -2.412760   -0.545270
  C     -1.596590   -1.063760   -0.458370
  C     -1.371260   -0.188920   -1.489880
  C     -0.860510    1.116800   -1.326080
  N     -0.450570    2.186640   -1.260240
  C     -1.604750   -0.452730   -2.856560
  N     -1.765240   -0.587080   -3.985440
  C     -2.532910   -3.063730   -1.680440
  C     -3.047070   -4.370480   -1.708310
  C     -3.501010   -4.940870   -2.868140
  C     -4.071870   -6.227160   -2.989420
  C     -4.130340   -7.149870   -1.982880
  C     -4.749960   -8.420180   -2.061450
  C     -4.684980   -9.292300   -0.933980
  C     -5.312880  -10.578510   -0.904220
  N     -5.213280  -11.338790    0.206550
  C     -4.529510  -10.888000    1.220340
  C     -3.904010   -9.625540    1.185960
  N     -3.991650   -8.856700    0.138350
  C     -6.056050  -11.066470   -2.015910
  C     -6.114360  -10.202230   -3.135480
  C     -5.472420   -8.911510   -3.172330
  N     -5.674630   -8.299810   -4.342580
  S     -6.566630   -9.241210   -5.285430
  N     -6.753930  -10.468960   -4.277440
  C     -6.741600  -12.305020   -2.094530
  C     -6.745760  -13.314570   -1.176580
  C     -7.478590  -14.499470   -1.381550
  C     -7.495010  -15.533740   -0.487650
  C     -8.260710  -16.711490   -0.598980
  C     -8.885730  -17.280580   -1.677720
  C     -9.990780  -18.240920   -1.418110
  O    -10.279640  -18.753190   -0.362840
  C    -10.691170  -18.389060   -2.715970
  C    -11.863430  -19.059540   -2.991390
  C    -12.355450  -19.014450   -4.297480
  C    -11.661920  -18.296590   -5.290280
  C    -10.467360  -17.632410   -5.002500
  C     -9.981160  -17.685820   -3.708190
  C     -8.772840  -17.113160   -3.106920
  C     -7.661690  -16.729740   -3.813540
  C     -6.430220  -16.398940   -3.213290
  N     -5.405260  -16.140500   -2.767230
  C     -7.598300  -16.687910   -5.221650
  N     -7.504190  -16.616970   -6.363120
  C    -12.188910  -18.238250   -6.604400
  N    -12.610270  -18.177410   -7.667120
  C    -13.560800  -19.682570   -4.621790
  N    -14.539080  -20.226060   -4.864080
  H     -0.606460    1.257250    1.052230
  H     -1.787760   -2.837770    3.644790
  H     -2.483950   -2.538880   -2.625990
  H     -3.097520   -4.911470   -0.776420
  H     -3.448960   -4.349060   -3.774790
  H     -4.490380   -6.492650   -3.950190
  H     -3.675710   -6.941790   -1.024550
  H     -4.473220  -11.527350    2.090800
  H     -3.338460   -9.243870    2.024550
  H     -7.305040  -12.434290   -3.011590
  H     -6.160170  -13.216480   -0.275600
  H     -8.094090  -14.551970   -2.271150
  H     -6.941010  -15.411080    0.433600
  H     -8.468270  -17.227110    0.335160
  H    -12.388030  -19.600390   -2.218530
  H     -9.964740  -17.088020   -5.786410

 Total Charge           Charge          ....    0
 Multiplicity           Mult            ....    1
 Number of Electrons    NEL             ....  408
 Basis Dimension        Dim             ....  938

ORBITAL ENERGIES
----------------

  NO   OCC          E(Eh)            E(eV)
   0   2.0000     -89.060329     -2423.4548
   1   2.0000     -19.238961      -523.5187
   2   2.0000     -19.238444      -523.5047
   3   2.0000     -14.468295      -393.7023
   4   2.0000     -14.467048      -393.6684
   5   2.0000     -14.456205      -393.3733
   6   2.0000     -14.455899      -393.3650
   7   2.0000     -14.436498      -392.8371
   8   2.0000     -14.436057      -392.8251
   9   2.0000     -14.433254      -392.7488
  10   2.0000     -14.431339      -392.6967
  11   2.0000     -14.431155      -392.6917
  12   2.0000     -14.430607      -392.6768
  13   2.0000     -14.429803      -392.6549
  14   2.0000     -14.427839      -392.6015
  15   2.0000     -10.389802      -282.7209
  16   2.0000     -10.388859      -282.6952
  17   2.0000     -10.367617      -282.1172
  18   2.0000     -10.365220      -282.0520
  19   2.0000     -10.363703      -282.0107
  20   2.0000     -10.362673      -281.9827
  21   2.0000     -10.362581      -281.9802
  22   2.0000     -10.360264      -281.9171
  23   2.0000     -10.359900      -281.9072
  24   2.0000     -10.359874      -281.9065
  25   2.0000     -10.355916      -281.7988
  26   2.0000     -10.355323      -281.7827
  27   2.0000     -10.355174      -281.7786
  28   2.0000     -10.354893      -281.7710
  29   2.0000     -10.352670      -281.7105
  30   2.0000     -10.350812      -281.6599
  31   2.0000     -10.343863      -281.4708
  32   2.0000     -10.339815      -281.3607
  33   2.0000     -10.337771      -281.3051
  34   2.0000     -10.337721      -281.3037
  35   2.0000     -10.337523      -281.2983
  36   2.0000     -10.336054      -281.2583
  37   2.0000     -10.335035      -281.2306
  38   2.0000     -10.334405      -281.2135
  39   2.0000     -10.334118      -281.2057
  40   2.0000     -10.333715      -281.1947
  41   2.0000     -10.332496      -281.1615
  42   2.0000     -10.330376      -281.1038
  43   2.0000     -10.329810      -281.0884
  44   2.0000     -10.328402      -281.0501
  45   2.0000     -10.327908      -281.0367
  46   2.0000     -10.327682      -281.0305
  47   2.0000     -10.327485      -281.0252
  48   2.0000     -10.326492      -280.9981
  49   2.0000     -10.324550      -280.9453
  50   2.0000     -10.324189      -280.9355
  51   2.0000     -10.322021      -280.8765
  52   2.0000     -10.319203      -280.7998
  53   2.0000     -10.317106      -280.7427
  54   2.0000     -10.313082      -280.6332
  55   2.0000     -10.312640      -280.6212
  56   2.0000     -10.309577      -280.5379
  57   2.0000     -10.308672      -280.5132
  58   2.0000     -10.301114      -280.3076
  59   2.0000     -10.299495      -280.2635
  60   2.0000     -10.298593      -280.2390
  61   2.0000      -8.151469      -221.8128
  62   2.0000      -6.122498      -166.6016
  63   2.0000      -6.114642      -166.3879
  64   2.0000      -6.114471      -166.3832
  65   2.0000      -1.156662       -31.4744
  66   2.0000      -1.154502       -31.4156
  67   2.0000      -1.153009       -31.3750
  68   2.0000      -1.113641       -30.3037
  69   2.0000      -1.046749       -28.4835
  70   2.0000      -1.042761       -28.3750
  71   2.0000      -1.037714       -28.2376
  72   2.0000      -1.032229       -28.0884
  73   2.0000      -1.028958       -27.9994
  74   2.0000      -1.014792       -27.6139
  75   2.0000      -1.014389       -27.6029
  76   2.0000      -1.012078       -27.5400
  77   2.0000      -1.010556       -27.4986
  78   2.0000      -1.010141       -27.4873
  79   2.0000      -1.009755       -27.4768
  80   2.0000      -1.008008       -27.4293
  81   2.0000      -0.988521       -26.8990
  82   2.0000      -0.983106       -26.7517
  83   2.0000      -0.979765       -26.6608
  84   2.0000      -0.951036       -25.8790
  85   2.0000      -0.946202       -25.7475
  86   2.0000      -0.930358       -25.3163
  87   2.0000      -0.926305       -25.2060
  88   2.0000      -0.924364       -25.1532
  89   2.0000      -0.909918       -24.7601
  90   2.0000      -0.907425       -24.6923
  91   2.0000      -0.904288       -24.6069
  92   2.0000      -0.897939       -24.4341
  93   2.0000      -0.889985       -24.2177
  94   2.0000      -0.868749       -23.6399
  95   2.0000      -0.851287       -23.1647
  96   2.0000      -0.830148       -22.5895
  97   2.0000      -0.813996       -22.1499
  98   2.0000      -0.810862       -22.0647
  99   2.0000      -0.809467       -22.0267
 100   2.0000      -0.803331       -21.8597
 101   2.0000      -0.779156       -21.2019
 102   2.0000      -0.768734       -20.9183
 103   2.0000      -0.759149       -20.6575
 104   2.0000      -0.752904       -20.4876
 105   2.0000      -0.744850       -20.2684
 106   2.0000      -0.731526       -19.9058
 107   2.0000      -0.718779       -19.5590
 108   2.0000      -0.715931       -19.4815
 109   2.0000      -0.713150       -19.4058
 110   2.0000      -0.703279       -19.1372
 111   2.0000      -0.691756       -18.8236
 112   2.0000      -0.688597       -18.7377
 113   2.0000      -0.682174       -18.5629
 114   2.0000      -0.680221       -18.5098
 115   2.0000      -0.672120       -18.2893
 116   2.0000      -0.660535       -17.9741
 117   2.0000      -0.659300       -17.9405
 118   2.0000      -0.658793       -17.9267
 119   2.0000      -0.642584       -17.4856
 120   2.0000      -0.635198       -17.2846
 121   2.0000      -0.628204       -17.0943
 122   2.0000      -0.621960       -16.9244
 123   2.0000      -0.618890       -16.8408
 124   2.0000      -0.611792       -16.6477
 125   2.0000      -0.604361       -16.4455
 126   2.0000      -0.598167       -16.2769
 127   2.0000      -0.595088       -16.1932
 128   2.0000      -0.583902       -15.8888
 129   2.0000      -0.582718       -15.8566
 130   2.0000      -0.582110       -15.8400
 131   2.0000      -0.573496       -15.6056
 132   2.0000      -0.571064       -15.5394
 133   2.0000      -0.568771       -15.4771
 134   2.0000      -0.564297       -15.3553
 135   2.0000      -0.563026       -15.3207
 136   2.0000      -0.562917       -15.3177
 137   2.0000      -0.555176       -15.1071
 138   2.0000      -0.552198       -15.0261
 139   2.0000      -0.546164       -14.8619
 140   2.0000      -0.540392       -14.7048
 141   2.0000      -0.537279       -14.6201
 142   2.0000      -0.536205       -14.5909
 143   2.0000      -0.531028       -14.4500
 144   2.0000      -0.527183       -14.3454
 145   2.0000      -0.524945       -14.2845
 146   2.0000      -0.519403       -14.1337
 147   2.0000      -0.516486       -14.0543
 148   2.0000      -0.515832       -14.0365
 149   2.0000      -0.511825       -13.9275
 150   2.0000      -0.510491       -13.8912
 151   2.0000      -0.499123       -13.5818
 152   2.0000      -0.496424       -13.5084
 153   2.0000      -0.493814       -13.4374
 154   2.0000      -0.488487       -13.2924
 155   2.0000      -0.486194       -13.2300
 156   2.0000      -0.484255       -13.1773
 157   2.0000      -0.481401       -13.0996
 158   2.0000      -0.474129       -12.9017
 159   2.0000      -0.471929       -12.8418
 160   2.0000      -0.468351       -12.7445
 161   2.0000      -0.465836       -12.6760
 162   2.0000      -0.463908       -12.6236
 163   2.0000      -0.463664       -12.6169
 164   2.0000      -0.463160       -12.6032
 165   2.0000      -0.461947       -12.5702
 166   2.0000      -0.459071       -12.4919
 167   2.0000      -0.457602       -12.4520
 168   2.0000      -0.456768       -12.4293
 169   2.0000      -0.455420       -12.3926
 170   2.0000      -0.455395       -12.3919
 171   2.0000      -0.454911       -12.3787
 172   2.0000      -0.453466       -12.3394
 173   2.0000      -0.452260       -12.3066
 174   2.0000      -0.450645       -12.2627
 175   2.0000      -0.447578       -12.1792
 176   2.0000      -0.443888       -12.0788
 177   2.0000      -0.442513       -12.0414
 178   2.0000      -0.441836       -12.0230
 179   2.0000      -0.436869       -11.8878
 180   2.0000      -0.435444       -11.8490
 181   2.0000      -0.433377       -11.7928
 182   2.0000      -0.431200       -11.7336
 183   2.0000      -0.428691       -11.6653
 184   2.0000      -0.427745       -11.6395
 185   2.0000      -0.426630       -11.6092
 186   2.0000      -0.423520       -11.5246
 187   2.0000      -0.416710       -11.3393
 188   2.0000      -0.411842       -11.2068
 189   2.0000      -0.409918       -11.1544
 190   2.0000      -0.393286       -10.7019
 191   2.0000      -0.388550       -10.5730
 192   2.0000      -0.381453       -10.3799
 193   2.0000      -0.371862       -10.1189
 194   2.0000      -0.368632       -10.0310
 195   2.0000      -0.363545        -9.8926
 196   2.0000      -0.361760        -9.8440
 197   2.0000      -0.357041        -9.7156
 198   2.0000      -0.350913        -9.5488
 199   2.0000      -0.348167        -9.4741
 200   2.0000      -0.341518        -9.2932
 201   2.0000      -0.330904        -9.0043
 202   2.0000      -0.306430        -8.3384
 203   2.0000      -0.264026        -7.1845
 204   0.0000      -0.148121        -4.0306
 205   0.0000      -0.111301        -3.0287
 206   0.0000      -0.105066        -2.8590
 207   0.0000      -0.094964        -2.5841
 208   0.0000      -0.091059        -2.4778

MULLIKEN ATOMIC CHARGES
-----------------------
   0 C :    0.044603
   1 C :   -0.042082
   2 C :   -0.062546
   3 C :   -0.175279
   4 N :    0.204775
   5 C :   -0.063234
   6 C :   -0.176164
   7 N :    0.194063
   8 C :   -0.035873
   9 C :    0.000948
  10 C :    0.150086
  11 O :   -0.140714
  12 C :   -0.085608
  13 C :    0.330958
  14 C :   -0.338990
  15 C :   -0.188737
  16 N :    0.168701
  17 C :   -0.188647
  18 N :    0.153483
  19 C :   -0.021703
  20 C :   -0.001729
  21 C :    0.058741
  22 C :    0.028926
  23 C :   -0.053086
  24 C :    0.088325
  25 C :   -0.029854
  26 C :   -0.037855
  27 N :   -0.030036
  28 C :    0.040263
  29 C :    0.036267
  30 N :   -0.020620
  31 C :    0.105431
  32 C :    0.018178
  33 C :    0.018024
  34 N :   -0.292109
  35 S :    0.559907
  36 N :   -0.282907
  37 C :   -0.080485
  38 C :    0.044632
  39 C :    0.056156
  40 C :    0.011324
  41 C :    0.056578
  42 C :   -0.129242
  43 C :    0.138112
  44 O :   -0.126928
  45 C :    0.012763
  46 C :   -0.033502
  47 C :   -0.071252
  48 C :   -0.063728
  49 C :   -0.038850
  50 C :    0.029370
  51 C :    0.263429
  52 C :   -0.321514
  53 C :   -0.207463
  54 N :    0.184798
  55 C :   -0.177222
  56 N :    0.168685
  57 C :   -0.174113
  58 N :    0.202072
  59 C :   -0.172840
  60 N :    0.198797
  61 H :    0.020213
  62 H :    0.011698
  63 H :    0.011131
  64 H :    0.036027
  65 H :    0.013938
  66 H :    0.014191
  67 H :    0.013545
  68 H :    0.023535
  69 H :    0.027622
  70 H :    0.005198
  71 H :    0.020289
  72 H :    0.016109
  73 H :    0.007224
  74 H :    0.034778
  75 H :    0.018372
  76 H :    0.022651
Sum of atomic charges:   -0.0000000

LOEWDIN ATOMIC CHARGES
----------------------
   0 C :    0.003497
   1 C :    0.033512
   2 C :   -0.024695
   3 C :   -0.031758
   4 N :   -0.011723
   5 C :   -0.029635
   6 C :   -0.031621
   7 N :   -0.015982
   8 C :    0.046393
   9 C :   -0.028604
  10 C :    0.083409
  11 O :   -0.137016
  12 C :   -0.104525
  13 C :    0.067462
  14 C :   -0.126924
  15 C :   -0.022418
  16 N :   -0.037921
  17 C :   -0.019666
  18 N :   -0.040880
  19 C :    0.074376
  20 C :   -0.025397
  21 C :    0.041770
  22 C :   -0.021220
  23 C :    0.030390
  24 C :   -0.024417
  25 C :    0.002023
  26 C :   -0.004440
  27 N :   -0.025581
  28 C :    0.021196
  29 C :    0.019347
  30 N :   -0.025621
  31 C :   -0.019345
  32 C :   -0.039757
  33 C :   -0.038806
  34 N :   -0.282020
  35 S :    0.689978
  36 N :   -0.280528
  37 C :    0.013825
  38 C :    0.002985
  39 C :    0.046880
  40 C :   -0.036310
  41 C :    0.072412
  42 C :   -0.098947
  43 C :    0.082400
  44 O :   -0.128035
  45 C :   -0.030732
  46 C :    0.049092
  47 C :   -0.029767
  48 C :   -0.023524
  49 C :    0.030234
  50 C :    0.004591
  51 C :    0.056976
  52 C :   -0.130023
  53 C :   -0.018054
  54 N :   -0.027687
  55 C :   -0.024798
  56 N :   -0.037707
  57 C :   -0.031495
  58 N :   -0.011349
  59 C :   -0.032351
  60 N :   -0.013522
  61 H :    0.052275
  62 H :    0.052385
  63 H :    0.043098
  64 H :    0.033508
  65 H :    0.039504
  66 H :    0.031875
  67 H :    0.036775
  68 H :    0.031403
  69 H :    0.033572
  70 H :    0.037475
  71 H :    0.031410
  72 H :    0.032723
  73 H :    0.038379
  74 H :    0.050898
  75 H :    0.054784
  76 H :    0.051991

  Mayer bond orders larger than 0.100000
B(  0-C ,  1-C ) :   1.3620 B(  0-C ,  9-C ) :   1.3359 B(  0-C , 13-C ) :   0.9531
B(  1-C ,  2-C ) :   1.3889 B(  1-C , 61-H ) :   0.9847 B(  2-C ,  3-C ) :   1.0880
B(  2-C ,  5-C ) :   1.4040 B(  3-C ,  4-N ) :   3.0440 B(  5-C ,  6-C ) :   1.0835
B(  5-C ,  8-C ) :   1.3616 B(  6-C ,  7-N ) :   3.0454 B(  8-C ,  9-C ) :   1.3652
B(  8-C , 62-H ) :   1.0150 B(  9-C , 10-C ) :   0.9255 B( 10-C , 11-O ) :   2.2029
B( 10-C , 12-C ) :   0.9611 B( 12-C , 13-C ) :   1.0820 B( 12-C , 19-C ) :   1.4824
B( 13-C , 14-C ) :   1.6374 B( 14-C , 15-C ) :   1.1464 B( 14-C , 17-C ) :   1.1467
B( 15-C , 16-N ) :   2.9586 B( 17-C , 18-N ) :   2.9591 B( 19-C , 20-C ) :   1.2078
B( 19-C , 63-H ) :   0.9622 B( 20-C , 21-C ) :   1.5266 B( 20-C , 64-H ) :   0.9674
B( 21-C , 22-C ) :   1.1630 B( 21-C , 65-H ) :   0.9830 B( 22-C , 23-C ) :   1.5496
B( 22-C , 66-H ) :   0.9599 B( 23-C , 24-C ) :   1.2330 B( 23-C , 67-H ) :   0.9458
B( 24-C , 25-C ) :   1.2326 B( 24-C , 31-C ) :   0.1384 B( 24-C , 33-C ) :   1.1771
B( 25-C , 26-C ) :   1.1426 B( 25-C , 30-N ) :   1.4570 B( 26-C , 27-N ) :   1.4475
B( 26-C , 31-C ) :   1.2411 B( 27-N , 28-C ) :   1.6784 B( 28-C , 29-C ) :   1.1825
B( 28-C , 68-H ) :   0.9736 B( 29-C , 30-N ) :   1.6938 B( 29-C , 69-H ) :   0.9761
B( 31-C , 32-C ) :   1.1824 B( 31-C , 37-C ) :   1.1960 B( 32-C , 33-C ) :   1.1172
B( 32-C , 36-N ) :   1.5126 B( 33-C , 34-N ) :   1.4897 B( 34-N , 35-S ) :   1.2822
B( 34-N , 36-N ) :   0.1544 B( 35-S , 36-N ) :   1.2987 B( 37-C , 38-C ) :   1.5381
B( 37-C , 70-H ) :   0.9687 B( 38-C , 39-C ) :   1.1737 B( 38-C , 71-H ) :   0.9685
B( 39-C , 40-C ) :   1.5409 B( 39-C , 72-H ) :   0.9731 B( 40-C , 41-C ) :   1.1980
B( 40-C , 73-H ) :   0.9662 B( 41-C , 42-C ) :   1.5936 B( 41-C , 74-H ) :   0.9312
B( 42-C , 43-C ) :   0.9589 B( 42-C , 51-C ) :   1.0623 B( 43-C , 44-O ) :   2.2728
B( 43-C , 45-C ) :   0.8985 B( 45-C , 46-C ) :   1.3689 B( 45-C , 50-C ) :   1.3340
B( 46-C , 47-C ) :   1.3632 B( 46-C , 75-H ) :   1.0149 B( 47-C , 48-C ) :   1.4054
B( 47-C , 59-C ) :   1.0870 B( 48-C , 49-C ) :   1.3837 B( 48-C , 57-C ) :   1.0873
B( 49-C , 50-C ) :   1.3670 B( 49-C , 76-H ) :   0.9899 B( 50-C , 51-C ) :   0.9704
B( 51-C , 52-C ) :   1.6479 B( 52-C , 53-C ) :   1.1735 B( 52-C , 55-C ) :   1.1288
B( 53-C , 54-N ) :   2.9915 B( 55-C , 56-N ) :   2.9817 B( 57-C , 58-N ) :   3.0442
B( 59-C , 60-N ) :   3.0448

-----------------------------------------------------------------------------
         ABSORPTION SPECTRUM VIA TRANSITION ELECTRIC DIPOLE MOMENTS
-----------------------------------------------------------------------------
State   Energy  Wavelength   fosc         T2         TX        TY        TZ
        (cm-1)    (nm)                  (au**2)     (au)      (au)      (au)
-----------------------------------------------------------------------------
   0   11303.3    884.7   1.449633990  42.22114  -2.60485  -5.91324  -0.68517
   1   18939.4    528.0   0.022965445   0.39920  -0.05145   0.19996   0.59713
   2   20007.9    499.8   0.147403172   2.42539  -0.54262  -1.42045  -0.33658
   3   20402.7    490.1   0.181104379   2.92224  -0.69022  -1.52384  -0.35179
   4   22460.9    445.2   0.002461004   0.03607   0.18303  -0.04976   0.00975
   5   22660.0    441.3   0.119673170   1.73865  -0.55223  -0.93003  -0.75415
   6   23283.8    429.5   0.112882060   1.59605   0.67920   1.00177  -0.36221
   7   26019.0    384.3   0.053208928   0.67324  -0.03928   0.70101   0.42460
   8   26830.3    372.7   0.000412400   0.00506   0.00156  -0.05714  -0.04235
   9   27766.7    360.1   0.056391574   0.66860  -0.54859  -0.60385  -0.05487
  10   29231.7    342.1   0.053418367   0.60161  -0.30890   0.35762   0.61506
  11   29501.7    339.0   0.045894066   0.51214  -0.16913   0.32529  -0.61459
  12   29628.4    337.5   0.282331912   3.13709   0.52905   0.13398   1.68501
  13   30157.7    331.6   0.152943378   1.66959   1.01963   0.78728  -0.10069
  14   30292.3    330.1   0.000846481   0.00920  -0.03717  -0.03186   0.08248
  15   30623.1    326.6   0.022948768   0.24671  -0.30715  -0.38604  -0.05779
  16   30867.7    324.0   0.052142216   0.55611   0.28320   0.40734  -0.55677
  17   30929.5    323.3   0.004622990   0.04921  -0.17327  -0.01211  -0.13798
  18   31008.8    322.5   0.014554276   0.15452  -0.12558   0.10226  -0.35818
  19   32232.3    310.2   0.104145720   1.06371   0.13281   0.59189  -0.83411
  20   33009.0    302.9   0.114879346   1.14574  -0.11286   0.08311  -1.06117
  21   34109.0    293.2   0.256736146   2.47796   0.80565   0.96705   0.94535
  22   34363.8    291.0   0.051105938   0.48961  -0.50027  -0.47253  -0.12666
  23   34670.1    288.4   0.002778324   0.02638   0.10646   0.04014   0.11592
  24   34848.9    287.0   0.010766375   0.10171  -0.16850  -0.21577   0.16358
  25   35070.7    285.1   0.212457739   1.99436   0.90613   0.62697  -0.88329
  26   35332.6    283.0   0.069056423   0.64343   0.68756   0.41189   0.03231
  27   35518.9    281.5   0.282856156   2.62169   1.54175   0.42879   0.24667
  28   36243.1    275.9   0.390409526   3.54626  -0.11425   0.67166  -1.75559
  29   36582.1    273.4   0.155219784   1.39686   0.69715   0.70237  -0.64616
  30   36789.8    271.8   0.004549284   0.04071   0.19505  -0.04373  -0.02741
  31   36808.7    271.7   0.017010942   0.15214   0.37303   0.02683   0.11078
  32   36821.5    271.6   0.017817342   0.15930   0.06016   0.00950   0.39445
  33   37146.6    269.2   0.002546829   0.02257   0.13403   0.04983   0.04610
  34   37659.4    265.5   0.072134328   0.63059   0.22329  -0.19767   0.73597
  35   37761.1    264.8   0.059220557   0.51630  -0.38174  -0.52229   0.31272
  36   38535.8    259.5   0.042245561   0.36090   0.39286   0.13710   0.43332
  37   38677.9    258.5   0.112722112   0.95945   0.44489  -0.35035   0.79923
  38   38964.3    256.6   0.126460867   1.06848  -0.45575  -0.01234  -0.92769
  39   39934.9    250.4   0.159182549   1.31226  -0.94750  -0.60358  -0.22403
  40   40167.9    249.0   0.218210063   1.78843   0.13963   0.53686   1.21685

FINAL SINGLE POINT ENERGY     -2964.580406345119

DIPOLE MOMENT
-------------
                                X             Y             Z
Electronic contribution:     -2.80678       3.81681      -8.07181
Nuclear contribution   :      2.44167      -5.45754       9.02571
                        -----------------------------------------
Total Dipole Moment    :     -0.36511      -1.64073       0.95390
                        -----------------------------------------
Magnitude (a.u.)       :      1.93267
Magnitude (Debye)      :      4.91246

Rotational constants in cm-1:     0.003432     0.000303     0.000286
Rotational constants in MHz :   102.894289     9.085890     8.573797

                             ****ORCA TERMINATED NORMALLY****
TOTAL RUN TIME: 0 days 0 hours 6 minutes 11 seconds 389 msec
