                         Program Version 4.2.0 -  RELEASE  -
|  1> # ORCA input file
|  2> # SCF done       -173.060702435254          0.000671870556
|  3> ! CAM-B3LYP def2-SVP def2/J RIJCOSX Grid4 TightSCF
|  4> %maxcore 5000
|  5> %tddft
|  6>     Mode sTDDFT
|  7>     Ethresh 5.0
|  8>     maxcore 5000
|  9> end
| 10>
| 11> %pal
| 12>   nprocs 6
| 13>   end
| 14> * xyz 0 1
| 15>    C        4.23025        -7.69319         6.09683
| 16>    C        5.35189        -7.69092         6.90897
| 17>    C        5.68994        -6.51076         7.57518
| 18>    C        6.83676        -6.48650         8.40650
| 19>    N        7.76720        -6.47164         9.07379
| 20>    C        4.91465        -5.34423         7.43467
| 21>    C        5.28187        -4.16263         8.12106
| 22>    N        5.56030        -3.19531         8.66749
| 23>    C        3.78450        -5.35164         6.61496
| 24>    C        3.46379        -6.52115         5.96092
| 25>    C        2.33295        -6.77377         5.03452
| 26>    O        1.48754        -5.96516         4.71240
| 27>    C        2.47648        -8.18066         4.61219
| 28>    C        3.62813        -8.74703         5.27556
| 29>    C        4.10008       -10.03278         5.18171
| 30>    C        5.23588       -10.51344         5.86616
| 31>    N        6.15156       -10.96452         6.39151
| 32>    C        3.53120       -11.06175         4.40285
| 33>    N        3.13212       -11.95505         3.80079
| 34>    C        1.65076        -8.81519         3.71298
| 35>    C        0.55536        -8.22385         3.06645
| 36>    C       -0.19092        -8.90048         2.14040
| 37>    C       -1.26705        -8.32060         1.43885
| 38>    C       -1.95268        -8.97986         0.46547
| 39>    C       -3.01231        -8.46218        -0.34450
| 40>    C       -3.47245        -9.22915        -1.40058
| 41>    C       -4.45805        -8.73590        -2.27206
| 42>    C       -5.04065        -9.27474        -3.41500
| 43>    C       -4.80939       -10.60519        -4.04622
| 44>    C       -3.35853       -10.74582        -4.55073
| 45>    N       -3.32445       -11.70359        -5.63737
| 46>    C       -5.19585       -11.74584        -3.08645
| 47>    N       -5.16770       -13.02677        -3.77560
| 48>    C       -5.93758        -8.26986        -3.93410
| 49>    C       -6.68202        -8.23992        -5.05562
| 50>    C       -7.48905        -7.04553        -5.42674
| 51>    C       -7.46639        -5.93815        -4.41447
| 52>    C       -6.71503        -5.98360        -3.29961
| 53>    C       -5.90591        -7.11279        -3.02760
| 54>    C       -5.00234        -7.40350        -2.02884
| 55>    C       -4.54978        -6.65675        -0.91486
| 56>    C       -3.58850        -7.16701        -0.10862
| 57>    C       -8.92291        -7.41890        -5.68965
| 58>    C       -9.62423        -6.96285        -6.73630
| 59>    C      -10.99934        -7.26392        -6.97480
| 60>    C      -11.69976        -6.72984        -8.00472
| 61>    C      -13.06965        -6.98919        -8.24962
| 62>    C      -13.75823        -6.40387        -9.26938
| 63>    C      -15.10273        -6.63810        -9.62873
| 64>    C      -16.14920        -7.19970        -8.94762
| 65>    C      -17.30437        -7.69096        -9.74414
| 66>    O      -17.52706        -7.48043       -10.91304
| 67>    C      -18.09289        -8.53236        -8.81378
| 68>    C      -19.19452        -9.31499        -9.08423
| 69>    C      -19.74484       -10.05942        -8.03894
| 70>    C      -19.17313       -10.00237        -6.75369
| 71>    C      -18.06485        -9.19466        -6.48864
| 72>    C      -17.52804        -8.45283        -7.52636
| 73>    C      -16.40372        -7.51193        -7.56162
| 74>    C      -15.88543        -6.88446        -6.45730
| 75>    C      -14.97894        -5.80822        -6.52202
| 76>    N      -14.25343        -4.91918        -6.52808
| 77>    C      -16.24516        -7.19600        -5.12998
| 78>    N      -16.48260        -7.42955        -4.03164
| 79>    C      -19.72726       -10.78465        -5.71025
| 80>    N      -20.16250       -11.41847        -4.86203
| 81>    C      -20.87437       -10.87969        -8.27436
| 82>    N      -21.78522       -11.54054        -8.48614
| 83>    H        5.97194        -8.56277         7.04261
| 84>    H        3.17907        -4.46614         6.49395
| 85>    H        1.86051        -9.84716         3.46253
| 86>    H        0.31344        -7.19741         3.29976
| 87>    H        0.06416        -9.92913         1.91309
| 88>    H       -1.51202        -7.29821         1.68855
| 89>    H       -1.64959        -9.99657         0.24174
| 90>    H       -3.04109       -10.20404        -1.57208
| 91>    H       -5.44644       -10.69022        -4.93211
| 92>    H       -2.70477       -11.01316        -3.70552
| 93>    H       -3.02137        -9.77896        -4.94039
| 94>    H       -3.65593       -12.60005        -5.29088
| 95>    H       -2.37762       -11.81967        -5.98107
| 96>    H       -6.18257       -11.51043        -2.65068
| 97>    H       -4.47850       -11.79900        -2.26470
| 98>    H       -5.88935       -13.05573        -4.48925
| 99>    H       -5.34777       -13.78200        -3.12292
|100>    H       -6.71236        -9.07059        -5.74775
|101>    H       -7.07158        -6.65134        -6.36705
|102>    H       -8.09116        -5.08755        -4.63880
|103>    H       -6.71189        -5.15616        -2.60532
|104>    H       -4.97191        -5.68102        -0.72523
|105>    H       -3.24422        -6.59661         0.73877
|106>    H       -9.38965        -8.04406        -4.94141
|107>    H       -9.14207        -6.31796        -7.46074
|108>    H      -11.48753        -7.93987        -6.28488
|109>    H      -11.20546        -6.03644        -8.67269
|110>    H      -13.55374        -7.72132        -7.61649
|111>    H      -13.20839        -5.74646        -9.93079
|112>    H      -15.35256        -6.39885       -10.65960
|113>    H      -19.61766        -9.35274       -10.07649
|114>    H      -17.65160        -9.17843        -5.49245
|115> *
|116>
|117>                          ****END OF INPUT****

CARTESIAN COORDINATES (ANGSTROEM)
---------------------------------
  C      4.230250   -7.693190    6.096830
  C      5.351890   -7.690920    6.908970
  C      5.689940   -6.510760    7.575180
  C      6.836760   -6.486500    8.406500
  N      7.767200   -6.471640    9.073790
  C      4.914650   -5.344230    7.434670
  C      5.281870   -4.162630    8.121060
  N      5.560300   -3.195310    8.667490
  C      3.784500   -5.351640    6.614960
  C      3.463790   -6.521150    5.960920
  C      2.332950   -6.773770    5.034520
  O      1.487540   -5.965160    4.712400
  C      2.476480   -8.180660    4.612190
  C      3.628130   -8.747030    5.275560
  C      4.100080  -10.032780    5.181710
  C      5.235880  -10.513440    5.866160
  N      6.151560  -10.964520    6.391510
  C      3.531200  -11.061750    4.402850
  N      3.132120  -11.955050    3.800790
  C      1.650760   -8.815190    3.712980
  C      0.555360   -8.223850    3.066450
  C     -0.190920   -8.900480    2.140400
  C     -1.267050   -8.320600    1.438850
  C     -1.952680   -8.979860    0.465470
  C     -3.012310   -8.462180   -0.344500
  C     -3.472450   -9.229150   -1.400580
  C     -4.458050   -8.735900   -2.272060
  C     -5.040650   -9.274740   -3.415000
  C     -4.809390  -10.605190   -4.046220
  C     -3.358530  -10.745820   -4.550730
  N     -3.324450  -11.703590   -5.637370
  C     -5.195850  -11.745840   -3.086450
  N     -5.167700  -13.026770   -3.775600
  C     -5.937580   -8.269860   -3.934100
  C     -6.682020   -8.239920   -5.055620
  C     -7.489050   -7.045530   -5.426740
  C     -7.466390   -5.938150   -4.414470
  C     -6.715030   -5.983600   -3.299610
  C     -5.905910   -7.112790   -3.027600
  C     -5.002340   -7.403500   -2.028840
  C     -4.549780   -6.656750   -0.914860
  C     -3.588500   -7.167010   -0.108620
  C     -8.922910   -7.418900   -5.689650
  C     -9.624230   -6.962850   -6.736300
  C    -10.999340   -7.263920   -6.974800
  C    -11.699760   -6.729840   -8.004720
  C    -13.069650   -6.989190   -8.249620
  C    -13.758230   -6.403870   -9.269380
  C    -15.102730   -6.638100   -9.628730
  C    -16.149200   -7.199700   -8.947620
  C    -17.304370   -7.690960   -9.744140
  O    -17.527060   -7.480430  -10.913040
  C    -18.092890   -8.532360   -8.813780
  C    -19.194520   -9.314990   -9.084230
  C    -19.744840  -10.059420   -8.038940
  C    -19.173130  -10.002370   -6.753690
  C    -18.064850   -9.194660   -6.488640
  C    -17.528040   -8.452830   -7.526360
  C    -16.403720   -7.511930   -7.561620
  C    -15.885430   -6.884460   -6.457300
  C    -14.978940   -5.808220   -6.522020
  N    -14.253430   -4.919180   -6.528080
  C    -16.245160   -7.196000   -5.129980
  N    -16.482600   -7.429550   -4.031640
  C    -19.727260  -10.784650   -5.710250
  N    -20.162500  -11.418470   -4.862030
  C    -20.874370  -10.879690   -8.274360
  N    -21.785220  -11.540540   -8.486140
  H      5.971940   -8.562770    7.042610
  H      3.179070   -4.466140    6.493950
  H      1.860510   -9.847160    3.462530
  H      0.313440   -7.197410    3.299760
  H      0.064160   -9.929130    1.913090
  H     -1.512020   -7.298210    1.688550
  H     -1.649590   -9.996570    0.241740
  H     -3.041090  -10.204040   -1.572080
  H     -5.446440  -10.690220   -4.932110
  H     -2.704770  -11.013160   -3.705520
  H     -3.021370   -9.778960   -4.940390
  H     -3.655930  -12.600050   -5.290880
  H     -2.377620  -11.819670   -5.981070
  H     -6.182570  -11.510430   -2.650680
  H     -4.478500  -11.799000   -2.264700
  H     -5.889350  -13.055730   -4.489250
  H     -5.347770  -13.782000   -3.122920
  H     -6.712360   -9.070590   -5.747750
  H     -7.071580   -6.651340   -6.367050
  H     -8.091160   -5.087550   -4.638800
  H     -6.711890   -5.156160   -2.605320
  H     -4.971910   -5.681020   -0.725230
  H     -3.244220   -6.596610    0.738770
  H     -9.389650   -8.044060   -4.941410
  H     -9.142070   -6.317960   -7.460740
  H    -11.487530   -7.939870   -6.284880
  H    -11.205460   -6.036440   -8.672690
  H    -13.553740   -7.721320   -7.616490
  H    -13.208390   -5.746460   -9.930790
  H    -15.352560   -6.398850  -10.659600
  H    -19.617660   -9.352740  -10.076490
  H    -17.651600   -9.178430   -5.492450

 Total Charge           Charge          ....    0
 Multiplicity           Mult            ....    1
 Number of Electrons    NEL             ....  454
 Basis Dimension        Dim             .... 1112

ORBITAL ENERGIES
----------------

  NO   OCC          E(Eh)            E(eV)
   0   2.0000     -19.238906      -523.5172
   1   2.0000     -19.229418      -523.2591
   2   2.0000     -14.437358      -392.8605
   3   2.0000     -14.436879      -392.8474
   4   2.0000     -14.431799      -392.7092
   5   2.0000     -14.431578      -392.7032
   6   2.0000     -14.426750      -392.5718
   7   2.0000     -14.423933      -392.4952
   8   2.0000     -14.423516      -392.4838
   9   2.0000     -14.422226      -392.4487
  10   2.0000     -14.403755      -391.9461
  11   2.0000     -14.369697      -391.0193
  12   2.0000     -10.389492      -282.7125
  13   2.0000     -10.380215      -282.4600
  14   2.0000     -10.367854      -282.1237
  15   2.0000     -10.366027      -282.0739
  16   2.0000     -10.364090      -282.0212
  17   2.0000     -10.362973      -281.9908
  18   2.0000     -10.354158      -281.7510
  19   2.0000     -10.353679      -281.7379
  20   2.0000     -10.353301      -281.7276
  21   2.0000     -10.352723      -281.7119
  22   2.0000     -10.344203      -281.4801
  23   2.0000     -10.338642      -281.3287
  24   2.0000     -10.338042      -281.3124
  25   2.0000     -10.337728      -281.3039
  26   2.0000     -10.336974      -281.2834
  27   2.0000     -10.334582      -281.2183
  28   2.0000     -10.332632      -281.1652
  29   2.0000     -10.329063      -281.0681
  30   2.0000     -10.328566      -281.0546
  31   2.0000     -10.328347      -281.0486
  32   2.0000     -10.327901      -281.0365
  33   2.0000     -10.327436      -281.0238
  34   2.0000     -10.327107      -281.0149
  35   2.0000     -10.325918      -280.9825
  36   2.0000     -10.325818      -280.9798
  37   2.0000     -10.323339      -280.9123
  38   2.0000     -10.322158      -280.8802
  39   2.0000     -10.320703      -280.8406
  40   2.0000     -10.318767      -280.7879
  41   2.0000     -10.317404      -280.7508
  42   2.0000     -10.316085      -280.7149
  43   2.0000     -10.315727      -280.7052
  44   2.0000     -10.315642      -280.7029
  45   2.0000     -10.315037      -280.6864
  46   2.0000     -10.313932      -280.6564
  47   2.0000     -10.310043      -280.5505
  48   2.0000     -10.306464      -280.4531
  49   2.0000     -10.304488      -280.3994
  50   2.0000     -10.303246      -280.3656
  51   2.0000     -10.303087      -280.3613
  52   2.0000     -10.302082      -280.3339
  53   2.0000     -10.299088      -280.2524
  54   2.0000     -10.297117      -280.1988
  55   2.0000     -10.294291      -280.1219
  56   2.0000     -10.293867      -280.1104
  57   2.0000     -10.289886      -280.0020
  58   2.0000     -10.288719      -279.9703
  59   2.0000     -10.288626      -279.9677
  60   2.0000     -10.288052      -279.9521
  61   2.0000     -10.287399      -279.9344
  62   2.0000     -10.285050      -279.8704
  63   2.0000     -10.284723      -279.8615
  64   2.0000     -10.284619      -279.8587
  65   2.0000     -10.280886      -279.7571
  66   2.0000     -10.280474      -279.7459
  67   2.0000     -10.280392      -279.7437
  68   2.0000      -1.154370       -31.4120
  69   2.0000      -1.143584       -31.1185
  70   2.0000      -1.047100       -28.4930
  71   2.0000      -1.035951       -28.1897
  72   2.0000      -1.032946       -28.1079
  73   2.0000      -1.022478       -27.8230
  74   2.0000      -1.015405       -27.6306
  75   2.0000      -1.015093       -27.6221
  76   2.0000      -1.010984       -27.5103
  77   2.0000      -1.005658       -27.3653
  78   2.0000      -1.003018       -27.2935
  79   2.0000      -1.002925       -27.2910
  80   2.0000      -1.002234       -27.2722
  81   2.0000      -0.986598       -26.8467
  82   2.0000      -0.983325       -26.7576
  83   2.0000      -0.973055       -26.4782
  84   2.0000      -0.968412       -26.3518
  85   2.0000      -0.955043       -25.9880
  86   2.0000      -0.951746       -25.8983
  87   2.0000      -0.945504       -25.7285
  88   2.0000      -0.933519       -25.4023
  89   2.0000      -0.930749       -25.3270
  90   2.0000      -0.921623       -25.0786
  91   2.0000      -0.918981       -25.0067
  92   2.0000      -0.908337       -24.7171
  93   2.0000      -0.902610       -24.5613
  94   2.0000      -0.897445       -24.4207
  95   2.0000      -0.896287       -24.3892
  96   2.0000      -0.884699       -24.0739
  97   2.0000      -0.867580       -23.6081
  98   2.0000      -0.856667       -23.3111
  99   2.0000      -0.853437       -23.2232
 100   2.0000      -0.846072       -23.0228
 101   2.0000      -0.832759       -22.6605
 102   2.0000      -0.815442       -22.1893
 103   2.0000      -0.810897       -22.0656
 104   2.0000      -0.802761       -21.8442
 105   2.0000      -0.794200       -21.6113
 106   2.0000      -0.773960       -21.0605
 107   2.0000      -0.765340       -20.8260
 108   2.0000      -0.758784       -20.6476
 109   2.0000      -0.749527       -20.3957
 110   2.0000      -0.742985       -20.2177
 111   2.0000      -0.736038       -20.0286
 112   2.0000      -0.724509       -19.7149
 113   2.0000      -0.716287       -19.4912
 114   2.0000      -0.709696       -19.3118
 115   2.0000      -0.706523       -19.2255
 116   2.0000      -0.701263       -19.0823
 117   2.0000      -0.690881       -18.7998
 118   2.0000      -0.684125       -18.6160
 119   2.0000      -0.683662       -18.6034
 120   2.0000      -0.681856       -18.5542
 121   2.0000      -0.675980       -18.3943
 122   2.0000      -0.674241       -18.3470
 123   2.0000      -0.670742       -18.2518
 124   2.0000      -0.664243       -18.0750
 125   2.0000      -0.660521       -17.9737
 126   2.0000      -0.650948       -17.7132
 127   2.0000      -0.643376       -17.5072
 128   2.0000      -0.625778       -17.0283
 129   2.0000      -0.623625       -16.9697
 130   2.0000      -0.622821       -16.9478
 131   2.0000      -0.614433       -16.7196
 132   2.0000      -0.607948       -16.5431
 133   2.0000      -0.605100       -16.4656
 134   2.0000      -0.601609       -16.3706
 135   2.0000      -0.596600       -16.2343
 136   2.0000      -0.593536       -16.1509
 137   2.0000      -0.586238       -15.9523
 138   2.0000      -0.580420       -15.7940
 139   2.0000      -0.576091       -15.6762
 140   2.0000      -0.573238       -15.5986
 141   2.0000      -0.567046       -15.4301
 142   2.0000      -0.564712       -15.3666
 143   2.0000      -0.563040       -15.3211
 144   2.0000      -0.562522       -15.3070
 145   2.0000      -0.560685       -15.2570
 146   2.0000      -0.555659       -15.1202
 147   2.0000      -0.555295       -15.1103
 148   2.0000      -0.546531       -14.8719
 149   2.0000      -0.541874       -14.7451
 150   2.0000      -0.540751       -14.7146
 151   2.0000      -0.537376       -14.6227
 152   2.0000      -0.534487       -14.5441
 153   2.0000      -0.532978       -14.5031
 154   2.0000      -0.529368       -14.4048
 155   2.0000      -0.528333       -14.3767
 156   2.0000      -0.527646       -14.3580
 157   2.0000      -0.525870       -14.3097
 158   2.0000      -0.518380       -14.1058
 159   2.0000      -0.516962       -14.0672
 160   2.0000      -0.515314       -14.0224
 161   2.0000      -0.512154       -13.9364
 162   2.0000      -0.509250       -13.8574
 163   2.0000      -0.508252       -13.8303
 164   2.0000      -0.504219       -13.7205
 165   2.0000      -0.499248       -13.5852
 166   2.0000      -0.498084       -13.5536
 167   2.0000      -0.492281       -13.3957
 168   2.0000      -0.489247       -13.3131
 169   2.0000      -0.485142       -13.2014
 170   2.0000      -0.482312       -13.1244
 171   2.0000      -0.482049       -13.1172
 172   2.0000      -0.480292       -13.0694
 173   2.0000      -0.478201       -13.0125
 174   2.0000      -0.474322       -12.9070
 175   2.0000      -0.470012       -12.7897
 176   2.0000      -0.469326       -12.7710
 177   2.0000      -0.466900       -12.7050
 178   2.0000      -0.464177       -12.6309
 179   2.0000      -0.461435       -12.5563
 180   2.0000      -0.460216       -12.5231
 181   2.0000      -0.458068       -12.4647
 182   2.0000      -0.457365       -12.4455
 183   2.0000      -0.455881       -12.4051
 184   2.0000      -0.455863       -12.4047
 185   2.0000      -0.455309       -12.3896
 186   2.0000      -0.455152       -12.3853
 187   2.0000      -0.453578       -12.3425
 188   2.0000      -0.451804       -12.2942
 189   2.0000      -0.451176       -12.2771
 190   2.0000      -0.449763       -12.2387
 191   2.0000      -0.449215       -12.2237
 192   2.0000      -0.446915       -12.1612
 193   2.0000      -0.446406       -12.1473
 194   2.0000      -0.443845       -12.0776
 195   2.0000      -0.439015       -11.9462
 196   2.0000      -0.437954       -11.9173
 197   2.0000      -0.437329       -11.9003
 198   2.0000      -0.436162       -11.8686
 199   2.0000      -0.434590       -11.8258
 200   2.0000      -0.431610       -11.7447
 201   2.0000      -0.429361       -11.6835
 202   2.0000      -0.427250       -11.6261
 203   2.0000      -0.426241       -11.5986
 204   2.0000      -0.424036       -11.5386
 205   2.0000      -0.422956       -11.5092
 206   2.0000      -0.416929       -11.3452
 207   2.0000      -0.414465       -11.2782
 208   2.0000      -0.409768       -11.1504
 209   2.0000      -0.404666       -11.0115
 210   2.0000      -0.398413       -10.8414
 211   2.0000      -0.386067       -10.5054
 212   2.0000      -0.379152       -10.3173
 213   2.0000      -0.372920       -10.1477
 214   2.0000      -0.365106        -9.9350
 215   2.0000      -0.362483        -9.8637
 216   2.0000      -0.359688        -9.7876
 217   2.0000      -0.350009        -9.5242
 218   2.0000      -0.348676        -9.4880
 219   2.0000      -0.340752        -9.2723
 220   2.0000      -0.338457        -9.2099
 221   2.0000      -0.325877        -8.8676
 222   2.0000      -0.324470        -8.8293
 223   2.0000      -0.299209        -8.1419
 224   2.0000      -0.291116        -7.9217
 225   2.0000      -0.281760        -7.6671
 226   2.0000      -0.239859        -6.5269
 227   0.0000      -0.118163        -3.2154
 228   0.0000      -0.113923        -3.1000
 229   0.0000      -0.099100        -2.6967
 230   0.0000      -0.092726        -2.5232
 231   0.0000      -0.078162        -2.1269

MULLIKEN ATOMIC CHARGES
-----------------------
   0 C :    0.045197
   1 C :   -0.043170
   2 C :   -0.062547
   3 C :   -0.174072
   4 N :    0.198727
   5 C :   -0.067267
   6 C :   -0.173955
   7 N :    0.194694
   8 C :   -0.037664
   9 C :   -0.001528
  10 C :    0.149157
  11 O :   -0.144908
  12 C :   -0.086383
  13 C :    0.330845
  14 C :   -0.344485
  15 C :   -0.189590
  16 N :    0.162765
  17 C :   -0.191086
  18 N :    0.150371
  19 C :   -0.014980
  20 C :   -0.014213
  21 C :    0.060894
  22 C :    0.011748
  23 C :    0.017355
  24 C :    0.120720
  25 C :   -0.082215
  26 C :    0.046320
  27 C :   -0.009089
  28 C :   -0.060231
  29 C :    0.158279
  30 N :   -0.225942
  31 C :    0.139541
  32 N :   -0.217375
  33 C :    0.102337
  34 C :   -0.145329
  35 C :    0.128895
  36 C :   -0.029485
  37 C :    0.027926
  38 C :    0.011154
  39 C :    0.025859
  40 C :    0.011205
  41 C :   -0.009990
  42 C :   -0.043986
  43 C :    0.028031
  44 C :    0.042645
  45 C :    0.004663
  46 C :    0.063482
  47 C :   -0.003289
  48 C :    0.055784
  49 C :   -0.132070
  50 C :    0.138958
  51 O :   -0.128189
  52 C :    0.011909
  53 C :   -0.032384
  54 C :   -0.070235
  55 C :   -0.061579
  56 C :   -0.038405
  57 C :    0.028562
  58 C :    0.271270
  59 C :   -0.333447
  60 C :   -0.208768
  61 N :    0.187287
  62 C :   -0.177050
  63 N :    0.169851
  64 C :   -0.174522
  65 N :    0.200541
  66 C :   -0.172452
  67 N :    0.197440
  68 H :    0.019199
  69 H :    0.013130
  70 H :    0.007226
  71 H :    0.024578
  72 H :    0.011191
  73 H :    0.003988
  74 H :   -0.009983
  75 H :   -0.034210
  76 H :   -0.032875
  77 H :   -0.024902
  78 H :   -0.000716
  79 H :    0.082082
  80 H :    0.084925
  81 H :   -0.002396
  82 H :   -0.009948
  83 H :    0.102054
  84 H :    0.100743
  85 H :    0.004794
  86 H :    0.044915
  87 H :   -0.006078
  88 H :   -0.027487
  89 H :   -0.031823
  90 H :   -0.024832
  91 H :    0.015848
  92 H :   -0.002559
  93 H :    0.002267
  94 H :    0.000781
  95 H :    0.015297
  96 H :    0.007153
  97 H :    0.035201
  98 H :    0.018152
  99 H :    0.021751
Sum of atomic charges:   -0.0000000

LOEWDIN ATOMIC CHARGES
----------------------
   0 C :    0.003100
   1 C :    0.032720
   2 C :   -0.026313
   3 C :   -0.031083
   4 N :   -0.014872
   5 C :   -0.030342
   6 C :   -0.031440
   7 N :   -0.017585
   8 C :    0.045683
   9 C :   -0.027268
  10 C :    0.082945
  11 O :   -0.139255
  12 C :   -0.112390
  13 C :    0.069389
  14 C :   -0.133574
  15 C :   -0.022352
  16 N :   -0.043482
  17 C :   -0.019241
  18 N :   -0.047458
  19 C :    0.077084
  20 C :   -0.046602
  21 C :    0.051672
  22 C :   -0.043788
  23 C :    0.034612
  24 C :   -0.036356
  25 C :    0.013554
  26 C :   -0.025219
  27 C :   -0.011776
  28 C :   -0.042187
  29 C :    0.033234
  30 N :   -0.129596
  31 C :    0.028134
  32 N :   -0.102220
  33 C :   -0.016318
  34 C :    0.068473
  35 C :   -0.031061
  36 C :   -0.028652
  37 C :   -0.012349
  38 C :   -0.035738
  39 C :   -0.027977
  40 C :   -0.001528
  41 C :   -0.024520
  42 C :    0.020826
  43 C :   -0.038194
  44 C :    0.023205
  45 C :   -0.029637
  46 C :    0.053647
  47 C :   -0.050192
  48 C :    0.076502
  49 C :   -0.104241
  50 C :    0.082626
  51 O :   -0.128780
  52 C :   -0.030562
  53 C :    0.049152
  54 C :   -0.029609
  55 C :   -0.023673
  56 C :    0.030034
  57 C :    0.004331
  58 C :    0.058965
  59 C :   -0.132902
  60 C :   -0.018116
  61 N :   -0.028513
  62 C :   -0.025195
  63 N :   -0.038634
  64 C :   -0.031571
  65 N :   -0.011550
  66 C :   -0.032230
  67 N :   -0.013585
  68 H :    0.051838
  69 H :    0.052684
  70 H :    0.042010
  71 H :    0.034633
  72 H :    0.036340
  73 H :    0.032287
  74 H :    0.033437
  75 H :    0.022923
  76 H :    0.021699
  77 H :   -0.003110
  78 H :    0.017617
  79 H :    0.036010
  80 H :    0.051333
  81 H :    0.004033
  82 H :    0.015530
  83 H :    0.056882
  84 H :    0.059605
  85 H :    0.033677
  86 H :    0.062863
  87 H :    0.027700
  88 H :    0.032917
  89 H :    0.030223
  90 H :    0.027480
  91 H :    0.031625
  92 H :    0.031167
  93 H :    0.033802
  94 H :    0.033673
  95 H :    0.033754
  96 H :    0.037706
  97 H :    0.050924
  98 H :    0.054809
  99 H :    0.051768

  Mayer bond orders larger than 0.100000
B(  0-C ,  1-C ) :   1.3616 B(  0-C ,  9-C ) :   1.3367 B(  0-C , 13-C ) :   0.9523
B(  1-C ,  2-C ) :   1.3892 B(  1-C , 68-H ) :   0.9846 B(  2-C ,  3-C ) :   1.0865
B(  2-C ,  5-C ) :   1.4063 B(  3-C ,  4-N ) :   3.0432 B(  5-C ,  6-C ) :   1.0848
B(  5-C ,  8-C ) :   1.3590 B(  6-C ,  7-N ) :   3.0448 B(  8-C ,  9-C ) :   1.3692
B(  8-C , 69-H ) :   1.0145 B(  9-C , 10-C ) :   0.9201 B( 10-C , 11-O ) :   2.2055
B( 10-C , 12-C ) :   0.9646 B( 12-C , 13-C ) :   1.0950 B( 12-C , 19-C ) :   1.4777
B( 13-C , 14-C ) :   1.6244 B( 14-C , 15-C ) :   1.1490 B( 14-C , 17-C ) :   1.1509
B( 15-C , 16-N ) :   2.9574 B( 17-C , 18-N ) :   2.9588 B( 19-C , 20-C ) :   1.2100
B( 19-C , 70-H ) :   0.9569 B( 20-C , 21-C ) :   1.4880 B( 20-C , 71-H ) :   0.9862
B( 21-C , 22-C ) :   1.1721 B( 21-C , 72-H ) :   0.9935 B( 22-C , 23-C ) :   1.5745
B( 22-C , 73-H ) :   0.9783 B( 23-C , 24-C ) :   1.0998 B( 23-C , 74-H ) :   0.9887
B( 24-C , 25-C ) :   1.4769 B( 24-C , 41-C ) :   1.1104 B( 25-C , 26-C ) :   1.1291
B( 25-C , 75-H ) :   0.9959 B( 26-C , 27-C ) :   1.4593 B( 26-C , 39-C ) :   1.1136
B( 27-C , 28-C ) :   1.0255 B( 27-C , 33-C ) :   1.1184 B( 28-C , 29-C ) :   1.0241
B( 28-C , 31-C ) :   1.0425 B( 28-C , 76-H ) :   0.8774 B( 29-C , 30-N ) :   1.1094
B( 29-C , 77-H ) :   0.9247 B( 29-C , 78-H ) :   0.9471 B( 30-N , 79-H ) :   0.9428
B( 30-N , 80-H ) :   0.9662 B( 31-C , 32-N ) :   1.0849 B( 31-C , 81-H ) :   0.9471
B( 31-C , 82-H ) :   0.9329 B( 32-N , 83-H ) :   0.9631 B( 32-N , 84-H ) :   0.9667
B( 33-C , 34-C ) :   1.6522 B( 33-C , 38-C ) :   1.0419 B( 34-C , 35-C ) :   0.9532
B( 34-C , 85-H ) :   0.9804 B( 35-C , 36-C ) :   0.9880 B( 35-C , 42-C ) :   0.9584
B( 35-C , 86-H ) :   0.8631 B( 36-C , 37-C ) :   1.7169 B( 36-C , 87-H ) :   0.9718
B( 37-C , 38-C ) :   1.1307 B( 37-C , 88-H ) :   0.9880 B( 38-C , 39-C ) :   1.4569
B( 39-C , 40-C ) :   1.1370 B( 40-C , 41-C ) :   1.6319 B( 40-C , 89-H ) :   0.9892
B( 41-C , 90-H ) :   0.9836 B( 42-C , 43-C ) :   1.7552 B( 42-C , 91-H ) :   0.9772
B( 43-C , 44-C ) :   1.1114 B( 43-C , 92-H ) :   0.9790 B( 44-C , 45-C ) :   1.6299
B( 44-C , 93-H ) :   0.9846 B( 45-C , 46-C ) :   1.1689 B( 45-C , 94-H ) :   0.9898
B( 46-C , 47-C ) :   1.5748 B( 46-C , 95-H ) :   0.9694 B( 47-C , 48-C ) :   1.1969
B( 47-C , 96-H ) :   0.9644 B( 48-C , 49-C ) :   1.6020 B( 48-C , 97-H ) :   0.9281
B( 49-C , 50-C ) :   0.9588 B( 49-C , 58-C ) :   1.0592 B( 50-C , 51-O ) :   2.2707
B( 50-C , 52-C ) :   0.8973 B( 52-C , 53-C ) :   1.3725 B( 52-C , 57-C ) :   1.3351
B( 53-C , 54-C ) :   1.3627 B( 53-C , 98-H ) :   1.0143 B( 54-C , 55-C ) :   1.4054
B( 54-C , 66-C ) :   1.0858 B( 55-C , 56-C ) :   1.3859 B( 55-C , 64-C ) :   1.0866
B( 56-C , 57-C ) :   1.3655 B( 56-C , 99-H ) :   0.9889 B( 57-C , 58-C ) :   0.9727
B( 58-C , 59-C ) :   1.6454 B( 59-C , 60-C ) :   1.1776 B( 59-C , 62-C ) :   1.1276
B( 60-C , 61-N ) :   2.9924 B( 62-C , 63-N ) :   2.9814 B( 64-C , 65-N ) :   3.0438
B( 66-C , 67-N ) :   3.0448

-----------------------------------------------------------------------------
         ABSORPTION SPECTRUM VIA TRANSITION ELECTRIC DIPOLE MOMENTS
-----------------------------------------------------------------------------
State   Energy  Wavelength   fosc         T2         TX        TY        TZ
        (cm-1)    (nm)                  (au**2)     (au)      (au)      (au)
-----------------------------------------------------------------------------
   0   12813.8    780.4   0.297365970   7.63992  -1.81259  -0.69500  -1.96759
   1   16053.0    622.9   0.133147327   2.73056  -1.58771   0.22107  -0.40109
   2   17742.6    563.6   1.204893281  22.35665  -3.75473   0.77194  -2.76817
   3   20402.1    490.1   0.321465152   5.18721   2.26181   0.21470  -0.15912
   4   21318.7    469.1   0.026225579   0.40499  -0.45551   0.35322  -0.26969
   5   21889.6    456.8   1.044260675  15.70531  -2.80460  -0.32370  -2.78114
   6   22177.9    450.9   0.036482420   0.54155   0.14758  -0.18135  -0.69777
   7   25132.6    397.9   0.022463790   0.29425   0.49165  -0.22917   0.00439
   8   25470.5    392.6   0.283710026   3.66702  -1.76689  -0.28208  -0.68232
   9   26572.4    376.3   0.074781540   0.92649   0.04928   0.74734   0.60460
  10   27961.7    357.6   0.006676218   0.07860   0.16776   0.14801   0.16898
  11   28481.8    351.1   0.006663174   0.07702   0.08238  -0.06696   0.25641
  12   28697.1    348.5   0.000477517   0.00548  -0.01864  -0.02933  -0.06535
  13   28888.0    346.2   0.023191900   0.26430   0.38137   0.19177   0.28649
  14   29113.5    343.5   0.010814182   0.12229  -0.33858   0.06400   0.05962
  15   30083.9    332.4   0.000905707   0.00991  -0.06055  -0.05255  -0.05902
  16   30458.2    328.3   0.146922849   1.58804   0.77504   0.20508   0.97226
  17   30562.7    327.2   0.035330304   0.38057  -0.21128   0.37707  -0.44017
  18   30588.6    326.9   0.276585724   2.97677  -1.18029  -0.42773  -1.18352
  19   30749.3    325.2   0.076633585   0.82047  -0.06618  -0.83156  -0.35298
  20   30984.8    322.7   0.042192279   0.44829   0.14721   0.61959   0.20670
  21   31895.7    313.5   0.102428553   1.05722   0.76601   0.56133   0.39414
  22   32632.5    306.4   0.347884376   3.50962  -1.10496  -0.24567  -1.49276
  23   32907.4    303.9   0.000107194   0.00107  -0.03015  -0.00698   0.01071
  24   33464.9    298.8   0.003312015   0.03258   0.05061   0.10369   0.13881
  25   33669.3    297.0   0.024867984   0.24315   0.05943   0.21707   0.43875
  26   34632.1    288.7   0.060461920   0.57475   0.24686   0.56232   0.44453
  27   34762.3    287.7   0.176452095   1.67107   0.84697  -0.85677   0.46868
  28   34893.7    286.6   0.573053806   5.40659   0.61284   2.06763   0.86943
  29   35665.7    280.4   0.065070256   0.60063  -0.14537   0.73341   0.20399
  30   35971.9    278.0   0.004615711   0.04224  -0.17281  -0.07434  -0.08279
  31   36019.2    277.6   0.023599580   0.21570  -0.37075  -0.27303  -0.06083
  32   36238.6    275.9   0.345843403   3.14184   1.46201   0.92311   0.39017
  33   36601.1    273.2   0.221145642   1.98911  -0.87908  -0.14830  -1.09286
  34   37032.8    270.0   0.079072305   0.70293  -0.32144   0.49058  -0.59911
  35   37147.2    269.2   0.199555423   1.76853   1.17496  -0.41179   0.46736
  36   37387.6    267.5   0.094724771   0.83409   0.42628  -0.78893   0.17309
  37   37590.8    266.0   0.000906920   0.00794   0.04650  -0.05589   0.05154
  38   37657.1    265.6   0.075276618   0.65810   0.41272  -0.39441   0.57637
  39   38524.6    259.6   0.013976301   0.11943   0.28519   0.06586   0.18376
  40   38627.5    258.9   0.032948249   0.28081   0.43456  -0.07035   0.29499
  41   38821.0    257.6   0.004845155   0.04109   0.09353   0.05131   0.17236
  42   39120.0    255.6   0.062166505   0.52316  -0.37652  -0.34421  -0.51275
  43   39910.7    250.6   0.035440012   0.29233   0.36051   0.27191  -0.29738
  44   40137.9    249.1   0.056621018   0.46441   0.32496  -0.37951  -0.46344

FINAL SINGLE POINT ENERGY     -2847.265986013964

DIPOLE MOMENT
-------------
                                X             Y             Z
Electronic contribution:    -11.90648      15.50221      39.38535
Nuclear contribution   :     10.15358     -15.37286     -44.47257
                        -----------------------------------------
Total Dipole Moment    :     -1.75290       0.12935      -5.08722
                        -----------------------------------------
Magnitude (a.u.)       :      5.38231
Magnitude (Debye)      :     13.68074

Rotational constants in cm-1:     0.002422     0.000170     0.000169
Rotational constants in MHz :    72.606103     5.097799     5.051722

                             ****ORCA TERMINATED NORMALLY****
TOTAL RUN TIME: 0 days 0 hours 9 minutes 22 seconds 954 msec
