                         Program Version 4.2.0 -  RELEASE  -
|  1> # ORCA input file
|  2> # SCF done       -205.858918513225          0.000920517547
|  3> ! CAM-B3LYP def2-SVP def2/J RIJCOSX Grid4 TightSCF
|  4> %maxcore 5000
|  5> %tddft
|  6>     Mode sTDDFT
|  7>     Ethresh 5.0
|  8>     maxcore 5000
|  9> end
| 10>
| 11> %pal
| 12>   nprocs 6
| 13>   end
| 14> * xyz 0 1
| 15>    C        5.52975        -3.59203         6.43289
| 16>    C        6.51140        -3.11699         7.28563
| 17>    C        6.99026        -3.96477         8.28762
| 18>    C        7.98513        -3.49317         9.17929
| 19>    N        8.78614        -3.10471         9.89916
| 20>    C        6.49904        -5.27577         8.43356
| 21>    C        7.00132        -6.10978         9.46078
| 22>    N        7.39206        -6.79986        10.28703
| 23>    C        5.51030        -5.75174         7.57027
| 24>    C        5.04227        -4.90278         6.59142
| 25>    C        3.99004        -5.15707         5.58232
| 26>    O        3.38152        -6.20059         5.43616
| 27>    C        3.84348        -3.91011         4.83105
| 28>    C        4.81977        -2.95964         5.31721
| 29>    C        5.07379        -1.69828         4.84145
| 30>    C        6.05424        -0.83402         5.37331
| 31>    N        6.83183        -0.08466         5.76202
| 32>    C        4.41560        -1.08077         3.75723
| 33>    N        3.93186        -0.50900         2.88624
| 34>    C        2.88036        -3.65787         3.87859
| 35>    C        1.84951        -4.46730         3.39659
| 36>    C        0.86026        -3.97115         2.52809
| 37>    C       -0.12811        -4.87677         2.23155
| 38>    C        0.11140        -6.11669         2.85274
| 39>    S        1.53599        -6.14337         3.80459
| 40>    C       -0.87979        -7.10925         2.71088
| 41>    C       -2.04984        -6.76734         2.02055
| 42>   Ge       -1.85418        -4.94775         1.28062
| 43>    C       -3.19572        -3.66186         1.97093
| 44>    C       -1.67119        -4.94620        -0.69315
| 45>    C       -2.99686        -7.77247         2.08549
| 46>    C       -2.55683        -8.88917         2.79075
| 47>    S       -0.92244        -8.70188         3.36838
| 48>    C       -3.27883       -10.04444         3.13349
| 49>    C       -2.74429       -11.21296         3.69006
| 50>    C       -3.74153       -12.18200         4.05357
| 51>    N       -3.39086       -13.33986         4.61585
| 52>    C       -2.10551       -13.55064         4.80499
| 53>    C       -1.72994       -14.83913         5.43706
| 54>    O       -2.55497       -15.65637         5.79241
| 55>    C       -0.28342       -15.05050         5.60761
| 56>    C        0.64381       -14.15925         5.24107
| 57>    C        0.33196       -12.85900         4.62108
| 58>    O        1.19546       -12.07295         4.29375
| 59>    C       -1.11394       -12.59109         4.42494
| 60>    N       -1.44561       -11.43978         3.88126
| 61>    C       -5.04831       -11.73902         3.79755
| 62>    S       -5.00833       -10.16903         3.04704
| 63>    C       -6.23897       -12.36234         4.20872
| 64>    C       -6.35070       -13.60995         4.81867
| 65>    C       -7.62735       -13.87483         5.27884
| 66>    C       -8.51407       -12.82488         5.02091
| 67>    S       -7.77255       -11.52530         4.16393
| 68>    C       -9.80482       -12.90648         5.57591
| 69>    C      -10.09822       -14.02639         6.36743
| 70>   Ge       -8.56351       -15.27247         6.31423
| 71>    C       -8.97727       -16.88401         5.24299
| 72>    C       -7.71256       -15.61666         8.06947
| 73>    C      -11.35626       -13.95006         6.92505
| 74>    C      -12.05623       -12.78884         6.58571
| 75>    S      -11.08750       -11.77011         5.53756
| 76>    C      -13.29055       -12.29957         7.02976
| 77>    C      -14.27530       -12.90778         7.76748
| 78>    C      -15.20793       -12.04568         8.53112
| 79>    O      -15.35438       -10.84975         8.42770
| 80>    C      -15.87909       -12.95658         9.49038
| 81>    C      -16.73959       -12.64140        10.51903
| 82>    C      -17.20388       -13.67980        11.32972
| 83>    C      -16.79353       -15.00403        11.08688
| 84>    C      -15.93248       -15.31347        10.03085
| 85>    C      -15.47686       -14.28110         9.23105
| 86>    C      -14.58574       -14.28043         8.06656
| 87>    C      -14.32281       -15.37675         7.28232
| 88>    C      -14.73069       -16.68766         7.59902
| 89>    N      -15.01934       -17.77524         7.82562
| 90>    C      -13.67726       -15.29885         6.03269
| 91>    N      -13.16827       -15.27379         5.00401
| 92>    C      -17.25427       -16.04181        11.93416
| 93>    N      -17.61525       -16.88723        12.61695
| 94>    C      -18.07952       -13.39718        12.40529
| 95>    N      -18.78444       -13.14759        13.27246
| 96>    H        6.91246        -2.11916         7.20896
| 97>    H        5.11958        -6.75319         7.66816
| 98>    H        2.87072        -2.66133         3.45374
| 99>    H        0.88660        -2.95824         2.16374
|100>    H       -3.25718        -3.72345         3.05293
|101>    H       -4.17323        -3.88046         1.55196
|102>    H       -2.92036        -2.64901         1.69352
|103>    H       -0.92778        -5.67412        -1.00281
|104>    H       -1.36316        -3.96406        -1.03840
|105>    H       -2.61992        -5.19478        -1.15895
|106>    H       -3.97991        -7.71991         1.64990
|107>    H       -0.00867       -15.99364         6.06055
|108>    H        1.69805       -14.35397         5.38514
|109>    H       -5.50022       -14.25790         4.93637
|110>    H       -9.50765       -16.60531         4.33749
|111>    H       -9.60222       -17.56257         5.81563
|112>    H       -8.06024       -17.39859         4.97285
|113>    H       -7.56963       -14.68804         8.61333
|114>    H       -6.74390       -16.08246         7.91508
|115>    H       -8.32710       -16.28399         8.66595
|116>    H      -11.74015       -14.68132         7.61426
|117>    H      -13.46431       -11.24106         6.85724
|118>    H      -17.04196       -11.62052        10.69638
|119>    H      -15.63520       -16.33869         9.87541
|120> *
|121>
|122>                          ****END OF INPUT****

CARTESIAN COORDINATES (ANGSTROEM)
---------------------------------
  C      5.529750   -3.592030    6.432890
  C      6.511400   -3.116990    7.285630
  C      6.990260   -3.964770    8.287620
  C      7.985130   -3.493170    9.179290
  N      8.786140   -3.104710    9.899160
  C      6.499040   -5.275770    8.433560
  C      7.001320   -6.109780    9.460780
  N      7.392060   -6.799860   10.287030
  C      5.510300   -5.751740    7.570270
  C      5.042270   -4.902780    6.591420
  C      3.990040   -5.157070    5.582320
  O      3.381520   -6.200590    5.436160
  C      3.843480   -3.910110    4.831050
  C      4.819770   -2.959640    5.317210
  C      5.073790   -1.698280    4.841450
  C      6.054240   -0.834020    5.373310
  N      6.831830   -0.084660    5.762020
  C      4.415600   -1.080770    3.757230
  N      3.931860   -0.509000    2.886240
  C      2.880360   -3.657870    3.878590
  C      1.849510   -4.467300    3.396590
  C      0.860260   -3.971150    2.528090
  C     -0.128110   -4.876770    2.231550
  C      0.111400   -6.116690    2.852740
  S      1.535990   -6.143370    3.804590
  C     -0.879790   -7.109250    2.710880
  C     -2.049840   -6.767340    2.020550
  Ge    -1.854180   -4.947750    1.280620
  C     -3.195720   -3.661860    1.970930
  C     -1.671190   -4.946200   -0.693150
  C     -2.996860   -7.772470    2.085490
  C     -2.556830   -8.889170    2.790750
  S     -0.922440   -8.701880    3.368380
  C     -3.278830  -10.044440    3.133490
  C     -2.744290  -11.212960    3.690060
  C     -3.741530  -12.182000    4.053570
  N     -3.390860  -13.339860    4.615850
  C     -2.105510  -13.550640    4.804990
  C     -1.729940  -14.839130    5.437060
  O     -2.554970  -15.656370    5.792410
  C     -0.283420  -15.050500    5.607610
  C      0.643810  -14.159250    5.241070
  C      0.331960  -12.859000    4.621080
  O      1.195460  -12.072950    4.293750
  C     -1.113940  -12.591090    4.424940
  N     -1.445610  -11.439780    3.881260
  C     -5.048310  -11.739020    3.797550
  S     -5.008330  -10.169030    3.047040
  C     -6.238970  -12.362340    4.208720
  C     -6.350700  -13.609950    4.818670
  C     -7.627350  -13.874830    5.278840
  C     -8.514070  -12.824880    5.020910
  S     -7.772550  -11.525300    4.163930
  C     -9.804820  -12.906480    5.575910
  C    -10.098220  -14.026390    6.367430
  Ge    -8.563510  -15.272470    6.314230
  C     -8.977270  -16.884010    5.242990
  C     -7.712560  -15.616660    8.069470
  C    -11.356260  -13.950060    6.925050
  C    -12.056230  -12.788840    6.585710
  S    -11.087500  -11.770110    5.537560
  C    -13.290550  -12.299570    7.029760
  C    -14.275300  -12.907780    7.767480
  C    -15.207930  -12.045680    8.531120
  O    -15.354380  -10.849750    8.427700
  C    -15.879090  -12.956580    9.490380
  C    -16.739590  -12.641400   10.519030
  C    -17.203880  -13.679800   11.329720
  C    -16.793530  -15.004030   11.086880
  C    -15.932480  -15.313470   10.030850
  C    -15.476860  -14.281100    9.231050
  C    -14.585740  -14.280430    8.066560
  C    -14.322810  -15.376750    7.282320
  C    -14.730690  -16.687660    7.599020
  N    -15.019340  -17.775240    7.825620
  C    -13.677260  -15.298850    6.032690
  N    -13.168270  -15.273790    5.004010
  C    -17.254270  -16.041810   11.934160
  N    -17.615250  -16.887230   12.616950
  C    -18.079520  -13.397180   12.405290
  N    -18.784440  -13.147590   13.272460
  H      6.912460   -2.119160    7.208960
  H      5.119580   -6.753190    7.668160
  H      2.870720   -2.661330    3.453740
  H      0.886600   -2.958240    2.163740
  H     -3.257180   -3.723450    3.052930
  H     -4.173230   -3.880460    1.551960
  H     -2.920360   -2.649010    1.693520
  H     -0.927780   -5.674120   -1.002810
  H     -1.363160   -3.964060   -1.038400
  H     -2.619920   -5.194780   -1.158950
  H     -3.979910   -7.719910    1.649900
  H     -0.008670  -15.993640    6.060550
  H      1.698050  -14.353970    5.385140
  H     -5.500220  -14.257900    4.936370
  H     -9.507650  -16.605310    4.337490
  H     -9.602220  -17.562570    5.815630
  H     -8.060240  -17.398590    4.972850
  H     -7.569630  -14.688040    8.613330
  H     -6.743900  -16.082460    7.915080
  H     -8.327100  -16.283990    8.665950
  H    -11.740150  -14.681320    7.614260
  H    -13.464310  -11.241060    6.857240
  H    -17.041960  -11.620520   10.696380
  H    -15.635200  -16.338690    9.875410

 Total Charge           Charge          ....    0
 Multiplicity           Mult            ....    1
 Number of Electrons    NEL             ....  630
 Basis Dimension        Dim             .... 1310

ORBITAL ENERGIES
----------------

  NO   OCC          E(Eh)            E(eV)
   0   2.0000    -398.793432    -10851.7210
   1   2.0000    -398.792676    -10851.7004
   2   2.0000     -89.011463     -2422.1250
   3   2.0000     -88.988260     -2421.4937
   4   2.0000     -88.988155     -2421.4908
   5   2.0000     -88.981171     -2421.3008
   6   2.0000     -88.979905     -2421.2663
   7   2.0000     -49.852993     -1356.5689
   8   2.0000     -49.852185     -1356.5469
   9   2.0000     -44.390281     -1207.9210
  10   2.0000     -44.389523     -1207.9003
  11   2.0000     -44.389507     -1207.8999
  12   2.0000     -44.389053     -1207.8875
  13   2.0000     -44.388731     -1207.8788
  14   2.0000     -44.388170     -1207.8635
  15   2.0000     -19.239833      -523.5425
  16   2.0000     -19.237744      -523.4856
  17   2.0000     -19.235593      -523.4271
  18   2.0000     -19.230901      -523.2994
  19   2.0000     -14.463542      -393.5730
  20   2.0000     -14.462114      -393.5341
  21   2.0000     -14.429770      -392.6540
  22   2.0000     -14.429361      -392.6429
  23   2.0000     -14.428956      -392.6318
  24   2.0000     -14.426529      -392.5658
  25   2.0000     -14.426193      -392.5567
  26   2.0000     -14.425992      -392.5512
  27   2.0000     -14.424979      -392.5236
  28   2.0000     -14.424051      -392.4984
  29   2.0000     -10.388751      -282.6923
  30   2.0000     -10.387361      -282.6545
  31   2.0000     -10.384329      -282.5720
  32   2.0000     -10.382399      -282.5195
  33   2.0000     -10.358583      -281.8714
  34   2.0000     -10.357726      -281.8480
  35   2.0000     -10.357649      -281.8460
  36   2.0000     -10.356601      -281.8174
  37   2.0000     -10.355988      -281.8008
  38   2.0000     -10.355761      -281.7946
  39   2.0000     -10.355391      -281.7845
  40   2.0000     -10.355271      -281.7812
  41   2.0000     -10.354557      -281.7618
  42   2.0000     -10.354161      -281.7510
  43   2.0000     -10.348819      -281.6057
  44   2.0000     -10.347475      -281.5691
  45   2.0000     -10.347292      -281.5641
  46   2.0000     -10.346179      -281.5339
  47   2.0000     -10.342915      -281.4450
  48   2.0000     -10.337586      -281.3000
  49   2.0000     -10.337172      -281.2887
  50   2.0000     -10.336150      -281.2609
  51   2.0000     -10.335321      -281.2384
  52   2.0000     -10.334955      -281.2284
  53   2.0000     -10.333995      -281.2023
  54   2.0000     -10.332187      -281.1531
  55   2.0000     -10.331770      -281.1418
  56   2.0000     -10.331573      -281.1364
  57   2.0000     -10.331437      -281.1327
  58   2.0000     -10.331348      -281.1303
  59   2.0000     -10.331188      -281.1259
  60   2.0000     -10.330084      -281.0959
  61   2.0000     -10.329891      -281.0906
  62   2.0000     -10.329213      -281.0722
  63   2.0000     -10.328821      -281.0615
  64   2.0000     -10.327483      -281.0251
  65   2.0000     -10.325274      -280.9650
  66   2.0000     -10.323562      -280.9184
  67   2.0000     -10.323274      -280.9106
  68   2.0000     -10.322784      -280.8972
  69   2.0000     -10.322693      -280.8947
  70   2.0000     -10.321902      -280.8732
  71   2.0000     -10.320587      -280.8374
  72   2.0000     -10.320570      -280.8370
  73   2.0000     -10.320177      -280.8263
  74   2.0000     -10.319834      -280.8169
  75   2.0000     -10.313518      -280.6451
  76   2.0000     -10.309263      -280.5293
  77   2.0000     -10.307172      -280.4724
  78   2.0000     -10.305905      -280.4379
  79   2.0000     -10.303650      -280.3766
  80   2.0000     -10.296345      -280.1778
  81   2.0000     -10.290588      -280.0211
  82   2.0000     -10.290314      -280.0137
  83   2.0000     -10.289307      -279.9863
  84   2.0000     -10.285581      -279.8849
  85   2.0000     -10.279775      -279.7269
  86   2.0000     -10.278335      -279.6877
  87   2.0000     -10.277556      -279.6665
  88   2.0000     -10.273886      -279.5666
  89   2.0000      -8.106068      -220.5773
  90   2.0000      -8.083894      -219.9739
  91   2.0000      -8.083704      -219.9688
  92   2.0000      -8.075703      -219.7511
  93   2.0000      -8.073568      -219.6930
  94   2.0000      -6.312867      -171.7818
  95   2.0000      -6.311995      -171.7581
  96   2.0000      -6.075134      -165.3128
  97   2.0000      -6.071025      -165.2010
  98   2.0000      -6.068730      -165.1385
  99   2.0000      -6.053139      -164.7143
 100   2.0000      -6.052786      -164.7047
 101   2.0000      -6.049162      -164.6061
 102   2.0000      -6.048879      -164.5984
 103   2.0000      -6.046005      -164.5202
 104   2.0000      -6.045883      -164.5168
 105   2.0000      -6.044996      -164.4927
 106   2.0000      -6.042881      -164.4352
 107   2.0000      -6.040719      -164.3763
 108   2.0000      -6.038402      -164.3133
 109   2.0000      -6.037854      -164.2983
 110   2.0000      -6.035855      -164.2440
 111   2.0000      -4.489288      -122.1597
 112   2.0000      -4.488527      -122.1390
 113   2.0000      -4.488029      -122.1255
 114   2.0000      -4.487213      -122.1033
 115   2.0000      -4.486825      -122.0927
 116   2.0000      -4.485764      -122.0638
 117   2.0000      -1.313279       -35.7361
 118   2.0000      -1.312557       -35.7165
 119   2.0000      -1.311276       -35.6816
 120   2.0000      -1.310625       -35.6639
 121   2.0000      -1.310461       -35.6595
 122   2.0000      -1.309836       -35.6424
 123   2.0000      -1.309602       -35.6361
 124   2.0000      -1.309385       -35.6302
 125   2.0000      -1.308899       -35.6169
 126   2.0000      -1.308409       -35.6036
 127   2.0000      -1.155873       -31.4529
 128   2.0000      -1.151556       -31.3354
 129   2.0000      -1.151033       -31.3212
 130   2.0000      -1.146406       -31.1953
 131   2.0000      -1.114157       -30.3178
 132   2.0000      -1.042329       -28.3632
 133   2.0000      -1.040497       -28.3134
 134   2.0000      -1.038540       -28.2601
 135   2.0000      -1.030687       -28.0464
 136   2.0000      -1.026524       -27.9331
 137   2.0000      -1.024780       -27.8857
 138   2.0000      -1.022036       -27.8110
 139   2.0000      -1.014951       -27.6182
 140   2.0000      -1.008953       -27.4550
 141   2.0000      -1.008356       -27.4388
 142   2.0000      -1.007591       -27.4179
 143   2.0000      -1.005676       -27.3658
 144   2.0000      -1.005040       -27.3485
 145   2.0000      -1.004234       -27.3266
 146   2.0000      -0.998952       -27.1829
 147   2.0000      -0.989955       -26.9380
 148   2.0000      -0.975934       -26.5565
 149   2.0000      -0.974423       -26.5154
 150   2.0000      -0.951394       -25.8887
 151   2.0000      -0.927842       -25.2479
 152   2.0000      -0.923356       -25.1258
 153   2.0000      -0.921922       -25.0868
 154   2.0000      -0.920227       -25.0406
 155   2.0000      -0.904154       -24.6033
 156   2.0000      -0.901410       -24.5286
 157   2.0000      -0.899466       -24.4757
 158   2.0000      -0.888537       -24.1783
 159   2.0000      -0.882873       -24.0242
 160   2.0000      -0.869027       -23.6474
 161   2.0000      -0.865886       -23.5620
 162   2.0000      -0.863019       -23.4839
 163   2.0000      -0.850027       -23.1304
 164   2.0000      -0.845942       -23.0193
 165   2.0000      -0.843792       -22.9607
 166   2.0000      -0.832731       -22.6598
 167   2.0000      -0.810601       -22.0576
 168   2.0000      -0.808412       -21.9980
 169   2.0000      -0.806561       -21.9477
 170   2.0000      -0.805846       -21.9282
 171   2.0000      -0.804782       -21.8992
 172   2.0000      -0.802407       -21.8346
 173   2.0000      -0.798815       -21.7369
 174   2.0000      -0.784581       -21.3495
 175   2.0000      -0.780960       -21.2510
 176   2.0000      -0.777501       -21.1569
 177   2.0000      -0.758511       -20.6401
 178   2.0000      -0.755847       -20.5676
 179   2.0000      -0.750372       -20.4187
 180   2.0000      -0.745619       -20.2893
 181   2.0000      -0.722944       -19.6723
 182   2.0000      -0.715046       -19.4574
 183   2.0000      -0.709956       -19.3189
 184   2.0000      -0.708292       -19.2736
 185   2.0000      -0.698334       -19.0026
 186   2.0000      -0.693632       -18.8747
 187   2.0000      -0.693001       -18.8575
 188   2.0000      -0.687108       -18.6971
 189   2.0000      -0.682049       -18.5595
 190   2.0000      -0.677940       -18.4477
 191   2.0000      -0.672735       -18.3061
 192   2.0000      -0.660288       -17.9674
 193   2.0000      -0.658696       -17.9240
 194   2.0000      -0.652798       -17.7635
 195   2.0000      -0.651504       -17.7283
 196   2.0000      -0.638714       -17.3803
 197   2.0000      -0.636553       -17.3215
 198   2.0000      -0.635104       -17.2820
 199   2.0000      -0.627875       -17.0853
 200   2.0000      -0.624745       -17.0002
 201   2.0000      -0.622114       -16.9286
 202   2.0000      -0.610800       -16.6207
 203   2.0000      -0.609383       -16.5822
 204   2.0000      -0.603935       -16.4339
 205   2.0000      -0.599085       -16.3019
 206   2.0000      -0.597055       -16.2467
 207   2.0000      -0.591819       -16.1042
 208   2.0000      -0.585994       -15.9457
 209   2.0000      -0.581190       -15.8150
 210   2.0000      -0.574934       -15.6447
 211   2.0000      -0.573908       -15.6168
 212   2.0000      -0.570946       -15.5362
 213   2.0000      -0.566424       -15.4132
 214   2.0000      -0.564447       -15.3594
 215   2.0000      -0.560048       -15.2397
 216   2.0000      -0.558312       -15.1925
 217   2.0000      -0.557312       -15.1652
 218   2.0000      -0.554286       -15.0829
 219   2.0000      -0.551172       -14.9982
 220   2.0000      -0.546110       -14.8604
 221   2.0000      -0.542620       -14.7654
 222   2.0000      -0.538364       -14.6496
 223   2.0000      -0.536466       -14.5980
 224   2.0000      -0.533390       -14.5143
 225   2.0000      -0.529667       -14.4130
 226   2.0000      -0.528326       -14.3765
 227   2.0000      -0.526782       -14.3345
 228   2.0000      -0.524974       -14.2853
 229   2.0000      -0.523544       -14.2464
 230   2.0000      -0.521762       -14.1979
 231   2.0000      -0.518956       -14.1215
 232   2.0000      -0.518443       -14.1076
 233   2.0000      -0.514507       -14.0004
 234   2.0000      -0.511568       -13.9205
 235   2.0000      -0.509959       -13.8767
 236   2.0000      -0.508412       -13.8346
 237   2.0000      -0.507374       -13.8063
 238   2.0000      -0.505840       -13.7646
 239   2.0000      -0.504765       -13.7353
 240   2.0000      -0.503673       -13.7056
 241   2.0000      -0.502252       -13.6670
 242   2.0000      -0.500298       -13.6138
 243   2.0000      -0.498816       -13.5735
 244   2.0000      -0.494340       -13.4517
 245   2.0000      -0.492554       -13.4031
 246   2.0000      -0.491975       -13.3873
 247   2.0000      -0.491424       -13.3723
 248   2.0000      -0.489045       -13.3076
 249   2.0000      -0.488617       -13.2959
 250   2.0000      -0.487633       -13.2692
 251   2.0000      -0.487097       -13.2546
 252   2.0000      -0.485717       -13.2170
 253   2.0000      -0.483236       -13.1495
 254   2.0000      -0.479319       -13.0429
 255   2.0000      -0.475152       -12.9295
 256   2.0000      -0.464724       -12.6458
 257   2.0000      -0.462224       -12.5777
 258   2.0000      -0.460684       -12.5358
 259   2.0000      -0.459562       -12.5053
 260   2.0000      -0.458489       -12.4761
 261   2.0000      -0.458083       -12.4651
 262   2.0000      -0.456251       -12.4152
 263   2.0000      -0.454470       -12.3667
 264   2.0000      -0.454040       -12.3551
 265   2.0000      -0.453113       -12.3298
 266   2.0000      -0.452285       -12.3073
 267   2.0000      -0.451960       -12.2985
 268   2.0000      -0.450587       -12.2611
 269   2.0000      -0.449653       -12.2357
 270   2.0000      -0.449185       -12.2229
 271   2.0000      -0.448767       -12.2116
 272   2.0000      -0.446347       -12.1457
 273   2.0000      -0.444984       -12.1086
 274   2.0000      -0.442253       -12.0343
 275   2.0000      -0.439857       -11.9691
 276   2.0000      -0.438224       -11.9247
 277   2.0000      -0.435166       -11.8415
 278   2.0000      -0.433353       -11.7921
 279   2.0000      -0.429507       -11.6875
 280   2.0000      -0.428283       -11.6542
 281   2.0000      -0.426369       -11.6021
 282   2.0000      -0.425716       -11.5843
 283   2.0000      -0.424903       -11.5622
 284   2.0000      -0.420544       -11.4436
 285   2.0000      -0.419959       -11.4277
 286   2.0000      -0.417961       -11.3733
 287   2.0000      -0.405371       -11.0307
 288   2.0000      -0.401984       -10.9385
 289   2.0000      -0.396353       -10.7853
 290   2.0000      -0.394989       -10.7482
 291   2.0000      -0.394770       -10.7422
 292   2.0000      -0.389714       -10.6047
 293   2.0000      -0.388289       -10.5659
 294   2.0000      -0.386994       -10.5306
 295   2.0000      -0.384397       -10.4600
 296   2.0000      -0.375912       -10.2291
 297   2.0000      -0.372014       -10.1230
 298   2.0000      -0.366443        -9.9714
 299   2.0000      -0.364115        -9.9081
 300   2.0000      -0.363185        -9.8828
 301   2.0000      -0.359144        -9.7728
 302   2.0000      -0.355465        -9.6727
 303   2.0000      -0.351332        -9.5602
 304   2.0000      -0.350060        -9.5256
 305   2.0000      -0.348899        -9.4940
 306   2.0000      -0.347880        -9.4663
 307   2.0000      -0.347175        -9.4471
 308   2.0000      -0.342701        -9.3254
 309   2.0000      -0.342045        -9.3075
 310   2.0000      -0.335638        -9.1332
 311   2.0000      -0.329738        -8.9726
 312   2.0000      -0.306646        -8.3443
 313   2.0000      -0.277678        -7.5560
 314   2.0000      -0.243715        -6.6318
 315   0.0000      -0.127474        -3.4688
 316   0.0000      -0.109948        -2.9918
 317   0.0000      -0.100695        -2.7400
 318   0.0000      -0.099142        -2.6978
 319   0.0000      -0.089310        -2.4302

MULLIKEN ATOMIC CHARGES
-----------------------
   0 C :    0.044096
   1 C :   -0.040063
   2 C :   -0.060497
   3 C :   -0.176594
   4 N :    0.197241
   5 C :   -0.069252
   6 C :   -0.172301
   7 N :    0.193892
   8 C :   -0.036123
   9 C :   -0.005266
  10 C :    0.164164
  11 O :   -0.166833
  12 C :   -0.111566
  13 C :    0.328757
  14 C :   -0.348371
  15 C :   -0.189099
  16 N :    0.160440
  17 C :   -0.187944
  18 N :    0.150934
  19 C :   -0.002730
  20 C :   -0.067262
  21 C :   -0.024660
  22 C :   -0.067398
  23 C :   -0.061678
  24 S :    0.219231
  25 C :   -0.093422
  26 C :   -0.067603
  27 Ge:    0.453115
  28 C :   -0.193702
  29 C :   -0.189887
  30 C :   -0.061799
  31 C :   -0.076791
  32 S :    0.223455
  33 C :   -0.109286
  34 C :    0.006471
  35 C :    0.033091
  36 N :    0.065115
  37 C :   -0.119846
  38 C :    0.147813
  39 O :   -0.113069
  40 C :   -0.014932
  41 C :   -0.019313
  42 C :    0.141724
  43 O :   -0.099474
  44 C :   -0.119026
  45 N :    0.050925
  46 C :   -0.100505
  47 S :    0.209953
  48 C :   -0.092389
  49 C :   -0.046988
  50 C :   -0.072146
  51 C :   -0.083336
  52 S :    0.149865
  53 C :   -0.068417
  54 C :   -0.103270
  55 Ge:    0.463553
  56 C :   -0.189678
  57 C :   -0.194844
  58 C :    0.019360
  59 C :   -0.106978
  60 S :    0.175267
  61 C :    0.097148
  62 C :   -0.153163
  63 C :    0.138424
  64 O :   -0.136147
  65 C :    0.012892
  66 C :   -0.036451
  67 C :   -0.068660
  68 C :   -0.062986
  69 C :   -0.041337
  70 C :    0.033384
  71 C :    0.269678
  72 C :   -0.337732
  73 C :   -0.176846
  74 N :    0.164036
  75 C :   -0.212235
  76 N :    0.180712
  77 C :   -0.173276
  78 N :    0.196388
  79 C :   -0.172264
  80 N :    0.193073
  81 H :    0.019086
  82 H :    0.014031
  83 H :    0.008968
  84 H :    0.004633
  85 H :    0.059514
  86 H :    0.047835
  87 H :    0.051928
  88 H :    0.060238
  89 H :    0.051163
  90 H :    0.047841
  91 H :   -0.015838
  92 H :    0.018641
  93 H :    0.021894
  94 H :    0.012357
  95 H :    0.068615
  96 H :    0.053634
  97 H :    0.053756
  98 H :    0.058143
  99 H :    0.060529
 100 H :    0.051592
 101 H :    0.002284
 102 H :    0.024259
 103 H :    0.016077
 104 H :    0.020061
Sum of atomic charges:    0.0000000

LOEWDIN ATOMIC CHARGES
----------------------
   0 C :    0.003875
   1 C :    0.032969
   2 C :   -0.026132
   3 C :   -0.031282
   4 N :   -0.014461
   5 C :   -0.030686
   6 C :   -0.031361
   7 N :   -0.017813
   8 C :    0.045304
   9 C :   -0.027213
  10 C :    0.080139
  11 O :   -0.159051
  12 C :   -0.126743
  13 C :    0.071076
  14 C :   -0.136367
  15 C :   -0.022455
  16 N :   -0.043725
  17 C :   -0.020395
  18 N :   -0.048124
  19 C :    0.059416
  20 C :   -0.190137
  21 C :   -0.004522
  22 C :   -0.173951
  23 C :   -0.163112
  24 S :    0.516679
  25 C :   -0.200678
  26 C :   -0.147529
  27 Ge:    0.514490
  28 C :   -0.199842
  29 C :   -0.197998
  30 C :   -0.057032
  31 C :   -0.176500
  32 S :    0.502355
  33 C :   -0.189648
  34 C :   -0.052556
  35 C :   -0.042460
  36 N :    0.009222
  37 C :   -0.040879
  38 C :    0.057272
  39 O :   -0.107789
  40 C :   -0.013157
  41 C :   -0.009036
  42 C :    0.055035
  43 O :   -0.096973
  44 C :   -0.039813
  45 N :   -0.004206
  46 C :   -0.188014
  47 S :    0.502506
  48 C :   -0.179721
  49 C :   -0.031367
  50 C :   -0.143920
  51 C :   -0.193482
  52 S :    0.431154
  53 C :   -0.156296
  54 C :   -0.162026
  55 Ge:    0.522430
  56 C :   -0.193937
  57 C :   -0.198242
  58 C :    0.000508
  59 C :   -0.187756
  60 S :    0.464349
  61 C :    0.053788
  62 C :   -0.115943
  63 C :    0.080845
  64 O :   -0.137285
  65 C :   -0.029402
  66 C :    0.046897
  67 C :   -0.031230
  68 C :   -0.025212
  69 C :    0.028999
  70 C :    0.005366
  71 C :    0.059557
  72 C :   -0.141162
  73 C :   -0.026098
  74 N :   -0.044221
  75 C :   -0.019104
  76 N :   -0.036702
  77 C :   -0.031162
  78 N :   -0.014245
  79 C :   -0.031892
  80 N :   -0.016716
  81 H :    0.051973
  82 H :    0.053029
  83 H :    0.051180
  84 H :    0.038034
  85 H :    0.042508
  86 H :    0.038261
  87 H :    0.039787
  88 H :    0.043196
  89 H :    0.039518
  90 H :    0.038113
  91 H :    0.026942
  92 H :    0.046555
  93 H :    0.047433
  94 H :    0.036886
  95 H :    0.047061
  96 H :    0.041101
  97 H :    0.040524
  98 H :    0.042222
  99 H :    0.043873
 100 H :    0.039305
 101 H :    0.035234
 102 H :    0.046611
 103 H :    0.053782
 104 H :    0.051402

  Mayer bond orders larger than 0.100000
B(  0-C ,  1-C ) :   1.3672 B(  0-C ,  9-C ) :   1.3333 B(  0-C , 13-C ) :   0.9501
B(  1-C ,  2-C ) :   1.3865 B(  1-C , 81-H ) :   0.9848 B(  2-C ,  3-C ) :   1.0864
B(  2-C ,  5-C ) :   1.4071 B(  3-C ,  4-N ) :   3.0429 B(  5-C ,  6-C ) :   1.0849
B(  5-C ,  8-C ) :   1.3545 B(  6-C ,  7-N ) :   3.0440 B(  8-C ,  9-C ) :   1.3718
B(  8-C , 82-H ) :   1.0146 B(  9-C , 10-C ) :   0.9342 B( 10-C , 11-O ) :   2.1492
B( 10-C , 12-C ) :   0.9935 B( 12-C , 13-C ) :   1.1089 B( 12-C , 19-C ) :   1.4251
B( 13-C , 14-C ) :   1.6205 B( 14-C , 15-C ) :   1.1511 B( 14-C , 17-C ) :   1.1474
B( 15-C , 16-N ) :   2.9572 B( 17-C , 18-N ) :   2.9594 B( 19-C , 20-C ) :   1.3269
B( 19-C , 83-H ) :   0.9404 B( 20-C , 21-C ) :   1.2926 B( 20-C , 24-S ) :   1.0717
B( 21-C , 22-C ) :   1.3655 B( 21-C , 84-H ) :   1.0081 B( 22-C , 23-C ) :   1.3754
B( 22-C , 27-Ge) :   0.8735 B( 23-C , 24-S ) :   1.1337 B( 23-C , 25-C ) :   1.1967
B( 25-C , 26-C ) :   1.4475 B( 25-C , 32-S ) :   1.0910 B( 26-C , 27-Ge) :   0.8728
B( 26-C , 30-C ) :   1.3128 B( 27-Ge, 28-C ) :   1.0183 B( 27-Ge, 29-C ) :   1.0202
B( 28-C , 85-H ) :   0.9575 B( 28-C , 86-H ) :   0.9600 B( 28-C , 87-H ) :   0.9601
B( 29-C , 88-H ) :   0.9568 B( 29-C , 89-H ) :   0.9602 B( 29-C , 90-H ) :   0.9597
B( 30-C , 31-C ) :   1.3909 B( 30-C , 91-H ) :   1.0009 B( 31-C , 32-S ) :   1.1437
B( 31-C , 33-C ) :   1.2261 B( 33-C , 34-C ) :   1.3125 B( 33-C , 46-C ) :   0.1247
B( 33-C , 47-S ) :   1.1548 B( 34-C , 35-C ) :   1.1852 B( 34-C , 45-N ) :   1.4337
B( 35-C , 36-N ) :   1.4402 B( 35-C , 46-C ) :   1.3481 B( 36-N , 37-C ) :   1.7126
B( 37-C , 38-C ) :   0.8977 B( 37-C , 44-C ) :   1.0987 B( 38-C , 39-O ) :   2.2241
B( 38-C , 40-C ) :   1.0284 B( 40-C , 41-C ) :   1.6774 B( 40-C , 92-H ) :   0.9992
B( 41-C , 42-C ) :   1.0216 B( 41-C , 93-H ) :   0.9989 B( 42-C , 43-O ) :   2.2527
B( 42-C , 44-C ) :   0.8947 B( 44-C , 45-N ) :   1.7006 B( 46-C , 47-S ) :   1.1564
B( 46-C , 48-C ) :   1.1953 B( 48-C , 49-C ) :   1.4458 B( 48-C , 52-S ) :   1.1020
B( 49-C , 50-C ) :   1.2691 B( 49-C , 94-H ) :   0.9931 B( 50-C , 51-C ) :   1.4637
B( 50-C , 55-Ge) :   0.8651 B( 51-C , 52-S ) :   1.0988 B( 51-C , 53-C ) :   1.1905
B( 53-C , 54-C ) :   1.4299 B( 53-C , 60-S ) :   1.1531 B( 54-C , 55-Ge) :   0.8575
B( 54-C , 58-C ) :   1.3875 B( 55-Ge, 56-C ) :   1.0319 B( 55-Ge, 57-C ) :   1.0241
B( 56-C , 95-H ) :   0.9538 B( 56-C , 96-H ) :   0.9586 B( 56-C , 97-H ) :   0.9590
B( 57-C , 98-H ) :   0.9558 B( 57-C , 99-H ) :   0.9591 B( 57-C ,100-H ) :   0.9595
B( 58-C , 59-C ) :   1.3391 B( 58-C ,101-H ) :   0.9859 B( 59-C , 60-S ) :   1.0789
B( 59-C , 61-C ) :   1.2295 B( 61-C , 62-C ) :   1.5623 B( 61-C ,102-H ) :   0.9255
B( 62-C , 63-C ) :   0.9692 B( 62-C , 71-C ) :   1.0827 B( 63-C , 64-O ) :   2.2649
B( 63-C , 65-C ) :   0.8971 B( 65-C , 66-C ) :   1.3770 B( 65-C , 70-C ) :   1.3349
B( 66-C , 67-C ) :   1.3579 B( 66-C ,103-H ) :   1.0147 B( 67-C , 68-C ) :   1.4090
B( 67-C , 79-C ) :   1.0858 B( 68-C , 69-C ) :   1.3820 B( 68-C , 77-C ) :   1.0850
B( 69-C , 70-C ) :   1.3679 B( 69-C ,104-H ) :   0.9906 B( 70-C , 71-C ) :   0.9693
B( 71-C , 72-C ) :   1.6312 B( 72-C , 73-C ) :   1.1300 B( 72-C , 75-C ) :   1.1726
B( 73-C , 74-N ) :   2.9812 B( 75-C , 76-N ) :   2.9958 B( 77-C , 78-N ) :   3.0425
B( 79-C , 80-N ) :   3.0439

-----------------------------------------------------------------------------
         ABSORPTION SPECTRUM VIA TRANSITION ELECTRIC DIPOLE MOMENTS
-----------------------------------------------------------------------------
State   Energy  Wavelength   fosc         T2         TX        TY        TZ
        (cm-1)    (nm)                  (au**2)     (au)      (au)      (au)
-----------------------------------------------------------------------------
   0   10649.9    939.0   1.465172946  45.29174  -5.69815  -3.41865   1.06569
   1   15474.5    646.2   0.238997118   5.08455   1.23473  -1.66166  -0.89380
   2   17373.7    575.6   0.513211062   9.72476   2.71342   1.46091  -0.47733
   3   18440.8    542.3   0.277243631   4.94946  -1.52200  -1.05040  -1.23678
   4   19624.7    509.6   0.064962631   1.08977  -0.41451   0.67887   0.67608
   5   20534.9    487.0   0.208216669   3.33810   1.80187   0.14229   0.26665
   6   21228.3    471.1   0.187569520   2.90886  -0.84102   0.45551   1.41211
   7   24119.9    414.6   0.191584595   2.61494   1.47756   0.61449   0.23269
   8   24627.4    406.1   0.009371017   0.12527   0.20274   0.12728   0.26070
   9   25823.2    387.2   0.000733553   0.00935   0.05506   0.05228  -0.05989
  10   26252.1    380.9   0.024730600   0.31013   0.03254   0.52814  -0.17361
  11   26569.6    376.4   0.059244487   0.73407  -0.81476  -0.06063  -0.25800
  12   26573.4    376.3   0.002653597   0.03287   0.01332   0.13785   0.11703
  13   26949.4    371.1   0.017067334   0.20849   0.15051   0.09033  -0.42152
  14   27885.3    358.6   0.125982419   1.48734   0.22540   1.01329  -0.64014
  15   28678.9    348.7   0.056081858   0.64378   0.49351  -0.37397   0.51026
  16   29080.6    343.9   0.015184161   0.17189  -0.05876   0.26804  -0.31080
  17   29303.8    341.3   0.041855208   0.47022  -0.46302   0.13733  -0.48680
  18   29852.9    335.0   0.037577289   0.41440   0.48724   0.35300  -0.22887
  19   30117.3    332.0   0.010648797   0.11640   0.33512  -0.06124  -0.01852
  20   30349.6    329.5   0.004066989   0.04412  -0.00430   0.06882   0.19840
  21   30485.0    328.0   0.026096726   0.28182   0.25225  -0.39356  -0.25160
  22   30675.3    326.0   0.141284251   1.51628  -0.71854   0.76091   0.64885
  23   30988.0    322.7   0.000496186   0.00527  -0.01451   0.02285   0.06737
  24   31248.0    320.0   0.045062353   0.47475   0.45779  -0.34886  -0.37878
  25   31503.5    317.4   0.008409610   0.08788   0.15212   0.24720  -0.06026
  26   31838.4    314.1   0.030402463   0.31436   0.17879  -0.07500   0.52609
  27   32186.9    310.7   0.066788304   0.68312   0.55078  -0.48053  -0.38581
  28   32785.0    305.0   0.005654130   0.05678   0.07506  -0.11324  -0.19575
  29   33021.8    302.8   0.019728506   0.19668   0.28688   0.25526  -0.22187
  30   33380.2    299.6   0.111882402   1.10344  -0.63777   0.69815  -0.45746
  31   33582.6    297.8   0.055107872   0.54023  -0.07087  -0.72560   0.09334
  32   33802.1    295.8   0.002997340   0.02919   0.03570  -0.09893   0.13465
  33   34042.7    293.7   0.170293848   1.64684  -0.48140   0.73686  -0.93387
  34   34665.0    288.5   0.078014799   0.74090  -0.20990   0.61149  -0.56826
  35   34981.1    285.9   0.137108023   1.29034  -0.52056   0.64888  -0.77351
  36   35080.6    285.1   0.458024569   4.29830   0.95140  -1.45933   1.12406
  37   35168.9    284.3   0.161236808   1.50932  -0.41998   0.54744   1.01649
  38   35442.0    282.2   0.214085225   1.98858  -0.61970  -0.02338   1.26649
  39   35607.6    280.8   0.115245584   1.06551   0.69381   0.02151  -0.76399
  40   36230.4    276.0   0.056306238   0.51163   0.46802   0.48930   0.23060
  41   36391.7    274.8   0.047187128   0.42687   0.32594  -0.38589   0.41440
  42   36429.2    274.5   0.066429568   0.60033  -0.56304   0.44401   0.29354
  43   36582.5    273.4   0.050001966   0.44998   0.10569  -0.65157   0.11943
  44   36938.2    270.7   0.043576891   0.38838  -0.03286  -0.50236  -0.36733
  45   37050.9    269.9   0.027465363   0.24404   0.40442  -0.12166  -0.25628
  46   37112.5    269.5   0.030807933   0.27329   0.29814   0.40874   0.13164
  47   37253.3    268.4   0.084573159   0.74738   0.70725  -0.49673   0.02103
  48   37468.2    266.9   0.005381997   0.04729   0.02834   0.09449   0.19380
  49   37565.7    266.2   0.035770325   0.31348   0.44318  -0.18147   0.29006
  50   37712.1    265.2   0.039455663   0.34443  -0.55433  -0.15906   0.10887
  51   37839.9    264.3   0.040721900   0.35429   0.33643  -0.49076  -0.01596
  52   38081.4    262.6   0.049907245   0.43145   0.56762  -0.31477   0.10086
  53   38129.0    262.3   0.051758324   0.44689  -0.26263  -0.52444  -0.32074
  54   38253.7    261.4   0.019413087   0.16707   0.10885  -0.38810   0.06779
  55   38385.5    260.5   0.015175997   0.13016  -0.02458   0.09765  -0.34643
  56   38636.8    258.8   0.041812196   0.35627   0.33899   0.39802   0.28798
  57   38695.5    258.4   0.027391952   0.23304  -0.35330   0.05483  -0.32437
  58   39141.9    255.5   0.190277911   1.60038  -0.67771   0.59874  -0.88464
  59   39446.0    253.5   0.085674183   0.71503  -0.13955   0.54705  -0.62951
  60   39506.0    253.1   0.019982351   0.16652   0.08507   0.00957  -0.39899
  61   39685.6    252.0   0.066860027   0.55464  -0.22733  -0.13854   0.69553
  62   39830.4    251.1   0.202855757   1.67667   0.21153  -1.27219   0.11600
  63   39960.7    250.2   0.227129476   1.87118  -0.82624   0.56272   0.93373
  64   40171.3    248.9   0.172240345   1.41155  -0.23644  -1.11438   0.33733
  65   40259.8    248.4   0.028673580   0.23447   0.08722   0.43353  -0.19727

FINAL SINGLE POINT ENERGY     -9289.190363275347

DIPOLE MOMENT
-------------
                                X             Y             Z
Electronic contribution:     -5.56635       2.40949     -16.95924
Nuclear contribution   :      5.10547      -2.77505      12.78584
                        -----------------------------------------
Total Dipole Moment    :     -0.46087      -0.36555      -4.17340
                        -----------------------------------------
Magnitude (a.u.)       :      4.21466
Magnitude (Debye)      :     10.71280

Rotational constants in cm-1:     0.001007     0.000167     0.000166
Rotational constants in MHz :    30.193919     5.003071     4.963721

                             ****ORCA TERMINATED NORMALLY****
TOTAL RUN TIME: 0 days 0 hours 11 minutes 57 seconds 69 msec
