                         Program Version 4.2.0 -  RELEASE  -
|  1> # ORCA input file
|  2> # SCF done       -206.448430040236          0.000400628109
|  3> ! CAM-B3LYP def2-SVP def2/J RIJCOSX Grid4 TightSCF
|  4> %maxcore 5000
|  5> %tddft
|  6>     Mode sTDDFT
|  7>     Ethresh 5.0
|  8>     maxcore 5000
|  9> end
| 10>
| 11> %pal
| 12>   nprocs 6
| 13>   end
| 14> * xyz 0 1
| 15>    C      -12.60675        -8.50256        -6.97034
| 16>    C      -13.64377        -8.63690        -7.87693
| 17>    C      -14.02138        -7.51981        -8.62720
| 18>    C      -15.08012        -7.63643        -9.56077
| 19>    N      -15.93501        -7.73747       -10.31572
| 20>    C      -13.36916        -6.28235        -8.47476
| 21>    C      -13.76400        -5.16916        -9.25344
| 22>    N      -14.06125        -4.25312        -9.87358
| 23>    C      -12.32732        -6.15053        -7.55454
| 24>    C      -11.96764        -7.25953        -6.82051
| 25>    C      -10.91585        -7.36601        -5.78563
| 26>    O      -10.20854        -6.43646        -5.42963
| 27>    C      -10.96308        -8.74591        -5.29925
| 28>    C      -11.97067        -9.45764        -6.06027
| 29>    C      -12.25852       -10.79996        -6.02771
| 30>    C      -13.25394       -11.41255        -6.81793
| 31>    N      -14.04797       -11.97341        -7.42860
| 32>    C      -11.60264       -11.78078        -5.25352
| 33>    N      -11.11714       -12.65487        -4.68735
| 34>    C      -10.27741        -9.33206        -4.24874
| 35>    C       -9.20471        -8.91912        -3.44822
| 36>    C       -8.43521        -7.77063        -3.58234
| 37>    C       -7.32385        -7.47165        -2.82103
| 38>    C       -6.78069        -8.42110        -1.83507
| 39>    C       -7.38666        -9.57954        -1.49051
| 40>    S       -8.85054       -10.12356        -2.18546
| 41>    C       -5.55703        -7.85423        -1.39753
| 42>    C       -5.34265        -6.63280        -2.05144
| 43>    C       -4.13010        -6.02206        -1.65181
| 44>    C       -3.47261        -6.77465        -0.73533
| 45>    S       -4.28913        -8.24817        -0.31187
| 46>    C       -6.44840        -6.35656        -2.91197
| 47>    C       -6.56927        -5.15667        -3.66012
| 48>    C       -7.72188        -4.58491        -4.08604
| 49>    C       -7.78500        -3.38409        -4.85505
| 50>    N       -8.86625        -2.55277        -4.83391
| 51>    C      -10.05951        -2.63929        -4.03270
| 52>    C      -11.16897        -3.38567        -4.76877
| 53>    N       -8.72015        -1.53507        -5.65745
| 54>    C       -7.54494        -1.68027        -6.25985
| 55>    C       -6.89141        -2.82839        -5.78670
| 56>    C       -5.58154        -3.37648        -6.24328
| 57>    C       -4.39316        -2.76026        -5.50008
| 58>    C       -7.09442        -0.67429        -7.26050
| 59>    C       -6.33913         0.48762        -6.57982
| 60>    C       -6.08588         1.57464        -7.55921
| 61>    C       -4.94017         1.73812        -8.22888
| 62>    C       -4.69966         2.77862        -9.20076
| 63>    C       -5.37250         3.97456        -9.19967
| 64>    C       -5.19305         5.00353       -10.12200
| 65>    C       -4.17186         4.89189       -11.16465
| 66>    C       -3.38170         3.80583       -11.34367
| 67>    S       -3.47156         2.39728       -10.37763
| 68>    C       -4.19232         6.13153       -11.86326
| 69>    C       -5.14890         6.96976       -11.29849
| 70>    C       -5.21307         8.21908       -11.95072
| 71>    C       -4.31816         8.29389       -12.97204
| 72>    S       -3.37040         6.86315       -13.18390
| 73>    C       -5.80666         6.28031       -10.20955
| 74>    C       -6.82183         6.87570        -9.45001
| 75>    C       -7.64095         6.30196        -8.50519
| 76>    C       -8.58408         7.04244        -7.79499
| 77>    C       -9.43052         6.59132        -6.80010
| 78>    C      -10.63917         7.36764        -6.46608
| 79>    O      -10.91932         8.49156        -6.82130
| 80>    C      -11.47071         6.45979        -5.63209
| 81>    C      -12.73044         6.66802        -5.11656
| 82>    C      -13.32056         5.63668        -4.38038
| 83>    C      -12.63409         4.42396        -4.18707
| 84>    C      -11.35078         4.22878        -4.70527
| 85>    C      -10.77018         5.25613        -5.42535
| 86>    C       -9.44464         5.37619        -6.04062
| 87>    C       -8.37693         4.56218        -5.73065
| 88>    C       -7.03482         4.87388        -6.01382
| 89>    N       -5.91506         5.07762        -6.17476
| 90>    C       -8.46328         3.35932        -5.00695
| 91>    N       -8.44605         2.34445        -4.46700
| 92>    C      -13.24603         3.37904        -3.45329
| 93>    N      -13.72290         2.52109        -2.86314
| 94>    C      -14.61129         5.81275        -3.82843
| 95>    N      -15.65506         5.97461        -3.38514
| 96>    H      -14.17057        -9.56598        -8.02251
| 97>    H      -11.81802        -5.20791        -7.42399
| 98>    H      -10.63563       -10.32013        -3.98185
| 99>    H       -8.71974        -7.08991        -4.37075
|100>    H       -6.98214       -10.24448        -0.74337
|101>    H       -3.76317        -5.08176        -2.02101
|102>    H       -2.53534        -6.56144        -0.25966
|103>    H       -5.64003        -4.62649        -3.81060
|104>    H       -8.66873        -5.02422        -3.80908
|105>    H      -10.37609        -1.61335        -3.83006
|106>    H       -9.82054        -3.13171        -3.08754
|107>    H      -11.40314        -2.86990        -5.69692
|108>    H      -12.06323        -3.41852        -4.15240
|109>    H      -10.85842        -4.40234        -4.99661
|110>    H       -5.46573        -3.17917        -7.31219
|111>    H       -5.57999        -4.45978        -6.10158
|112>    H       -4.30208        -1.70327        -5.73540
|113>    H       -3.46965        -3.25747        -5.78899
|114>    H       -4.51589        -2.85041        -4.42277
|115>    H       -7.97675        -0.27388        -7.76193
|116>    H       -6.44586        -1.14045        -8.00469
|117>    H       -5.40006         0.11870        -6.16675
|118>    H       -6.96078         0.86449        -5.76448
|119>    H       -6.92892         2.21988        -7.76550
|120>    H       -4.12868         1.03826        -8.07679
|121>    H       -6.03792         4.13298        -8.36958
|122>    H       -2.63415         3.75891       -12.11979
|123>    H       -5.87700         9.02242       -11.68830
|124>    H       -4.14720         9.11949       -13.63484
|125>    H       -6.96999         7.93333        -9.63809
|126>    H       -7.59814         5.24002        -8.33241
|127>    H       -8.74720         8.07285        -8.09336
|128>    H      -13.24774         7.60202        -5.27505
|129>    H      -10.85247         3.28644        -4.53924
|130> *
|131>
|132>                          ****END OF INPUT****

CARTESIAN COORDINATES (ANGSTROEM)
---------------------------------
  C    -12.606750   -8.502560   -6.970340
  C    -13.643770   -8.636900   -7.876930
  C    -14.021380   -7.519810   -8.627200
  C    -15.080120   -7.636430   -9.560770
  N    -15.935010   -7.737470  -10.315720
  C    -13.369160   -6.282350   -8.474760
  C    -13.764000   -5.169160   -9.253440
  N    -14.061250   -4.253120   -9.873580
  C    -12.327320   -6.150530   -7.554540
  C    -11.967640   -7.259530   -6.820510
  C    -10.915850   -7.366010   -5.785630
  O    -10.208540   -6.436460   -5.429630
  C    -10.963080   -8.745910   -5.299250
  C    -11.970670   -9.457640   -6.060270
  C    -12.258520  -10.799960   -6.027710
  C    -13.253940  -11.412550   -6.817930
  N    -14.047970  -11.973410   -7.428600
  C    -11.602640  -11.780780   -5.253520
  N    -11.117140  -12.654870   -4.687350
  C    -10.277410   -9.332060   -4.248740
  C     -9.204710   -8.919120   -3.448220
  C     -8.435210   -7.770630   -3.582340
  C     -7.323850   -7.471650   -2.821030
  C     -6.780690   -8.421100   -1.835070
  C     -7.386660   -9.579540   -1.490510
  S     -8.850540  -10.123560   -2.185460
  C     -5.557030   -7.854230   -1.397530
  C     -5.342650   -6.632800   -2.051440
  C     -4.130100   -6.022060   -1.651810
  C     -3.472610   -6.774650   -0.735330
  S     -4.289130   -8.248170   -0.311870
  C     -6.448400   -6.356560   -2.911970
  C     -6.569270   -5.156670   -3.660120
  C     -7.721880   -4.584910   -4.086040
  C     -7.785000   -3.384090   -4.855050
  N     -8.866250   -2.552770   -4.833910
  C    -10.059510   -2.639290   -4.032700
  C    -11.168970   -3.385670   -4.768770
  N     -8.720150   -1.535070   -5.657450
  C     -7.544940   -1.680270   -6.259850
  C     -6.891410   -2.828390   -5.786700
  C     -5.581540   -3.376480   -6.243280
  C     -4.393160   -2.760260   -5.500080
  C     -7.094420   -0.674290   -7.260500
  C     -6.339130    0.487620   -6.579820
  C     -6.085880    1.574640   -7.559210
  C     -4.940170    1.738120   -8.228880
  C     -4.699660    2.778620   -9.200760
  C     -5.372500    3.974560   -9.199670
  C     -5.193050    5.003530  -10.122000
  C     -4.171860    4.891890  -11.164650
  C     -3.381700    3.805830  -11.343670
  S     -3.471560    2.397280  -10.377630
  C     -4.192320    6.131530  -11.863260
  C     -5.148900    6.969760  -11.298490
  C     -5.213070    8.219080  -11.950720
  C     -4.318160    8.293890  -12.972040
  S     -3.370400    6.863150  -13.183900
  C     -5.806660    6.280310  -10.209550
  C     -6.821830    6.875700   -9.450010
  C     -7.640950    6.301960   -8.505190
  C     -8.584080    7.042440   -7.794990
  C     -9.430520    6.591320   -6.800100
  C    -10.639170    7.367640   -6.466080
  O    -10.919320    8.491560   -6.821300
  C    -11.470710    6.459790   -5.632090
  C    -12.730440    6.668020   -5.116560
  C    -13.320560    5.636680   -4.380380
  C    -12.634090    4.423960   -4.187070
  C    -11.350780    4.228780   -4.705270
  C    -10.770180    5.256130   -5.425350
  C     -9.444640    5.376190   -6.040620
  C     -8.376930    4.562180   -5.730650
  C     -7.034820    4.873880   -6.013820
  N     -5.915060    5.077620   -6.174760
  C     -8.463280    3.359320   -5.006950
  N     -8.446050    2.344450   -4.467000
  C    -13.246030    3.379040   -3.453290
  N    -13.722900    2.521090   -2.863140
  C    -14.611290    5.812750   -3.828430
  N    -15.655060    5.974610   -3.385140
  H    -14.170570   -9.565980   -8.022510
  H    -11.818020   -5.207910   -7.423990
  H    -10.635630  -10.320130   -3.981850
  H     -8.719740   -7.089910   -4.370750
  H     -6.982140  -10.244480   -0.743370
  H     -3.763170   -5.081760   -2.021010
  H     -2.535340   -6.561440   -0.259660
  H     -5.640030   -4.626490   -3.810600
  H     -8.668730   -5.024220   -3.809080
  H    -10.376090   -1.613350   -3.830060
  H     -9.820540   -3.131710   -3.087540
  H    -11.403140   -2.869900   -5.696920
  H    -12.063230   -3.418520   -4.152400
  H    -10.858420   -4.402340   -4.996610
  H     -5.465730   -3.179170   -7.312190
  H     -5.579990   -4.459780   -6.101580
  H     -4.302080   -1.703270   -5.735400
  H     -3.469650   -3.257470   -5.788990
  H     -4.515890   -2.850410   -4.422770
  H     -7.976750   -0.273880   -7.761930
  H     -6.445860   -1.140450   -8.004690
  H     -5.400060    0.118700   -6.166750
  H     -6.960780    0.864490   -5.764480
  H     -6.928920    2.219880   -7.765500
  H     -4.128680    1.038260   -8.076790
  H     -6.037920    4.132980   -8.369580
  H     -2.634150    3.758910  -12.119790
  H     -5.877000    9.022420  -11.688300
  H     -4.147200    9.119490  -13.634840
  H     -6.969990    7.933330   -9.638090
  H     -7.598140    5.240020   -8.332410
  H     -8.747200    8.072850   -8.093360
  H    -13.247740    7.602020   -5.275050
  H    -10.852470    3.286440   -4.539240

 Total Charge           Charge          ....    0
 Multiplicity           Mult            ....    1
 Number of Electrons    NEL             ....  574
 Basis Dimension        Dim             .... 1320

ORBITAL ENERGIES
----------------

  NO   OCC          E(Eh)            E(eV)
   0   2.0000     -89.001624     -2421.8573
   1   2.0000     -88.982814     -2421.3455
   2   2.0000     -88.976424     -2421.1716
   3   2.0000     -88.969109     -2420.9725
   4   2.0000     -19.237075      -523.4674
   5   2.0000     -19.217074      -522.9232
   6   2.0000     -14.481333      -394.0571
   7   2.0000     -14.426521      -392.5656
   8   2.0000     -14.424698      -392.5160
   9   2.0000     -14.423500      -392.4834
  10   2.0000     -14.422811      -392.4646
  11   2.0000     -14.421512      -392.4293
  12   2.0000     -14.419164      -392.3654
  13   2.0000     -14.419023      -392.3616
  14   2.0000     -14.418685      -392.3524
  15   2.0000     -14.413988      -392.2245
  16   2.0000     -10.387596      -282.6609
  17   2.0000     -10.368160      -282.1320
  18   2.0000     -10.354970      -281.7731
  19   2.0000     -10.354510      -281.7606
  20   2.0000     -10.354074      -281.7487
  21   2.0000     -10.353991      -281.7464
  22   2.0000     -10.347978      -281.5828
  23   2.0000     -10.346963      -281.5552
  24   2.0000     -10.346569      -281.5444
  25   2.0000     -10.346379      -281.5393
  26   2.0000     -10.344969      -281.5009
  27   2.0000     -10.344255      -281.4815
  28   2.0000     -10.343699      -281.4664
  29   2.0000     -10.334632      -281.2196
  30   2.0000     -10.333847      -281.1983
  31   2.0000     -10.333548      -281.1901
  32   2.0000     -10.328730      -281.0590
  33   2.0000     -10.328715      -281.0586
  34   2.0000     -10.327795      -281.0336
  35   2.0000     -10.326060      -280.9864
  36   2.0000     -10.325696      -280.9765
  37   2.0000     -10.325426      -280.9691
  38   2.0000     -10.322822      -280.8983
  39   2.0000     -10.321463      -280.8613
  40   2.0000     -10.321405      -280.8597
  41   2.0000     -10.320991      -280.8484
  42   2.0000     -10.320189      -280.8266
  43   2.0000     -10.319416      -280.8056
  44   2.0000     -10.319295      -280.8023
  45   2.0000     -10.317234      -280.7462
  46   2.0000     -10.316231      -280.7189
  47   2.0000     -10.315797      -280.7071
  48   2.0000     -10.315727      -280.7052
  49   2.0000     -10.315654      -280.7032
  50   2.0000     -10.314449      -280.6704
  51   2.0000     -10.313784      -280.6523
  52   2.0000     -10.313299      -280.6391
  53   2.0000     -10.311722      -280.5962
  54   2.0000     -10.310613      -280.5660
  55   2.0000     -10.309484      -280.5353
  56   2.0000     -10.309160      -280.5265
  57   2.0000     -10.308803      -280.5168
  58   2.0000     -10.307303      -280.4760
  59   2.0000     -10.306082      -280.4428
  60   2.0000     -10.303353      -280.3685
  61   2.0000     -10.301657      -280.3223
  62   2.0000     -10.299378      -280.2603
  63   2.0000     -10.298882      -280.2468
  64   2.0000     -10.297502      -280.2093
  65   2.0000     -10.295684      -280.1598
  66   2.0000     -10.294535      -280.1285
  67   2.0000     -10.293940      -280.1124
  68   2.0000     -10.291481      -280.0454
  69   2.0000     -10.291239      -280.0389
  70   2.0000     -10.288284      -279.9584
  71   2.0000     -10.288128      -279.9542
  72   2.0000     -10.286932      -279.9216
  73   2.0000     -10.285950      -279.8949
  74   2.0000     -10.280026      -279.7337
  75   2.0000     -10.275406      -279.6080
  76   2.0000     -10.274129      -279.5733
  77   2.0000     -10.272552      -279.5304
  78   2.0000     -10.266834      -279.3748
  79   2.0000     -10.264320      -279.3063
  80   2.0000     -10.255955      -279.0787
  81   2.0000      -8.097019      -220.3311
  82   2.0000      -8.078322      -219.8223
  83   2.0000      -8.071974      -219.6496
  84   2.0000      -8.064574      -219.4482
  85   2.0000      -6.066225      -165.0704
  86   2.0000      -6.061652      -164.9459
  87   2.0000      -6.059654      -164.8916
  88   2.0000      -6.047851      -164.5704
  89   2.0000      -6.043454      -164.4507
  90   2.0000      -6.041430      -164.3957
  91   2.0000      -6.040040      -164.3579
  92   2.0000      -6.037128      -164.2786
  93   2.0000      -6.034043      -164.1947
  94   2.0000      -6.033947      -164.1920
  95   2.0000      -6.029761      -164.0782
  96   2.0000      -6.026544      -163.9906
  97   2.0000      -1.150367       -31.3031
  98   2.0000      -1.144420       -31.1412
  99   2.0000      -1.131416       -30.7874
 100   2.0000      -1.037795       -28.2398
 101   2.0000      -1.029897       -28.0249
 102   2.0000      -1.025543       -27.9064
 103   2.0000      -1.024090       -27.8669
 104   2.0000      -1.023059       -27.8388
 105   2.0000      -1.017916       -27.6989
 106   2.0000      -1.006980       -27.4013
 107   2.0000      -1.003134       -27.2967
 108   2.0000      -1.002926       -27.2910
 109   2.0000      -0.999897       -27.2086
 110   2.0000      -0.999516       -27.1982
 111   2.0000      -0.998469       -27.1697
 112   2.0000      -0.991855       -26.9897
 113   2.0000      -0.988999       -26.9120
 114   2.0000      -0.973304       -26.4850
 115   2.0000      -0.966364       -26.2961
 116   2.0000      -0.949462       -25.8362
 117   2.0000      -0.948240       -25.8029
 118   2.0000      -0.944494       -25.7010
 119   2.0000      -0.929402       -25.2903
 120   2.0000      -0.926098       -25.2004
 121   2.0000      -0.920584       -25.0504
 122   2.0000      -0.915929       -24.9237
 123   2.0000      -0.913251       -24.8508
 124   2.0000      -0.912191       -24.8220
 125   2.0000      -0.899251       -24.4699
 126   2.0000      -0.893462       -24.3123
 127   2.0000      -0.891524       -24.2596
 128   2.0000      -0.883836       -24.0504
 129   2.0000      -0.876478       -23.8502
 130   2.0000      -0.875620       -23.8268
 131   2.0000      -0.863536       -23.4980
 132   2.0000      -0.855783       -23.2870
 133   2.0000      -0.851863       -23.1804
 134   2.0000      -0.843898       -22.9636
 135   2.0000      -0.838697       -22.8221
 136   2.0000      -0.822724       -22.3874
 137   2.0000      -0.820011       -22.3136
 138   2.0000      -0.809992       -22.0410
 139   2.0000      -0.804962       -21.9041
 140   2.0000      -0.803918       -21.8757
 141   2.0000      -0.795914       -21.6579
 142   2.0000      -0.784321       -21.3425
 143   2.0000      -0.778622       -21.1874
 144   2.0000      -0.753919       -20.5152
 145   2.0000      -0.752527       -20.4773
 146   2.0000      -0.750068       -20.4104
 147   2.0000      -0.748932       -20.3795
 148   2.0000      -0.742254       -20.1978
 149   2.0000      -0.740499       -20.1500
 150   2.0000      -0.731183       -19.8965
 151   2.0000      -0.718982       -19.5645
 152   2.0000      -0.713208       -19.4074
 153   2.0000      -0.700602       -19.0644
 154   2.0000      -0.695709       -18.9312
 155   2.0000      -0.694335       -18.8938
 156   2.0000      -0.691567       -18.8185
 157   2.0000      -0.686475       -18.6799
 158   2.0000      -0.679035       -18.4775
 159   2.0000      -0.676541       -18.4096
 160   2.0000      -0.671161       -18.2632
 161   2.0000      -0.666062       -18.1245
 162   2.0000      -0.663403       -18.0521
 163   2.0000      -0.653727       -17.7888
 164   2.0000      -0.653467       -17.7817
 165   2.0000      -0.647395       -17.6165
 166   2.0000      -0.642661       -17.4877
 167   2.0000      -0.641484       -17.4557
 168   2.0000      -0.638609       -17.3774
 169   2.0000      -0.632306       -17.2059
 170   2.0000      -0.624200       -16.9854
 171   2.0000      -0.618531       -16.8311
 172   2.0000      -0.614869       -16.7314
 173   2.0000      -0.607137       -16.5210
 174   2.0000      -0.599994       -16.3267
 175   2.0000      -0.597255       -16.2521
 176   2.0000      -0.594238       -16.1700
 177   2.0000      -0.590108       -16.0576
 178   2.0000      -0.587808       -15.9951
 179   2.0000      -0.585206       -15.9243
 180   2.0000      -0.583696       -15.8832
 181   2.0000      -0.577755       -15.7215
 182   2.0000      -0.575689       -15.6653
 183   2.0000      -0.570072       -15.5125
 184   2.0000      -0.563883       -15.3440
 185   2.0000      -0.560780       -15.2596
 186   2.0000      -0.559184       -15.2162
 187   2.0000      -0.557229       -15.1630
 188   2.0000      -0.555103       -15.1051
 189   2.0000      -0.553321       -15.0566
 190   2.0000      -0.547284       -14.8923
 191   2.0000      -0.544574       -14.8186
 192   2.0000      -0.543307       -14.7841
 193   2.0000      -0.535613       -14.5748
 194   2.0000      -0.534720       -14.5505
 195   2.0000      -0.533384       -14.5141
 196   2.0000      -0.532343       -14.4858
 197   2.0000      -0.532016       -14.4769
 198   2.0000      -0.529075       -14.3969
 199   2.0000      -0.525793       -14.3076
 200   2.0000      -0.524657       -14.2766
 201   2.0000      -0.522924       -14.2295
 202   2.0000      -0.519812       -14.1448
 203   2.0000      -0.518070       -14.0974
 204   2.0000      -0.517384       -14.0787
 205   2.0000      -0.515543       -14.0286
 206   2.0000      -0.511948       -13.9308
 207   2.0000      -0.511338       -13.9142
 208   2.0000      -0.508064       -13.8251
 209   2.0000      -0.506521       -13.7831
 210   2.0000      -0.504388       -13.7251
 211   2.0000      -0.499269       -13.5858
 212   2.0000      -0.497244       -13.5307
 213   2.0000      -0.492874       -13.4118
 214   2.0000      -0.486031       -13.2256
 215   2.0000      -0.483539       -13.1578
 216   2.0000      -0.482813       -13.1380
 217   2.0000      -0.480768       -13.0824
 218   2.0000      -0.480419       -13.0729
 219   2.0000      -0.474594       -12.9144
 220   2.0000      -0.474107       -12.9011
 221   2.0000      -0.469788       -12.7836
 222   2.0000      -0.467886       -12.7318
 223   2.0000      -0.464543       -12.6409
 224   2.0000      -0.463603       -12.6153
 225   2.0000      -0.459498       -12.5036
 226   2.0000      -0.457581       -12.4514
 227   2.0000      -0.457003       -12.4357
 228   2.0000      -0.456499       -12.4220
 229   2.0000      -0.453900       -12.3512
 230   2.0000      -0.452869       -12.3232
 231   2.0000      -0.452001       -12.2996
 232   2.0000      -0.451373       -12.2825
 233   2.0000      -0.450539       -12.2598
 234   2.0000      -0.450428       -12.2568
 235   2.0000      -0.449353       -12.2275
 236   2.0000      -0.448113       -12.1938
 237   2.0000      -0.447714       -12.1829
 238   2.0000      -0.447479       -12.1765
 239   2.0000      -0.445562       -12.1244
 240   2.0000      -0.444032       -12.0827
 241   2.0000      -0.442354       -12.0371
 242   2.0000      -0.440827       -11.9955
 243   2.0000      -0.439894       -11.9701
 244   2.0000      -0.439684       -11.9644
 245   2.0000      -0.438445       -11.9307
 246   2.0000      -0.437481       -11.9045
 247   2.0000      -0.436124       -11.8675
 248   2.0000      -0.434411       -11.8209
 249   2.0000      -0.433181       -11.7875
 250   2.0000      -0.432216       -11.7612
 251   2.0000      -0.431255       -11.7350
 252   2.0000      -0.430065       -11.7027
 253   2.0000      -0.426733       -11.6120
 254   2.0000      -0.424681       -11.5562
 255   2.0000      -0.424364       -11.5475
 256   2.0000      -0.424128       -11.5411
 257   2.0000      -0.423505       -11.5242
 258   2.0000      -0.422076       -11.4853
 259   2.0000      -0.420110       -11.4318
 260   2.0000      -0.419280       -11.4092
 261   2.0000      -0.418074       -11.3764
 262   2.0000      -0.415201       -11.2982
 263   2.0000      -0.414549       -11.2805
 264   2.0000      -0.412222       -11.2171
 265   2.0000      -0.407854       -11.0983
 266   2.0000      -0.402689       -10.9577
 267   2.0000      -0.387209       -10.5365
 268   2.0000      -0.384152       -10.4533
 269   2.0000      -0.366299        -9.9675
 270   2.0000      -0.358981        -9.7684
 271   2.0000      -0.358606        -9.7582
 272   2.0000      -0.356365        -9.6972
 273   2.0000      -0.354493        -9.6463
 274   2.0000      -0.352916        -9.6033
 275   2.0000      -0.347518        -9.4564
 276   2.0000      -0.342446        -9.3184
 277   2.0000      -0.340900        -9.2763
 278   2.0000      -0.331564        -9.0223
 279   2.0000      -0.326637        -8.8883
 280   2.0000      -0.311994        -8.4898
 281   2.0000      -0.308141        -8.3849
 282   2.0000      -0.302837        -8.2406
 283   2.0000      -0.291128        -7.9220
 284   2.0000      -0.289564        -7.8794
 285   2.0000      -0.250025        -6.8035
 286   2.0000      -0.246954        -6.7200
 287   0.0000      -0.113542        -3.0896
 288   0.0000      -0.103978        -2.8294
 289   0.0000      -0.095102        -2.5879
 290   0.0000      -0.084367        -2.2957
 291   0.0000      -0.058733        -1.5982

MULLIKEN ATOMIC CHARGES
-----------------------
   0 C :    0.039069
   1 C :   -0.038206
   2 C :   -0.063998
   3 C :   -0.175789
   4 N :    0.200924
   5 C :   -0.065211
   6 C :   -0.174303
   7 N :    0.192439
   8 C :   -0.043147
   9 C :    0.016454
  10 C :    0.177135
  11 O :   -0.184453
  12 C :   -0.085477
  13 C :    0.309665
  14 C :   -0.346600
  15 C :   -0.188017
  16 N :    0.159966
  17 C :   -0.203108
  18 N :    0.164880
  19 C :    0.052118
  20 C :   -0.127340
  21 C :   -0.008070
  22 C :    0.021724
  23 C :    0.052152
  24 C :   -0.114464
  25 S :    0.143995
  26 C :   -0.087745
  27 C :    0.040309
  28 C :    0.023105
  29 C :   -0.066810
  30 S :    0.145758
  31 C :    0.110776
  32 C :   -0.052881
  33 C :   -0.007199
  34 C :    0.118236
  35 N :   -0.149295
  36 C :    0.115068
  37 C :   -0.016242
  38 N :   -0.071607
  39 C :   -0.151293
  40 C :   -0.159850
  41 C :    0.079639
  42 C :    0.025918
  43 C :    0.155761
  44 C :    0.055939
  45 C :   -0.033195
  46 C :    0.037331
  47 C :   -0.079968
  48 C :   -0.000901
  49 C :    0.088481
  50 C :    0.053286
  51 C :   -0.133795
  52 S :    0.182098
  53 C :   -0.111906
  54 C :    0.056615
  55 C :    0.006527
  56 C :   -0.064588
  57 S :    0.136753
  58 C :    0.080952
  59 C :    0.000734
  60 C :    0.000127
  61 C :    0.028844
  62 C :   -0.135646
  63 C :    0.144241
  64 O :   -0.139288
  65 C :    0.002348
  66 C :   -0.041120
  67 C :   -0.072890
  68 C :   -0.064444
  69 C :   -0.048338
  70 C :    0.037410
  71 C :    0.300663
  72 C :   -0.373245
  73 C :   -0.202288
  74 N :    0.151469
  75 C :   -0.139298
  76 N :    0.128391
  77 C :   -0.172870
  78 N :    0.190388
  79 C :   -0.171976
  80 N :    0.191149
  81 H :    0.019375
  82 H :    0.008031
  83 H :    0.018271
  84 H :    0.008329
  85 H :    0.043670
  86 H :   -0.009057
  87 H :    0.034773
  88 H :   -0.032154
  89 H :    0.008143
  90 H :    0.042084
  91 H :    0.022585
  92 H :    0.027415
  93 H :    0.019702
  94 H :    0.023252
  95 H :    0.001288
  96 H :    0.006018
  97 H :   -0.000655
  98 H :    0.012262
  99 H :    0.017547
 100 H :    0.000518
 101 H :   -0.016708
 102 H :    0.001861
 103 H :    0.037737
 104 H :    0.010575
 105 H :   -0.004977
 106 H :   -0.038088
 107 H :    0.044597
 108 H :   -0.011773
 109 H :    0.032913
 110 H :   -0.007461
 111 H :   -0.015039
 112 H :    0.012978
 113 H :    0.012532
 114 H :    0.017479
Sum of atomic charges:   -0.0000000

LOEWDIN ATOMIC CHARGES
----------------------
   0 C :    0.003795
   1 C :    0.032589
   2 C :   -0.025791
   3 C :   -0.031254
   4 N :   -0.014176
   5 C :   -0.030549
   6 C :   -0.031202
   7 N :   -0.017795
   8 C :    0.043988
   9 C :   -0.026719
  10 C :    0.090306
  11 O :   -0.150421
  12 C :   -0.118796
  13 C :    0.069886
  14 C :   -0.134902
  15 C :   -0.021686
  16 N :   -0.043479
  17 C :   -0.027270
  18 N :   -0.042123
  19 C :    0.047225
  20 C :   -0.192235
  21 C :    0.041543
  22 C :   -0.040715
  23 C :   -0.065033
  24 C :   -0.126475
  25 S :    0.455856
  26 C :   -0.173914
  27 C :   -0.048063
  28 C :   -0.056024
  29 C :   -0.155584
  30 S :    0.434457
  31 C :    0.006336
  32 C :   -0.034189
  33 C :    0.004111
  34 C :   -0.024554
  35 N :    0.102609
  36 C :    0.037672
  37 C :   -0.070806
  38 N :   -0.084966
  39 C :   -0.054063
  40 C :   -0.075280
  41 C :   -0.032391
  42 C :   -0.053037
  43 C :   -0.020098
  44 C :   -0.027429
  45 C :    0.033369
  46 C :   -0.070646
  47 C :   -0.133495
  48 C :   -0.019594
  49 C :    0.030452
  50 C :   -0.039406
  51 C :   -0.144802
  52 S :    0.502108
  53 C :   -0.211966
  54 C :   -0.032398
  55 C :   -0.063522
  56 C :   -0.158645
  57 S :    0.427876
  58 C :   -0.074157
  59 C :    0.060796
  60 C :   -0.060792
  61 C :    0.074688
  62 C :   -0.129299
  63 C :    0.077923
  64 O :   -0.144447
  65 C :   -0.026802
  66 C :    0.043853
  67 C :   -0.033843
  68 C :   -0.028843
  69 C :    0.025748
  70 C :    0.006316
  71 C :    0.067032
  72 C :   -0.161520
  73 C :   -0.020596
  74 N :   -0.059804
  75 C :   -0.019316
  76 N :   -0.059041
  77 C :   -0.029327
  78 N :   -0.022651
  79 C :   -0.031401
  80 N :   -0.021657
  81 H :    0.051961
  82 H :    0.052500
  83 H :    0.040969
  84 H :    0.039021
  85 H :    0.040135
  86 H :    0.034187
  87 H :    0.027141
  88 H :    0.031831
  89 H :    0.033746
  90 H :    0.038883
  91 H :    0.026110
  92 H :    0.027661
  93 H :    0.029341
  94 H :    0.017235
  95 H :    0.028163
  96 H :    0.028252
  97 H :    0.020524
  98 H :    0.023573
  99 H :    0.019676
 100 H :    0.034978
 101 H :    0.023771
 102 H :    0.024597
 103 H :    0.040194
 104 H :    0.025719
 105 H :    0.027359
 106 H :    0.036007
 107 H :    0.039375
 108 H :    0.031946
 109 H :    0.026140
 110 H :    0.037944
 111 H :    0.023600
 112 H :    0.043073
 113 H :    0.052478
 114 H :    0.050369

  Mayer bond orders larger than 0.100000
B(  0-C ,  1-C ) :   1.3665 B(  0-C ,  9-C ) :   1.3293 B(  0-C , 13-C ) :   0.9456
B(  1-C ,  2-C ) :   1.3839 B(  1-C , 81-H ) :   0.9856 B(  2-C ,  3-C ) :   1.0883
B(  2-C ,  5-C ) :   1.4078 B(  3-C ,  4-N ) :   3.0439 B(  5-C ,  6-C ) :   1.0860
B(  5-C ,  8-C ) :   1.3576 B(  6-C ,  7-N ) :   3.0429 B(  8-C ,  9-C ) :   1.3707
B(  8-C , 82-H ) :   1.0149 B(  9-C , 10-C ) :   0.9365 B( 10-C , 11-O ) :   2.0269
B( 10-C , 12-C ) :   1.0051 B( 12-C , 13-C ) :   1.1222 B( 12-C , 19-C ) :   1.4639
B( 13-C , 14-C ) :   1.6128 B( 14-C , 15-C ) :   1.1550 B( 14-C , 17-C ) :   1.1403
B( 15-C , 16-N ) :   2.9565 B( 17-C , 18-N ) :   2.9809 B( 19-C , 20-C ) :   1.3217
B( 19-C , 83-H ) :   0.9081 B( 20-C , 21-C ) :   1.3808 B( 20-C , 25-S ) :   1.0256
B( 21-C , 22-C ) :   1.3560 B( 21-C , 84-H ) :   0.9398 B( 22-C , 23-C ) :   1.0231
B( 22-C , 31-C ) :   1.2932 B( 23-C , 24-C ) :   1.5871 B( 23-C , 26-C ) :   1.2087
B( 24-C , 25-S ) :   1.1680 B( 24-C , 85-H ) :   0.9431 B( 26-C , 27-C ) :   1.3872
B( 26-C , 30-S ) :   1.0969 B( 27-C , 28-C ) :   1.1995 B( 27-C , 31-C ) :   1.1633
B( 28-C , 29-C ) :   1.6112 B( 28-C , 86-H ) :   0.9983 B( 29-C , 30-S ) :   1.1339
B( 29-C , 87-H ) :   0.9660 B( 31-C , 32-C ) :   1.1552 B( 32-C , 33-C ) :   1.6300
B( 32-C , 88-H ) :   0.9634 B( 33-C , 34-C ) :   1.1030 B( 33-C , 89-H ) :   0.9529
B( 34-C , 35-N ) :   1.1681 B( 34-C , 40-C ) :   1.3997 B( 35-N , 36-C ) :   0.9450
B( 35-N , 38-N ) :   1.1873 B( 36-C , 37-C ) :   1.1191 B( 36-C , 90-H ) :   0.9438
B( 36-C , 91-H ) :   0.9459 B( 37-C , 92-H ) :   0.9612 B( 37-C , 93-H ) :   0.9588
B( 37-C , 94-H ) :   0.9523 B( 38-N , 39-C ) :   1.5638 B( 39-C , 40-C ) :   1.3627
B( 39-C , 43-C ) :   1.0761 B( 40-C , 41-C ) :   1.0754 B( 41-C , 42-C ) :   1.1034
B( 41-C , 95-H ) :   0.9219 B( 41-C , 96-H ) :   0.9164 B( 42-C , 97-H ) :   0.9633
B( 42-C , 98-H ) :   0.9630 B( 42-C , 99-H ) :   0.9635 B( 43-C , 44-C ) :   1.0874
B( 43-C ,100-H ) :   0.9037 B( 43-C ,101-H ) :   0.9098 B( 44-C , 45-C ) :   1.0500
B( 44-C ,102-H ) :   0.9360 B( 44-C ,103-H ) :   0.9016 B( 45-C , 46-C ) :   1.8478
B( 45-C ,104-H ) :   0.9584 B( 46-C , 47-C ) :   1.0418 B( 46-C ,105-H ) :   0.9542
B( 47-C , 48-C ) :   1.5241 B( 47-C , 52-S ) :   1.1159 B( 48-C , 49-C ) :   1.2770
B( 48-C ,106-H ) :   0.9551 B( 49-C , 50-C ) :   1.0972 B( 49-C , 58-C ) :   1.2747
B( 50-C , 51-C ) :   1.5714 B( 50-C , 53-C ) :   1.1689 B( 51-C , 52-S ) :   1.1629
B( 51-C ,107-H ) :   0.9420 B( 53-C , 54-C ) :   1.4614 B( 53-C , 57-S ) :   1.0741
B( 54-C , 55-C ) :   1.2329 B( 54-C , 58-C ) :   1.0760 B( 55-C , 56-C ) :   1.5797
B( 55-C ,108-H ) :   0.9971 B( 56-C , 57-S ) :   1.1636 B( 56-C ,109-H ) :   0.9659
B( 58-C , 59-C ) :   1.2592 B( 59-C , 60-C ) :   1.4466 B( 59-C ,110-H ) :   0.9712
B( 60-C , 61-C ) :   1.2920 B( 60-C ,111-H ) :   0.9655 B( 61-C , 62-C ) :   1.4154
B( 61-C ,112-H ) :   0.9602 B( 62-C , 63-C ) :   0.9768 B( 62-C , 71-C ) :   1.1310
B( 63-C , 64-O ) :   2.2655 B( 63-C , 65-C ) :   0.8935 B( 65-C , 66-C ) :   1.3811
B( 65-C , 70-C ) :   1.3333 B( 66-C , 67-C ) :   1.3512 B( 66-C ,113-H ) :   1.0146
B( 67-C , 68-C ) :   1.4136 B( 67-C , 79-C ) :   1.0874 B( 68-C , 69-C ) :   1.3795
B( 68-C , 77-C ) :   1.0851 B( 69-C , 70-C ) :   1.3708 B( 69-C ,114-H ) :   0.9882
B( 70-C , 71-C ) :   0.9724 B( 71-C , 72-C ) :   1.5598 B( 72-C , 73-C ) :   1.1939
B( 72-C , 75-C ) :   1.1465 B( 73-C , 74-N ) :   2.9345 B( 75-C , 76-N ) :   2.8659
B( 77-C , 78-N ) :   3.0452 B( 79-C , 80-N ) :   3.0433

-----------------------------------------------------------------------------
         ABSORPTION SPECTRUM VIA TRANSITION ELECTRIC DIPOLE MOMENTS
-----------------------------------------------------------------------------
State   Energy  Wavelength   fosc         T2         TX        TY        TZ
        (cm-1)    (nm)                  (au**2)     (au)      (au)      (au)
-----------------------------------------------------------------------------
   0   13289.1    752.5   0.527703216  13.07280  -2.41991  -2.46653  -1.06445
   1   14893.5    671.4   0.479065194  10.58947  -2.35090   0.79679   2.10425
   2   17141.5    583.4   0.003578953   0.06874  -0.21468   0.13382  -0.06885
   3   19978.7    500.5   0.138816700   2.28744   0.99342  -1.14041   0.00452
   4   22095.0    452.6   0.502621512   7.48899   1.84527  -0.37252   1.98625
   5   22140.4    451.7   0.019850264   0.29516  -0.49457  -0.13486  -0.17991
   6   22241.6    449.6   0.051918813   0.76848  -0.60355   0.06519  -0.63242
   7   22664.9    441.2   0.087696339   1.27381  -0.56474  -0.95960   0.18452
   8   24080.2    415.3   0.380693659   5.20464  -1.42293  -0.41859   1.73341
   9   24280.3    411.9   0.022059811   0.29910   0.15604   0.29968  -0.43005
  10   25814.0    387.4   0.035199601   0.44891  -0.01597  -0.49170   0.45485
  11   26279.0    380.5   0.034732423   0.43511   0.25567  -0.54900   0.26142
  12   26439.0    378.2   0.062385719   0.77681   0.43960  -0.70844   0.28579
  13   26821.6    372.8   0.001048404   0.01287  -0.09738   0.01364   0.05657
  14   27376.5    365.3   0.037059119   0.44565   0.09227   0.64849  -0.12884
  15   28266.2    353.8   0.119243678   1.38881  -0.96455  -0.11159   0.66784
  16   28610.5    349.5   0.002250903   0.02590  -0.10228   0.12418  -0.00432
  17   28733.0    348.0   0.050425390   0.57776   0.67085   0.01235  -0.35716
  18   29331.3    340.9   0.407960843   4.57892  -0.68488   1.67470  -1.14247
  19   29522.3    338.7   0.237387161   2.64718  -0.68144   0.92983  -1.14814
  20   30026.1    333.0   0.058281614   0.63901  -0.20247  -0.70142   0.32561
  21   30207.8    331.0   0.076362966   0.83222  -0.23089   0.80512  -0.36152
  22   30872.9    323.9   0.096963189   1.03396   0.75791  -0.67485  -0.06419
  23   31126.3    321.3   0.005877804   0.06217  -0.02204   0.24557  -0.03714
  24   31350.3    319.0   0.003402495   0.03573  -0.15375  -0.07237   0.08278
  25   31529.8    317.2   0.005838899   0.06097   0.06025   0.23852  -0.02104
  26   31709.2    315.4   0.000901727   0.00936  -0.06877   0.06802  -0.00244
  27   31740.9    315.1   0.022697616   0.23542  -0.31894  -0.09352   0.35348
  28   32333.4    309.3   0.105405955   1.07322  -0.08706  -0.99878   0.26092
  29   32946.2    303.5   0.186144574   1.86003   0.41267   1.29608   0.09963
  30   32992.1    303.1   0.128518459   1.28242   1.08250   0.14667  -0.29850
  31   33472.6    298.8   0.244233757   2.40210   0.44879  -1.31852   0.67985
  32   33592.2    297.7   0.001251464   0.01226   0.03495  -0.06102   0.08556
  33   33830.7    295.6   0.098809555   0.96153  -0.87969   0.43297  -0.01465
  34   34202.7    292.4   0.354224187   3.40952   1.56315   0.39728  -0.89903
  35   34331.3    291.3   0.001254600   0.01203  -0.08377   0.03626  -0.06081
  36   34800.4    287.4   0.137684252   1.30249  -0.08416  -1.04036   0.46159
  37   35027.9    285.5   0.144028354   1.35366   0.21513  -0.71697   0.89069
  38   35090.5    285.0   0.201375628   1.88926  -1.16390   0.44372   0.58113
  39   35501.5    281.7   0.012436169   0.11532   0.00401   0.28962  -0.17727
  40   35593.3    281.0   0.038241431   0.35371  -0.37714   0.43707  -0.14297
  41   35779.3    279.5   0.009640637   0.08871   0.14867  -0.15257   0.20815
  42   35842.0    279.0   0.006265721   0.05755  -0.12602   0.08929  -0.18357
  43   35922.9    278.4   0.113153715   1.03699  -0.62284   0.34962  -0.72582
  44   36088.3    277.1   0.015767852   0.14384  -0.04084   0.33892  -0.16525
  45   36133.7    276.8   0.069610925   0.63422  -0.17033   0.72701  -0.27690
  46   36400.9    274.7   0.006088281   0.05506   0.20902   0.02589   0.10346
  47   36527.1    273.8   0.004971175   0.04480   0.05590   0.17819  -0.09964
  48   36737.1    272.2   0.546905474   4.90098  -1.32598   0.97527  -1.48041
  49   36780.0    271.9   0.057534273   0.51498  -0.23505   0.59487  -0.32537
  50   36888.5    271.1   0.396050548   3.53456   0.53988  -1.50212   0.99335
  51   37297.6    268.1   0.215938319   1.90601  -1.13302   0.60675   0.50412
  52   37784.4    264.7   0.382276161   3.33073   0.82991   1.61397   0.19254
  53   38402.0    260.4   0.062042352   0.53188  -0.62683  -0.22381  -0.29811
  54   38435.6    260.2   0.416275154   3.56552  -1.70438   0.79559   0.16633
  55   38872.8    257.2   0.071355591   0.60431   0.52090   0.09565   0.56905
  56   39005.0    256.4   0.001637480   0.01382   0.01567   0.07385  -0.09012
  57   39195.7    255.1   0.704107474   5.91392  -1.25806  -1.21676   1.68840
  58   39775.2    251.4   0.371019642   3.07086  -1.45963  -0.74002  -0.62666
  59   39897.0    250.6   0.000454489   0.00375   0.05041   0.02883   0.01943
  60   40028.3    249.8   0.120106944   0.98782  -0.19760  -0.78565   0.57577
  61   40161.7    249.0   0.037304315   0.30579   0.07634   0.44922  -0.31331

FINAL SINGLE POINT ENERGY     -4783.322243123635

DIPOLE MOMENT
-------------
                                X             Y             Z
Electronic contribution:    -30.59010     -12.92146      -2.61675
Nuclear contribution   :     37.59988      13.67339       2.35360
                        -----------------------------------------
Total Dipole Moment    :      7.00978       0.75193      -0.26315
                        -----------------------------------------
Magnitude (a.u.)       :      7.05491
Magnitude (Debye)      :     17.93215

Rotational constants in cm-1:     0.000805     0.000285     0.000263
Rotational constants in MHz :    24.125903     8.537231     7.894952

                             ****ORCA TERMINATED NORMALLY****
TOTAL RUN TIME: 0 days 0 hours 13 minutes 52 seconds 369 msec
