                         Program Version 4.2.0 -  RELEASE  -
|  1> # ORCA input file
|  2> # SCF done       -179.045772594252          0.000782103163
|  3> ! CAM-B3LYP def2-SVP def2/J RIJCOSX Grid4 TightSCF
|  4> %maxcore 5000
|  5> %tddft
|  6>     Mode sTDDFT
|  7>     Ethresh 5.0
|  8>     maxcore 5000
|  9> end
| 10>
| 11> %pal
| 12>   nprocs 6
| 13>   end
| 14> * xyz 0 1
| 15>    C        0.13952        -4.50856        -5.65772
| 16>    C        1.15658        -4.09517        -6.50221
| 17>    C        2.43550        -4.62334        -6.31274
| 18>    C        3.49113        -4.20784        -7.16245
| 19>    N        4.33849        -3.86588        -7.85171
| 20>    C        2.69802        -5.55780        -5.29282
| 21>    C        4.00457        -6.07855        -5.12826
| 22>    N        5.05191        -6.51726        -4.98173
| 23>    C        1.67173        -5.96989        -4.44165
| 24>    C        0.41492        -5.43794        -4.63645
| 25>    C       -0.81929        -5.70455        -3.86888
| 26>    O       -0.92073        -6.44708        -2.91260
| 27>    C       -1.86988        -4.89302        -4.49961
| 28>    C       -1.27965        -4.15114        -5.60059
| 29>    C       -1.90407        -3.27577        -6.44781
| 30>    C       -1.25630        -2.59259        -7.50164
| 31>    N       -0.79080        -2.00706        -8.37116
| 32>    C       -3.27177        -2.92497        -6.41026
| 33>    N       -4.36972        -2.59181        -6.44915
| 34>    C       -3.18669        -4.86291        -4.12409
| 35>    C       -3.84850        -5.54424        -3.08592
| 36>    C       -5.22072        -5.41544        -2.89169
| 37>    C       -5.72045        -6.14024        -1.81574
| 38>    S       -7.42741        -6.22149        -1.45657
| 39>    C       -8.13542        -5.95524        -3.12058
| 40>    C       -4.70170        -6.84505        -1.14227
| 41>    S       -3.15683        -6.62360        -1.90847
| 42>    C       -4.75772        -7.69512        -0.00768
| 43>    C       -5.80359        -7.69286         0.95032
| 44>    C       -5.85200        -8.62206         2.05530
| 45>    N       -6.89962        -8.59039         2.89461
| 46>    C       -7.83213        -7.68564         2.73632
| 47>    C       -7.73861        -6.70742         1.69723
| 48>    N       -6.74571        -6.75225         0.84020
| 49>    C       -8.71021        -5.68370         1.58027
| 50>    N       -9.51624        -4.87223         1.51955
| 51>    C       -8.93958        -7.68067         3.62391
| 52>    N       -9.84353        -7.65715         4.32586
| 53>    C       -4.81310        -9.55161         2.29060
| 54>    C       -3.72724        -9.48842         1.39250
| 55>    C       -3.70343        -8.59690         0.26488
| 56>    N       -2.59211        -8.74952        -0.45434
| 57>    S       -1.67032        -9.87701         0.20883
| 58>    N       -2.62599       -10.24055         1.44666
| 59>    C       -4.81776       -10.51769         3.33810
| 60>    C       -5.85563       -10.94102         4.14370
| 61>    C       -5.50080       -11.98320         5.00432
| 62>    S       -6.69815       -12.75356         6.01354
| 63>    C       -6.24491       -14.51935         5.92370
| 64>    C       -4.15229       -12.34610         4.91075
| 65>    S       -3.36637       -11.41629         3.65489
| 66>    C       -3.43430       -13.18744         5.77684
| 67>    C       -2.16476       -13.67271         5.61309
| 68>    C       -1.34786       -14.05855         6.78539
| 69>    O       -1.72695       -14.25934         7.91528
| 70>    C        0.04886       -14.08932         6.27838
| 71>    C        1.21780       -14.27862         6.98304
| 72>    C        2.42544       -14.22484         6.28278
| 73>    C        2.43155       -13.98489         4.89538
| 74>    C        1.24051       -13.81146         4.18689
| 75>    C        0.04851       -13.86434         4.88641
| 76>    C       -1.33691       -13.75901         4.43472
| 77>    C       -1.78599       -13.97877         3.15662
| 78>    C       -3.14752       -14.24220         2.90038
| 79>    N       -4.24316       -14.53268         2.71772
| 80>    C       -0.95967       -14.02145         2.01969
| 81>    N       -0.32649       -14.01058         1.06215
| 82>    C        3.66709       -13.91257         4.20553
| 83>    N        4.65842       -13.84591         3.63677
| 84>    C        3.64863       -14.40738         6.97172
| 85>    N        4.62817       -14.55493         7.54618
| 86>    H        0.99737        -3.38334        -7.29616
| 87>    H        1.85500        -6.68357        -3.65292
| 88>    H       -3.84626        -4.22738        -4.70245
| 89>    H       -5.82259        -4.78790        -3.52361
| 90>    H       -9.16476        -6.29143        -3.04686
| 91>    H       -7.60220        -6.54442        -3.85872
| 92>    H       -8.12061        -4.89963        -3.37143
| 93>    H       -6.84671       -10.53168         4.09025
| 94>    H       -7.18309       -15.06290         5.86135
| 95>    H       -5.70619       -14.82424         6.81470
| 96>    H       -5.65472       -14.68940         5.02901
| 97>    H       -3.87965       -13.36758         6.74978
| 98>    H        1.20167       -14.46090         8.04684
| 99>    H        1.27409       -13.62953         3.12387
|100> *
|101>
|102>                          ****END OF INPUT****

CARTESIAN COORDINATES (ANGSTROEM)
---------------------------------
  C      0.139520   -4.508560   -5.657720
  C      1.156580   -4.095170   -6.502210
  C      2.435500   -4.623340   -6.312740
  C      3.491130   -4.207840   -7.162450
  N      4.338490   -3.865880   -7.851710
  C      2.698020   -5.557800   -5.292820
  C      4.004570   -6.078550   -5.128260
  N      5.051910   -6.517260   -4.981730
  C      1.671730   -5.969890   -4.441650
  C      0.414920   -5.437940   -4.636450
  C     -0.819290   -5.704550   -3.868880
  O     -0.920730   -6.447080   -2.912600
  C     -1.869880   -4.893020   -4.499610
  C     -1.279650   -4.151140   -5.600590
  C     -1.904070   -3.275770   -6.447810
  C     -1.256300   -2.592590   -7.501640
  N     -0.790800   -2.007060   -8.371160
  C     -3.271770   -2.924970   -6.410260
  N     -4.369720   -2.591810   -6.449150
  C     -3.186690   -4.862910   -4.124090
  C     -3.848500   -5.544240   -3.085920
  C     -5.220720   -5.415440   -2.891690
  C     -5.720450   -6.140240   -1.815740
  S     -7.427410   -6.221490   -1.456570
  C     -8.135420   -5.955240   -3.120580
  C     -4.701700   -6.845050   -1.142270
  S     -3.156830   -6.623600   -1.908470
  C     -4.757720   -7.695120   -0.007680
  C     -5.803590   -7.692860    0.950320
  C     -5.852000   -8.622060    2.055300
  N     -6.899620   -8.590390    2.894610
  C     -7.832130   -7.685640    2.736320
  C     -7.738610   -6.707420    1.697230
  N     -6.745710   -6.752250    0.840200
  C     -8.710210   -5.683700    1.580270
  N     -9.516240   -4.872230    1.519550
  C     -8.939580   -7.680670    3.623910
  N     -9.843530   -7.657150    4.325860
  C     -4.813100   -9.551610    2.290600
  C     -3.727240   -9.488420    1.392500
  C     -3.703430   -8.596900    0.264880
  N     -2.592110   -8.749520   -0.454340
  S     -1.670320   -9.877010    0.208830
  N     -2.625990  -10.240550    1.446660
  C     -4.817760  -10.517690    3.338100
  C     -5.855630  -10.941020    4.143700
  C     -5.500800  -11.983200    5.004320
  S     -6.698150  -12.753560    6.013540
  C     -6.244910  -14.519350    5.923700
  C     -4.152290  -12.346100    4.910750
  S     -3.366370  -11.416290    3.654890
  C     -3.434300  -13.187440    5.776840
  C     -2.164760  -13.672710    5.613090
  C     -1.347860  -14.058550    6.785390
  O     -1.726950  -14.259340    7.915280
  C      0.048860  -14.089320    6.278380
  C      1.217800  -14.278620    6.983040
  C      2.425440  -14.224840    6.282780
  C      2.431550  -13.984890    4.895380
  C      1.240510  -13.811460    4.186890
  C      0.048510  -13.864340    4.886410
  C     -1.336910  -13.759010    4.434720
  C     -1.785990  -13.978770    3.156620
  C     -3.147520  -14.242200    2.900380
  N     -4.243160  -14.532680    2.717720
  C     -0.959670  -14.021450    2.019690
  N     -0.326490  -14.010580    1.062150
  C      3.667090  -13.912570    4.205530
  N      4.658420  -13.845910    3.636770
  C      3.648630  -14.407380    6.971720
  N      4.628170  -14.554930    7.546180
  H      0.997370   -3.383340   -7.296160
  H      1.855000   -6.683570   -3.652920
  H     -3.846260   -4.227380   -4.702450
  H     -5.822590   -4.787900   -3.523610
  H     -9.164760   -6.291430   -3.046860
  H     -7.602200   -6.544420   -3.858720
  H     -8.120610   -4.899630   -3.371430
  H     -6.846710  -10.531680    4.090250
  H     -7.183090  -15.062900    5.861350
  H     -5.706190  -14.824240    6.814700
  H     -5.654720  -14.689400    5.029010
  H     -3.879650  -13.367580    6.749780
  H      1.201670  -14.460900    8.046840
  H      1.274090  -13.629530    3.123870

 Total Charge           Charge          ....    0
 Multiplicity           Mult            ....    1
 Number of Electrons    NEL             ....  508
 Basis Dimension        Dim             .... 1084

ORBITAL ENERGIES
----------------

  NO   OCC          E(Eh)            E(eV)
   0   2.0000     -89.074073     -2423.8287
   1   2.0000     -88.989527     -2421.5281
   2   2.0000     -88.982213     -2421.3291
   3   2.0000     -88.957185     -2420.6481
   4   2.0000     -88.951501     -2420.4934
   5   2.0000     -19.256925      -524.0076
   6   2.0000     -19.237497      -523.4789
   7   2.0000     -14.488673      -394.2568
   8   2.0000     -14.482793      -394.0968
   9   2.0000     -14.481432      -394.0598
  10   2.0000     -14.480323      -394.0296
  11   2.0000     -14.448924      -393.1752
  12   2.0000     -14.448080      -393.1522
  13   2.0000     -14.445119      -393.0717
  14   2.0000     -14.443367      -393.0240
  15   2.0000     -14.438357      -392.8877
  16   2.0000     -14.437404      -392.8617
  17   2.0000     -14.436001      -392.8236
  18   2.0000     -14.434865      -392.7927
  19   2.0000     -14.431564      -392.7028
  20   2.0000     -14.431048      -392.6888
  21   2.0000     -10.406392      -283.1723
  22   2.0000     -10.405052      -283.1359
  23   2.0000     -10.400973      -283.0249
  24   2.0000     -10.389386      -282.7096
  25   2.0000     -10.378654      -282.4175
  26   2.0000     -10.377987      -282.3994
  27   2.0000     -10.377333      -282.3816
  28   2.0000     -10.374735      -282.3109
  29   2.0000     -10.371070      -282.2112
  30   2.0000     -10.370630      -282.1992
  31   2.0000     -10.370551      -282.1970
  32   2.0000     -10.370097      -282.1847
  33   2.0000     -10.365860      -282.0694
  34   2.0000     -10.363779      -282.0128
  35   2.0000     -10.363003      -281.9916
  36   2.0000     -10.362361      -281.9742
  37   2.0000     -10.354222      -281.7527
  38   2.0000     -10.353523      -281.7337
  39   2.0000     -10.351743      -281.6852
  40   2.0000     -10.349332      -281.6196
  41   2.0000     -10.347443      -281.5682
  42   2.0000     -10.346828      -281.5515
  43   2.0000     -10.346650      -281.5467
  44   2.0000     -10.345440      -281.5137
  45   2.0000     -10.344589      -281.4906
  46   2.0000     -10.344572      -281.4901
  47   2.0000     -10.343492      -281.4607
  48   2.0000     -10.343481      -281.4604
  49   2.0000     -10.342518      -281.4342
  50   2.0000     -10.341190      -281.3981
  51   2.0000     -10.340513      -281.3797
  52   2.0000     -10.339871      -281.3622
  53   2.0000     -10.338928      -281.3365
  54   2.0000     -10.337980      -281.3107
  55   2.0000     -10.337317      -281.2927
  56   2.0000     -10.337226      -281.2902
  57   2.0000     -10.337096      -281.2867
  58   2.0000     -10.336955      -281.2828
  59   2.0000     -10.333616      -281.1920
  60   2.0000     -10.332177      -281.1528
  61   2.0000     -10.331951      -281.1467
  62   2.0000     -10.328889      -281.0634
  63   2.0000     -10.328469      -281.0519
  64   2.0000     -10.327986      -281.0388
  65   2.0000     -10.327623      -281.0289
  66   2.0000     -10.319489      -280.8076
  67   2.0000     -10.313792      -280.6525
  68   2.0000     -10.307642      -280.4852
  69   2.0000     -10.305966      -280.4396
  70   2.0000     -10.304059      -280.3877
  71   2.0000      -8.164774      -222.1748
  72   2.0000      -8.082545      -219.9372
  73   2.0000      -8.076344      -219.7685
  74   2.0000      -8.050852      -219.0748
  75   2.0000      -8.046980      -218.9694
  76   2.0000      -6.135776      -166.9629
  77   2.0000      -6.127989      -166.7510
  78   2.0000      -6.127726      -166.7439
  79   2.0000      -6.051985      -164.6829
  80   2.0000      -6.047369      -164.5573
  81   2.0000      -6.045869      -164.5165
  82   2.0000      -6.044522      -164.4798
  83   2.0000      -6.041488      -164.3972
  84   2.0000      -6.038082      -164.3046
  85   2.0000      -6.021264      -163.8469
  86   2.0000      -6.017330      -163.7399
  87   2.0000      -6.016924      -163.7288
  88   2.0000      -6.013109      -163.6250
  89   2.0000      -6.010825      -163.5629
  90   2.0000      -6.006887      -163.4557
  91   2.0000      -1.172837       -31.9145
  92   2.0000      -1.171678       -31.8830
  93   2.0000      -1.152612       -31.3642
  94   2.0000      -1.146350       -31.1938
  95   2.0000      -1.073194       -29.2031
  96   2.0000      -1.055544       -28.7228
  97   2.0000      -1.047525       -28.5046
  98   2.0000      -1.041084       -28.3293
  99   2.0000      -1.036944       -28.2167
 100   2.0000      -1.035888       -28.1879
 101   2.0000      -1.032346       -28.0916
 102   2.0000      -1.026033       -27.9198
 103   2.0000      -1.024150       -27.8685
 104   2.0000      -1.022100       -27.8127
 105   2.0000      -1.020659       -27.7735
 106   2.0000      -1.017310       -27.6824
 107   2.0000      -1.015829       -27.6421
 108   2.0000      -1.014144       -27.5963
 109   2.0000      -1.012395       -27.5487
 110   2.0000      -1.010659       -27.5014
 111   2.0000      -0.999162       -27.1886
 112   2.0000      -0.990494       -26.9527
 113   2.0000      -0.982098       -26.7242
 114   2.0000      -0.945331       -25.7238
 115   2.0000      -0.939984       -25.5783
 116   2.0000      -0.936003       -25.4699
 117   2.0000      -0.934772       -25.4364
 118   2.0000      -0.930101       -25.3093
 119   2.0000      -0.918211       -24.9858
 120   2.0000      -0.916987       -24.9525
 121   2.0000      -0.914949       -24.8970
 122   2.0000      -0.907524       -24.6950
 123   2.0000      -0.906593       -24.6696
 124   2.0000      -0.877498       -23.8779
 125   2.0000      -0.863637       -23.5008
 126   2.0000      -0.858440       -23.3593
 127   2.0000      -0.850738       -23.1498
 128   2.0000      -0.847863       -23.0715
 129   2.0000      -0.828701       -22.5501
 130   2.0000      -0.824320       -22.4309
 131   2.0000      -0.821793       -22.3621
 132   2.0000      -0.812441       -22.1076
 133   2.0000      -0.805769       -21.9261
 134   2.0000      -0.778335       -21.1796
 135   2.0000      -0.768683       -20.9169
 136   2.0000      -0.760385       -20.6911
 137   2.0000      -0.759315       -20.6620
 138   2.0000      -0.756914       -20.5967
 139   2.0000      -0.753546       -20.5050
 140   2.0000      -0.738781       -20.1033
 141   2.0000      -0.729011       -19.8374
 142   2.0000      -0.723004       -19.6739
 143   2.0000      -0.717869       -19.5342
 144   2.0000      -0.716570       -19.4989
 145   2.0000      -0.708898       -19.2901
 146   2.0000      -0.701262       -19.0823
 147   2.0000      -0.694368       -18.8947
 148   2.0000      -0.686612       -18.6837
 149   2.0000      -0.684507       -18.6264
 150   2.0000      -0.673966       -18.3395
 151   2.0000      -0.669521       -18.2186
 152   2.0000      -0.660406       -17.9706
 153   2.0000      -0.653233       -17.7754
 154   2.0000      -0.651137       -17.7183
 155   2.0000      -0.648504       -17.6467
 156   2.0000      -0.632195       -17.2029
 157   2.0000      -0.629673       -17.1343
 158   2.0000      -0.622134       -16.9291
 159   2.0000      -0.620015       -16.8715
 160   2.0000      -0.611000       -16.6261
 161   2.0000      -0.608878       -16.5684
 162   2.0000      -0.605671       -16.4812
 163   2.0000      -0.599626       -16.3167
 164   2.0000      -0.597270       -16.2525
 165   2.0000      -0.586478       -15.9589
 166   2.0000      -0.584411       -15.9026
 167   2.0000      -0.580261       -15.7897
 168   2.0000      -0.577882       -15.7250
 169   2.0000      -0.572895       -15.5893
 170   2.0000      -0.570856       -15.5338
 171   2.0000      -0.565735       -15.3944
 172   2.0000      -0.563539       -15.3347
 173   2.0000      -0.558015       -15.1844
 174   2.0000      -0.554925       -15.1003
 175   2.0000      -0.549071       -14.9410
 176   2.0000      -0.547179       -14.8895
 177   2.0000      -0.541292       -14.7293
 178   2.0000      -0.538716       -14.6592
 179   2.0000      -0.536233       -14.5916
 180   2.0000      -0.534896       -14.5553
 181   2.0000      -0.533813       -14.5258
 182   2.0000      -0.529786       -14.4162
 183   2.0000      -0.527718       -14.3599
 184   2.0000      -0.525884       -14.3100
 185   2.0000      -0.523967       -14.2579
 186   2.0000      -0.521025       -14.1778
 187   2.0000      -0.518647       -14.1131
 188   2.0000      -0.516799       -14.0628
 189   2.0000      -0.515264       -14.0210
 190   2.0000      -0.511021       -13.9056
 191   2.0000      -0.510373       -13.8880
 192   2.0000      -0.504263       -13.7217
 193   2.0000      -0.502146       -13.6641
 194   2.0000      -0.498902       -13.5758
 195   2.0000      -0.495648       -13.4873
 196   2.0000      -0.491586       -13.3767
 197   2.0000      -0.490874       -13.3574
 198   2.0000      -0.478580       -13.0228
 199   2.0000      -0.477446       -12.9920
 200   2.0000      -0.474351       -12.9077
 201   2.0000      -0.472026       -12.8445
 202   2.0000      -0.471503       -12.8302
 203   2.0000      -0.470922       -12.8144
 204   2.0000      -0.469915       -12.7870
 205   2.0000      -0.469713       -12.7815
 206   2.0000      -0.468603       -12.7513
 207   2.0000      -0.466467       -12.6932
 208   2.0000      -0.464468       -12.6388
 209   2.0000      -0.464272       -12.6335
 210   2.0000      -0.463210       -12.6046
 211   2.0000      -0.462505       -12.5854
 212   2.0000      -0.460643       -12.5347
 213   2.0000      -0.459888       -12.5142
 214   2.0000      -0.458819       -12.4851
 215   2.0000      -0.457037       -12.4366
 216   2.0000      -0.455607       -12.3977
 217   2.0000      -0.455550       -12.3961
 218   2.0000      -0.454926       -12.3792
 219   2.0000      -0.454609       -12.3705
 220   2.0000      -0.451127       -12.2758
 221   2.0000      -0.448282       -12.1984
 222   2.0000      -0.445183       -12.1140
 223   2.0000      -0.444519       -12.0960
 224   2.0000      -0.442243       -12.0340
 225   2.0000      -0.439022       -11.9464
 226   2.0000      -0.437910       -11.9161
 227   2.0000      -0.436886       -11.8883
 228   2.0000      -0.436504       -11.8779
 229   2.0000      -0.436218       -11.8701
 230   2.0000      -0.435377       -11.8472
 231   2.0000      -0.431353       -11.7377
 232   2.0000      -0.427386       -11.6298
 233   2.0000      -0.420251       -11.4356
 234   2.0000      -0.411247       -11.1906
 235   2.0000      -0.408655       -11.1201
 236   2.0000      -0.401448       -10.9240
 237   2.0000      -0.394096       -10.7239
 238   2.0000      -0.388063       -10.5597
 239   2.0000      -0.382080       -10.3969
 240   2.0000      -0.375550       -10.2192
 241   2.0000      -0.373535       -10.1644
 242   2.0000      -0.371930       -10.1207
 243   2.0000      -0.369866       -10.0646
 244   2.0000      -0.364885        -9.9290
 245   2.0000      -0.363622        -9.8946
 246   2.0000      -0.360721        -9.8157
 247   2.0000      -0.357533        -9.7290
 248   2.0000      -0.347917        -9.4673
 249   2.0000      -0.336840        -9.1659
 250   2.0000      -0.321910        -8.7596
 251   2.0000      -0.312484        -8.5031
 252   2.0000      -0.298886        -8.1331
 253   2.0000      -0.273200        -7.4341
 254   0.0000      -0.158393        -4.3101
 255   0.0000      -0.120100        -3.2681
 256   0.0000      -0.112763        -3.0684
 257   0.0000      -0.103709        -2.8221
 258   0.0000      -0.094726        -2.5776

MULLIKEN ATOMIC CHARGES
-----------------------
   0 C :    0.044835
   1 C :   -0.041040
   2 C :   -0.059341
   3 C :   -0.173788
   4 N :    0.207261
   5 C :   -0.063264
   6 C :   -0.174448
   7 N :    0.203908
   8 C :   -0.034508
   9 C :   -0.001628
  10 C :    0.169554
  11 O :   -0.154110
  12 C :   -0.086786
  13 C :    0.325972
  14 C :   -0.332472
  15 C :   -0.187953
  16 N :    0.176557
  17 C :   -0.186884
  18 N :    0.162599
  19 C :   -0.014632
  20 C :   -0.005765
  21 C :   -0.029240
  22 C :    0.057419
  23 S :    0.025299
  24 C :   -0.089027
  25 C :   -0.201608
  26 S :    0.229629
  27 C :    0.160445
  28 C :   -0.053646
  29 C :   -0.068266
  30 N :    0.044754
  31 C :   -0.110882
  32 C :   -0.104456
  33 N :    0.008444
  34 C :   -0.222137
  35 N :    0.255579
  36 C :   -0.222758
  37 N :    0.254407
  38 C :    0.200366
  39 C :   -0.002258
  40 C :   -0.007085
  41 N :   -0.295697
  42 S :    0.599964
  43 N :   -0.325172
  44 C :   -0.136140
  45 C :    0.010847
  46 C :    0.040249
  47 S :    0.015266
  48 C :   -0.112242
  49 C :   -0.130001
  50 S :    0.161901
  51 C :    0.042824
  52 C :   -0.144038
  53 C :    0.150413
  54 O :   -0.126683
  55 C :    0.002002
  56 C :   -0.032911
  57 C :   -0.068587
  58 C :   -0.059649
  59 C :   -0.042041
  60 C :    0.042963
  61 C :    0.242391
  62 C :   -0.301523
  63 C :   -0.182083
  64 N :    0.154245
  65 C :   -0.174777
  66 N :    0.157745
  67 C :   -0.175957
  68 N :    0.199748
  69 C :   -0.174443
  70 N :    0.196429
  71 H :    0.022975
  72 H :    0.016752
  73 H :    0.009832
  74 H :    0.004819
  75 H :    0.065812
  76 H :    0.063317
  77 H :    0.072928
  78 H :    0.004316
  79 H :    0.073076
  80 H :    0.072216
  81 H :    0.091792
  82 H :    0.030004
  83 H :    0.019231
  84 H :    0.018839
Sum of atomic charges:   -0.0000000

LOEWDIN ATOMIC CHARGES
----------------------
   0 C :    0.002477
   1 C :    0.035534
   2 C :   -0.021304
   3 C :   -0.032286
   4 N :   -0.005985
   5 C :   -0.026054
   6 C :   -0.033041
   7 N :   -0.008303
   8 C :    0.048998
   9 C :   -0.030240
  10 C :    0.083605
  11 O :   -0.144243
  12 C :   -0.100840
  13 C :    0.068810
  14 C :   -0.118640
  15 C :   -0.022249
  16 N :   -0.028107
  17 C :   -0.020412
  18 N :   -0.033505
  19 C :    0.064447
  20 C :   -0.177615
  21 C :   -0.039238
  22 C :   -0.170735
  23 S :    0.356974
  24 C :   -0.167057
  25 C :   -0.174509
  26 S :    0.554113
  27 C :   -0.028255
  28 C :   -0.003776
  29 C :    0.003222
  30 N :    0.000814
  31 C :   -0.012067
  32 C :   -0.027586
  33 N :   -0.006480
  34 C :   -0.044201
  35 N :    0.002649
  36 C :   -0.037808
  37 N :    0.008685
  38 C :   -0.041882
  39 C :   -0.041234
  40 C :   -0.046982
  41 N :   -0.283791
  42 S :    0.714907
  43 N :   -0.298603
  44 C :   -0.132552
  45 C :   -0.048494
  46 C :   -0.152392
  47 S :    0.318833
  48 C :   -0.148006
  49 C :   -0.211993
  50 S :    0.502874
  51 C :    0.060164
  52 C :   -0.111701
  53 C :    0.081710
  54 O :   -0.131292
  55 C :   -0.029024
  56 C :    0.048511
  57 C :   -0.029830
  58 C :   -0.024113
  59 C :    0.028497
  60 C :    0.005596
  61 C :    0.055186
  62 C :   -0.139637
  63 C :   -0.027073
  64 N :   -0.047749
  65 C :   -0.023239
  66 N :   -0.047482
  67 C :   -0.031862
  68 N :   -0.012165
  69 C :   -0.032518
  70 N :   -0.013751
  71 H :    0.053185
  72 H :    0.054110
  73 H :    0.051878
  74 H :    0.037974
  75 H :    0.035457
  76 H :    0.027338
  77 H :    0.025973
  78 H :    0.034464
  79 H :    0.035458
  80 H :    0.025551
  81 H :    0.037255
  82 H :    0.050652
  83 H :    0.054956
  84 H :    0.051044

  Mayer bond orders larger than 0.100000
B(  0-C ,  1-C ) :   1.3585 B(  0-C ,  9-C ) :   1.3351 B(  0-C , 13-C ) :   0.9558
B(  1-C ,  2-C ) :   1.3907 B(  1-C , 71-H ) :   0.9862 B(  2-C ,  3-C ) :   1.0872
B(  2-C ,  5-C ) :   1.4045 B(  3-C ,  4-N ) :   3.0425 B(  5-C ,  6-C ) :   1.0844
B(  5-C ,  8-C ) :   1.3607 B(  6-C ,  7-N ) :   3.0451 B(  8-C ,  9-C ) :   1.3621
B(  8-C , 72-H ) :   1.0162 B(  9-C , 10-C ) :   0.9392 B( 10-C , 11-O ) :   2.1649
B( 10-C , 12-C ) :   0.9673 B( 12-C , 13-C ) :   1.0766 B( 12-C , 19-C ) :   1.5159
B( 13-C , 14-C ) :   1.6514 B( 14-C , 15-C ) :   1.1467 B( 14-C , 17-C ) :   1.1432
B( 15-C , 16-N ) :   2.9613 B( 17-C , 18-N ) :   2.9564 B( 19-C , 20-C ) :   1.2398
B( 19-C , 73-H ) :   0.9402 B( 20-C , 21-C ) :   1.3505 B( 20-C , 26-S ) :   1.0881
B( 21-C , 22-C ) :   1.3139 B( 21-C , 74-H ) :   1.0049 B( 22-C , 23-S ) :   1.0454
B( 22-C , 25-C ) :   1.3624 B( 23-S , 24-C ) :   0.9740 B( 24-C , 75-H ) :   0.9694
B( 24-C , 76-H ) :   0.9685 B( 24-C , 77-H ) :   0.9657 B( 25-C , 26-S ) :   1.1263
B( 25-C , 27-C ) :   1.2163 B( 27-C , 28-C ) :   1.2457 B( 27-C , 38-C ) :   0.1204
B( 27-C , 40-C ) :   1.2000 B( 28-C , 29-C ) :   1.1040 B( 28-C , 33-N ) :   1.4153
B( 29-C , 30-N ) :   1.4386 B( 29-C , 38-C ) :   1.2756 B( 30-N , 31-C ) :   1.7358
B( 31-C , 32-C ) :   1.2151 B( 31-C , 36-C ) :   1.1513 B( 32-C , 33-N ) :   1.6524
B( 32-C , 34-C ) :   1.1653 B( 34-C , 35-N ) :   3.0377 B( 36-C , 37-N ) :   3.0514
B( 38-C , 39-C ) :   1.1977 B( 38-C , 44-C ) :   1.1546 B( 39-C , 40-C ) :   1.1283
B( 39-C , 43-N ) :   1.4700 B( 40-C , 41-N ) :   1.4802 B( 41-N , 42-S ) :   1.2954
B( 41-N , 43-N ) :   0.1487 B( 42-S , 43-N ) :   1.2780 B( 44-C , 45-C ) :   1.4514
B( 44-C , 50-S ) :   1.1474 B( 45-C , 46-C ) :   1.2688 B( 45-C , 78-H ) :   0.9892
B( 46-C , 47-S ) :   1.0702 B( 46-C , 49-C ) :   1.3874 B( 47-S , 48-C ) :   0.9895
B( 48-C , 79-H ) :   0.9682 B( 48-C , 80-H ) :   0.9713 B( 48-C , 81-H ) :   0.9579
B( 49-C , 50-S ) :   1.0664 B( 49-C , 51-C ) :   1.1941 B( 51-C , 52-C ) :   1.5745
B( 51-C , 82-H ) :   0.9453 B( 52-C , 53-C ) :   0.9608 B( 52-C , 61-C ) :   1.0639
B( 53-C , 54-O ) :   2.2841 B( 53-C , 55-C ) :   0.8938 B( 55-C , 56-C ) :   1.3762
B( 55-C , 60-C ) :   1.3304 B( 56-C , 57-C ) :   1.3623 B( 56-C , 83-H ) :   1.0132
B( 57-C , 58-C ) :   1.4049 B( 57-C , 69-C ) :   1.0888 B( 58-C , 59-C ) :   1.3828
B( 58-C , 67-C ) :   1.0843 B( 59-C , 60-C ) :   1.3684 B( 59-C , 84-H ) :   0.9910
B( 60-C , 61-C ) :   0.9908 B( 61-C , 62-C ) :   1.6415 B( 62-C , 63-C ) :   1.1582
B( 62-C , 65-C ) :   1.1362 B( 63-C , 64-N ) :   2.9612 B( 65-C , 66-N ) :   2.9803
B( 67-C , 68-N ) :   3.0449 B( 69-C , 70-N ) :   3.0436

-----------------------------------------------------------------------------
         ABSORPTION SPECTRUM VIA TRANSITION ELECTRIC DIPOLE MOMENTS
-----------------------------------------------------------------------------
State   Energy  Wavelength   fosc         T2         TX        TY        TZ
        (cm-1)    (nm)                  (au**2)     (au)      (au)      (au)
-----------------------------------------------------------------------------
   0    9599.6   1041.7   0.594475003  20.38702   0.20161  -2.99495   3.37293
   1   15228.0    656.7   0.054544278   1.17919  -0.85549   0.17273   0.64614
   2   17044.2    586.7   0.056460723   1.09055   0.28653   0.86858  -0.50401
   3   18973.4    527.1   0.284477228   4.93603  -1.79512   1.30135   0.14165
   4   19574.7    510.9   0.075443392   1.26883   0.81136   0.13320  -0.76992
   5   19659.4    508.7   0.407505741   6.82399  -1.62604  -0.82492   1.87069
   6   22481.9    444.8   0.096304276   1.41023  -0.97765  -0.14905   0.65743
   7   23112.1    432.7   0.081678854   1.16344   0.25195  -0.63691   0.83326
   8   23420.9    427.0   0.046352468   0.65155  -0.02832   0.67033  -0.44878
   9   23680.1    422.3   0.031310440   0.43529   0.65469   0.05404  -0.06122
  10   24311.5    411.3   0.169701457   2.29800  -1.49385   0.25372  -0.04504
  11   25230.2    396.4   0.054779921   0.71479   0.76317  -0.24986   0.26444
  12   26041.4    384.0   0.021003809   0.26553  -0.00577  -0.29930   0.41942
  13   26251.6    380.9   0.107467783   1.34772  -0.78166  -0.25992   0.81802
  14   26709.4    374.4   0.053896174   0.66431   0.70254  -0.24784   0.33063
  15   27061.0    369.5   0.002562835   0.03118  -0.13579  -0.09245   0.06476
  16   27811.3    359.6   0.031158575   0.36883  -0.37241   0.13611  -0.46002
  17   28355.6    352.7   0.022227471   0.25806   0.45966  -0.19839   0.08613
  18   28697.5    348.5   0.036781156   0.42195   0.55220  -0.21583   0.26541
  19   29062.3    344.1   0.050716720   0.57451   0.46922   0.21244  -0.55607
  20   29288.1    341.4   0.058596246   0.65865   0.14195  -0.62867   0.49323
  21   29508.4    338.9   0.004960223   0.05534  -0.13975   0.12973   0.13777
  22   29663.2    337.1   0.050901142   0.56492  -0.21734   0.51473  -0.50273
  23   29894.0    334.5   0.135385990   1.49096   1.08344  -0.46472  -0.31803
  24   30079.4    332.5   0.063466200   0.69462   0.80626   0.11362   0.17794
  25   30379.0    329.2   0.005913302   0.06408   0.01871  -0.13845   0.21110
  26   30617.0    326.6   0.084292395   0.90636  -0.00967   0.23572  -0.92234
  27   30988.4    322.7   0.179380480   1.90569  -0.90890   0.45346   0.93486
  28   31405.6    318.4   0.017689801   0.18543  -0.26164   0.21954  -0.26226
  29   31652.4    315.9   0.057918838   0.60241  -0.46694   0.59794  -0.16385
  30   31978.4    312.7   0.070316552   0.72390  -0.81920   0.20952   0.09438
  31   32112.4    311.4   0.025346569   0.25985  -0.42369   0.25342   0.12695
  32   32402.0    308.6   0.249137292   2.53129  -1.50576   0.49807   0.12608
  33   33342.7    299.9   0.021953537   0.21676  -0.08502   0.23547  -0.39254
  34   33663.4    297.1   0.090343021   0.88351   0.65937  -0.65329   0.14816
  35   33796.2    295.9   0.003654026   0.03559   0.18034  -0.01969  -0.05179
  36   33855.6    295.4   0.023310204   0.22667   0.40019   0.05928  -0.25100
  37   34231.4    292.1   0.594838894   5.72072  -2.00433   0.26867  -1.27718
  38   34393.0    290.8   0.013297878   0.12729  -0.26231   0.24153  -0.01211
  39   34655.4    288.6   0.059661873   0.56676   0.57484  -0.39172  -0.28787
  40   34812.9    287.2   0.147029687   1.39040   0.85640   0.10746  -0.80339
  41   35150.9    284.5   0.402914171   3.77356  -1.50687   0.96851  -0.75158
  42   35497.6    281.7   0.066673013   0.61834   0.74282  -0.23858  -0.09815
  43   35592.9    281.0   0.168526604   1.55876  -0.56793   1.06238  -0.32796
  44   35761.2    279.6   0.100032040   0.92088   0.21215  -0.26946   0.89625
  45   35963.7    278.1   0.027899742   0.25539  -0.37775  -0.03453  -0.33393
  46   36092.8    277.1   0.097176412   0.88637   0.84927  -0.11490   0.38977
  47   36487.4    274.1   0.023991516   0.21647  -0.42731   0.16786  -0.07547
  48   36611.6    273.1   0.161149178   1.44905  -0.76748  -0.28065   0.88389
  49   36795.2    271.8   0.019274385   0.17245   0.34165  -0.14777   0.18408
  50   36974.8    270.5   0.016906057   0.15053   0.34073  -0.00630  -0.18544
  51   37010.0    270.2   0.025617515   0.22787  -0.30113   0.10077  -0.35642
  52   37277.3    268.3   0.018506944   0.16344  -0.39214   0.03746  -0.09092
  53   37437.0    267.1   0.010858640   0.09549  -0.05458   0.28290  -0.11171
  54   37800.2    264.5   0.058086808   0.50589   0.07752  -0.07398   0.70314
  55   38472.4    259.9   0.085913430   0.73517  -0.77390   0.35678   0.09465
  56   38583.8    259.2   0.000527493   0.00450  -0.05838   0.02436   0.02235
  57   38809.2    257.7   0.012415288   0.10532   0.08019  -0.16816   0.26573
  58   38950.9    256.7   0.023869259   0.20174  -0.43286   0.11990   0.00045
  59   39262.5    254.7   0.007049916   0.05911  -0.03509  -0.02386  -0.23940
  60   39410.7    253.7   0.191139458   1.59666  -1.10141  -0.26838   0.55815
  61   39662.4    252.1   0.258058068   2.14197  -1.35193  -0.02700   0.55994
  62   39876.1    250.8   0.143071327   1.18118   0.73669   0.39624  -0.69387

FINAL SINGLE POINT ENERGY     -4817.250966986439

DIPOLE MOMENT
-------------
                                X             Y             Z
Electronic contribution:     17.62168       6.73864      -2.54435
Nuclear contribution   :    -20.68016      -7.05265       2.90467
                        -----------------------------------------
Total Dipole Moment    :     -3.05848      -0.31402       0.36033
                        -----------------------------------------
Magnitude (a.u.)       :      3.09560
Magnitude (Debye)      :      7.86840

Rotational constants in cm-1:     0.001051     0.000486     0.000345
Rotational constants in MHz :    31.520272    14.583296    10.328156

                             ****ORCA TERMINATED NORMALLY****
TOTAL RUN TIME: 0 days 0 hours 8 minutes 39 seconds 471 msec
