                         Program Version 4.2.0 -  RELEASE  -
|  1> # ORCA input file
|  2> # SCF done       -176.545644279245          0.000924968765
|  3> ! CAM-B3LYP def2-SVP def2/J RIJCOSX Grid4 TightSCF
|  4> %maxcore 5000
|  5> %tddft
|  6>     Mode sTDDFT
|  7>     Ethresh 5.0
|  8>     maxcore 5000
|  9> end
| 10>
| 11> %pal
| 12>   nprocs 6
| 13>   end
| 14> * xyz 0 1
| 15>    C      -10.66204        -6.94197         7.54918
| 16>    C      -11.53184        -7.25339         8.58126
| 17>    C      -11.80082        -6.27629         9.54182
| 18>    C      -12.68895        -6.57242        10.60574
| 19>    N      -13.41228        -6.81238        11.46002
| 20>    C      -11.20571        -5.00172         9.47596
| 21>    C      -11.49217        -4.03202        10.46671
| 22>    N      -11.70533        -3.23155        11.25730
| 23>    C      -10.33431        -4.69110         8.43139
| 24>    C      -10.08138        -5.66273         7.48648
| 25>    C       -9.20997        -5.56390         6.29461
| 26>    O       -8.54850        -4.58905         6.00048
| 27>    C       -9.35080        -6.85601         5.59029
| 28>    C      -10.16608        -7.73004         6.42151
| 29>    C      -10.36763        -9.07396         6.25883
| 30>    C      -11.16743        -9.85982         7.11802
| 31>    N      -11.80825       -10.54555         7.77761
| 32>    C       -9.76889        -9.88515         5.26819
| 33>    N       -9.29572       -10.62327         4.52781
| 34>    C       -8.93148        -7.19831         4.32911
| 35>    C       -8.12003        -6.51759         3.40223
| 36>    C       -7.36866        -5.35716         3.51612
| 37>    C       -6.67277        -5.03436         2.35778
| 38>    S       -5.64051        -3.64606         2.13846
| 39>    C       -5.79356        -2.80008         3.73740
| 40>    C       -6.87920        -5.96385         1.32171
| 41>    S       -7.94837        -7.23709         1.81121
| 42>    C       -6.34155        -5.97733         0.03037
| 43>    C       -6.62751        -6.95941        -0.93339
| 44>    C       -5.93768        -6.74302        -2.16539
| 45>    N       -6.05284        -7.59147        -3.18453
| 46>    C       -6.84205        -8.62974        -3.01194
| 47>    C       -6.94990        -9.58796        -4.14291
| 48>    O       -6.40993        -9.38955        -5.21203
| 49>    C       -7.76111       -10.78293        -3.86966
| 50>    C       -8.44237       -10.96525        -2.73312
| 51>    C       -8.46464        -9.99538        -1.62167
| 52>    O       -9.16882       -10.13662        -0.64699
| 53>    C       -7.55856        -8.82862        -1.79096
| 54>    N       -7.43961        -8.00140        -0.77118
| 55>    C       -5.12066        -5.60542        -2.15685
| 56>    S       -5.22373        -4.81084        -0.61709
| 57>    C       -4.29010        -5.26405        -3.23802
| 58>    C       -3.27694        -4.32615        -3.33288
| 59>    C       -2.59481        -4.38599        -4.55032
| 60>    S       -1.23468        -3.41342        -5.02991
| 61>    C       -1.01730        -2.31391        -3.60190
| 62>    C       -3.07872        -5.39575        -5.39542
| 63>    S       -4.44104        -6.21298        -4.68071
| 64>    C       -2.61963        -5.73843        -6.68001
| 65>    C       -2.89730        -6.89846        -7.34785
| 66>    C       -2.83645        -6.95572        -8.82977
| 67>    O       -2.29928        -6.17281        -9.57626
| 68>    C       -3.64941        -8.14497        -9.19398
| 69>    C       -4.05187        -8.57179       -10.44176
| 70>    C       -4.88373        -9.69155       -10.51751
| 71>    C       -5.30400       -10.34761        -9.34352
| 72>    C       -4.87572        -9.92078        -8.08540
| 73>    C       -4.03742        -8.82331        -8.02166
| 74>    C       -3.42080        -8.16412        -6.87457
| 75>    C       -3.14169        -8.77491        -5.68180
| 76>    C       -2.31611        -8.19648        -4.69403
| 77>    N       -1.61808        -7.77263        -3.88711
| 78>    C       -3.58747       -10.06322        -5.32478
| 79>    N       -3.92076       -11.10172        -4.96781
| 80>    C       -6.18488       -11.45298        -9.43677
| 81>    N       -6.90068       -12.34479        -9.49539
| 82>    C       -5.31939       -10.15987       -11.78008
| 83>    N       -5.66052       -10.52507       -12.81060
| 84>    H      -12.00939        -8.21631         8.66538
| 85>    H       -9.87111        -3.71839         8.36369
| 86>    H       -9.29251        -8.14744         3.94999
| 87>    H       -7.34812        -4.78242         4.42145
| 88>    H       -5.20423        -1.89300         3.64521
| 89>    H       -5.38957        -3.42672         4.52630
| 90>    H       -6.83315        -2.55222         3.92655
| 91>    H       -7.78450       -11.51568        -4.66476
| 92>    H       -9.04181       -11.85149        -2.57493
| 93>    H       -3.04980        -3.65613        -2.52435
| 94>    H       -0.18508        -1.66471        -3.85546
| 95>    H       -0.77221        -2.90071        -2.72203
| 96>    H       -1.91426        -1.72173        -3.44889
| 97>    H       -2.06430        -4.98159        -7.22495
| 98>    H       -3.73952        -8.05286       -11.33530
| 99>    H       -5.22674       -10.41779        -7.19525
|100> *
|101>
|102>                          ****END OF INPUT****

CARTESIAN COORDINATES (ANGSTROEM)
---------------------------------
  C    -10.662040   -6.941970    7.549180
  C    -11.531840   -7.253390    8.581260
  C    -11.800820   -6.276290    9.541820
  C    -12.688950   -6.572420   10.605740
  N    -13.412280   -6.812380   11.460020
  C    -11.205710   -5.001720    9.475960
  C    -11.492170   -4.032020   10.466710
  N    -11.705330   -3.231550   11.257300
  C    -10.334310   -4.691100    8.431390
  C    -10.081380   -5.662730    7.486480
  C     -9.209970   -5.563900    6.294610
  O     -8.548500   -4.589050    6.000480
  C     -9.350800   -6.856010    5.590290
  C    -10.166080   -7.730040    6.421510
  C    -10.367630   -9.073960    6.258830
  C    -11.167430   -9.859820    7.118020
  N    -11.808250  -10.545550    7.777610
  C     -9.768890   -9.885150    5.268190
  N     -9.295720  -10.623270    4.527810
  C     -8.931480   -7.198310    4.329110
  C     -8.120030   -6.517590    3.402230
  C     -7.368660   -5.357160    3.516120
  C     -6.672770   -5.034360    2.357780
  S     -5.640510   -3.646060    2.138460
  C     -5.793560   -2.800080    3.737400
  C     -6.879200   -5.963850    1.321710
  S     -7.948370   -7.237090    1.811210
  C     -6.341550   -5.977330    0.030370
  C     -6.627510   -6.959410   -0.933390
  C     -5.937680   -6.743020   -2.165390
  N     -6.052840   -7.591470   -3.184530
  C     -6.842050   -8.629740   -3.011940
  C     -6.949900   -9.587960   -4.142910
  O     -6.409930   -9.389550   -5.212030
  C     -7.761110  -10.782930   -3.869660
  C     -8.442370  -10.965250   -2.733120
  C     -8.464640   -9.995380   -1.621670
  O     -9.168820  -10.136620   -0.646990
  C     -7.558560   -8.828620   -1.790960
  N     -7.439610   -8.001400   -0.771180
  C     -5.120660   -5.605420   -2.156850
  S     -5.223730   -4.810840   -0.617090
  C     -4.290100   -5.264050   -3.238020
  C     -3.276940   -4.326150   -3.332880
  C     -2.594810   -4.385990   -4.550320
  S     -1.234680   -3.413420   -5.029910
  C     -1.017300   -2.313910   -3.601900
  C     -3.078720   -5.395750   -5.395420
  S     -4.441040   -6.212980   -4.680710
  C     -2.619630   -5.738430   -6.680010
  C     -2.897300   -6.898460   -7.347850
  C     -2.836450   -6.955720   -8.829770
  O     -2.299280   -6.172810   -9.576260
  C     -3.649410   -8.144970   -9.193980
  C     -4.051870   -8.571790  -10.441760
  C     -4.883730   -9.691550  -10.517510
  C     -5.304000  -10.347610   -9.343520
  C     -4.875720   -9.920780   -8.085400
  C     -4.037420   -8.823310   -8.021660
  C     -3.420800   -8.164120   -6.874570
  C     -3.141690   -8.774910   -5.681800
  C     -2.316110   -8.196480   -4.694030
  N     -1.618080   -7.772630   -3.887110
  C     -3.587470  -10.063220   -5.324780
  N     -3.920760  -11.101720   -4.967810
  C     -6.184880  -11.452980   -9.436770
  N     -6.900680  -12.344790   -9.495390
  C     -5.319390  -10.159870  -11.780080
  N     -5.660520  -10.525070  -12.810600
  H    -12.009390   -8.216310    8.665380
  H     -9.871110   -3.718390    8.363690
  H     -9.292510   -8.147440    3.949990
  H     -7.348120   -4.782420    4.421450
  H     -5.204230   -1.893000    3.645210
  H     -5.389570   -3.426720    4.526300
  H     -6.833150   -2.552220    3.926550
  H     -7.784500  -11.515680   -4.664760
  H     -9.041810  -11.851490   -2.574930
  H     -3.049800   -3.656130   -2.524350
  H     -0.185080   -1.664710   -3.855460
  H     -0.772210   -2.900710   -2.722030
  H     -1.914260   -1.721730   -3.448890
  H     -2.064300   -4.981590   -7.224950
  H     -3.739520   -8.052860  -11.335300
  H     -5.226740  -10.417790   -7.195250

 Total Charge           Charge          ....    0
 Multiplicity           Mult            ....    1
 Number of Electrons    NEL             ....  498
 Basis Dimension        Dim             .... 1066

ORBITAL ENERGIES
----------------

  NO   OCC          E(Eh)            E(eV)
   0   2.0000     -89.024768     -2422.4871
   1   2.0000     -88.989395     -2421.5246
   2   2.0000     -88.977243     -2421.1939
   3   2.0000     -88.967795     -2420.9368
   4   2.0000     -88.956121     -2420.6191
   5   2.0000     -19.250426      -523.8307
   6   2.0000     -19.249590      -523.8080
   7   2.0000     -19.243229      -523.6349
   8   2.0000     -19.226798      -523.1878
   9   2.0000     -14.473948      -393.8561
  10   2.0000     -14.472628      -393.8202
  11   2.0000     -14.436235      -392.8299
  12   2.0000     -14.435574      -392.8119
  13   2.0000     -14.433736      -392.7619
  14   2.0000     -14.431926      -392.7127
  15   2.0000     -14.422361      -392.4524
  16   2.0000     -14.422286      -392.4503
  17   2.0000     -14.422059      -392.4442
  18   2.0000     -14.421492      -392.4287
  19   2.0000     -10.400704      -283.0175
  20   2.0000     -10.397696      -282.9357
  21   2.0000     -10.392469      -282.7935
  22   2.0000     -10.379378      -282.4372
  23   2.0000     -10.369475      -282.1678
  24   2.0000     -10.366147      -282.0772
  25   2.0000     -10.365674      -282.0643
  26   2.0000     -10.365385      -282.0565
  27   2.0000     -10.364829      -282.0413
  28   2.0000     -10.364178      -282.0236
  29   2.0000     -10.360187      -281.9150
  30   2.0000     -10.357543      -281.8431
  31   2.0000     -10.355923      -281.7990
  32   2.0000     -10.353923      -281.7446
  33   2.0000     -10.353419      -281.7309
  34   2.0000     -10.352403      -281.7032
  35   2.0000     -10.351748      -281.6854
  36   2.0000     -10.351098      -281.6677
  37   2.0000     -10.349659      -281.6285
  38   2.0000     -10.347370      -281.5662
  39   2.0000     -10.347236      -281.5626
  40   2.0000     -10.345391      -281.5124
  41   2.0000     -10.341907      -281.4176
  42   2.0000     -10.339944      -281.3642
  43   2.0000     -10.338797      -281.3330
  44   2.0000     -10.338431      -281.3230
  45   2.0000     -10.337265      -281.2913
  46   2.0000     -10.336989      -281.2838
  47   2.0000     -10.336328      -281.2658
  48   2.0000     -10.330796      -281.1153
  49   2.0000     -10.330285      -281.1013
  50   2.0000     -10.329824      -281.0888
  51   2.0000     -10.329291      -281.0743
  52   2.0000     -10.328073      -281.0411
  53   2.0000     -10.326089      -280.9872
  54   2.0000     -10.325273      -280.9650
  55   2.0000     -10.325216      -280.9634
  56   2.0000     -10.325179      -280.9624
  57   2.0000     -10.323546      -280.9180
  58   2.0000     -10.323313      -280.9116
  59   2.0000     -10.322966      -280.9022
  60   2.0000     -10.322245      -280.8826
  61   2.0000     -10.319927      -280.8195
  62   2.0000     -10.319613      -280.8109
  63   2.0000     -10.319335      -280.8034
  64   2.0000     -10.319048      -280.7956
  65   2.0000     -10.316877      -280.7365
  66   2.0000     -10.310611      -280.5660
  67   2.0000     -10.309842      -280.5451
  68   2.0000     -10.304890      -280.4103
  69   2.0000      -8.118060      -220.9036
  70   2.0000      -8.083643      -219.9671
  71   2.0000      -8.071156      -219.6273
  72   2.0000      -8.063170      -219.4100
  73   2.0000      -8.051784      -219.1002
  74   2.0000      -6.087196      -165.6410
  75   2.0000      -6.082889      -165.5238
  76   2.0000      -6.080887      -165.4693
  77   2.0000      -6.053068      -164.7124
  78   2.0000      -6.048734      -164.5944
  79   2.0000      -6.045559      -164.5080
  80   2.0000      -6.040730      -164.3766
  81   2.0000      -6.036256      -164.2549
  82   2.0000      -6.033540      -164.1810
  83   2.0000      -6.032839      -164.1619
  84   2.0000      -6.029157      -164.0617
  85   2.0000      -6.023280      -163.9018
  86   2.0000      -6.022142      -163.8708
  87   2.0000      -6.017808      -163.7529
  88   2.0000      -6.011744      -163.5879
  89   2.0000      -1.165099       -31.7039
  90   2.0000      -1.164040       -31.6751
  91   2.0000      -1.158080       -31.5130
  92   2.0000      -1.142423       -31.0869
  93   2.0000      -1.126004       -30.6401
  94   2.0000      -1.055302       -28.7162
  95   2.0000      -1.048796       -28.5392
  96   2.0000      -1.040221       -28.3059
  97   2.0000      -1.035102       -28.1666
  98   2.0000      -1.033232       -28.1157
  99   2.0000      -1.023847       -27.8603
 100   2.0000      -1.019020       -27.7289
 101   2.0000      -1.016583       -27.6626
 102   2.0000      -1.013930       -27.5904
 103   2.0000      -1.011953       -27.5366
 104   2.0000      -1.008885       -27.4532
 105   2.0000      -1.003596       -27.3092
 106   2.0000      -1.001779       -27.2598
 107   2.0000      -0.999383       -27.1946
 108   2.0000      -0.984955       -26.8020
 109   2.0000      -0.971192       -26.4275
 110   2.0000      -0.957215       -26.0472
 111   2.0000      -0.944312       -25.6960
 112   2.0000      -0.935549       -25.4576
 113   2.0000      -0.932045       -25.3622
 114   2.0000      -0.922236       -25.0953
 115   2.0000      -0.917079       -24.9550
 116   2.0000      -0.915757       -24.9190
 117   2.0000      -0.909623       -24.7521
 118   2.0000      -0.896861       -24.4048
 119   2.0000      -0.895445       -24.3663
 120   2.0000      -0.893879       -24.3237
 121   2.0000      -0.866697       -23.5840
 122   2.0000      -0.858641       -23.3648
 123   2.0000      -0.852443       -23.1961
 124   2.0000      -0.841385       -22.8952
 125   2.0000      -0.825743       -22.4696
 126   2.0000      -0.816851       -22.2277
 127   2.0000      -0.815417       -22.1886
 128   2.0000      -0.812500       -22.1093
 129   2.0000      -0.801363       -21.8062
 130   2.0000      -0.797657       -21.7054
 131   2.0000      -0.774684       -21.0802
 132   2.0000      -0.767591       -20.8872
 133   2.0000      -0.765558       -20.8319
 134   2.0000      -0.754219       -20.5233
 135   2.0000      -0.748165       -20.3586
 136   2.0000      -0.741831       -20.1862
 137   2.0000      -0.726204       -19.7610
 138   2.0000      -0.716965       -19.5096
 139   2.0000      -0.709401       -19.3038
 140   2.0000      -0.704004       -19.1569
 141   2.0000      -0.696951       -18.9650
 142   2.0000      -0.693535       -18.8720
 143   2.0000      -0.688277       -18.7290
 144   2.0000      -0.683698       -18.6044
 145   2.0000      -0.677573       -18.4377
 146   2.0000      -0.670060       -18.2333
 147   2.0000      -0.662195       -18.0192
 148   2.0000      -0.652470       -17.7546
 149   2.0000      -0.647954       -17.6317
 150   2.0000      -0.645752       -17.5718
 151   2.0000      -0.639655       -17.4059
 152   2.0000      -0.628049       -17.0901
 153   2.0000      -0.621024       -16.8989
 154   2.0000      -0.616839       -16.7851
 155   2.0000      -0.611891       -16.6504
 156   2.0000      -0.603636       -16.4258
 157   2.0000      -0.598792       -16.2940
 158   2.0000      -0.596689       -16.2367
 159   2.0000      -0.591819       -16.1042
 160   2.0000      -0.588260       -16.0074
 161   2.0000      -0.584610       -15.9080
 162   2.0000      -0.578479       -15.7412
 163   2.0000      -0.574179       -15.6242
 164   2.0000      -0.573345       -15.6015
 165   2.0000      -0.569600       -15.4996
 166   2.0000      -0.564062       -15.3489
 167   2.0000      -0.558908       -15.2087
 168   2.0000      -0.556575       -15.1452
 169   2.0000      -0.554307       -15.0834
 170   2.0000      -0.550978       -14.9929
 171   2.0000      -0.549807       -14.9610
 172   2.0000      -0.545712       -14.8496
 173   2.0000      -0.543555       -14.7909
 174   2.0000      -0.542738       -14.7687
 175   2.0000      -0.540256       -14.7011
 176   2.0000      -0.537087       -14.6149
 177   2.0000      -0.532984       -14.5032
 178   2.0000      -0.530933       -14.4474
 179   2.0000      -0.529546       -14.4097
 180   2.0000      -0.528469       -14.3804
 181   2.0000      -0.524671       -14.2770
 182   2.0000      -0.523634       -14.2488
 183   2.0000      -0.521330       -14.1861
 184   2.0000      -0.519560       -14.1380
 185   2.0000      -0.518429       -14.1072
 186   2.0000      -0.515949       -14.0397
 187   2.0000      -0.514126       -13.9901
 188   2.0000      -0.512176       -13.9370
 189   2.0000      -0.511044       -13.9062
 190   2.0000      -0.507504       -13.8099
 191   2.0000      -0.502964       -13.6863
 192   2.0000      -0.498079       -13.5534
 193   2.0000      -0.495814       -13.4918
 194   2.0000      -0.493167       -13.4198
 195   2.0000      -0.482359       -13.1256
 196   2.0000      -0.478188       -13.0121
 197   2.0000      -0.477048       -12.9811
 198   2.0000      -0.470758       -12.8100
 199   2.0000      -0.466564       -12.6958
 200   2.0000      -0.466133       -12.6841
 201   2.0000      -0.464067       -12.6279
 202   2.0000      -0.462577       -12.5874
 203   2.0000      -0.461605       -12.5609
 204   2.0000      -0.458958       -12.4889
 205   2.0000      -0.458781       -12.4841
 206   2.0000      -0.456589       -12.4244
 207   2.0000      -0.455985       -12.4080
 208   2.0000      -0.454244       -12.3606
 209   2.0000      -0.451360       -12.2821
 210   2.0000      -0.450209       -12.2508
 211   2.0000      -0.448750       -12.2111
 212   2.0000      -0.448178       -12.1955
 213   2.0000      -0.447256       -12.1705
 214   2.0000      -0.445575       -12.1247
 215   2.0000      -0.444030       -12.0827
 216   2.0000      -0.439747       -11.9661
 217   2.0000      -0.438645       -11.9361
 218   2.0000      -0.436007       -11.8644
 219   2.0000      -0.432567       -11.7707
 220   2.0000      -0.432015       -11.7557
 221   2.0000      -0.428465       -11.6591
 222   2.0000      -0.427675       -11.6376
 223   2.0000      -0.423724       -11.5301
 224   2.0000      -0.422619       -11.5000
 225   2.0000      -0.421211       -11.4617
 226   2.0000      -0.418397       -11.3852
 227   2.0000      -0.411880       -11.2078
 228   2.0000      -0.408672       -11.1205
 229   2.0000      -0.404174       -10.9981
 230   2.0000      -0.395690       -10.7673
 231   2.0000      -0.387413       -10.5421
 232   2.0000      -0.384977       -10.4758
 233   2.0000      -0.382815       -10.4169
 234   2.0000      -0.376773       -10.2525
 235   2.0000      -0.374654       -10.1949
 236   2.0000      -0.370484       -10.0814
 237   2.0000      -0.369169       -10.0456
 238   2.0000      -0.366127        -9.9628
 239   2.0000      -0.360522        -9.8103
 240   2.0000      -0.355801        -9.6818
 241   2.0000      -0.351725        -9.5709
 242   2.0000      -0.349464        -9.5094
 243   2.0000      -0.340476        -9.2648
 244   2.0000      -0.329224        -8.9586
 245   2.0000      -0.320745        -8.7279
 246   2.0000      -0.311152        -8.4669
 247   2.0000      -0.293683        -7.9915
 248   2.0000      -0.259915        -7.0727
 249   0.0000      -0.140230        -3.8159
 250   0.0000      -0.114062        -3.1038
 251   0.0000      -0.106803        -2.9063
 252   0.0000      -0.094616        -2.5746
 253   0.0000      -0.092624        -2.5204

MULLIKEN ATOMIC CHARGES
-----------------------
   0 C :    0.046790
   1 C :   -0.035987
   2 C :   -0.060776
   3 C :   -0.172663
   4 N :    0.203254
   5 C :   -0.065161
   6 C :   -0.173972
   7 N :    0.196217
   8 C :   -0.033716
   9 C :    0.001942
  10 C :    0.166888
  11 O :   -0.154038
  12 C :   -0.091575
  13 C :    0.295715
  14 C :   -0.329930
  15 C :   -0.184661
  16 N :    0.170067
  17 C :   -0.204328
  18 N :    0.181273
  19 C :    0.055801
  20 C :   -0.076029
  21 C :   -0.031780
  22 C :    0.001884
  23 S :   -0.034509
  24 C :   -0.064320
  25 C :   -0.103063
  26 S :    0.221471
  27 C :   -0.150398
  28 C :    0.042926
  29 C :    0.028614
  30 N :    0.031327
  31 C :   -0.098790
  32 C :    0.174780
  33 O :   -0.125028
  34 C :   -0.009825
  35 C :   -0.013628
  36 C :    0.138804
  37 O :   -0.094042
  38 C :   -0.112806
  39 N :    0.044123
  40 C :   -0.080388
  41 S :    0.236835
  42 C :   -0.028519
  43 C :   -0.074215
  44 C :    0.085839
  45 S :    0.010658
  46 C :   -0.087642
  47 C :   -0.156568
  48 S :    0.180050
  49 C :    0.062830
  50 C :   -0.147818
  51 C :    0.144441
  52 O :   -0.129526
  53 C :    0.007651
  54 C :   -0.036515
  55 C :   -0.073395
  56 C :   -0.059793
  57 C :   -0.017482
  58 C :    0.022539
  59 C :    0.244343
  60 C :   -0.298878
  61 C :   -0.207354
  62 N :    0.172787
  63 C :   -0.174788
  64 N :    0.162849
  65 C :   -0.175410
  66 N :    0.190302
  67 C :   -0.174842
  68 N :    0.191924
  69 H :    0.022001
  70 H :    0.012784
  71 H :    0.023089
  72 H :    0.007651
  73 H :    0.070978
  74 H :    0.081888
  75 H :    0.085049
  76 H :    0.031353
  77 H :    0.029209
  78 H :   -0.018422
  79 H :    0.074683
  80 H :    0.076891
  81 H :    0.069752
  82 H :    0.032260
  83 H :    0.014179
  84 H :    0.015886
Sum of atomic charges:   -0.0000000

LOEWDIN ATOMIC CHARGES
----------------------
   0 C :    0.003569
   1 C :    0.034557
   2 C :   -0.022657
   3 C :   -0.031773
   4 N :   -0.009127
   5 C :   -0.028924
   6 C :   -0.032110
   7 N :   -0.013460
   8 C :    0.047539
   9 C :   -0.029961
  10 C :    0.089979
  11 O :   -0.139278
  12 C :   -0.100565
  13 C :    0.066627
  14 C :   -0.120728
  15 C :   -0.021375
  16 N :   -0.033061
  17 C :   -0.028689
  18 N :   -0.027081
  19 C :    0.056795
  20 C :   -0.176764
  21 C :   -0.036341
  22 C :   -0.189555
  23 S :    0.302477
  24 C :   -0.141624
  25 C :   -0.186366
  26 S :    0.515839
  27 C :   -0.190554
  28 C :   -0.043979
  29 C :   -0.042938
  30 N :   -0.010780
  31 C :   -0.026879
  32 C :    0.072085
  33 O :   -0.103461
  34 C :   -0.006531
  35 C :   -0.003150
  36 C :    0.056439
  37 O :   -0.089101
  38 C :   -0.031077
  39 N :   -0.005724
  40 C :   -0.199948
  41 S :    0.533568
  42 C :   -0.148056
  43 C :   -0.083629
  44 C :   -0.147501
  45 S :    0.330005
  46 C :   -0.149460
  47 C :   -0.218804
  48 S :    0.532010
  49 C :    0.052139
  50 C :   -0.106263
  51 C :    0.081498
  52 O :   -0.133182
  53 C :   -0.030707
  54 C :    0.045191
  55 C :   -0.033097
  56 C :   -0.027100
  57 C :    0.038404
  58 C :    0.009339
  59 C :    0.053058
  60 C :   -0.130608
  61 C :   -0.034192
  62 N :   -0.047548
  63 C :   -0.018903
  64 N :   -0.054807
  65 C :   -0.028598
  66 N :   -0.021530
  67 C :   -0.031906
  68 N :   -0.020418
  69 H :    0.052857
  70 H :    0.052599
  71 H :    0.047317
  72 H :    0.029175
  73 H :    0.038864
  74 H :    0.034296
  75 H :    0.036249
  76 H :    0.052184
  77 H :    0.050708
  78 H :    0.027140
  79 H :    0.039768
  80 H :    0.031097
  81 H :    0.028268
  82 H :    0.047180
  83 H :    0.052926
  84 H :    0.048121

  Mayer bond orders larger than 0.100000
B(  0-C ,  1-C ) :   1.3587 B(  0-C ,  9-C ) :   1.3363 B(  0-C , 13-C ) :   0.9541
B(  1-C ,  2-C ) :   1.3915 B(  1-C , 69-H ) :   0.9858 B(  2-C ,  3-C ) :   1.0858
B(  2-C ,  5-C ) :   1.4031 B(  3-C ,  4-N ) :   3.0428 B(  5-C ,  6-C ) :   1.0850
B(  5-C ,  8-C ) :   1.3626 B(  6-C ,  7-N ) :   3.0443 B(  8-C ,  9-C ) :   1.3640
B(  8-C , 70-H ) :   1.0143 B(  9-C , 10-C ) :   0.9407 B( 10-C , 11-O ) :   2.1544
B( 10-C , 12-C ) :   0.9547 B( 11-O , 72-H ) :   0.1008 B( 12-C , 13-C ) :   1.0822
B( 12-C , 19-C ) :   1.5493 B( 13-C , 14-C ) :   1.6528 B( 14-C , 15-C ) :   1.1465
B( 14-C , 17-C ) :   1.1344 B( 15-C , 16-N ) :   2.9645 B( 17-C , 18-N ) :   2.9949
B( 19-C , 20-C ) :   1.2418 B( 19-C , 71-H ) :   0.9219 B( 20-C , 21-C ) :   1.4025
B( 20-C , 26-S ) :   1.0683 B( 21-C , 22-C ) :   1.3030 B( 21-C , 72-H ) :   0.9703
B( 22-C , 23-S ) :   1.0281 B( 22-C , 25-C ) :   1.3826 B( 23-S , 24-C ) :   1.0114
B( 24-C , 73-H ) :   0.9680 B( 24-C , 74-H ) :   0.9653 B( 24-C , 75-H ) :   0.9644
B( 25-C , 26-S ) :   1.1758 B( 25-C , 27-C ) :   1.2679 B( 27-C , 28-C ) :   1.2844
B( 27-C , 40-C ) :   0.1137 B( 27-C , 41-S ) :   1.1711 B( 28-C , 29-C ) :   1.2199
B( 28-C , 39-N ) :   1.4342 B( 29-C , 30-N ) :   1.4041 B( 29-C , 40-C ) :   1.2995
B( 30-N , 31-C ) :   1.6992 B( 31-C , 32-C ) :   0.9060 B( 31-C , 38-C ) :   1.1229
B( 32-C , 33-O ) :   2.1526 B( 32-C , 34-C ) :   1.0347 B( 34-C , 35-C ) :   1.6762
B( 34-C , 76-H ) :   0.9993 B( 35-C , 36-C ) :   1.0191 B( 35-C , 77-H ) :   0.9964
B( 36-C , 37-O ) :   2.2548 B( 36-C , 38-C ) :   0.8920 B( 38-C , 39-N ) :   1.6849
B( 40-C , 41-S ) :   1.1420 B( 40-C , 42-C ) :   1.2151 B( 42-C , 43-C ) :   1.4112
B( 42-C , 48-S ) :   1.1658 B( 43-C , 44-C ) :   1.2980 B( 43-C , 78-H ) :   0.9964
B( 44-C , 45-S ) :   1.0616 B( 44-C , 47-C ) :   1.4076 B( 45-S , 46-C ) :   1.0184
B( 46-C , 79-H ) :   0.9702 B( 46-C , 80-H ) :   0.9653 B( 46-C , 81-H ) :   0.9664
B( 47-C , 48-S ) :   1.0698 B( 47-C , 49-C ) :   1.1973 B( 49-C , 50-C ) :   1.5988
B( 49-C , 82-H ) :   0.9446 B( 50-C , 51-C ) :   0.9585 B( 50-C , 59-C ) :   1.0483
B( 51-C , 52-O ) :   2.2846 B( 51-C , 53-C ) :   0.8943 B( 53-C , 54-C ) :   1.3691
B( 53-C , 58-C ) :   1.3340 B( 54-C , 55-C ) :   1.3679 B( 54-C , 83-H ) :   1.0144
B( 55-C , 56-C ) :   1.3993 B( 55-C , 67-C ) :   1.0891 B( 56-C , 57-C ) :   1.3780
B( 56-C , 65-C ) :   1.0872 B( 57-C , 58-C ) :   1.3778 B( 57-C , 84-H ) :   0.9844
B( 58-C , 59-C ) :   0.9803 B( 59-C , 60-C ) :   1.6667 B( 60-C , 61-C ) :   1.1510
B( 60-C , 63-C ) :   1.1519 B( 61-C , 62-N ) :   3.0206 B( 63-C , 64-N ) :   2.9722
B( 65-C , 66-N ) :   3.0456 B( 67-C , 68-N ) :   3.0457

-----------------------------------------------------------------------------
         ABSORPTION SPECTRUM VIA TRANSITION ELECTRIC DIPOLE MOMENTS
-----------------------------------------------------------------------------
State   Energy  Wavelength   fosc         T2         TX        TY        TZ
        (cm-1)    (nm)                  (au**2)     (au)      (au)      (au)
-----------------------------------------------------------------------------
   0   10712.6    933.5   0.838084467  25.75534   2.11757  -0.42994  -4.59199
   1   16195.4    617.5   0.121698386   2.47383  -0.35612  -0.19679   1.51930
   2   18260.9    547.6   0.106029181   1.91152   0.70315   0.34895  -1.13813
   3   19149.8    522.2   0.171643737   2.95080   0.53723  -0.89808  -1.36222
   4   20272.2    493.3   0.159818731   2.59539   0.67865   1.36197  -0.52903
   5   20865.8    479.3   0.030032969   0.47385   0.56907   0.27654   0.27117
   6   21835.7    458.0   0.187220257   2.82268  -0.60037   0.25106   1.54894
   7   22611.7    442.2   0.237803123   3.46225   1.05216   1.18179  -0.97907
   8   23239.6    430.3   0.101299709   1.43501  -0.28132  -0.81281  -0.83379
   9   23912.2    418.2   0.012718351   0.17510  -0.08536  -0.07132   0.40340
  10   24903.0    401.6   0.031277252   0.41348  -0.17523  -0.45661  -0.41747
  11   25277.8    395.6   0.002371603   0.03089  -0.11280  -0.08992   0.10039
  12   26090.9    383.3   0.023354362   0.29468   0.32215   0.42773   0.08916
  13   26752.5    373.8   0.003868725   0.04761  -0.15873  -0.13797  -0.05812
  14   27378.8    365.2   0.062513334   0.75168   0.66467   0.55525   0.03983
  15   27944.4    357.9   0.009661369   0.11382   0.22225   0.24877   0.05039
  16   28163.8    355.1   0.024640381   0.28803   0.20872   0.47006   0.15331
  17   28826.9    346.9   0.052326863   0.59759   0.32617   0.59410  -0.37181
  18   29022.1    344.6   0.039578328   0.44896   0.09510   0.61097   0.25812
  19   29176.5    342.7   0.022225868   0.25078   0.13342   0.24421   0.41635
  20   29536.6    338.6   0.094407149   1.05225   0.04374   0.66322  -0.78134
  21   29801.7    335.6   0.033078638   0.36541   0.13950   0.37611  -0.45221
  22   30190.1    331.2   0.008235030   0.08980   0.13793   0.21581  -0.15556
  23   30613.8    326.7   0.017983027   0.19338  -0.00373   0.08414  -0.43161
  24   30648.6    326.3   0.035044920   0.37643  -0.05063  -0.48142   0.37697
  25   31104.7    321.5   0.099995825   1.05835   0.14606  -0.41425  -0.93028
  26   31449.1    318.0   0.140580306   1.47161  -0.29816  -0.98440  -0.64318
  27   31623.0    316.2   0.081725282   0.85080  -0.60501  -0.14443   0.68110
  28   32132.5    311.2   0.038223884   0.39162  -0.25213   0.24186   0.51919
  29   32440.7    308.3   0.008737794   0.08867   0.00952   0.29098   0.06254
  30   32554.5    307.2   0.098735360   0.99848  -0.11293   0.30612   0.94446
  31   32781.2    305.1   0.118872788   1.19380  -0.55712  -0.90400  -0.25731
  32   32856.8    304.4   0.006585963   0.06599   0.09664   0.20344  -0.12354
  33   32991.8    303.1   0.165262610   1.64909  -0.77679   0.01064   1.02253
  34   33489.3    298.6   0.051775418   0.50897  -0.37824  -0.52453   0.30129
  35   34035.1    293.8   0.112611279   1.08926  -0.24358  -0.56874  -0.84051
  36   34237.2    292.1   0.001635485   0.01573   0.02147   0.02425  -0.12115
  37   34487.8    290.0   0.027123048   0.25891  -0.09756  -0.48601   0.11482
  38   34620.6    288.8   0.286261058   2.72209  -0.14925   1.37437   0.90051
  39   34977.5    285.9   0.033495948   0.31527  -0.54153  -0.14208   0.04276
  40   35067.9    285.2   0.344136364   3.23070   0.62691   0.33935   1.65001
  41   35449.7    282.1   0.070070219   0.65072  -0.15361   0.43350  -0.66272
  42   35751.5    279.7   0.112658101   1.03739   0.41137  -0.50022  -0.78610
  43   36156.7    276.6   0.108877862   0.99135   0.50859   0.81936   0.24764
  44   36233.8    276.0   0.046013177   0.41806  -0.17178  -0.61424  -0.10613
  45   36509.5    273.9   0.049565521   0.44694  -0.04261  -0.40946  -0.52675
  46   36556.0    273.6   0.020710097   0.18651  -0.30459   0.06584  -0.29899
  47   36849.8    271.4   0.033153815   0.29619  -0.22022   0.21379   0.44943
  48   37001.0    270.3   0.005154132   0.04586   0.07570   0.16655   0.11131
  49   37060.3    269.8   0.012956629   0.11510  -0.16410  -0.26622   0.13151
  50   37210.0    268.7   0.066549702   0.58879  -0.27758  -0.44184  -0.56260
  51   37346.8    267.8   0.063312000   0.55810  -0.27987  -0.54479   0.42775
  52   37412.2    267.3   0.014644061   0.12886   0.00461  -0.07019   0.35201
  53   37611.0    265.9   0.050140495   0.43888  -0.03444   0.28620   0.59648
  54   38113.3    262.4   0.001906619   0.01647  -0.09794   0.08288  -0.00287
  55   38210.2    261.7   0.011359698   0.09787   0.01804   0.01004   0.31216
  56   38580.9    259.2   0.027500951   0.23467   0.16683   0.32831   0.31472
  57   38656.7    258.7   0.089767701   0.76449  -0.19544   0.17112  -0.83487
  58   39166.3    255.3   0.062805609   0.52791   0.24679   0.59159  -0.34210
  59   39406.9    253.8   0.025975196   0.21700  -0.19705  -0.25952   0.33290
  60   39547.8    252.9   0.103354470   0.86037  -0.09888   0.85576   0.34389
  61   39659.3    252.1   0.048782582   0.40494  -0.46014  -0.27360   0.34403
  62   40214.2    248.7   0.380149952   3.11208  -0.81129  -1.53293   0.32253
  63   40295.9    248.2   0.087324189   0.71343   0.12567   0.31836   0.77219

FINAL SINGLE POINT ENERGY     -4750.054469260092

DIPOLE MOMENT
-------------
                                X             Y             Z
Electronic contribution:    -11.99464     -18.39521      -4.31136
Nuclear contribution   :     13.99073      23.05795       4.85439
                        -----------------------------------------
Total Dipole Moment    :      1.99609       4.66273       0.54304
                        -----------------------------------------
Magnitude (a.u.)       :      5.10102
Magnitude (Debye)      :     12.96575

Rotational constants in cm-1:     0.002067     0.000359     0.000314
Rotational constants in MHz :    61.960371    10.753687     9.406968

                             ****ORCA TERMINATED NORMALLY****
TOTAL RUN TIME: 0 days 0 hours 9 minutes 7 seconds 464 msec
