                         Program Version 4.2.0 -  RELEASE  -
|  1> # ORCA input file
|  2> # SCF done       -205.242345145825          0.000650123581
|  3> ! CAM-B3LYP def2-SVP def2/J RIJCOSX Grid4 TightSCF
|  4> %maxcore 5000
|  5> %tddft
|  6>     Mode sTDDFT
|  7>     Ethresh 5.0
|  8>     maxcore 5000
|  9> end
| 10>
| 11> %pal
| 12>   nprocs 6
| 13>   end
| 14> * xyz 0 1
| 15>    C       -7.79253        -5.01390         0.95389
| 16>    C       -8.83226        -5.10281         1.86600
| 17>    C       -8.71857        -6.01872         2.91226
| 18>    C       -9.77444        -6.13574         3.85179
| 19>    N      -10.63317        -6.22506         4.60284
| 20>    C       -7.57584        -6.83175         3.05070
| 21>    C       -7.49234        -7.74804         4.12811
| 22>    N       -7.41147        -8.49206         4.99417
| 23>    C       -6.53116        -6.73878         2.12990
| 24>    C       -6.65751        -5.83917         1.09220
| 25>    C       -5.69589        -5.55806        -0.00249
| 26>    O       -4.54411        -5.88951        -0.06833
| 27>    C       -6.45650        -4.66847        -0.93902
| 28>    C       -7.62519        -4.16890        -0.22518
| 29>    C       -8.37317        -3.07507        -0.55497
| 30>    C       -9.48836        -2.62941         0.19240
| 31>    N      -10.39800        -2.23121         0.76468
| 32>    C       -8.08953        -2.20923        -1.63475
| 33>    N       -7.88999        -1.44977        -2.47202
| 34>    C       -6.16359        -4.44174        -2.23696
| 35>    C       -5.12851        -5.06879        -3.00360
| 36>    N       -4.76814        -6.32489        -2.86646
| 37>    C       -3.90857        -6.57644        -3.88188
| 38>    C       -3.74681        -5.39273        -4.74438
| 39>    C       -2.81583        -5.67311        -5.85428
| 40>    O       -2.46257        -4.93889        -6.74423
| 41>    C       -2.43005        -7.07707        -5.59043
| 42>    C       -3.13068        -7.58637        -4.38026
| 43>    N       -2.77256        -8.87069        -4.12910
| 44>    C       -1.91479        -9.17784        -5.06460
| 45>    C       -1.64630        -8.09709        -6.00782
| 46>    C       -4.50270        -4.40566        -4.17707
| 47>    C       -4.73878        -3.05607        -4.57327
| 48>    C       -4.99093        -2.06581        -3.68895
| 49>    C       -5.39289        -0.73927        -4.01331
| 50>    S       -5.06692         0.55724        -2.92292
| 51>    C       -5.89137         1.71413        -3.92585
| 52>    C       -6.42238         1.08028        -5.05394
| 53>    C       -6.13598        -0.29121        -5.10331
| 54>    S       -6.73926        -1.44639        -6.28398
| 55>    C       -8.08835        -0.67891        -7.14608
| 56>    O       -8.87227        -1.39480        -7.69779
| 57>    C       -8.16037         0.81999        -7.33012
| 58>    O       -8.81673         1.28568        -8.21682
| 59>    S       -7.29516         1.96637        -6.29174
| 60>    C       -5.89274         3.05879        -3.49403
| 61>    C       -6.46653         4.13450        -4.09847
| 62>    C       -6.34103         5.43184        -3.54614
| 63>    N       -5.62557         5.67184        -2.45116
| 64>    C       -5.70209         6.99423        -2.24024
| 65>    C       -6.54526         7.65564        -3.25264
| 66>    C       -6.59145         9.10998        -3.01067
| 67>    O       -7.20505         9.95860        -3.62596
| 68>    C       -5.72017         9.27273        -1.84057
| 69>    C       -5.20826         7.95813        -1.39153
| 70>    N       -4.39930         8.10369        -0.31828
| 71>    C       -4.36781         9.39477        -0.08261
| 72>    C       -5.16536        10.18345        -0.99903
| 73>    C       -6.95513         6.66138        -4.10726
| 74>    C       -7.75593         6.73891        -5.28111
| 75>    C       -8.29045         7.91148        -5.70064
| 76>    C       -9.06167         8.06712        -6.87854
| 77>    C       -9.37779         9.26916        -7.43270
| 78>    C      -10.49989         9.40791        -8.39650
| 79>    O      -11.05737         8.52826        -9.00615
| 80>    C      -10.82597        10.85516        -8.38870
| 81>    C      -11.87135        11.50169        -9.01382
| 82>    C      -12.00046        12.87886        -8.82661
| 83>    C      -11.08243        13.57260        -8.01399
| 84>    C      -10.02111        12.91108        -7.39398
| 85>    C       -9.89295        11.54646        -7.58876
| 86>    C       -8.88871        10.59666        -7.10947
| 87>    C       -7.63822        10.91800        -6.66059
| 88>    C       -6.58803         9.98346        -6.50883
| 89>    N       -5.68386         9.28016        -6.45263
| 90>    C       -7.20804        12.24092        -6.41823
| 91>    N       -6.82369        13.30037        -6.20712
| 92>    C      -11.24284        14.96731        -7.81991
| 93>    N      -11.36805        16.09325        -7.65580
| 94>    C      -13.06211        13.57979        -9.44802
| 95>    N      -13.92655        14.12966        -9.95957
| 96>    H       -9.72231        -4.49849         1.78694
| 97>    H       -5.65143        -7.35739         2.22179
| 98>    H       -6.78334        -3.75928        -2.80738
| 99>    H       -1.47608       -10.16002        -5.10066
|100>    H       -0.97203        -8.15200        -6.83921
|101>    H       -4.66805        -2.85174        -5.63236
|102>    H       -4.85439        -2.25475        -2.63084
|103>    H       -5.36396         3.25418        -2.56922
|104>    H       -7.02456         4.03509        -5.01456
|105>    H       -3.78590         9.78261         0.73532
|106>    H       -5.26717        11.25032        -0.98014
|107>    H       -7.89286         5.84141        -5.86891
|108>    H       -8.13299         8.79288        -5.09397
|109>    H       -9.49504         7.18738        -7.34140
|110>    H      -12.57177        10.95688        -9.62853
|111>    H       -9.33833        13.46898        -6.77259
|112> *
|113>
|114>                          ****END OF INPUT****

CARTESIAN COORDINATES (ANGSTROEM)
---------------------------------
  C     -7.792530   -5.013900    0.953890
  C     -8.832260   -5.102810    1.866000
  C     -8.718570   -6.018720    2.912260
  C     -9.774440   -6.135740    3.851790
  N    -10.633170   -6.225060    4.602840
  C     -7.575840   -6.831750    3.050700
  C     -7.492340   -7.748040    4.128110
  N     -7.411470   -8.492060    4.994170
  C     -6.531160   -6.738780    2.129900
  C     -6.657510   -5.839170    1.092200
  C     -5.695890   -5.558060   -0.002490
  O     -4.544110   -5.889510   -0.068330
  C     -6.456500   -4.668470   -0.939020
  C     -7.625190   -4.168900   -0.225180
  C     -8.373170   -3.075070   -0.554970
  C     -9.488360   -2.629410    0.192400
  N    -10.398000   -2.231210    0.764680
  C     -8.089530   -2.209230   -1.634750
  N     -7.889990   -1.449770   -2.472020
  C     -6.163590   -4.441740   -2.236960
  C     -5.128510   -5.068790   -3.003600
  N     -4.768140   -6.324890   -2.866460
  C     -3.908570   -6.576440   -3.881880
  C     -3.746810   -5.392730   -4.744380
  C     -2.815830   -5.673110   -5.854280
  O     -2.462570   -4.938890   -6.744230
  C     -2.430050   -7.077070   -5.590430
  C     -3.130680   -7.586370   -4.380260
  N     -2.772560   -8.870690   -4.129100
  C     -1.914790   -9.177840   -5.064600
  C     -1.646300   -8.097090   -6.007820
  C     -4.502700   -4.405660   -4.177070
  C     -4.738780   -3.056070   -4.573270
  C     -4.990930   -2.065810   -3.688950
  C     -5.392890   -0.739270   -4.013310
  S     -5.066920    0.557240   -2.922920
  C     -5.891370    1.714130   -3.925850
  C     -6.422380    1.080280   -5.053940
  C     -6.135980   -0.291210   -5.103310
  S     -6.739260   -1.446390   -6.283980
  C     -8.088350   -0.678910   -7.146080
  O     -8.872270   -1.394800   -7.697790
  C     -8.160370    0.819990   -7.330120
  O     -8.816730    1.285680   -8.216820
  S     -7.295160    1.966370   -6.291740
  C     -5.892740    3.058790   -3.494030
  C     -6.466530    4.134500   -4.098470
  C     -6.341030    5.431840   -3.546140
  N     -5.625570    5.671840   -2.451160
  C     -5.702090    6.994230   -2.240240
  C     -6.545260    7.655640   -3.252640
  C     -6.591450    9.109980   -3.010670
  O     -7.205050    9.958600   -3.625960
  C     -5.720170    9.272730   -1.840570
  C     -5.208260    7.958130   -1.391530
  N     -4.399300    8.103690   -0.318280
  C     -4.367810    9.394770   -0.082610
  C     -5.165360   10.183450   -0.999030
  C     -6.955130    6.661380   -4.107260
  C     -7.755930    6.738910   -5.281110
  C     -8.290450    7.911480   -5.700640
  C     -9.061670    8.067120   -6.878540
  C     -9.377790    9.269160   -7.432700
  C    -10.499890    9.407910   -8.396500
  O    -11.057370    8.528260   -9.006150
  C    -10.825970   10.855160   -8.388700
  C    -11.871350   11.501690   -9.013820
  C    -12.000460   12.878860   -8.826610
  C    -11.082430   13.572600   -8.013990
  C    -10.021110   12.911080   -7.393980
  C     -9.892950   11.546460   -7.588760
  C     -8.888710   10.596660   -7.109470
  C     -7.638220   10.918000   -6.660590
  C     -6.588030    9.983460   -6.508830
  N     -5.683860    9.280160   -6.452630
  C     -7.208040   12.240920   -6.418230
  N     -6.823690   13.300370   -6.207120
  C    -11.242840   14.967310   -7.819910
  N    -11.368050   16.093250   -7.655800
  C    -13.062110   13.579790   -9.448020
  N    -13.926550   14.129660   -9.959570
  H     -9.722310   -4.498490    1.786940
  H     -5.651430   -7.357390    2.221790
  H     -6.783340   -3.759280   -2.807380
  H     -1.476080  -10.160020   -5.100660
  H     -0.972030   -8.152000   -6.839210
  H     -4.668050   -2.851740   -5.632360
  H     -4.854390   -2.254750   -2.630840
  H     -5.363960    3.254180   -2.569220
  H     -7.024560    4.035090   -5.014560
  H     -3.785900    9.782610    0.735320
  H     -5.267170   11.250320   -0.980140
  H     -7.892860    5.841410   -5.868910
  H     -8.132990    8.792880   -5.093970
  H     -9.495040    7.187380   -7.341400
  H    -12.571770   10.956880   -9.628530
  H     -9.338330   13.468980   -6.772590

 Total Charge           Charge          ....    0
 Multiplicity           Mult            ....    1
 Number of Electrons    NEL             ....  556
 Basis Dimension        Dim             .... 1226

ORBITAL ENERGIES
----------------

  NO   OCC          E(Eh)            E(eV)
   0   2.0000     -89.000270     -2421.8205
   1   2.0000     -88.993732     -2421.6426
   2   2.0000     -88.988872     -2421.5103
   3   2.0000     -19.263706      -524.1921
   4   2.0000     -19.263219      -524.1788
   5   2.0000     -19.258922      -524.0619
   6   2.0000     -19.235771      -523.4319
   7   2.0000     -19.234784      -523.4051
   8   2.0000     -19.227361      -523.2031
   9   2.0000     -14.462642      -393.5485
  10   2.0000     -14.456081      -393.3700
  11   2.0000     -14.444487      -393.0545
  12   2.0000     -14.443188      -393.0191
  13   2.0000     -14.442362      -392.9967
  14   2.0000     -14.434645      -392.7867
  15   2.0000     -14.429465      -392.6457
  16   2.0000     -14.426546      -392.5663
  17   2.0000     -14.426064      -392.5532
  18   2.0000     -14.425299      -392.5324
  19   2.0000     -14.419916      -392.3858
  20   2.0000     -14.414356      -392.2346
  21   2.0000     -10.426442      -283.7179
  22   2.0000     -10.424887      -283.6756
  23   2.0000     -10.410628      -283.2876
  24   2.0000     -10.396084      -282.8918
  25   2.0000     -10.394370      -282.8452
  26   2.0000     -10.387851      -282.6678
  27   2.0000     -10.387013      -282.6450
  28   2.0000     -10.386759      -282.6381
  29   2.0000     -10.378460      -282.4123
  30   2.0000     -10.378059      -282.4013
  31   2.0000     -10.373551      -282.2787
  32   2.0000     -10.364156      -282.0230
  33   2.0000     -10.363717      -282.0111
  34   2.0000     -10.361568      -281.9526
  35   2.0000     -10.360301      -281.9181
  36   2.0000     -10.359280      -281.8903
  37   2.0000     -10.359093      -281.8853
  38   2.0000     -10.358728      -281.8753
  39   2.0000     -10.358034      -281.8564
  40   2.0000     -10.357415      -281.8396
  41   2.0000     -10.356728      -281.8209
  42   2.0000     -10.356215      -281.8069
  43   2.0000     -10.355816      -281.7961
  44   2.0000     -10.355756      -281.7944
  45   2.0000     -10.353905      -281.7441
  46   2.0000     -10.353824      -281.7419
  47   2.0000     -10.352082      -281.6945
  48   2.0000     -10.352029      -281.6930
  49   2.0000     -10.351881      -281.6890
  50   2.0000     -10.350310      -281.6463
  51   2.0000     -10.345929      -281.5271
  52   2.0000     -10.344521      -281.4887
  53   2.0000     -10.339025      -281.3392
  54   2.0000     -10.338808      -281.3333
  55   2.0000     -10.338185      -281.3163
  56   2.0000     -10.333888      -281.1994
  57   2.0000     -10.333465      -281.1879
  58   2.0000     -10.332702      -281.1671
  59   2.0000     -10.332560      -281.1633
  60   2.0000     -10.331969      -281.1472
  61   2.0000     -10.331535      -281.1354
  62   2.0000     -10.330188      -281.0987
  63   2.0000     -10.330184      -281.0986
  64   2.0000     -10.328723      -281.0588
  65   2.0000     -10.327540      -281.0267
  66   2.0000     -10.324953      -280.9563
  67   2.0000     -10.323808      -280.9251
  68   2.0000     -10.323221      -280.9091
  69   2.0000     -10.322403      -280.8869
  70   2.0000     -10.319596      -280.8105
  71   2.0000     -10.319355      -280.8039
  72   2.0000     -10.318964      -280.7933
  73   2.0000     -10.318273      -280.7745
  74   2.0000     -10.317560      -280.7551
  75   2.0000     -10.313702      -280.6501
  76   2.0000     -10.309602      -280.5385
  77   2.0000     -10.309417      -280.5335
  78   2.0000     -10.301567      -280.3199
  79   2.0000     -10.298560      -280.2381
  80   2.0000     -10.297987      -280.2225
  81   2.0000      -8.095994      -220.3032
  82   2.0000      -8.089802      -220.1347
  83   2.0000      -8.085251      -220.0109
  84   2.0000      -6.065176      -165.0418
  85   2.0000      -6.061187      -164.9333
  86   2.0000      -6.059716      -164.8933
  87   2.0000      -6.058044      -164.8478
  88   2.0000      -6.055197      -164.7703
  89   2.0000      -6.055034      -164.7659
  90   2.0000      -6.050750      -164.6493
  91   2.0000      -6.050514      -164.6429
  92   2.0000      -6.046004      -164.5201
  93   2.0000      -1.200765       -32.6745
  94   2.0000      -1.176136       -32.0043
  95   2.0000      -1.169823       -31.8325
  96   2.0000      -1.151168       -31.3249
  97   2.0000      -1.150834       -31.3158
  98   2.0000      -1.141316       -31.0568
  99   2.0000      -1.109151       -30.1815
 100   2.0000      -1.090728       -29.6802
 101   2.0000      -1.089578       -29.6489
 102   2.0000      -1.069035       -29.0899
 103   2.0000      -1.066203       -29.0129
 104   2.0000      -1.051471       -28.6120
 105   2.0000      -1.044912       -28.4335
 106   2.0000      -1.041029       -28.3278
 107   2.0000      -1.036555       -28.2061
 108   2.0000      -1.031162       -28.0594
 109   2.0000      -1.025202       -27.8972
 110   2.0000      -1.021844       -27.8058
 111   2.0000      -1.009165       -27.4608
 112   2.0000      -1.005709       -27.3667
 113   2.0000      -1.005280       -27.3550
 114   2.0000      -1.000429       -27.2231
 115   2.0000      -0.978234       -26.6191
 116   2.0000      -0.967722       -26.3331
 117   2.0000      -0.965647       -26.2766
 118   2.0000      -0.959584       -26.1116
 119   2.0000      -0.951154       -25.8822
 120   2.0000      -0.950368       -25.8608
 121   2.0000      -0.945145       -25.7187
 122   2.0000      -0.938359       -25.5340
 123   2.0000      -0.928072       -25.2541
 124   2.0000      -0.924047       -25.1446
 125   2.0000      -0.923141       -25.1199
 126   2.0000      -0.912124       -24.8202
 127   2.0000      -0.904821       -24.6214
 128   2.0000      -0.901002       -24.5175
 129   2.0000      -0.889633       -24.2081
 130   2.0000      -0.886349       -24.1188
 131   2.0000      -0.868490       -23.6328
 132   2.0000      -0.863962       -23.5096
 133   2.0000      -0.861183       -23.4340
 134   2.0000      -0.857610       -23.3368
 135   2.0000      -0.839698       -22.8493
 136   2.0000      -0.830786       -22.6068
 137   2.0000      -0.817375       -22.2419
 138   2.0000      -0.806892       -21.9567
 139   2.0000      -0.803757       -21.8713
 140   2.0000      -0.794706       -21.6250
 141   2.0000      -0.778815       -21.1926
 142   2.0000      -0.772860       -21.0306
 143   2.0000      -0.772293       -21.0152
 144   2.0000      -0.768550       -20.9133
 145   2.0000      -0.758838       -20.6490
 146   2.0000      -0.751745       -20.4560
 147   2.0000      -0.745933       -20.2979
 148   2.0000      -0.738648       -20.0996
 149   2.0000      -0.735356       -20.0101
 150   2.0000      -0.733939       -19.9715
 151   2.0000      -0.714006       -19.4291
 152   2.0000      -0.708825       -19.2881
 153   2.0000      -0.704875       -19.1806
 154   2.0000      -0.703766       -19.1504
 155   2.0000      -0.692145       -18.8342
 156   2.0000      -0.685772       -18.6608
 157   2.0000      -0.680773       -18.5248
 158   2.0000      -0.678465       -18.4620
 159   2.0000      -0.672831       -18.3087
 160   2.0000      -0.663300       -18.0493
 161   2.0000      -0.659422       -17.9438
 162   2.0000      -0.657517       -17.8920
 163   2.0000      -0.654900       -17.8207
 164   2.0000      -0.650694       -17.7063
 165   2.0000      -0.644600       -17.5405
 166   2.0000      -0.641580       -17.4583
 167   2.0000      -0.634122       -17.2553
 168   2.0000      -0.630213       -17.1490
 169   2.0000      -0.628775       -17.1098
 170   2.0000      -0.620046       -16.8723
 171   2.0000      -0.614045       -16.7090
 172   2.0000      -0.608968       -16.5709
 173   2.0000      -0.604778       -16.4568
 174   2.0000      -0.603500       -16.4221
 175   2.0000      -0.595677       -16.2092
 176   2.0000      -0.591343       -16.0913
 177   2.0000      -0.588478       -16.0133
 178   2.0000      -0.585856       -15.9419
 179   2.0000      -0.582810       -15.8591
 180   2.0000      -0.580279       -15.7902
 181   2.0000      -0.576037       -15.6748
 182   2.0000      -0.574967       -15.6456
 183   2.0000      -0.571820       -15.5600
 184   2.0000      -0.568744       -15.4763
 185   2.0000      -0.567498       -15.4424
 186   2.0000      -0.566647       -15.4193
 187   2.0000      -0.563499       -15.3336
 188   2.0000      -0.558821       -15.2063
 189   2.0000      -0.558246       -15.1907
 190   2.0000      -0.557161       -15.1611
 191   2.0000      -0.556286       -15.1373
 192   2.0000      -0.551763       -15.0142
 193   2.0000      -0.547859       -14.9080
 194   2.0000      -0.544985       -14.8298
 195   2.0000      -0.543983       -14.8025
 196   2.0000      -0.542954       -14.7745
 197   2.0000      -0.541011       -14.7217
 198   2.0000      -0.536754       -14.6058
 199   2.0000      -0.534100       -14.5336
 200   2.0000      -0.532280       -14.4841
 201   2.0000      -0.531837       -14.4720
 202   2.0000      -0.530393       -14.4327
 203   2.0000      -0.522197       -14.2097
 204   2.0000      -0.522022       -14.2049
 205   2.0000      -0.519159       -14.1270
 206   2.0000      -0.513938       -13.9850
 207   2.0000      -0.512312       -13.9407
 208   2.0000      -0.510438       -13.8897
 209   2.0000      -0.508942       -13.8490
 210   2.0000      -0.506416       -13.7803
 211   2.0000      -0.503575       -13.7030
 212   2.0000      -0.502156       -13.6644
 213   2.0000      -0.499132       -13.5821
 214   2.0000      -0.495698       -13.4886
 215   2.0000      -0.493559       -13.4304
 216   2.0000      -0.490937       -13.3591
 217   2.0000      -0.489921       -13.3314
 218   2.0000      -0.487654       -13.2697
 219   2.0000      -0.486459       -13.2372
 220   2.0000      -0.483237       -13.1496
 221   2.0000      -0.482609       -13.1325
 222   2.0000      -0.478337       -13.0162
 223   2.0000      -0.476047       -12.9539
 224   2.0000      -0.473014       -12.8714
 225   2.0000      -0.471368       -12.8266
 226   2.0000      -0.470624       -12.8063
 227   2.0000      -0.467770       -12.7287
 228   2.0000      -0.467126       -12.7111
 229   2.0000      -0.465537       -12.6679
 230   2.0000      -0.465110       -12.6563
 231   2.0000      -0.462958       -12.5977
 232   2.0000      -0.461363       -12.5543
 233   2.0000      -0.458465       -12.4755
 234   2.0000      -0.457231       -12.4419
 235   2.0000      -0.455243       -12.3878
 236   2.0000      -0.453234       -12.3331
 237   2.0000      -0.452218       -12.3055
 238   2.0000      -0.451514       -12.2863
 239   2.0000      -0.450257       -12.2521
 240   2.0000      -0.449394       -12.2286
 241   2.0000      -0.449287       -12.2257
 242   2.0000      -0.445087       -12.1114
 243   2.0000      -0.443173       -12.0594
 244   2.0000      -0.442309       -12.0358
 245   2.0000      -0.438331       -11.9276
 246   2.0000      -0.434324       -11.8186
 247   2.0000      -0.431191       -11.7333
 248   2.0000      -0.428279       -11.6541
 249   2.0000      -0.426251       -11.5989
 250   2.0000      -0.417815       -11.3693
 251   2.0000      -0.414559       -11.2807
 252   2.0000      -0.408960       -11.1284
 253   2.0000      -0.405243       -11.0272
 254   2.0000      -0.401994       -10.9388
 255   2.0000      -0.392753       -10.6874
 256   2.0000      -0.388867       -10.5816
 257   2.0000      -0.385954       -10.5023
 258   2.0000      -0.381198       -10.3729
 259   2.0000      -0.374515       -10.1911
 260   2.0000      -0.373696       -10.1688
 261   2.0000      -0.372599       -10.1389
 262   2.0000      -0.365584        -9.9481
 263   2.0000      -0.364455        -9.9173
 264   2.0000      -0.363650        -9.8954
 265   2.0000      -0.360588        -9.8121
 266   2.0000      -0.360347        -9.8055
 267   2.0000      -0.357265        -9.7217
 268   2.0000      -0.356753        -9.7078
 269   2.0000      -0.353720        -9.6252
 270   2.0000      -0.344184        -9.3657
 271   2.0000      -0.343722        -9.3531
 272   2.0000      -0.342661        -9.3243
 273   2.0000      -0.334305        -9.0969
 274   2.0000      -0.330822        -9.0021
 275   2.0000      -0.323048        -8.7906
 276   2.0000      -0.299076        -8.1383
 277   2.0000      -0.282846        -7.6966
 278   0.0000      -0.154827        -4.2131
 279   0.0000      -0.135355        -3.6832
 280   0.0000      -0.121383        -3.3030
 281   0.0000      -0.110083        -2.9955
 282   0.0000      -0.098678        -2.6852

MULLIKEN ATOMIC CHARGES
-----------------------
   0 C :    0.052001
   1 C :   -0.033454
   2 C :   -0.056593
   3 C :   -0.176417
   4 N :    0.211370
   5 C :   -0.064966
   6 C :   -0.172192
   7 N :    0.206384
   8 C :   -0.021762
   9 C :   -0.004331
  10 C :    0.157266
  11 O :   -0.081690
  12 C :   -0.041921
  13 C :    0.277581
  14 C :   -0.312015
  15 C :   -0.187035
  16 N :    0.187196
  17 C :   -0.189406
  18 N :    0.172017
  19 C :   -0.101139
  20 C :    0.026455
  21 N :   -0.004825
  22 C :    0.073684
  23 C :   -0.118847
  24 C :    0.213645
  25 O :   -0.110379
  26 C :   -0.043291
  27 C :   -0.003654
  28 N :   -0.048665
  29 C :    0.105890
  30 C :   -0.085619
  31 C :    0.007671
  32 C :   -0.015695
  33 C :   -0.012031
  34 C :   -0.096973
  35 S :    0.199464
  36 C :   -0.123253
  37 C :   -0.011572
  38 C :   -0.015373
  39 S :    0.078545
  40 C :    0.079521
  41 O :   -0.112634
  42 C :    0.101031
  43 O :   -0.121410
  44 S :    0.067180
  45 C :    0.098693
  46 C :   -0.065936
  47 C :    0.036227
  48 N :   -0.045565
  49 C :    0.069655
  50 C :   -0.147059
  51 C :    0.243570
  52 O :   -0.156200
  53 C :   -0.010541
  54 C :   -0.030741
  55 N :   -0.053102
  56 C :    0.095492
  57 C :   -0.093921
  58 C :    0.046257
  59 C :   -0.009973
  60 C :    0.007964
  61 C :    0.047298
  62 C :   -0.110157
  63 C :    0.150477
  64 O :   -0.119246
  65 C :   -0.003450
  66 C :   -0.031988
  67 C :   -0.069237
  68 C :   -0.057826
  69 C :   -0.036274
  70 C :    0.041334
  71 C :    0.257089
  72 C :   -0.283623
  73 C :   -0.204040
  74 N :    0.175300
  75 C :   -0.179494
  76 N :    0.170798
  77 C :   -0.174958
  78 N :    0.199639
  79 C :   -0.174163
  80 N :    0.196494
  81 H :    0.027515
  82 H :    0.026029
  83 H :    0.067222
  84 H :    0.024101
  85 H :    0.009398
  86 H :    0.043623
  87 H :    0.025191
  88 H :    0.024885
  89 H :    0.008257
  90 H :    0.013882
  91 H :    0.002653
  92 H :   -0.008523
  93 H :    0.043784
  94 H :    0.020551
  95 H :    0.018346
  96 H :    0.024537
Sum of atomic charges:   -0.0000000

LOEWDIN ATOMIC CHARGES
----------------------
   0 C :   -0.000959
   1 C :    0.037298
   2 C :   -0.019399
   3 C :   -0.032928
   4 N :   -0.002262
   5 C :   -0.021168
   6 C :   -0.032812
   7 N :   -0.003460
   8 C :    0.053312
   9 C :   -0.026743
  10 C :    0.083086
  11 O :   -0.083716
  12 C :   -0.043015
  13 C :    0.068980
  14 C :   -0.109439
  15 C :   -0.023726
  16 N :   -0.017109
  17 C :   -0.014602
  18 N :   -0.032844
  19 C :    0.043755
  20 C :    0.050733
  21 N :   -0.065704
  22 C :    0.037379
  23 C :   -0.035353
  24 C :    0.065093
  25 O :   -0.123301
  26 C :   -0.035598
  27 C :    0.054127
  28 N :   -0.090276
  29 C :    0.099902
  30 C :   -0.021752
  31 C :   -0.030224
  32 C :   -0.013834
  33 C :   -0.037562
  34 C :   -0.173640
  35 S :    0.498438
  36 C :   -0.187723
  37 C :   -0.196004
  38 C :   -0.205229
  39 S :    0.392877
  40 C :   -0.106119
  41 O :   -0.085389
  42 C :   -0.106047
  43 O :   -0.091446
  44 S :    0.401080
  45 C :    0.032055
  46 C :   -0.061246
  47 C :    0.072584
  48 N :   -0.108287
  49 C :    0.045856
  50 C :   -0.020629
  51 C :    0.077803
  52 O :   -0.145617
  53 C :   -0.039818
  54 C :    0.026307
  55 N :   -0.094381
  56 C :    0.079677
  57 C :   -0.030237
  58 C :   -0.031996
  59 C :    0.017968
  60 C :   -0.005040
  61 C :    0.073125
  62 C :   -0.083435
  63 C :    0.081957
  64 O :   -0.123314
  65 C :   -0.032454
  66 C :    0.049379
  67 C :   -0.030377
  68 C :   -0.022563
  69 C :    0.032548
  70 C :    0.007264
  71 C :    0.059369
  72 C :   -0.101885
  73 C :   -0.016575
  74 N :   -0.038994
  75 C :   -0.016930
  76 N :   -0.031764
  77 C :   -0.031005
  78 N :   -0.011590
  79 C :   -0.032140
  80 N :   -0.014904
  81 H :    0.054070
  82 H :    0.057946
  83 H :    0.053133
  84 H :    0.030083
  85 H :    0.040169
  86 H :    0.037557
  87 H :    0.034359
  88 H :    0.045478
  89 H :    0.014013
  90 H :    0.025668
  91 H :    0.037446
  92 H :    0.033412
  93 H :    0.034382
  94 H :    0.047281
  95 H :    0.054594
  96 H :    0.053021

  Mayer bond orders larger than 0.100000
B(  0-C ,  1-C ) :   1.3532 B(  0-C ,  9-C ) :   1.3277 B(  0-C , 13-C ) :   0.9766
B(  1-C ,  2-C ) :   1.4025 B(  1-C , 81-H ) :   0.9872 B(  2-C ,  3-C ) :   1.0864
B(  2-C ,  5-C ) :   1.3943 B(  3-C ,  4-N ) :   3.0464 B(  5-C ,  6-C ) :   1.0905
B(  5-C ,  8-C ) :   1.3739 B(  6-C ,  7-N ) :   3.0438 B(  8-C ,  9-C ) :   1.3662
B(  8-C , 82-H ) :   1.0124 B(  9-C , 10-C ) :   0.9025 B( 10-C , 11-O ) :   2.3158
B( 10-C , 12-C ) :   0.8993 B( 12-C , 13-C ) :   1.0247 B( 12-C , 19-C ) :   1.7394
B( 13-C , 14-C ) :   1.6889 B( 14-C , 15-C ) :   1.1321 B( 14-C , 17-C ) :   1.1447
B( 15-C , 16-N ) :   2.9812 B( 17-C , 18-N ) :   2.9789 B( 19-C , 20-C ) :   1.0405
B( 19-C , 83-H ) :   0.9311 B( 20-C , 21-N ) :   1.6317 B( 20-C , 22-C ) :   0.1113
B( 20-C , 31-C ) :   1.0344 B( 21-N , 22-C ) :   1.3167 B( 22-C , 23-C ) :   1.0495
B( 22-C , 27-C ) :   1.4456 B( 23-C , 24-C ) :   0.8866 B( 23-C , 31-C ) :   1.5681
B( 24-C , 25-O ) :   2.3145 B( 24-C , 26-C ) :   0.8821 B( 26-C , 27-C ) :   1.0329
B( 26-C , 30-C ) :   1.6550 B( 27-C , 28-N ) :   1.2974 B( 28-N , 29-C ) :   1.6748
B( 29-C , 30-C ) :   1.0399 B( 29-C , 84-H ) :   0.9879 B( 30-C , 85-H ) :   1.0098
B( 31-C , 32-C ) :   1.1253 B( 32-C , 33-C ) :   1.6772 B( 32-C , 86-H ) :   0.9536
B( 33-C , 34-C ) :   1.1085 B( 33-C , 87-H ) :   0.9523 B( 34-C , 35-S ) :   1.1527
B( 34-C , 36-C ) :   0.1055 B( 34-C , 38-C ) :   1.5236 B( 35-S , 36-C ) :   1.1318
B( 36-C , 37-C ) :   1.4903 B( 36-C , 45-C ) :   1.1415 B( 37-C , 38-C ) :   1.3203
B( 37-C , 44-S ) :   0.9823 B( 38-C , 39-S ) :   0.9813 B( 39-S , 40-C ) :   1.0324
B( 39-S , 41-O ) :   0.1288 B( 40-C , 41-O ) :   2.1812 B( 40-C , 42-C ) :   0.7693
B( 42-C , 43-O ) :   2.1688 B( 42-C , 44-S ) :   1.0338 B( 43-O , 44-S ) :   0.1322
B( 45-C , 46-C ) :   1.6191 B( 45-C , 88-H ) :   0.9545 B( 46-C , 47-C ) :   1.1993
B( 46-C , 89-H ) :   0.9432 B( 47-C , 48-N ) :   1.5696 B( 47-C , 49-C ) :   0.1066
B( 47-C , 58-C ) :   0.9973 B( 48-N , 49-C ) :   1.3814 B( 49-C , 50-C ) :   1.0563
B( 49-C , 54-C ) :   1.3878 B( 50-C , 51-C ) :   0.8923 B( 50-C , 58-C ) :   1.5569
B( 51-C , 52-O ) :   2.1308 B( 51-C , 53-C ) :   0.9482 B( 52-O , 93-H ) :   0.1088
B( 53-C , 54-C ) :   1.0687 B( 53-C , 57-C ) :   1.5889 B( 54-C , 55-N ) :   1.3331
B( 55-N , 56-C ) :   1.6335 B( 56-C , 57-C ) :   1.0797 B( 56-C , 90-H ) :   0.9893
B( 57-C , 91-H ) :   1.0121 B( 58-C , 59-C ) :   1.1083 B( 59-C , 60-C ) :   1.6688
B( 59-C , 92-H ) :   0.9756 B( 60-C , 61-C ) :   1.1050 B( 60-C , 93-H ) :   0.9250
B( 61-C , 62-C ) :   1.6281 B( 61-C , 94-H ) :   0.9678 B( 62-C , 63-C ) :   0.9405
B( 62-C , 71-C ) :   1.0348 B( 63-C , 64-O ) :   2.2952 B( 63-C , 65-C ) :   0.8992
B( 65-C , 66-C ) :   1.3682 B( 65-C , 70-C ) :   1.3329 B( 66-C , 67-C ) :   1.3675
B( 66-C , 95-H ) :   1.0145 B( 67-C , 68-C ) :   1.4006 B( 67-C , 79-C ) :   1.0886
B( 68-C , 69-C ) :   1.3876 B( 68-C , 77-C ) :   1.0857 B( 69-C , 70-C ) :   1.3619
B( 69-C , 96-H ) :   0.9903 B( 70-C , 71-C ) :   0.9778 B( 71-C , 72-C ) :   1.6897
B( 72-C , 73-C ) :   1.1551 B( 72-C , 75-C ) :   1.1380 B( 73-C , 74-N ) :   2.9999
B( 75-C , 76-N ) :   2.9828 B( 77-C , 78-N ) :   3.0438 B( 79-C , 80-N ) :   3.0449

-----------------------------------------------------------------------------
         ABSORPTION SPECTRUM VIA TRANSITION ELECTRIC DIPOLE MOMENTS
-----------------------------------------------------------------------------
State   Energy  Wavelength   fosc         T2         TX        TY        TZ
        (cm-1)    (nm)                  (au**2)     (au)      (au)      (au)
-----------------------------------------------------------------------------
   0   13714.6    729.1   0.060751930   1.45832   0.63666  -0.80234  -0.63971
   1   17724.4    564.2   0.881478297  16.37251  -0.28661   4.01543   0.40830
   2   18426.6    542.7   0.536266964   9.58099   0.51945   2.59712   1.60192
   3   19942.7    501.4   0.000752762   0.01243  -0.08286   0.06572  -0.03524
   4   21455.6    466.1   0.006041025   0.09269   0.12761  -0.23406   0.14704
   5   21539.3    464.3   0.072100256   1.10200   0.24778  -0.57518   0.84248
   6   21993.7    454.7   0.545485659   8.16510   0.83445  -2.37656   1.34935
   7   22751.8    439.5   0.047858252   0.69250  -0.34213   0.75222  -0.09801
   8   23017.5    434.5   0.015723206   0.22488  -0.37521   0.28857   0.02875
   9   23555.6    424.5   0.064825961   0.90600  -0.58138   0.42424   0.62292
  10   23973.3    417.1   0.041296963   0.56711  -0.24753   0.65648   0.27362
  11   24248.6    412.4   0.044469493   0.60374  -0.09196  -0.73736   0.22713
  12   24430.1    409.3   0.007925747   0.10680  -0.28587  -0.07301   0.14055
  13   24722.9    404.5   0.014942165   0.19897   0.07077   0.44035  -0.00740
  14   24837.1    402.6   0.355485414   4.71190   1.20556  -1.38961  -1.15218
  15   25249.8    396.0   0.000112540   0.00147   0.01902   0.02521  -0.02168
  16   25428.1    393.3   0.472140782   6.11271   1.30611  -1.53490  -1.43209
  17   26127.9    382.7   0.017635951   0.22221  -0.34203  -0.12091  -0.30101
  18   26205.2    381.6   0.077061939   0.96812   0.66141  -0.28244   0.67148
  19   26311.1    380.1   0.090042158   1.12663  -0.55995   0.28352  -0.85598
  20   26781.3    373.4   0.005329618   0.06551   0.08340  -0.09564  -0.22229
  21   27117.8    368.8   0.072078026   0.87503   0.60871  -0.69056   0.16624
  22   27553.6    362.9   0.024098338   0.28793   0.03785  -0.52061   0.12433
  23   28297.4    353.4   0.276626296   3.21827  -1.18933   0.17314  -1.33184
  24   28732.5    348.0   0.072024511   0.82524   0.32922   0.20237   0.82213
  25   29094.7    343.7   0.131382167   1.48661  -0.89265   0.20602   0.80458
  26   29361.7    340.6   0.029806435   0.33420   0.20365  -0.43129  -0.32667
  27   29460.0    339.4   0.016031916   0.17915  -0.40212   0.08984   0.09684
  28   29561.8    338.3   0.040632669   0.45250  -0.66005  -0.12624  -0.03011
  29   29712.1    336.6   0.042317766   0.46888   0.50053  -0.32913   0.33170
  30   29935.9    334.0   0.048720648   0.53579  -0.20395   0.50174  -0.49239
  31   30354.9    329.4   0.021853363   0.23701  -0.23894   0.13171   0.40320
  32   30772.7    325.0   0.156533610   1.67463   0.43955  -1.18001  -0.29835
  33   31067.6    321.9   0.025180162   0.26682  -0.33472   0.33105   0.21258
  34   31368.1    318.8   0.067380828   0.70717   0.75201   0.02528   0.37551
  35   31552.3    316.9   0.020928619   0.21837   0.36572  -0.08740   0.27745
  36   31586.1    316.6   0.109777012   1.14417  -0.42687   0.51348  -0.83564
  37   31713.1    315.3   0.026911770   0.27937  -0.25598   0.22203   0.40564
  38   31804.1    314.4   0.007698450   0.07969  -0.13207   0.14235  -0.20489
  39   32188.0    310.7   0.107176468   1.09618   0.87919  -0.22594   0.52168
  40   32465.5    308.0   0.047425188   0.48091   0.03660   0.66609   0.18946
  41   32775.2    305.1   0.081868846   0.82234  -0.78597   0.45074  -0.03763
  42   32899.1    304.0   0.002666631   0.02668   0.09276   0.09523   0.09492
  43   33071.0    302.4   0.108592785   1.08101   0.00633  -0.46682   0.92901
  44   33183.4    301.4   0.015043954   0.14925   0.31113   0.21654  -0.07455
  45   33382.8    299.6   0.004901168   0.04833   0.00107  -0.21361  -0.05198
  46   33719.0    296.6   0.004295686   0.04194   0.05035  -0.00941   0.19828
  47   33769.4    296.1   0.092978591   0.90643   0.29182   0.17078   0.89001
  48   33878.0    295.2   0.001399273   0.01360  -0.09038  -0.06704  -0.03057
  49   34059.9    293.6   0.022152562   0.21412  -0.09631   0.35335  -0.28282
  50   34677.6    288.4   0.002205224   0.02094  -0.12624  -0.06220  -0.03360
  51   34950.2    286.1   0.019241307   0.18124   0.04741  -0.38664   0.17177
  52   35041.3    285.4   0.262913721   2.47006  -0.52961   1.32435  -0.66006
  53   35165.8    284.4   0.024244885   0.22697   0.15880   0.44713   0.04280
  54   35208.1    284.0   0.582233329   5.44415   1.98212  -0.35367   1.17910
  55   35472.4    281.9   0.118796029   1.10252   0.02574   0.40395  -0.96885
  56   35631.2    280.7   0.037044790   0.34227   0.57858   0.08322   0.02425
  57   35684.5    280.2   0.068788767   0.63462  -0.35358   0.56442  -0.43708
  58   35835.1    279.1   0.071286203   0.65490   0.12967  -0.79873  -0.01083
  59   35912.2    278.5   0.003549442   0.03254  -0.17029  -0.02672  -0.05316
  60   36077.3    277.2   0.153052259   1.39663   0.54735  -0.78479   0.69365
  61   36363.7    275.0   0.032001908   0.28972   0.17921  -0.41932   0.28596
  62   36536.0    273.7   0.018445569   0.16621  -0.14346   0.37488   0.07138
  63   36740.5    272.2   0.171154054   1.53362   1.07902  -0.20749   0.57120
  64   36887.5    271.1   0.107179159   0.95655   0.31540  -0.83000   0.41009
  65   37149.9    269.2   0.041584712   0.36851  -0.51399   0.18892  -0.26198
  66   37245.0    268.5   0.009281671   0.08204  -0.24604   0.13451  -0.05841
  67   37314.2    268.0   0.037867512   0.33409  -0.12114   0.50679  -0.25017
  68   37493.3    266.7   0.012895685   0.11323  -0.13524  -0.20091  -0.23361
  69   37542.9    266.4   0.042938624   0.37653  -0.01131   0.27489   0.54848
  70   37645.9    265.6   0.002842308   0.02486  -0.04401  -0.11660   0.09656
  71   37672.6    265.4   0.001952060   0.01706  -0.07434  -0.09318  -0.05338
  72   37944.7    263.5   0.215235782   1.86741  -0.18344  -1.24163  -0.54048
  73   38099.0    262.5   0.082124466   0.70963  -0.61675  -0.18782   0.54220
  74   38194.3    261.8   0.004984818   0.04297  -0.20133   0.04452  -0.02120
  75   38300.4    261.1   0.019863584   0.17074  -0.26235  -0.31836  -0.02364
  76   38634.9    258.8   0.032802731   0.27952   0.18259   0.29972  -0.39541
  77   38719.6    258.3   0.040167305   0.34152  -0.54565  -0.14467  -0.15120
  78   38796.1    257.8   0.005630970   0.04778   0.02793  -0.14820   0.15824
  79   38969.1    256.6   0.052385225   0.44255  -0.11248  -0.65300   0.05906
  80   39044.1    256.1   0.109739315   0.92530  -0.64866   0.62174   0.34348
  81   39123.8    255.6   0.006303587   0.05304  -0.17095   0.12067   0.09622
  82   39241.6    254.8   0.000635457   0.00533   0.04851  -0.04450   0.03160
  83   39331.9    254.2   0.025155754   0.21056   0.36278   0.18844  -0.20841
  84   39497.5    253.2   0.087998185   0.73347   0.45345  -0.70975  -0.15525
  85   39629.9    252.3   0.003736830   0.03104   0.03452   0.13859   0.10317
  86   39739.0    251.6   0.040198994   0.33302   0.12817  -0.55710  -0.07894
  87   39947.0    250.3   0.001128372   0.00930   0.03220   0.07913   0.04472
  88   40028.6    249.8   0.018830892   0.15487  -0.17249   0.24348  -0.25659
  89   40081.3    249.5   0.060347787   0.49567  -0.25464   0.60982  -0.24280
  90   40200.9    248.8   0.008497280   0.06959   0.08033   0.07296  -0.24043

FINAL SINGLE POINT ENERGY     -4593.952985045120

DIPOLE MOMENT
-------------
                                X             Y             Z
Electronic contribution:     -6.85311      -8.14608      -0.15602
Nuclear contribution   :      9.81914       3.43419       0.62846
                        -----------------------------------------
Total Dipole Moment    :      2.96603      -4.71189       0.47244
                        -----------------------------------------
Magnitude (a.u.)       :      5.58771
Magnitude (Debye)      :     14.20282

Rotational constants in cm-1:     0.001188     0.000237     0.000224
Rotational constants in MHz :    35.621232     7.099557     6.703261

                             ****ORCA TERMINATED NORMALLY****
TOTAL RUN TIME: 0 days 0 hours 11 minutes 29 seconds 64 msec
