                         Program Version 4.2.0 -  RELEASE  -
|  1> # ORCA input file
|  2> # SCF done       -191.497436943178          0.000498591964
|  3> ! CAM-B3LYP def2-SVP def2/J RIJCOSX Grid4 TightSCF
|  4> %maxcore 5000
|  5> %tddft
|  6>     Mode sTDDFT
|  7>     Ethresh 5.0
|  8>     maxcore 5000
|  9> end
| 10>
| 11> %pal
| 12>   nprocs 6
| 13>   end
| 14> * xyz 0 1
| 15>    C       -5.75679        -3.07291        -6.05046
| 16>    C       -5.97835        -2.50206        -7.29206
| 17>    C       -6.26851        -3.34428        -8.36833
| 18>    C       -6.49700        -2.77793        -9.64712
| 19>    N       -6.67797        -2.30940       -10.67589
| 20>    C       -6.33942        -4.74162        -8.20839
| 21>    C       -6.63549        -5.56094        -9.32473
| 22>    N       -6.87318        -6.23080       -10.22240
| 23>    C       -6.11591        -5.31495        -6.95530
| 24>    C       -5.82766        -4.47152        -5.90374
| 25>    C       -5.54525        -4.82852        -4.49860
| 26>    O       -5.46711        -5.95739        -4.05198
| 27>    C       -5.36773        -3.55957        -3.78632
| 28>    C       -5.43965        -2.47909        -4.74856
| 29>    C       -5.21703        -1.14586        -4.52419
| 30>    C       -5.28923        -0.15267        -5.52517
| 31>    N       -5.33218         0.69956        -6.29225
| 32>    C       -4.86087        -0.56832        -3.28592
| 33>    N       -4.55925        -0.01933        -2.32375
| 34>    C       -5.23461        -3.42153        -2.42437
| 35>    C       -5.16357        -4.40567        -1.43531
| 36>    C       -5.13298        -4.09633        -0.06228
| 37>    C       -5.04126        -5.21953         0.76670
| 38>    O       -5.09650        -5.23199         2.11470
| 39>    C       -5.47714        -4.02662         2.74425
| 40>    C       -4.68262        -2.83226         2.24270
| 41>    S       -5.17152        -2.45183         0.52922
| 42>    C       -4.96088        -6.40888         0.02951
| 43>    S       -5.10973        -6.13175        -1.67744
| 44>    C       -4.78343        -7.73754         0.50378
| 45>    C       -5.14017        -8.83092        -0.32187
| 46>    C       -4.94738       -10.19821         0.07654
| 47>    N       -5.23311       -11.17209        -0.79403
| 48>    C       -5.69056       -10.89106        -1.98787
| 49>    C       -5.94211        -9.52862        -2.35863
| 50>    N       -5.66896        -8.56412        -1.51961
| 51>    C       -6.49393        -9.20574        -3.62491
| 52>    N       -6.93631        -8.97987        -4.65623
| 53>    C       -5.95472       -11.94573        -2.89734
| 54>    N       -6.17973       -12.77103        -3.65830
| 55>    C       -4.44408       -10.56310         1.35105
| 56>    C       -3.99441        -9.47296         2.13306
| 57>    C       -4.15651        -8.09161         1.71700
| 58>    N       -3.54854        -7.25376         2.55635
| 59>    S       -2.86563        -8.08558         3.73601
| 60>    N       -3.27823        -9.55533         3.25262
| 61>    C       -4.32800       -11.94357         1.68855
| 62>    C       -4.20471       -12.57513         2.93097
| 63>    C       -4.10418       -13.97855         2.83227
| 64>    O       -3.94420       -14.85401         3.84870
| 65>    C       -4.31703       -14.41704         5.14349
| 66>    C       -3.64465       -13.11445         5.51909
| 67>    S       -4.28007       -11.75969         4.47480
| 68>    C       -4.10413       -14.43493         1.51018
| 69>    S       -4.32564       -13.10954         0.40157
| 70>    C       -3.92221       -15.71612         0.96068
| 71>    C       -3.95450       -16.96966         1.50842
| 72>    C       -3.25182       -18.06860         0.79154
| 73>    O       -2.80077       -18.04228        -0.32765
| 74>    C       -3.17753       -19.18147         1.76960
| 75>    C       -2.52960       -20.39157         1.64916
| 76>    C       -2.57210       -21.27147         2.73315
| 77>    C       -3.26341       -20.91524         3.90649
| 78>    C       -3.92951       -19.69171         4.01149
| 79>    C       -3.88355       -18.82420         2.93495
| 80>    C       -4.48436       -17.50419         2.73238
| 81>    C       -5.52979       -16.99069         3.45721
| 82>    C       -6.25540       -15.85444         3.05169
| 83>    N       -6.85823       -14.92463         2.75171
| 84>    C       -6.01436       -17.54999         4.65551
| 85>    N       -6.41642       -17.93620         5.65901
| 86>    C       -3.27876       -21.81020         5.00487
| 87>    N       -3.29196       -22.52230         5.90111
| 88>    C       -1.91155       -22.52118         2.65524
| 89>    N       -1.36820       -23.52608         2.57570
| 90>    H       -5.93775        -1.43718        -7.45643
| 91>    H       -6.16989        -6.38329        -6.80861
| 92>    H       -5.19364        -2.41078        -2.03277
| 93>    H       -5.28760        -4.19570         3.80724
| 94>    H       -6.55064        -3.84647         2.59436
| 95>    H       -3.61355        -3.04462         2.25961
| 96>    H       -4.89657        -1.94156         2.82853
| 97>    H       -4.00837       -15.22456         5.81300
| 98>    H       -5.40798       -14.30239         5.19538
| 99>    H       -2.56485       -13.17641         5.38151
|100>    H       -3.87395       -12.83701         6.54506
|101>    H       -3.62601       -15.70662        -0.08586
|102>    H       -2.00188       -20.65078         0.74392
|103>    H       -4.44962       -19.45008         4.92527
|104> *
|105>
|106>                          ****END OF INPUT****

CARTESIAN COORDINATES (ANGSTROEM)
---------------------------------
  C     -5.756790   -3.072910   -6.050460
  C     -5.978350   -2.502060   -7.292060
  C     -6.268510   -3.344280   -8.368330
  C     -6.497000   -2.777930   -9.647120
  N     -6.677970   -2.309400  -10.675890
  C     -6.339420   -4.741620   -8.208390
  C     -6.635490   -5.560940   -9.324730
  N     -6.873180   -6.230800  -10.222400
  C     -6.115910   -5.314950   -6.955300
  C     -5.827660   -4.471520   -5.903740
  C     -5.545250   -4.828520   -4.498600
  O     -5.467110   -5.957390   -4.051980
  C     -5.367730   -3.559570   -3.786320
  C     -5.439650   -2.479090   -4.748560
  C     -5.217030   -1.145860   -4.524190
  C     -5.289230   -0.152670   -5.525170
  N     -5.332180    0.699560   -6.292250
  C     -4.860870   -0.568320   -3.285920
  N     -4.559250   -0.019330   -2.323750
  C     -5.234610   -3.421530   -2.424370
  C     -5.163570   -4.405670   -1.435310
  C     -5.132980   -4.096330   -0.062280
  C     -5.041260   -5.219530    0.766700
  O     -5.096500   -5.231990    2.114700
  C     -5.477140   -4.026620    2.744250
  C     -4.682620   -2.832260    2.242700
  S     -5.171520   -2.451830    0.529220
  C     -4.960880   -6.408880    0.029510
  S     -5.109730   -6.131750   -1.677440
  C     -4.783430   -7.737540    0.503780
  C     -5.140170   -8.830920   -0.321870
  C     -4.947380  -10.198210    0.076540
  N     -5.233110  -11.172090   -0.794030
  C     -5.690560  -10.891060   -1.987870
  C     -5.942110   -9.528620   -2.358630
  N     -5.668960   -8.564120   -1.519610
  C     -6.493930   -9.205740   -3.624910
  N     -6.936310   -8.979870   -4.656230
  C     -5.954720  -11.945730   -2.897340
  N     -6.179730  -12.771030   -3.658300
  C     -4.444080  -10.563100    1.351050
  C     -3.994410   -9.472960    2.133060
  C     -4.156510   -8.091610    1.717000
  N     -3.548540   -7.253760    2.556350
  S     -2.865630   -8.085580    3.736010
  N     -3.278230   -9.555330    3.252620
  C     -4.328000  -11.943570    1.688550
  C     -4.204710  -12.575130    2.930970
  C     -4.104180  -13.978550    2.832270
  O     -3.944200  -14.854010    3.848700
  C     -4.317030  -14.417040    5.143490
  C     -3.644650  -13.114450    5.519090
  S     -4.280070  -11.759690    4.474800
  C     -4.104130  -14.434930    1.510180
  S     -4.325640  -13.109540    0.401570
  C     -3.922210  -15.716120    0.960680
  C     -3.954500  -16.969660    1.508420
  C     -3.251820  -18.068600    0.791540
  O     -2.800770  -18.042280   -0.327650
  C     -3.177530  -19.181470    1.769600
  C     -2.529600  -20.391570    1.649160
  C     -2.572100  -21.271470    2.733150
  C     -3.263410  -20.915240    3.906490
  C     -3.929510  -19.691710    4.011490
  C     -3.883550  -18.824200    2.934950
  C     -4.484360  -17.504190    2.732380
  C     -5.529790  -16.990690    3.457210
  C     -6.255400  -15.854440    3.051690
  N     -6.858230  -14.924630    2.751710
  C     -6.014360  -17.549990    4.655510
  N     -6.416420  -17.936200    5.659010
  C     -3.278760  -21.810200    5.004870
  N     -3.291960  -22.522300    5.901110
  C     -1.911550  -22.521180    2.655240
  N     -1.368200  -23.526080    2.575700
  H     -5.937750   -1.437180   -7.456430
  H     -6.169890   -6.383290   -6.808610
  H     -5.193640   -2.410780   -2.032770
  H     -5.287600   -4.195700    3.807240
  H     -6.550640   -3.846470    2.594360
  H     -3.613550   -3.044620    2.259610
  H     -4.896570   -1.941560    2.828530
  H     -4.008370  -15.224560    5.813000
  H     -5.407980  -14.302390    5.195380
  H     -2.564850  -13.176410    5.381510
  H     -3.873950  -12.837010    6.545060
  H     -3.626010  -15.706620   -0.085860
  H     -2.001880  -20.650780    0.743920
  H     -4.449620  -19.450080    4.925270

 Total Charge           Charge          ....    0
 Multiplicity           Mult            ....    1
 Number of Electrons    NEL             ....  536
 Basis Dimension        Dim             .... 1140

ORBITAL ENERGIES
----------------

  NO   OCC          E(Eh)            E(eV)
   0   2.0000     -89.065795     -2423.6035
   1   2.0000     -88.981652     -2421.3138
   2   2.0000     -88.980682     -2421.2874
   3   2.0000     -88.963301     -2420.8145
   4   2.0000     -88.955277     -2420.5961
   5   2.0000     -19.292788      -524.9834
   6   2.0000     -19.280405      -524.6465
   7   2.0000     -19.245010      -523.6833
   8   2.0000     -19.235767      -523.4318
   9   2.0000     -14.486228      -394.1903
  10   2.0000     -14.484517      -394.1437
  11   2.0000     -14.470287      -393.7565
  12   2.0000     -14.468493      -393.7077
  13   2.0000     -14.447830      -393.1454
  14   2.0000     -14.446287      -393.1035
  15   2.0000     -14.435744      -392.8166
  16   2.0000     -14.434145      -392.7731
  17   2.0000     -14.432471      -392.7275
  18   2.0000     -14.430324      -392.6691
  19   2.0000     -14.427870      -392.6023
  20   2.0000     -14.427303      -392.5869
  21   2.0000     -14.426635      -392.5687
  22   2.0000     -14.426579      -392.5672
  23   2.0000     -10.406924      -283.1868
  24   2.0000     -10.404406      -283.1183
  25   2.0000     -10.392917      -282.8057
  26   2.0000     -10.385909      -282.6149
  27   2.0000     -10.378663      -282.4178
  28   2.0000     -10.373617      -282.2805
  29   2.0000     -10.372980      -282.2631
  30   2.0000     -10.371886      -282.2334
  31   2.0000     -10.367024      -282.1011
  32   2.0000     -10.365678      -282.0644
  33   2.0000     -10.365610      -282.0626
  34   2.0000     -10.362826      -281.9868
  35   2.0000     -10.362670      -281.9826
  36   2.0000     -10.361055      -281.9386
  37   2.0000     -10.360349      -281.9194
  38   2.0000     -10.359502      -281.8964
  39   2.0000     -10.359339      -281.8920
  40   2.0000     -10.358622      -281.8724
  41   2.0000     -10.357604      -281.8447
  42   2.0000     -10.354681      -281.7652
  43   2.0000     -10.347776      -281.5773
  44   2.0000     -10.347336      -281.5653
  45   2.0000     -10.346179      -281.5338
  46   2.0000     -10.342869      -281.4438
  47   2.0000     -10.340479      -281.3788
  48   2.0000     -10.340339      -281.3749
  49   2.0000     -10.340088      -281.3681
  50   2.0000     -10.339810      -281.3605
  51   2.0000     -10.339304      -281.3468
  52   2.0000     -10.338517      -281.3253
  53   2.0000     -10.336943      -281.2825
  54   2.0000     -10.335867      -281.2533
  55   2.0000     -10.335835      -281.2524
  56   2.0000     -10.335755      -281.2502
  57   2.0000     -10.334223      -281.2085
  58   2.0000     -10.333866      -281.1988
  59   2.0000     -10.333519      -281.1893
  60   2.0000     -10.333404      -281.1862
  61   2.0000     -10.333085      -281.1775
  62   2.0000     -10.332670      -281.1663
  63   2.0000     -10.332630      -281.1652
  64   2.0000     -10.331414      -281.1321
  65   2.0000     -10.329959      -281.0925
  66   2.0000     -10.325360      -280.9673
  67   2.0000     -10.324968      -280.9567
  68   2.0000     -10.324345      -280.9397
  69   2.0000     -10.324076      -280.9324
  70   2.0000     -10.323250      -280.9099
  71   2.0000     -10.323032      -280.9040
  72   2.0000     -10.322901      -280.9004
  73   2.0000     -10.319116      -280.7974
  74   2.0000     -10.312808      -280.6258
  75   2.0000      -8.157022      -221.9639
  76   2.0000      -8.074451      -219.7170
  77   2.0000      -8.073994      -219.7045
  78   2.0000      -8.058812      -219.2914
  79   2.0000      -8.050974      -219.0781
  80   2.0000      -6.127977      -166.7507
  81   2.0000      -6.120185      -166.5387
  82   2.0000      -6.120109      -166.5366
  83   2.0000      -6.044127      -164.4691
  84   2.0000      -6.043518      -164.4525
  85   2.0000      -6.039632      -164.3467
  86   2.0000      -6.039116      -164.3327
  87   2.0000      -6.036077      -164.2500
  88   2.0000      -6.035603      -164.2371
  89   2.0000      -6.029110      -164.0604
  90   2.0000      -6.025141      -163.9524
  91   2.0000      -6.021391      -163.8504
  92   2.0000      -6.018480      -163.7712
  93   2.0000      -6.017260      -163.7380
  94   2.0000      -6.010365      -163.5503
  95   2.0000      -1.200533       -32.6682
  96   2.0000      -1.193113       -32.4663
  97   2.0000      -1.163249       -31.6536
  98   2.0000      -1.161150       -31.5965
  99   2.0000      -1.151480       -31.3334
 100   2.0000      -1.148041       -31.2398
 101   2.0000      -1.075712       -29.2716
 102   2.0000      -1.044065       -28.4105
 103   2.0000      -1.041772       -28.3481
 104   2.0000      -1.034285       -28.1443
 105   2.0000      -1.029684       -28.0191
 106   2.0000      -1.028419       -27.9847
 107   2.0000      -1.025493       -27.9051
 108   2.0000      -1.021507       -27.7966
 109   2.0000      -1.018931       -27.7265
 110   2.0000      -1.012864       -27.5614
 111   2.0000      -1.012406       -27.5490
 112   2.0000      -1.011332       -27.5197
 113   2.0000      -1.010265       -27.4907
 114   2.0000      -1.009268       -27.4636
 115   2.0000      -1.007026       -27.4026
 116   2.0000      -1.005785       -27.3688
 117   2.0000      -0.995135       -27.0790
 118   2.0000      -0.979409       -26.6511
 119   2.0000      -0.977812       -26.6076
 120   2.0000      -0.951352       -25.8876
 121   2.0000      -0.947105       -25.7720
 122   2.0000      -0.930121       -25.3099
 123   2.0000      -0.928964       -25.2784
 124   2.0000      -0.927823       -25.2473
 125   2.0000      -0.924795       -25.1650
 126   2.0000      -0.917687       -24.9715
 127   2.0000      -0.907626       -24.6978
 128   2.0000      -0.903733       -24.5918
 129   2.0000      -0.902598       -24.5610
 130   2.0000      -0.888106       -24.1666
 131   2.0000      -0.882068       -24.0023
 132   2.0000      -0.869664       -23.6647
 133   2.0000      -0.856392       -23.3036
 134   2.0000      -0.852052       -23.1855
 135   2.0000      -0.830240       -22.5920
 136   2.0000      -0.823664       -22.4130
 137   2.0000      -0.811204       -22.0740
 138   2.0000      -0.808225       -21.9929
 139   2.0000      -0.802236       -21.8299
 140   2.0000      -0.795110       -21.6360
 141   2.0000      -0.792571       -21.5669
 142   2.0000      -0.776475       -21.1290
 143   2.0000      -0.761055       -20.7094
 144   2.0000      -0.759364       -20.6633
 145   2.0000      -0.753668       -20.5083
 146   2.0000      -0.749637       -20.3987
 147   2.0000      -0.748632       -20.3713
 148   2.0000      -0.731579       -19.9073
 149   2.0000      -0.720511       -19.6061
 150   2.0000      -0.717868       -19.5342
 151   2.0000      -0.715931       -19.4815
 152   2.0000      -0.710504       -19.3338
 153   2.0000      -0.702479       -19.1154
 154   2.0000      -0.692946       -18.8560
 155   2.0000      -0.687572       -18.7098
 156   2.0000      -0.677988       -18.4490
 157   2.0000      -0.677607       -18.4386
 158   2.0000      -0.667987       -18.1769
 159   2.0000      -0.660676       -17.9779
 160   2.0000      -0.657055       -17.8794
 161   2.0000      -0.654048       -17.7975
 162   2.0000      -0.652790       -17.7633
 163   2.0000      -0.651394       -17.7253
 164   2.0000      -0.641869       -17.4661
 165   2.0000      -0.637343       -17.3430
 166   2.0000      -0.628020       -17.0893
 167   2.0000      -0.620113       -16.8741
 168   2.0000      -0.614304       -16.7161
 169   2.0000      -0.606933       -16.5155
 170   2.0000      -0.604605       -16.4521
 171   2.0000      -0.601181       -16.3590
 172   2.0000      -0.600180       -16.3317
 173   2.0000      -0.596598       -16.2342
 174   2.0000      -0.594614       -16.1803
 175   2.0000      -0.588810       -16.0223
 176   2.0000      -0.585417       -15.9300
 177   2.0000      -0.579063       -15.7571
 178   2.0000      -0.572657       -15.5828
 179   2.0000      -0.569229       -15.4895
 180   2.0000      -0.567996       -15.4560
 181   2.0000      -0.566791       -15.4232
 182   2.0000      -0.563619       -15.3368
 183   2.0000      -0.562850       -15.3159
 184   2.0000      -0.559117       -15.2144
 185   2.0000      -0.556237       -15.1360
 186   2.0000      -0.550172       -14.9709
 187   2.0000      -0.549184       -14.9441
 188   2.0000      -0.542944       -14.7742
 189   2.0000      -0.539185       -14.6720
 190   2.0000      -0.538695       -14.6586
 191   2.0000      -0.531935       -14.4747
 192   2.0000      -0.528683       -14.3862
 193   2.0000      -0.527216       -14.3463
 194   2.0000      -0.524614       -14.2755
 195   2.0000      -0.520956       -14.1759
 196   2.0000      -0.520328       -14.1589
 197   2.0000      -0.517650       -14.0860
 198   2.0000      -0.515305       -14.0222
 199   2.0000      -0.514054       -13.9881
 200   2.0000      -0.509612       -13.8672
 201   2.0000      -0.506699       -13.7880
 202   2.0000      -0.504342       -13.7238
 203   2.0000      -0.500359       -13.6155
 204   2.0000      -0.497302       -13.5323
 205   2.0000      -0.495198       -13.4750
 206   2.0000      -0.491971       -13.3872
 207   2.0000      -0.487343       -13.2613
 208   2.0000      -0.485581       -13.2133
 209   2.0000      -0.480653       -13.0792
 210   2.0000      -0.476506       -12.9664
 211   2.0000      -0.473058       -12.8726
 212   2.0000      -0.472437       -12.8557
 213   2.0000      -0.470044       -12.7906
 214   2.0000      -0.466520       -12.6947
 215   2.0000      -0.466039       -12.6816
 216   2.0000      -0.464159       -12.6304
 217   2.0000      -0.462365       -12.5816
 218   2.0000      -0.460538       -12.5319
 219   2.0000      -0.460049       -12.5186
 220   2.0000      -0.460011       -12.5175
 221   2.0000      -0.459454       -12.5024
 222   2.0000      -0.456620       -12.4253
 223   2.0000      -0.454308       -12.3624
 224   2.0000      -0.453588       -12.3428
 225   2.0000      -0.452230       -12.3058
 226   2.0000      -0.452004       -12.2997
 227   2.0000      -0.451201       -12.2778
 228   2.0000      -0.450730       -12.2650
 229   2.0000      -0.449735       -12.2379
 230   2.0000      -0.446511       -12.1502
 231   2.0000      -0.445693       -12.1279
 232   2.0000      -0.444897       -12.1063
 233   2.0000      -0.444058       -12.0834
 234   2.0000      -0.443444       -12.0667
 235   2.0000      -0.443278       -12.0622
 236   2.0000      -0.438978       -11.9452
 237   2.0000      -0.434788       -11.8312
 238   2.0000      -0.434184       -11.8148
 239   2.0000      -0.433183       -11.7875
 240   2.0000      -0.428730       -11.6663
 241   2.0000      -0.427909       -11.6440
 242   2.0000      -0.427488       -11.6325
 243   2.0000      -0.426565       -11.6074
 244   2.0000      -0.425865       -11.5884
 245   2.0000      -0.422812       -11.5053
 246   2.0000      -0.419209       -11.4073
 247   2.0000      -0.416188       -11.3251
 248   2.0000      -0.409140       -11.1333
 249   2.0000      -0.401643       -10.9293
 250   2.0000      -0.398210       -10.8358
 251   2.0000      -0.393363       -10.7040
 252   2.0000      -0.383140       -10.4258
 253   2.0000      -0.376205       -10.2371
 254   2.0000      -0.372241       -10.1292
 255   2.0000      -0.369584       -10.0569
 256   2.0000      -0.368227       -10.0200
 257   2.0000      -0.367268        -9.9939
 258   2.0000      -0.357719        -9.7340
 259   2.0000      -0.354070        -9.6347
 260   2.0000      -0.351465        -9.5638
 261   2.0000      -0.343618        -9.3503
 262   2.0000      -0.336257        -9.1500
 263   2.0000      -0.328407        -8.9364
 264   2.0000      -0.307856        -8.3772
 265   2.0000      -0.296167        -8.0591
 266   2.0000      -0.292596        -7.9619
 267   2.0000      -0.266208        -7.2439
 268   0.0000      -0.152412        -4.1473
 269   0.0000      -0.110242        -2.9998
 270   0.0000      -0.102069        -2.7774
 271   0.0000      -0.094795        -2.5795
 272   0.0000      -0.091464        -2.4889

MULLIKEN ATOMIC CHARGES
-----------------------
   0 C :    0.049874
   1 C :   -0.046159
   2 C :   -0.061434
   3 C :   -0.175429
   4 N :    0.202254
   5 C :   -0.067436
   6 C :   -0.172243
   7 N :    0.200176
   8 C :   -0.030265
   9 C :   -0.004677
  10 C :    0.170318
  11 O :   -0.161194
  12 C :   -0.100597
  13 C :    0.314911
  14 C :   -0.335361
  15 C :   -0.190504
  16 N :    0.171861
  17 C :   -0.196658
  18 N :    0.164851
  19 C :   -0.038145
  20 C :   -0.068301
  21 C :   -0.072777
  22 C :    0.219545
  23 O :   -0.278757
  24 C :    0.217828
  25 C :   -0.097835
  26 S :    0.043901
  27 C :   -0.216112
  28 S :    0.228742
  29 C :    0.163340
  30 C :   -0.043790
  31 C :   -0.037658
  32 N :   -0.002212
  33 C :   -0.088922
  34 C :   -0.121660
  35 N :    0.017231
  36 C :   -0.210174
  37 N :    0.255907
  38 C :   -0.238162
  39 N :    0.258126
  40 C :    0.147679
  41 C :   -0.015073
  42 C :   -0.025229
  43 N :   -0.254240
  44 S :    0.550849
  45 N :   -0.274875
  46 C :   -0.216942
  47 C :   -0.018926
  48 C :    0.178843
  49 O :   -0.297843
  50 C :    0.199379
  51 C :   -0.085883
  52 S :    0.061824
  53 C :   -0.124432
  54 S :    0.191190
  55 C :    0.080986
  56 C :   -0.136915
  57 C :    0.139912
  58 O :   -0.123230
  59 C :    0.007179
  60 C :   -0.033773
  61 C :   -0.072432
  62 C :   -0.061418
  63 C :   -0.048894
  64 C :    0.045045
  65 C :    0.298334
  66 C :   -0.325767
  67 C :   -0.212555
  68 N :    0.172795
  69 C :   -0.190269
  70 N :    0.168166
  71 C :   -0.173650
  72 N :    0.199018
  73 C :   -0.172035
  74 N :    0.195580
  75 H :    0.021494
  76 H :    0.025017
  77 H :    0.027579
  78 H :    0.035196
  79 H :    0.038738
  80 H :    0.082141
  81 H :    0.072362
  82 H :    0.045143
  83 H :    0.051275
  84 H :    0.074819
  85 H :    0.067723
  86 H :    0.030004
  87 H :    0.016178
  88 H :    0.017530
Sum of atomic charges:   -0.0000000

LOEWDIN ATOMIC CHARGES
----------------------
   0 C :    0.002294
   1 C :    0.032911
   2 C :   -0.023738
   3 C :   -0.031490
   4 N :   -0.011473
   5 C :   -0.027407
   6 C :   -0.031686
   7 N :   -0.011630
   8 C :    0.051551
   9 C :   -0.028704
  10 C :    0.084672
  11 O :   -0.148913
  12 C :   -0.106092
  13 C :    0.068292
  14 C :   -0.125347
  15 C :   -0.022026
  16 N :   -0.035871
  17 C :   -0.024249
  18 N :   -0.036089
  19 C :    0.054051
  20 C :   -0.206200
  21 C :   -0.195015
  22 C :    0.005811
  23 O :   -0.077297
  24 C :    0.071944
  25 C :   -0.137137
  26 S :    0.332414
  27 C :   -0.179319
  28 S :    0.556617
  29 C :   -0.027884
  30 C :   -0.007572
  31 C :   -0.005732
  32 N :   -0.016589
  33 C :   -0.012213
  34 C :   -0.017912
  35 N :   -0.007225
  36 C :   -0.032215
  37 N :    0.001773
  38 C :   -0.039281
  39 N :    0.010844
  40 C :   -0.039789
  41 C :   -0.045907
  42 C :   -0.041601
  43 N :   -0.264475
  44 S :    0.687128
  45 N :   -0.286254
  46 C :   -0.168013
  47 C :   -0.199853
  48 C :    0.024817
  49 O :   -0.069338
  50 C :    0.069987
  51 C :   -0.140756
  52 S :    0.346764
  53 C :   -0.205224
  54 S :    0.502600
  55 C :    0.053932
  56 C :   -0.095228
  57 C :    0.083854
  58 O :   -0.124910
  59 C :   -0.032520
  60 C :    0.049328
  61 C :   -0.032452
  62 C :   -0.023834
  63 C :    0.026179
  64 C :    0.007883
  65 C :    0.059403
  66 C :   -0.127655
  67 C :   -0.017468
  68 N :   -0.048113
  69 C :   -0.026037
  70 N :   -0.045330
  71 C :   -0.031220
  72 N :   -0.013969
  73 C :   -0.032358
  74 N :   -0.016263
  75 H :    0.052281
  76 H :    0.057855
  77 H :    0.042073
  78 H :    0.032294
  79 H :    0.022208
  80 H :    0.035164
  81 H :    0.041691
  82 H :    0.034091
  83 H :    0.025166
  84 H :    0.032268
  85 H :    0.040965
  86 H :    0.049013
  87 H :    0.054193
  88 H :    0.050565

  Mayer bond orders larger than 0.100000
B(  0-C ,  1-C ) :   1.3632 B(  0-C ,  9-C ) :   1.3341 B(  0-C , 13-C ) :   0.9536
B(  1-C ,  2-C ) :   1.3890 B(  1-C , 75-H ) :   0.9867 B(  2-C ,  3-C ) :   1.0868
B(  2-C ,  5-C ) :   1.4068 B(  3-C ,  4-N ) :   3.0444 B(  5-C ,  6-C ) :   1.0865
B(  5-C ,  8-C ) :   1.3529 B(  6-C ,  7-N ) :   3.0430 B(  8-C ,  9-C ) :   1.3677
B(  8-C , 76-H ) :   1.0148 B(  9-C , 10-C ) :   0.9397 B( 10-C , 11-O ) :   2.1306
B( 10-C , 12-C ) :   0.9799 B( 12-C , 13-C ) :   1.0887 B( 12-C , 19-C ) :   1.5053
B( 13-C , 14-C ) :   1.6410 B( 14-C , 15-C ) :   1.1499 B( 14-C , 17-C ) :   1.1450
B( 15-C , 16-N ) :   2.9628 B( 17-C , 18-N ) :   2.9711 B( 19-C , 20-C ) :   1.2928
B( 19-C , 77-H ) :   0.9351 B( 20-C , 21-C ) :   1.3847 B( 20-C , 27-C ) :   0.1058
B( 20-C , 28-S ) :   1.0670 B( 21-C , 22-C ) :   1.3056 B( 21-C , 26-S ) :   1.0361
B( 22-C , 23-O ) :   1.1956 B( 22-C , 27-C ) :   1.3850 B( 23-O , 24-C ) :   0.9560
B( 24-C , 25-C ) :   1.0388 B( 24-C , 78-H ) :   0.9505 B( 24-C , 79-H ) :   0.9526
B( 25-C , 26-S ) :   1.0061 B( 25-C , 80-H ) :   0.9435 B( 25-C , 81-H ) :   0.9475
B( 27-C , 28-S ) :   1.1111 B( 27-C , 29-C ) :   1.1634 B( 29-C , 30-C ) :   1.2531
B( 29-C , 40-C ) :   0.1177 B( 29-C , 42-C ) :   1.2073 B( 30-C , 31-C ) :   1.1296
B( 30-C , 35-N ) :   1.4099 B( 31-C , 32-N ) :   1.3806 B( 31-C , 40-C ) :   1.2708
B( 32-N , 33-C ) :   1.7013 B( 33-C , 34-C ) :   1.2103 B( 33-C , 38-C ) :   1.1638
B( 34-C , 35-N ) :   1.7032 B( 34-C , 36-C ) :   1.1727 B( 36-C , 37-N ) :   3.0228
B( 38-C , 39-N ) :   3.0389 B( 40-C , 41-C ) :   1.1988 B( 40-C , 46-C ) :   1.1536
B( 41-C , 42-C ) :   1.0824 B( 41-C , 45-N ) :   1.5148 B( 42-C , 43-N ) :   1.5268
B( 43-N , 44-S ) :   1.3029 B( 43-N , 45-N ) :   0.1512 B( 44-S , 45-N ) :   1.2857
B( 46-C , 47-C ) :   1.4803 B( 46-C , 53-C ) :   0.1029 B( 46-C , 54-S ) :   1.1480
B( 47-C , 48-C ) :   1.2610 B( 47-C , 52-S ) :   1.0357 B( 48-C , 49-O ) :   1.1817
B( 48-C , 53-C ) :   1.4199 B( 49-O , 50-C ) :   0.9162 B( 50-C , 51-C ) :   1.0533
B( 50-C , 82-H ) :   0.9478 B( 50-C , 83-H ) :   0.9443 B( 51-C , 52-S ) :   1.0143
B( 51-C , 84-H ) :   0.9427 B( 51-C , 85-H ) :   0.9462 B( 53-C , 54-S ) :   1.0558
B( 53-C , 55-C ) :   1.1920 B( 55-C , 56-C ) :   1.5960 B( 55-C , 86-H ) :   0.9204
B( 56-C , 57-C ) :   0.9491 B( 56-C , 65-C ) :   1.0880 B( 57-C , 58-O ) :   2.2787
B( 57-C , 59-C ) :   0.8970 B( 59-C , 60-C ) :   1.3757 B( 59-C , 64-C ) :   1.3324
B( 60-C , 61-C ) :   1.3596 B( 60-C , 87-H ) :   1.0143 B( 61-C , 62-C ) :   1.4095
B( 61-C , 73-C ) :   1.0866 B( 62-C , 63-C ) :   1.3849 B( 62-C , 71-C ) :   1.0838
B( 63-C , 64-C ) :   1.3643 B( 63-C , 88-H ) :   0.9897 B( 64-C , 65-C ) :   0.9723
B( 65-C , 66-C ) :   1.6326 B( 66-C , 67-C ) :   1.1827 B( 66-C , 69-C ) :   1.1380
B( 67-C , 68-N ) :   2.9652 B( 69-C , 70-N ) :   2.9732 B( 71-C , 72-N ) :   3.0456
B( 73-C , 74-N ) :   3.0443

-----------------------------------------------------------------------------
         ABSORPTION SPECTRUM VIA TRANSITION ELECTRIC DIPOLE MOMENTS
-----------------------------------------------------------------------------
State   Energy  Wavelength   fosc         T2         TX        TY        TZ
        (cm-1)    (nm)                  (au**2)     (au)      (au)      (au)
-----------------------------------------------------------------------------
   0    8909.2   1122.4   0.627224957  23.17726   0.40273  -4.25697   2.21208
   1   13439.5    744.1   0.064786634   1.58700   0.05083  -1.25147   0.13506
   2   14239.3    702.3   0.028999201   0.67046  -0.02553   0.57594   0.58146
   3   17958.1    556.9   0.026019566   0.47700  -0.09963  -0.21289  -0.64942
   4   19545.5    511.6   0.488914290   8.23497  -0.04921   2.20055  -1.84123
   5   20658.4    484.1   0.264147592   4.20946   0.13232   1.90717  -0.74475
   6   21679.4    461.3   0.012731936   0.19334   0.06781  -0.42732  -0.07835
   7   22166.7    451.1   0.041065767   0.60989  -0.10149   0.37096  -0.67969
   8   23320.0    428.8   0.060672166   0.85652   0.20807  -0.90123   0.03181
   9   23563.5    424.4   0.040473662   0.56547   0.03371   0.24964   0.70853
  10   23683.3    422.2   0.031102919   0.43235   0.47631   0.44929  -0.06010
  11   24113.7    414.7   0.185513596   2.53272  -0.24782   1.54230  -0.30432
  12   25259.7    395.9   0.019577428   0.25515   0.10188   0.49412   0.02485
  13   25763.5    388.1   0.054388051   0.69498   0.02762  -0.72388  -0.41257
  14   25846.7    386.9   0.060811198   0.77456   0.06851  -0.80588  -0.34701
  15   26944.3    371.1   0.002193102   0.02680  -0.02779   0.15682  -0.03784
  16   27196.0    367.7   0.022324529   0.27024  -0.13880  -0.29335   0.40611
  17   27401.4    364.9   0.024149000   0.29014   0.07676  -0.49690  -0.19322
  18   27872.8    358.8   0.078600012   0.92836   0.10229  -0.69428   0.66021
  19   27996.7    357.2   0.021136304   0.24854  -0.07035   0.29563  -0.39522
  20   28227.1    354.3   0.019261249   0.22464  -0.20148   0.19566  -0.38179
  21   29168.0    342.8   0.019060292   0.21513  -0.33526   0.29559  -0.12392
  22   29390.5    340.2   0.002471329   0.02768  -0.12606  -0.09955  -0.04335
  23   29778.4    335.8   0.123701441   1.36757  -0.17682  -0.18778  -1.14063
  24   30251.7    330.6   0.164068958   1.78547  -0.87327  -0.47639  -0.89214
  25   30773.1    325.0   0.046708483   0.49969   0.59274  -0.31018  -0.22834
  26   30941.1    323.2   0.438477261   4.66537   0.68506   0.79663   1.88718
  27   31207.9    320.4   0.003329449   0.03512  -0.07204  -0.05046  -0.16549
  28   31592.7    316.5   0.056102225   0.58461   0.02236  -0.50472  -0.57390
  29   31778.0    314.7   0.077529463   0.80319  -0.50822  -0.20923  -0.70790
  30   31949.7    313.0   0.069089923   0.71191  -0.44070   0.71733   0.05592
  31   32162.2    310.9   0.111132249   1.13755  -0.21914  -0.46229  -0.93585
  32   32657.6    306.2   0.010198821   0.10281  -0.21582  -0.12275  -0.20289
  33   32884.4    304.1   0.047915531   0.47969  -0.00562   0.68114   0.12532
  34   33020.3    302.8   0.012232655   0.12196   0.04617  -0.12777   0.32172
  35   33162.8    301.5   0.017107267   0.16983  -0.14316   0.08261   0.37750
  36   33383.9    299.5   0.052045661   0.51324  -0.00695   0.29621  -0.65227
  37   33751.4    296.3   0.177752525   1.73380   1.01041  -0.79662  -0.27975
  38   34040.2    293.8   0.229230842   2.21695   0.67260  -0.24731   1.30515
  39   34133.0    293.0   0.054123684   0.52202  -0.07612   0.10964   0.71007
  40   34430.9    290.4   0.361809980   3.45946   0.55020  -1.53976  -0.88650
  41   34629.2    288.8   0.094523925   0.89862  -0.03590   0.68175   0.65768
  42   34747.3    287.8   0.021554219   0.20421   0.44447  -0.07468   0.03293
  43   34862.1    286.8   0.435547173   4.11299   0.37576   1.87483   0.67587
  44   35121.3    284.7   0.026684143   0.25013  -0.09418  -0.35944  -0.33475
  45   35888.7    278.6   0.028422474   0.26072   0.21422  -0.39423   0.24375
  46   35959.2    278.1   0.033188502   0.30385   0.26356  -0.25491  -0.41158
  47   36262.6    275.8   0.022605676   0.20523   0.27743   0.35790  -0.01286
  48   36366.8    275.0   0.023981974   0.21710  -0.00196   0.35659  -0.29990
  49   36574.0    273.4   0.011545969   0.10393  -0.05845  -0.06697   0.30988
  50   36752.0    272.1   0.096805808   0.86715   0.13923  -0.64293  -0.65910
  51   36851.4    271.4   0.092349818   0.82501   0.58844  -0.60590   0.33412
  52   37259.6    268.4   0.084452774   0.74619  -0.51416   0.65392   0.23286
  53   37347.1    267.8   0.008335580   0.07348   0.11427   0.24346   0.03390
  54   37799.5    264.6   0.015760493   0.13726  -0.29558   0.12994   0.18170
  55   37930.3    263.6   0.090607148   0.78642   0.20880   0.76060   0.40535
  56   38053.7    262.8   0.049602770   0.42913   0.13984   0.62692   0.12862
  57   38647.1    258.8   0.258003044   2.19778   0.37743  -0.42279   1.36988
  58   38898.6    257.1   0.034328413   0.29053  -0.15771   0.28284  -0.43089
  59   38958.9    256.7   0.127321944   1.07590   0.08626  -0.83109  -0.61461
  60   39259.9    254.7   0.009372313   0.07859  -0.15812  -0.20052  -0.11568
  61   39371.0    254.0   0.025277513   0.21137  -0.15623   0.28125  -0.32841
  62   40052.2    249.7   0.021923056   0.18020  -0.01173  -0.15528  -0.39490
  63   40178.4    248.9   0.102985552   0.84384  -0.31017  -0.47746  -0.72088

FINAL SINGLE POINT ENERGY     -5043.643238730034

DIPOLE MOMENT
-------------
                                X             Y             Z
Electronic contribution:     -1.52471      -2.07283     -20.37885
Nuclear contribution   :      3.10234       5.23676      25.90674
                        -----------------------------------------
Total Dipole Moment    :      1.57763       3.16393       5.52789
                        -----------------------------------------
Magnitude (a.u.)       :      6.56178
Magnitude (Debye)      :     16.67872

Rotational constants in cm-1:     0.001727     0.000313     0.000272
Rotational constants in MHz :    51.784376     9.372443     8.159454

                             ****ORCA TERMINATED NORMALLY****
TOTAL RUN TIME: 0 days 0 hours 10 minutes 21 seconds 417 msec
