                         Program Version 4.2.0 -  RELEASE  -
|  1> # ORCA input file
|  2> # SCF done       -211.357284584967          0.000886819212
|  3> ! CAM-B3LYP def2-SVP def2/J RIJCOSX Grid4 TightSCF
|  4> %maxcore 5000
|  5> %tddft
|  6>     Mode sTDDFT
|  7>     Ethresh 5.0
|  8>     maxcore 5000
|  9> end
| 10>
| 11> %pal
| 12>   nprocs 6
| 13>   end
| 14> * xyz 0 1
| 15>    C       -3.48912         0.24400         3.38042
| 16>    C       -3.21214         1.46925         3.96591
| 17>    C       -1.88337         1.89187         4.02720
| 18>    C       -1.57872         3.13732         4.63095
| 19>    N       -1.34089         4.14356         5.12225
| 20>    C       -0.83958         1.10341         3.50498
| 21>    C        0.49705         1.56404         3.57705
| 22>    N        1.58406         1.92044         3.62865
| 23>    C       -1.12293        -0.13203         2.92196
| 24>    C       -2.43886        -0.54090         2.87516
| 25>    C       -2.97394        -1.81141         2.33043
| 26>    O       -2.30178        -2.66280         1.79236
| 27>    C       -4.43088        -1.77698         2.59517
| 28>    C       -4.74683        -0.46864         3.16234
| 29>    C       -5.98599         0.06305         3.40181
| 30>    C       -6.20348         1.35538         3.93071
| 31>    N       -6.45345         2.39092         4.35662
| 32>    C       -7.23400        -0.54649         3.14191
| 33>    N       -8.29766        -0.94087         2.95972
| 34>    C       -5.38551        -2.74558         2.45152
| 35>    C       -5.41596        -4.07872         1.93918
| 36>    C       -6.66562        -4.72383         2.02388
| 37>    C       -6.79197        -6.00688         1.53875
| 38>    C       -5.67961        -6.68716         0.96687
| 39>    C       -4.44614        -6.04422         0.88666
| 40>    C       -4.32149        -4.76123         1.36194
| 41>    C       -6.15357        -7.97485         0.58147
| 42>    C       -7.52822        -8.02032         0.93729
| 43>    N       -7.89428        -6.82476         1.50080
| 44>    C       -9.20738        -6.48578         1.97284
| 45>    C       -8.29097        -9.15187         0.70778
| 46>    C       -7.68458       -10.25131         0.10416
| 47>    C       -6.32565       -10.19620        -0.26383
| 48>    C       -5.56198        -9.07873        -0.02828
| 49>    C       -8.47000       -11.44883        -0.16370
| 50>    C       -7.93348       -12.74534        -0.06211
| 51>    C       -8.69889       -13.92756        -0.39473
| 52>    N       -8.08248       -15.12490        -0.40961
| 53>    C       -6.84209       -15.22243        -0.02001
| 54>    C       -6.14086       -14.06903         0.48347
| 55>    N       -6.68439       -12.88555         0.42240
| 56>    C       -4.84774       -14.21196         1.04647
| 57>    N       -3.80070       -14.36209         1.48548
| 58>    C       -6.18617       -16.47761        -0.08000
| 59>    N       -5.61864       -17.47212        -0.10189
| 60>    C      -10.05496       -13.86397        -0.76693
| 61>    C      -10.59746       -12.56977        -0.84343
| 62>    C       -9.82150       -11.38431        -0.54069
| 63>    N      -10.55270       -10.27086        -0.68498
| 64>    S      -12.03623       -10.66900        -1.12872
| 65>    N      -11.85707       -12.25648        -1.17570
| 66>    C      -10.84772       -15.05041        -1.05997
| 67>    C      -11.82559       -14.99418        -2.05174
| 68>    C      -12.57656       -16.12729        -2.30826
| 69>    C      -12.36184       -17.32890        -1.58146
| 70>    C      -11.38752       -17.36986        -0.58774
| 71>    C      -10.64646       -16.24074        -0.33450
| 72>    C      -13.29408       -18.28124        -2.09024
| 73>    C      -14.03902       -17.60893        -3.09653
| 74>    N      -13.58541       -16.32243        -3.21851
| 75>    C      -14.10568       -15.36279        -4.15087
| 76>    C      -15.06036       -18.24399        -3.77774
| 77>    C      -15.29402       -19.59417        -3.50973
| 78>    C      -14.55033       -20.25916        -2.51241
| 79>    C      -13.57427       -19.61238        -1.79389
| 80>    C      -16.33036       -20.27746        -4.23622
| 81>    C      -16.37818       -21.58262        -4.59976
| 82>    C      -17.67040       -22.20214        -4.99573
| 83>    O      -18.70752       -21.63591        -5.24374
| 84>    C      -17.42182       -23.66356        -4.96354
| 85>    C      -18.32245       -24.69233        -5.14225
| 86>    C      -17.85458       -26.00314        -5.03679
| 87>    C      -16.49870       -26.25004        -4.74578
| 88>    C      -15.59260       -25.20181        -4.57690
| 89>    C      -16.05916       -23.90343        -4.69446
| 90>    C      -15.36258       -22.61959        -4.61591
| 91>    C      -14.01978       -22.43613        -4.79863
| 92>    C      -13.42663       -21.17254        -5.01400
| 93>    N      -12.90766       -20.18344        -5.27497
| 94>    C      -13.09139       -23.49407        -4.90017
| 95>    N      -12.30763       -24.32847        -4.97185
| 96>    C      -16.04787       -27.58773        -4.61962
| 97>    N      -15.67816       -28.66570        -4.51115
| 98>    C      -18.74634       -27.08773        -5.21848
| 99>    N      -19.48304       -27.95078        -5.37229
|100>    H       -3.98103         2.10150         4.37971
|101>    H       -0.33641        -0.75315         2.52084
|102>    H       -6.35949        -2.44536         2.82124
|103>    H       -7.50616        -4.20861         2.46492
|104>    H       -3.59791        -6.55038         0.45286
|105>    H       -3.37030        -4.26377         1.29595
|106>    H       -9.95265        -7.03007         1.39465
|107>    H       -9.38021        -5.41801         1.84388
|108>    H       -9.32576        -6.73729         3.03115
|109>    H       -9.32603        -9.20228         1.00197
|110>    H       -5.88399       -11.04563        -0.75810
|111>    H       -4.52247        -9.05167        -0.31552
|112>    H      -11.97073       -14.08268        -2.60747
|113>    H      -11.22351       -18.27317        -0.02112
|114>    H       -9.90863       -16.25578         0.45041
|115>    H      -14.13137       -15.79314        -5.15390
|116>    H      -13.46611       -14.48412        -4.16379
|117>    H      -15.11785       -15.05723        -3.87109
|118>    H      -15.63573       -17.73852        -4.53776
|119>    H      -14.79241       -21.28650        -2.28240
|120>    H      -13.02835       -20.12646        -1.01812
|121>    H      -17.21421       -19.69685        -4.48278
|122>    H      -19.36035       -24.48885        -5.35806
|123>    H      -14.56150       -25.42460        -4.35129
|124> *
|125>
|126>                          ****END OF INPUT****

CARTESIAN COORDINATES (ANGSTROEM)
---------------------------------
  C     -3.489120    0.244000    3.380420
  C     -3.212140    1.469250    3.965910
  C     -1.883370    1.891870    4.027200
  C     -1.578720    3.137320    4.630950
  N     -1.340890    4.143560    5.122250
  C     -0.839580    1.103410    3.504980
  C      0.497050    1.564040    3.577050
  N      1.584060    1.920440    3.628650
  C     -1.122930   -0.132030    2.921960
  C     -2.438860   -0.540900    2.875160
  C     -2.973940   -1.811410    2.330430
  O     -2.301780   -2.662800    1.792360
  C     -4.430880   -1.776980    2.595170
  C     -4.746830   -0.468640    3.162340
  C     -5.985990    0.063050    3.401810
  C     -6.203480    1.355380    3.930710
  N     -6.453450    2.390920    4.356620
  C     -7.234000   -0.546490    3.141910
  N     -8.297660   -0.940870    2.959720
  C     -5.385510   -2.745580    2.451520
  C     -5.415960   -4.078720    1.939180
  C     -6.665620   -4.723830    2.023880
  C     -6.791970   -6.006880    1.538750
  C     -5.679610   -6.687160    0.966870
  C     -4.446140   -6.044220    0.886660
  C     -4.321490   -4.761230    1.361940
  C     -6.153570   -7.974850    0.581470
  C     -7.528220   -8.020320    0.937290
  N     -7.894280   -6.824760    1.500800
  C     -9.207380   -6.485780    1.972840
  C     -8.290970   -9.151870    0.707780
  C     -7.684580  -10.251310    0.104160
  C     -6.325650  -10.196200   -0.263830
  C     -5.561980   -9.078730   -0.028280
  C     -8.470000  -11.448830   -0.163700
  C     -7.933480  -12.745340   -0.062110
  C     -8.698890  -13.927560   -0.394730
  N     -8.082480  -15.124900   -0.409610
  C     -6.842090  -15.222430   -0.020010
  C     -6.140860  -14.069030    0.483470
  N     -6.684390  -12.885550    0.422400
  C     -4.847740  -14.211960    1.046470
  N     -3.800700  -14.362090    1.485480
  C     -6.186170  -16.477610   -0.080000
  N     -5.618640  -17.472120   -0.101890
  C    -10.054960  -13.863970   -0.766930
  C    -10.597460  -12.569770   -0.843430
  C     -9.821500  -11.384310   -0.540690
  N    -10.552700  -10.270860   -0.684980
  S    -12.036230  -10.669000   -1.128720
  N    -11.857070  -12.256480   -1.175700
  C    -10.847720  -15.050410   -1.059970
  C    -11.825590  -14.994180   -2.051740
  C    -12.576560  -16.127290   -2.308260
  C    -12.361840  -17.328900   -1.581460
  C    -11.387520  -17.369860   -0.587740
  C    -10.646460  -16.240740   -0.334500
  C    -13.294080  -18.281240   -2.090240
  C    -14.039020  -17.608930   -3.096530
  N    -13.585410  -16.322430   -3.218510
  C    -14.105680  -15.362790   -4.150870
  C    -15.060360  -18.243990   -3.777740
  C    -15.294020  -19.594170   -3.509730
  C    -14.550330  -20.259160   -2.512410
  C    -13.574270  -19.612380   -1.793890
  C    -16.330360  -20.277460   -4.236220
  C    -16.378180  -21.582620   -4.599760
  C    -17.670400  -22.202140   -4.995730
  O    -18.707520  -21.635910   -5.243740
  C    -17.421820  -23.663560   -4.963540
  C    -18.322450  -24.692330   -5.142250
  C    -17.854580  -26.003140   -5.036790
  C    -16.498700  -26.250040   -4.745780
  C    -15.592600  -25.201810   -4.576900
  C    -16.059160  -23.903430   -4.694460
  C    -15.362580  -22.619590   -4.615910
  C    -14.019780  -22.436130   -4.798630
  C    -13.426630  -21.172540   -5.014000
  N    -12.907660  -20.183440   -5.274970
  C    -13.091390  -23.494070   -4.900170
  N    -12.307630  -24.328470   -4.971850
  C    -16.047870  -27.587730   -4.619620
  N    -15.678160  -28.665700   -4.511150
  C    -18.746340  -27.087730   -5.218480
  N    -19.483040  -27.950780   -5.372290
  H     -3.981030    2.101500    4.379710
  H     -0.336410   -0.753150    2.520840
  H     -6.359490   -2.445360    2.821240
  H     -7.506160   -4.208610    2.464920
  H     -3.597910   -6.550380    0.452860
  H     -3.370300   -4.263770    1.295950
  H     -9.952650   -7.030070    1.394650
  H     -9.380210   -5.418010    1.843880
  H     -9.325760   -6.737290    3.031150
  H     -9.326030   -9.202280    1.001970
  H     -5.883990  -11.045630   -0.758100
  H     -4.522470   -9.051670   -0.315520
  H    -11.970730  -14.082680   -2.607470
  H    -11.223510  -18.273170   -0.021120
  H     -9.908630  -16.255780    0.450410
  H    -14.131370  -15.793140   -5.153900
  H    -13.466110  -14.484120   -4.163790
  H    -15.117850  -15.057230   -3.871090
  H    -15.635730  -17.738520   -4.537760
  H    -14.792410  -21.286500   -2.282400
  H    -13.028350  -20.126460   -1.018120
  H    -17.214210  -19.696850   -4.482780
  H    -19.360350  -24.488850   -5.358060
  H    -14.561500  -25.424600   -4.351290

 Total Charge           Charge          ....    0
 Multiplicity           Mult            ....    1
 Number of Electrons    NEL             ....  564
 Basis Dimension        Dim             .... 1314

ORBITAL ENERGIES
----------------

  NO   OCC          E(Eh)            E(eV)
   0   2.0000     -89.063398     -2423.5383
   1   2.0000     -19.242134      -523.6051
   2   2.0000     -19.240457      -523.5594
   3   2.0000     -14.474916      -393.8825
   4   2.0000     -14.473653      -393.8481
   5   2.0000     -14.470254      -393.7556
   6   2.0000     -14.470066      -393.7505
   7   2.0000     -14.469041      -393.7226
   8   2.0000     -14.468773      -393.7153
   9   2.0000     -14.438154      -392.8821
  10   2.0000     -14.437551      -392.8657
  11   2.0000     -14.436989      -392.8504
  12   2.0000     -14.435759      -392.8170
  13   2.0000     -14.433224      -392.7480
  14   2.0000     -14.431555      -392.7026
  15   2.0000     -14.431284      -392.6952
  16   2.0000     -14.431068      -392.6893
  17   2.0000     -14.430271      -392.6676
  18   2.0000     -14.428805      -392.6277
  19   2.0000     -10.393802      -282.8297
  20   2.0000     -10.391584      -282.7694
  21   2.0000     -10.390591      -282.7424
  22   2.0000     -10.390153      -282.7304
  23   2.0000     -10.368481      -282.1407
  24   2.0000     -10.366130      -282.0767
  25   2.0000     -10.364284      -282.0265
  26   2.0000     -10.364023      -282.0194
  27   2.0000     -10.363925      -282.0167
  28   2.0000     -10.363107      -281.9945
  29   2.0000     -10.361717      -281.9566
  30   2.0000     -10.361326      -281.9460
  31   2.0000     -10.358541      -281.8702
  32   2.0000     -10.358161      -281.8599
  33   2.0000     -10.357656      -281.8461
  34   2.0000     -10.357419      -281.8397
  35   2.0000     -10.344598      -281.4908
  36   2.0000     -10.341330      -281.4019
  37   2.0000     -10.340602      -281.3821
  38   2.0000     -10.338292      -281.3192
  39   2.0000     -10.338098      -281.3140
  40   2.0000     -10.336713      -281.2763
  41   2.0000     -10.336126      -281.2603
  42   2.0000     -10.335675      -281.2480
  43   2.0000     -10.335502      -281.2433
  44   2.0000     -10.335317      -281.2383
  45   2.0000     -10.335114      -281.2327
  46   2.0000     -10.332254      -281.1549
  47   2.0000     -10.332235      -281.1544
  48   2.0000     -10.332117      -281.1512
  49   2.0000     -10.330524      -281.1078
  50   2.0000     -10.329862      -281.0898
  51   2.0000     -10.329683      -281.0850
  52   2.0000     -10.329382      -281.0768
  53   2.0000     -10.329301      -281.0746
  54   2.0000     -10.328736      -281.0592
  55   2.0000     -10.328080      -281.0414
  56   2.0000     -10.328024      -281.0398
  57   2.0000     -10.327497      -281.0255
  58   2.0000     -10.327260      -281.0190
  59   2.0000     -10.326711      -281.0041
  60   2.0000     -10.326356      -280.9944
  61   2.0000     -10.325622      -280.9745
  62   2.0000     -10.325108      -280.9605
  63   2.0000     -10.318437      -280.7790
  64   2.0000     -10.316510      -280.7265
  65   2.0000     -10.307886      -280.4918
  66   2.0000     -10.307448      -280.4799
  67   2.0000     -10.306412      -280.4517
  68   2.0000     -10.303945      -280.3846
  69   2.0000     -10.303491      -280.3722
  70   2.0000     -10.300434      -280.2890
  71   2.0000     -10.297733      -280.2156
  72   2.0000     -10.294801      -280.1358
  73   2.0000     -10.293142      -280.0906
  74   2.0000     -10.291638      -280.0497
  75   2.0000     -10.291183      -280.0373
  76   2.0000     -10.290970      -280.0315
  77   2.0000     -10.290140      -280.0089
  78   2.0000     -10.289884      -280.0020
  79   2.0000     -10.289623      -279.9949
  80   2.0000     -10.288232      -279.9570
  81   2.0000     -10.286989      -279.9232
  82   2.0000     -10.283084      -279.8169
  83   2.0000     -10.281804      -279.7821
  84   2.0000     -10.281152      -279.7644
  85   2.0000      -8.154681      -221.9002
  86   2.0000      -6.125619      -166.6866
  87   2.0000      -6.117851      -166.4752
  88   2.0000      -6.117761      -166.4727
  89   2.0000      -1.158681       -31.5293
  90   2.0000      -1.157748       -31.5039
  91   2.0000      -1.155938       -31.4547
  92   2.0000      -1.130228       -30.7551
  93   2.0000      -1.106374       -30.1060
  94   2.0000      -1.105279       -30.0762
  95   2.0000      -1.056932       -28.7606
  96   2.0000      -1.046857       -28.4864
  97   2.0000      -1.045569       -28.4514
  98   2.0000      -1.032114       -28.0852
  99   2.0000      -1.031024       -28.0556
 100   2.0000      -1.022097       -27.8127
 101   2.0000      -1.014808       -27.6143
 102   2.0000      -1.014722       -27.6120
 103   2.0000      -1.013991       -27.5921
 104   2.0000      -1.012609       -27.5545
 105   2.0000      -1.011345       -27.5201
 106   2.0000      -1.010478       -27.4965
 107   2.0000      -1.010153       -27.4877
 108   2.0000      -1.008725       -27.4488
 109   2.0000      -0.995035       -27.0763
 110   2.0000      -0.984874       -26.7998
 111   2.0000      -0.983391       -26.7594
 112   2.0000      -0.971833       -26.4449
 113   2.0000      -0.971448       -26.4344
 114   2.0000      -0.967584       -26.3293
 115   2.0000      -0.959708       -26.1150
 116   2.0000      -0.929926       -25.3046
 117   2.0000      -0.929126       -25.2828
 118   2.0000      -0.928635       -25.2694
 119   2.0000      -0.924084       -25.1456
 120   2.0000      -0.917844       -24.9758
 121   2.0000      -0.909779       -24.7563
 122   2.0000      -0.907643       -24.6982
 123   2.0000      -0.905383       -24.6367
 124   2.0000      -0.894351       -24.3365
 125   2.0000      -0.881793       -23.9948
 126   2.0000      -0.865146       -23.5418
 127   2.0000      -0.864422       -23.5221
 128   2.0000      -0.860412       -23.4130
 129   2.0000      -0.859422       -23.3861
 130   2.0000      -0.855354       -23.2754
 131   2.0000      -0.843174       -22.9439
 132   2.0000      -0.842642       -22.9295
 133   2.0000      -0.817581       -22.2475
 134   2.0000      -0.815770       -22.1982
 135   2.0000      -0.811823       -22.0908
 136   2.0000      -0.811614       -22.0851
 137   2.0000      -0.800574       -21.7847
 138   2.0000      -0.800096       -21.7717
 139   2.0000      -0.796104       -21.6631
 140   2.0000      -0.768158       -20.9026
 141   2.0000      -0.757844       -20.6220
 142   2.0000      -0.755167       -20.5491
 143   2.0000      -0.747993       -20.3539
 144   2.0000      -0.747485       -20.3401
 145   2.0000      -0.729296       -19.8452
 146   2.0000      -0.725463       -19.7409
 147   2.0000      -0.723508       -19.6877
 148   2.0000      -0.721338       -19.6286
 149   2.0000      -0.715072       -19.4581
 150   2.0000      -0.712887       -19.3986
 151   2.0000      -0.711986       -19.3741
 152   2.0000      -0.705284       -19.1918
 153   2.0000      -0.695876       -18.9358
 154   2.0000      -0.691808       -18.8251
 155   2.0000      -0.688796       -18.7431
 156   2.0000      -0.684876       -18.6364
 157   2.0000      -0.683031       -18.5862
 158   2.0000      -0.677867       -18.4457
 159   2.0000      -0.666765       -18.1436
 160   2.0000      -0.661250       -17.9935
 161   2.0000      -0.660420       -17.9709
 162   2.0000      -0.658932       -17.9305
 163   2.0000      -0.646859       -17.6019
 164   2.0000      -0.635713       -17.2986
 165   2.0000      -0.634038       -17.2530
 166   2.0000      -0.628914       -17.1136
 167   2.0000      -0.622902       -16.9500
 168   2.0000      -0.621310       -16.9067
 169   2.0000      -0.616970       -16.7886
 170   2.0000      -0.613522       -16.6948
 171   2.0000      -0.608200       -16.5500
 172   2.0000      -0.606198       -16.4955
 173   2.0000      -0.600489       -16.3401
 174   2.0000      -0.596597       -16.2342
 175   2.0000      -0.591015       -16.0823
 176   2.0000      -0.587723       -15.9928
 177   2.0000      -0.583391       -15.8749
 178   2.0000      -0.578610       -15.7448
 179   2.0000      -0.577557       -15.7161
 180   2.0000      -0.574326       -15.6282
 181   2.0000      -0.573370       -15.6022
 182   2.0000      -0.571352       -15.5473
 183   2.0000      -0.570993       -15.5375
 184   2.0000      -0.570011       -15.5108
 185   2.0000      -0.565240       -15.3810
 186   2.0000      -0.564688       -15.3660
 187   2.0000      -0.563002       -15.3201
 188   2.0000      -0.557710       -15.1761
 189   2.0000      -0.552348       -15.0302
 190   2.0000      -0.548128       -14.9153
 191   2.0000      -0.547114       -14.8877
 192   2.0000      -0.545431       -14.8419
 193   2.0000      -0.543432       -14.7875
 194   2.0000      -0.540935       -14.7196
 195   2.0000      -0.538557       -14.6549
 196   2.0000      -0.537180       -14.6174
 197   2.0000      -0.536355       -14.5950
 198   2.0000      -0.533461       -14.5162
 199   2.0000      -0.529585       -14.4107
 200   2.0000      -0.526976       -14.3397
 201   2.0000      -0.525760       -14.3066
 202   2.0000      -0.523659       -14.2495
 203   2.0000      -0.518061       -14.0971
 204   2.0000      -0.517395       -14.0790
 205   2.0000      -0.515235       -14.0203
 206   2.0000      -0.509872       -13.8743
 207   2.0000      -0.508855       -13.8467
 208   2.0000      -0.507671       -13.8144
 209   2.0000      -0.504130       -13.7181
 210   2.0000      -0.501453       -13.6452
 211   2.0000      -0.499107       -13.5814
 212   2.0000      -0.498346       -13.5607
 213   2.0000      -0.494605       -13.4589
 214   2.0000      -0.493412       -13.4264
 215   2.0000      -0.491176       -13.3656
 216   2.0000      -0.490521       -13.3477
 217   2.0000      -0.484353       -13.1799
 218   2.0000      -0.479582       -13.0501
 219   2.0000      -0.475147       -12.9294
 220   2.0000      -0.472321       -12.8525
 221   2.0000      -0.468416       -12.7463
 222   2.0000      -0.468197       -12.7403
 223   2.0000      -0.465709       -12.6726
 224   2.0000      -0.464702       -12.6452
 225   2.0000      -0.463781       -12.6201
 226   2.0000      -0.463035       -12.5998
 227   2.0000      -0.462255       -12.5786
 228   2.0000      -0.460983       -12.5440
 229   2.0000      -0.460798       -12.5390
 230   2.0000      -0.459387       -12.5006
 231   2.0000      -0.456891       -12.4326
 232   2.0000      -0.455565       -12.3966
 233   2.0000      -0.455370       -12.3912
 234   2.0000      -0.455294       -12.3892
 235   2.0000      -0.454906       -12.3786
 236   2.0000      -0.454339       -12.3632
 237   2.0000      -0.453083       -12.3290
 238   2.0000      -0.451901       -12.2969
 239   2.0000      -0.450633       -12.2623
 240   2.0000      -0.448772       -12.2117
 241   2.0000      -0.446823       -12.1587
 242   2.0000      -0.446058       -12.1379
 243   2.0000      -0.444666       -12.1000
 244   2.0000      -0.442330       -12.0364
 245   2.0000      -0.442167       -12.0320
 246   2.0000      -0.438841       -11.9415
 247   2.0000      -0.438821       -11.9409
 248   2.0000      -0.436425       -11.8757
 249   2.0000      -0.435802       -11.8588
 250   2.0000      -0.432178       -11.7602
 251   2.0000      -0.431294       -11.7361
 252   2.0000      -0.430762       -11.7216
 253   2.0000      -0.429320       -11.6824
 254   2.0000      -0.424883       -11.5616
 255   2.0000      -0.423961       -11.5366
 256   2.0000      -0.423307       -11.5188
 257   2.0000      -0.421995       -11.4831
 258   2.0000      -0.419626       -11.4186
 259   2.0000      -0.417972       -11.3736
 260   2.0000      -0.413760       -11.2590
 261   2.0000      -0.408996       -11.1294
 262   2.0000      -0.398977       -10.8567
 263   2.0000      -0.392693       -10.6857
 264   2.0000      -0.387368       -10.5408
 265   2.0000      -0.373066       -10.1516
 266   2.0000      -0.371578       -10.1112
 267   2.0000      -0.368135       -10.0175
 268   2.0000      -0.364297        -9.9130
 269   2.0000      -0.361067        -9.8251
 270   2.0000      -0.359658        -9.7868
 271   2.0000      -0.359155        -9.7731
 272   2.0000      -0.354818        -9.6551
 273   2.0000      -0.346817        -9.4374
 274   2.0000      -0.345775        -9.4090
 275   2.0000      -0.339821        -9.2470
 276   2.0000      -0.335437        -9.1277
 277   2.0000      -0.316466        -8.6115
 278   2.0000      -0.293427        -7.9846
 279   2.0000      -0.285563        -7.7706
 280   2.0000      -0.284768        -7.7489
 281   2.0000      -0.272003        -7.4016
 282   0.0000      -0.130577        -3.5532
 283   0.0000      -0.111288        -3.0283
 284   0.0000      -0.110182        -2.9982
 285   0.0000      -0.095003        -2.5852
 286   0.0000      -0.093864        -2.5542

MULLIKEN ATOMIC CHARGES
-----------------------
   0 C :    0.042434
   1 C :   -0.034880
   2 C :   -0.065032
   3 C :   -0.173946
   4 N :    0.204428
   5 C :   -0.068424
   6 C :   -0.171944
   7 N :    0.199649
   8 C :   -0.031828
   9 C :   -0.001042
  10 C :    0.165763
  11 O :   -0.131721
  12 C :   -0.052109
  13 C :    0.310895
  14 C :   -0.348380
  15 C :   -0.191212
  16 N :    0.171273
  17 C :   -0.191142
  18 N :    0.159470
  19 C :   -0.013951
  20 C :    0.076417
  21 C :   -0.156139
  22 C :    0.185193
  23 C :    0.076568
  24 C :   -0.041741
  25 C :   -0.003153
  26 C :    0.060741
  27 C :    0.160678
  28 N :   -0.182059
  29 C :    0.117031
  30 C :   -0.098120
  31 C :    0.008535
  32 C :    0.034110
  33 C :   -0.046748
  34 C :    0.105637
  35 C :   -0.067659
  36 C :   -0.063373
  37 N :    0.052547
  38 C :   -0.141819
  39 C :   -0.145651
  40 N :    0.049656
  41 C :   -0.195729
  42 N :    0.236514
  43 C :   -0.195201
  44 N :    0.233960
  45 C :    0.107281
  46 C :   -0.002819
  47 C :   -0.000286
  48 N :   -0.287284
  49 S :    0.548743
  50 N :   -0.287341
  51 C :    0.005159
  52 C :   -0.102179
  53 C :    0.159142
  54 C :    0.067223
  55 C :   -0.047486
  56 C :    0.030340
  57 C :    0.077889
  58 C :    0.182709
  59 N :   -0.185099
  60 C :    0.126466
  61 C :   -0.115866
  62 C :    0.043738
  63 C :    0.018286
  64 C :   -0.037495
  65 C :    0.039290
  66 C :   -0.118534
  67 C :    0.144154
  68 O :   -0.124405
  69 C :    0.006175
  70 C :   -0.031363
  71 C :   -0.067601
  72 C :   -0.062461
  73 C :   -0.034656
  74 C :    0.032021
  75 C :    0.253163
  76 C :   -0.309471
  77 C :   -0.187940
  78 N :    0.184065
  79 C :   -0.185168
  80 N :    0.176510
  81 C :   -0.173172
  82 N :    0.203112
  83 C :   -0.174001
  84 N :    0.197112
  85 H :    0.021296
  86 H :    0.016739
  87 H :    0.000549
  88 H :   -0.018522
  89 H :   -0.021502
  90 H :   -0.003787
  91 H :    0.044825
  92 H :    0.048244
  93 H :    0.042800
  94 H :   -0.035165
  95 H :   -0.022459
  96 H :   -0.022490
  97 H :   -0.034532
  98 H :   -0.025076
  99 H :   -0.022794
 100 H :    0.046600
 101 H :    0.040033
 102 H :    0.037756
 103 H :   -0.035942
 104 H :   -0.013910
 105 H :   -0.021231
 106 H :    0.030108
 107 H :    0.018354
 108 H :    0.023655
Sum of atomic charges:   -0.0000000

LOEWDIN ATOMIC CHARGES
----------------------
   0 C :    0.000471
   1 C :    0.034892
   2 C :   -0.024210
   3 C :   -0.031687
   4 N :   -0.010773
   5 C :   -0.027940
   6 C :   -0.031900
   7 N :   -0.012900
   8 C :    0.048922
   9 C :   -0.027854
  10 C :    0.088389
  11 O :   -0.121255
  12 C :   -0.106027
  13 C :    0.074290
  14 C :   -0.128808
  15 C :   -0.021909
  16 N :   -0.036730
  17 C :   -0.022666
  18 N :   -0.044746
  19 C :    0.093824
  20 C :   -0.042128
  21 C :   -0.020373
  22 C :    0.025597
  23 C :   -0.013450
  24 C :   -0.008709
  25 C :   -0.006348
  26 C :   -0.039723
  27 C :    0.035634
  28 N :    0.016488
  29 C :    0.037745
  30 C :   -0.034078
  31 C :   -0.010015
  32 C :   -0.016732
  33 C :   -0.004709
  34 C :   -0.006130
  35 C :   -0.007946
  36 C :   -0.009345
  37 N :    0.012031
  38 C :   -0.029765
  39 C :   -0.028978
  40 N :    0.010333
  41 C :   -0.037347
  42 N :   -0.001447
  43 C :   -0.037483
  44 N :   -0.000934
  45 C :   -0.001404
  46 C :   -0.039800
  47 C :   -0.038991
  48 N :   -0.284302
  49 S :    0.684054
  50 N :   -0.282278
  51 C :   -0.014931
  52 C :   -0.032410
  53 C :    0.034379
  54 C :   -0.034596
  55 C :   -0.007922
  56 C :   -0.016190
  57 C :   -0.021200
  58 C :    0.038377
  59 N :    0.019373
  60 C :    0.038904
  61 C :   -0.023892
  62 C :   -0.041088
  63 C :   -0.026030
  64 C :   -0.000297
  65 C :    0.095023
  66 C :   -0.098078
  67 C :    0.083962
  68 O :   -0.126764
  69 C :   -0.032100
  70 C :    0.050097
  71 C :   -0.029191
  72 C :   -0.022319
  73 C :    0.032355
  74 C :    0.004506
  75 C :    0.058944
  76 C :   -0.114453
  77 C :   -0.016663
  78 N :   -0.029424
  79 C :   -0.023349
  80 N :   -0.031933
  81 C :   -0.031695
  82 N :   -0.009351
  83 C :   -0.032306
  84 N :   -0.012904
  85 H :    0.052404
  86 H :    0.054083
  87 H :    0.045208
  88 H :    0.032921
  89 H :    0.034071
  90 H :    0.028156
  91 H :    0.035993
  92 H :    0.036468
  93 H :    0.029739
  94 H :    0.024610
  95 H :    0.026084
  96 H :    0.033424
  97 H :    0.023445
  98 H :    0.032373
  99 H :    0.025605
 100 H :    0.034406
 101 H :    0.036343
 102 H :    0.028920
 103 H :    0.030228
 104 H :    0.027384
 105 H :    0.034121
 106 H :    0.048841
 107 H :    0.054792
 108 H :    0.052698

  Mayer bond orders larger than 0.100000
B(  0-C ,  1-C ) :   1.3516 B(  0-C ,  9-C ) :   1.3386 B(  0-C , 13-C ) :   0.9529
B(  1-C ,  2-C ) :   1.3980 B(  1-C , 85-H ) :   0.9852 B(  2-C ,  3-C ) :   1.0866
B(  2-C ,  5-C ) :   1.4012 B(  3-C ,  4-N ) :   3.0444 B(  5-C ,  6-C ) :   1.0866
B(  5-C ,  8-C ) :   1.3607 B(  6-C ,  7-N ) :   3.0442 B(  8-C ,  9-C ) :   1.3650
B(  8-C , 86-H ) :   1.0149 B(  9-C , 10-C ) :   0.9355 B( 10-C , 11-O ) :   2.1865
B( 10-C , 12-C ) :   0.9284 B( 12-C , 13-C ) :   1.0883 B( 12-C , 19-C ) :   1.5168
B( 13-C , 14-C ) :   1.6356 B( 14-C , 15-C ) :   1.1500 B( 14-C , 17-C ) :   1.1392
B( 15-C , 16-N ) :   2.9643 B( 17-C , 18-N ) :   2.9846 B( 19-C , 20-C ) :   1.1893
B( 19-C , 87-H ) :   0.9346 B( 20-C , 21-C ) :   1.2449 B( 20-C , 25-C ) :   1.2843
B( 21-C , 22-C ) :   1.2878 B( 21-C , 88-H ) :   1.0169 B( 22-C , 23-C ) :   1.2638
B( 22-C , 28-N ) :   1.1304 B( 23-C , 24-C ) :   1.2943 B( 23-C , 26-C ) :   1.1108
B( 24-C , 25-C ) :   1.4362 B( 24-C , 89-H ) :   1.0009 B( 25-C , 90-H ) :   0.9686
B( 26-C , 27-C ) :   1.2793 B( 26-C , 33-C ) :   1.3006 B( 27-C , 28-N ) :   1.1270
B( 27-C , 30-C ) :   1.2961 B( 28-N , 29-C ) :   0.9741 B( 29-C , 91-H ) :   0.9666
B( 29-C , 92-H ) :   0.9674 B( 29-C , 93-H ) :   0.9744 B( 30-C , 31-C ) :   1.3656
B( 30-C , 94-H ) :   0.9942 B( 31-C , 32-C ) :   1.3042 B( 31-C , 34-C ) :   1.0100
B( 32-C , 33-C ) :   1.4405 B( 32-C , 95-H ) :   0.9793 B( 33-C , 96-H ) :   0.9986
B( 34-C , 35-C ) :   1.3192 B( 34-C , 45-C ) :   0.1356 B( 34-C , 47-C ) :   1.2523
B( 35-C , 36-C ) :   1.0849 B( 35-C , 40-N ) :   1.4067 B( 36-C , 37-N ) :   1.4069
B( 36-C , 45-C ) :   1.3122 B( 37-N , 38-C ) :   1.7664 B( 38-C , 39-C ) :   1.1705
B( 38-C , 43-C ) :   1.1405 B( 39-C , 40-N ) :   1.7666 B( 39-C , 41-C ) :   1.1420
B( 41-C , 42-N ) :   3.0531 B( 43-C , 44-N ) :   3.0499 B( 45-C , 46-C ) :   1.2493
B( 45-C , 51-C ) :   1.0174 B( 46-C , 47-C ) :   1.1006 B( 46-C , 50-N ) :   1.4743
B( 47-C , 48-N ) :   1.4777 B( 48-N , 49-S ) :   1.2955 B( 48-N , 50-N ) :   0.1581
B( 49-S , 50-N ) :   1.2976 B( 51-C , 52-C ) :   1.3635 B( 51-C , 56-C ) :   1.3058
B( 52-C , 53-C ) :   1.3043 B( 52-C , 97-H ) :   0.9888 B( 53-C , 54-C ) :   1.2805
B( 53-C , 59-N ) :   1.1200 B( 54-C , 55-C ) :   1.3047 B( 54-C , 57-C ) :   1.1135
B( 55-C , 56-C ) :   1.4383 B( 55-C , 98-H ) :   0.9981 B( 56-C , 99-H ) :   0.9794
B( 57-C , 58-C ) :   1.2669 B( 57-C , 64-C ) :   1.3099 B( 58-C , 59-N ) :   1.1388
B( 58-C , 61-C ) :   1.2870 B( 59-N , 60-C ) :   0.9767 B( 60-C ,100-H ) :   0.9679
B( 60-C ,101-H ) :   0.9700 B( 60-C ,102-H ) :   0.9713 B( 61-C , 62-C ) :   1.3109
B( 61-C ,103-H ) :   1.0139 B( 62-C , 63-C ) :   1.2963 B( 62-C , 65-C ) :   1.0502
B( 63-C , 64-C ) :   1.4320 B( 63-C ,104-H ) :   0.9840 B( 64-C ,105-H ) :   0.9993
B( 65-C , 66-C ) :   1.6877 B( 65-C ,106-H ) :   0.9472 B( 66-C , 67-C ) :   0.9425
B( 66-C , 75-C ) :   1.0243 B( 67-C , 68-O ) :   2.2878 B( 67-C , 69-C ) :   0.8982
B( 69-C , 70-C ) :   1.3666 B( 69-C , 74-C ) :   1.3347 B( 70-C , 71-C ) :   1.3691
B( 70-C ,107-H ) :   1.0142 B( 71-C , 72-C ) :   1.3990 B( 71-C , 83-C ) :   1.0882
B( 72-C , 73-C ) :   1.3904 B( 72-C , 81-C ) :   1.0851 B( 73-C , 74-C ) :   1.3608
B( 73-C ,108-H ) :   0.9905 B( 74-C , 75-C ) :   0.9780 B( 75-C , 76-C ) :   1.6929
B( 76-C , 77-C ) :   1.1542 B( 76-C , 79-C ) :   1.1325 B( 77-C , 78-N ) :   3.0065
B( 79-C , 80-N ) :   2.9866 B( 81-C , 82-N ) :   3.0442 B( 83-C , 84-N ) :   3.0444

-----------------------------------------------------------------------------
         ABSORPTION SPECTRUM VIA TRANSITION ELECTRIC DIPOLE MOMENTS
-----------------------------------------------------------------------------
State   Energy  Wavelength   fosc         T2         TX        TY        TZ
        (cm-1)    (nm)                  (au**2)     (au)      (au)      (au)
-----------------------------------------------------------------------------
   0   14582.0    685.8   0.943514635  21.30140  -2.21279  -3.87102  -1.19171
   1   17398.0    574.8   0.006945491   0.13143   0.10272  -0.14707   0.31503
   2   17643.0    566.8   0.006767344   0.12628  -0.30626   0.06585   0.16776
   3   20612.7    485.1   0.044919426   0.71742   0.50957   0.24465   0.63080
   4   21309.4    469.3   0.408391680   6.30930   0.18527   2.34016   0.89366
   5   21766.3    459.4   0.115146777   1.74158   0.29488   1.26143   0.25184
   6   22432.7    445.8   0.363492781   5.33445  -0.76071  -2.10455  -0.57154
   7   22835.1    437.9   0.286098360   4.12466  -0.02384   1.88544   0.75445
   8   25778.0    387.9   0.522806598   6.67679  -1.56674  -1.96348  -0.60569
   9   26026.1    384.2   0.003051318   0.03860   0.11676   0.07778   0.13753
  10   26159.3    382.3   0.225004192   2.83166   1.08028   1.07410   0.71482
  11   27001.4    370.4   0.012357996   0.15067  -0.33351   0.06532   0.18757
  12   27076.6    369.3   0.003629514   0.04413   0.20246  -0.04050  -0.03872
  13   27339.3    365.8   0.012901293   0.15535   0.05391  -0.28802   0.26361
  14   28224.9    354.3   0.013782119   0.16075   0.11175  -0.38341   0.03557
  15   29200.3    342.5   0.048269084   0.54420  -0.37614   0.53930   0.33447
  16   29455.0    339.5   0.040674592   0.45461  -0.66122   0.10585   0.07867
  17   29986.8    333.5   0.030734991   0.33743  -0.09451  -0.55036  -0.15997
  18   30085.6    332.4   0.000654593   0.00716  -0.03204  -0.07785   0.00866
  19   30567.5    327.1   0.005623229   0.06056  -0.01986  -0.23179  -0.08025
  20   30871.7    323.9   0.000839649   0.00895  -0.01928   0.08555   0.03553
  21   31341.6    319.1   0.001920984   0.02018   0.13931   0.02701   0.00635
  22   31618.3    316.3   0.001685772   0.01755   0.10056   0.04781   0.07180
  23   31668.1    315.8   0.153062230   1.59119   1.10059   0.61550   0.03232
  24   31788.5    314.6   0.001227903   0.01272  -0.10774   0.03032   0.01373
  25   32057.1    311.9   0.032738730   0.33621   0.01283   0.56507   0.12942
  26   32350.7    309.1   0.002657523   0.02704   0.14534   0.05996   0.04821
  27   32612.7    306.6   0.001847147   0.01865  -0.11255   0.06408   0.04328
  28   32976.3    303.2   0.040079393   0.40012  -0.62181  -0.03689  -0.11005
  29   33394.3    299.5   0.267038470   2.63255   1.61882   0.04034   0.10164
  30   33565.6    297.9   0.223507033   2.19216   1.01578  -1.04041   0.27911
  31   33876.5    295.2   0.195310346   1.89803  -0.82242   0.97351  -0.52338
  32   34021.9    293.9   0.100442584   0.97193   0.93548   0.22827   0.21140
  33   34078.8    293.4   0.439310309   4.24388  -1.70958   1.08169  -0.38878
  34   34579.7    289.2   0.072542585   0.69063   0.80908   0.15840   0.10456
  35   34701.2    288.2   0.018553410   0.17602  -0.02460   0.27248  -0.31806
  36   34751.6    287.8   0.176518056   1.67221  -1.28909  -0.02232  -0.09976
  37   35057.3    285.2   0.034615840   0.32507  -0.54427  -0.16310  -0.04730
  38   35105.7    284.9   0.062069278   0.58207  -0.75283  -0.11536  -0.04486
  39   35199.3    284.1   0.081859979   0.76562   0.86619   0.05737   0.10974
  40   35339.3    283.0   0.208444557   1.94182  -1.01858  -0.94893  -0.06207
  41   35542.7    281.4   0.009180556   0.08503   0.15625   0.17235   0.17583
  42   35782.1    279.5   0.007833095   0.07207   0.15523  -0.20859  -0.06680
  43   36099.3    277.0   0.062522048   0.57018  -0.46862  -0.53972  -0.24346
  44   36223.2    276.1   0.501990762   4.56231   0.07805  -1.99756  -0.75231
  45   36466.3    274.2   1.640877233  14.81359   3.24932   2.01274   0.45212
  46   36613.6    273.1   0.038039734   0.34203   0.13741  -0.56845  -0.00387
  47   36931.2    270.8   0.096454072   0.85981  -0.02071  -0.90873   0.18329
  48   37313.9    268.0   0.031520108   0.27809   0.21359   0.35640   0.32474
  49   37769.3    264.8   0.029677625   0.25868  -0.45966  -0.16948   0.13664
  50   37988.5    263.2   0.021309733   0.18467   0.34343  -0.04267   0.25476
  51   38345.4    260.8   0.097480554   0.83691  -0.70027   0.51540   0.28442
  52   38529.7    259.5   0.122405546   1.04588   0.73567  -0.67256  -0.22875
  53   38805.4    257.7   0.004542461   0.03854   0.05387  -0.00065  -0.18877
  54   39053.3    256.1   0.012938983   0.10907   0.29246  -0.11524   0.10129
  55   39388.0    253.9   0.079007060   0.66035   0.72169  -0.31763  -0.19654
  56   39560.0    252.8   0.049726165   0.41381  -0.30813  -0.50683  -0.24900
  57   39646.5    252.2   0.054748046   0.45461   0.05620  -0.58121  -0.33712
  58   39899.5    250.6   0.010611737   0.08756   0.05391   0.14453   0.25251

FINAL SINGLE POINT ENERGY     -3949.367883713742

DIPOLE MOMENT
-------------
                                X             Y             Z
Electronic contribution:     10.88940      -5.15134       1.69266
Nuclear contribution   :    -14.79385       6.44211      -2.47333
                        -----------------------------------------
Total Dipole Moment    :     -3.90445       1.29077      -0.78067
                        -----------------------------------------
Magnitude (a.u.)       :      4.18572
Magnitude (Debye)      :     10.63926

Rotational constants in cm-1:     0.002781     0.000135     0.000130
Rotational constants in MHz :    83.362223     4.034441     3.885768

                             ****ORCA TERMINATED NORMALLY****
TOTAL RUN TIME: 0 days 0 hours 12 minutes 38 seconds 865 msec
