                         Program Version 4.2.0 -  RELEASE  -
|  1> # ORCA input file
|  2> # SCF done       -215.411171394812          0.000858620501
|  3> ! CAM-B3LYP def2-SVP def2/J RIJCOSX Grid4 TightSCF
|  4> %maxcore 5000
|  5> %tddft
|  6>     Mode sTDDFT
|  7>     Ethresh 5.0
|  8>     maxcore 5000
|  9> end
| 10>
| 11> %pal
| 12>   nprocs 6
| 13>   end
| 14> * xyz 0 1
| 15>    C       -5.79670       -14.19271         4.05262
| 16>    C       -6.64646       -15.20033         3.62448
| 17>    C       -7.70317       -14.85941         2.77984
| 18>    C       -8.51240       -15.87312         2.21346
| 19>    N       -9.13897       -16.67957         1.69511
| 20>    C       -7.94099       -13.52477         2.39844
| 21>    C       -8.99242       -13.22309         1.50067
| 22>    N       -9.81114       -12.96686         0.74187
| 23>    C       -7.08865       -12.51380         2.83713
| 24>    C       -6.02050       -12.86934         3.63276
| 25>    C       -4.92574       -11.99701         4.10301
| 26>    O       -4.80636       -10.82325         3.82170
| 27>    C       -4.07280       -12.85921         4.95964
| 28>    C       -4.58882       -14.22006         4.87564
| 29>    C       -4.01477       -15.34421         5.40085
| 30>    C       -4.56265       -16.64116         5.27781
| 31>    N       -4.96775       -17.71232         5.21896
| 32>    C       -2.79307       -15.38295         6.11077
| 33>    N       -1.79733       -15.49997         6.66814
| 34>    C       -3.10727       -12.44732         5.83528
| 35>    C       -2.50832       -11.16680         5.92265
| 36>    C       -2.40099       -10.19822         4.95473
| 37>    C       -1.82820        -9.00074         5.41501
| 38>    C       -1.65785        -7.76469         4.74921
| 39>    C       -1.13932        -6.71178         5.52472
| 40>    C       -0.68207        -7.00292         6.84080
| 41>    N       -0.80296        -8.16067         7.45257
| 42>    C       -1.40227        -9.11252         6.76958
| 43>    S       -1.76217       -10.66554         7.43957
| 44>    S        0.01824        -5.62372         7.63174
| 45>    C       -0.41984        -4.63381         6.26773
| 46>    C       -1.01918        -5.31517         5.25918
| 47>    F       -1.54683        -4.70113         4.19179
| 48>    F       -0.18896        -3.33075         6.30346
| 49>    C       -1.95885        -7.60501         3.35508
| 50>    C       -1.24632        -6.83132         2.43571
| 51>    C       -1.80402        -6.87124         1.11113
| 52>    N       -1.27594        -6.15913         0.11269
| 53>    C       -0.21517        -5.43939         0.39233
| 54>    C        0.35886        -4.61291        -0.70530
| 55>    O       -0.12943        -4.56710        -1.81084
| 56>    C        1.57386        -3.85614        -0.34545
| 57>    C        2.15460        -3.90484         0.85727
| 58>    C        1.64435        -4.71477         1.97783
| 59>    O        2.18456        -4.74741         3.06054
| 60>    C        0.39655        -5.47412         1.68739
| 61>    N       -0.11015        -6.16746         2.67668
| 62>    C       -2.90427        -7.72769         1.01472
| 63>    S       -3.26024        -8.41642         2.55528
| 64>    C       -3.66267        -8.04133        -0.14138
| 65>    C       -4.49746        -9.12309        -0.28802
| 66>    C       -5.14359        -9.14939        -1.53726
| 67>    C       -6.01538       -10.11112        -2.09256
| 68>    C       -6.59298        -9.77739        -3.33172
| 69>    C       -6.14700        -8.59960        -3.99145
| 70>    N       -5.24091        -7.76798        -3.53457
| 71>    C       -4.76867        -8.02627        -2.33535
| 72>    S       -3.59568        -7.01756        -1.55687
| 73>    S       -6.91642        -8.35098        -5.53443
| 74>    C       -7.88155        -9.76955        -5.26612
| 75>    C       -7.61568       -10.40819        -4.09582
| 76>    F       -8.30800       -11.48494        -3.68610
| 77>    F       -8.78508       -10.13802        -6.16111
| 78>    C       -6.21126       -11.36053        -1.40094
| 79>    C       -6.34487       -12.60309        -1.91398
| 80>    C       -6.75930       -13.73507        -1.03813
| 81>    O       -6.60695       -13.81054         0.16027
| 82>    C       -7.36191       -14.72397        -1.95081
| 83>    C       -8.08957       -15.85760        -1.64866
| 84>    C       -8.57819       -16.62280        -2.70871
| 85>    C       -8.33073       -16.23646        -4.04084
| 86>    C       -7.58801       -15.09228        -4.33714
| 87>    C       -7.10243       -14.33823        -3.28411
| 88>    C       -6.30013       -13.11810        -3.27424
| 89>    C       -5.49996       -12.66730        -4.28379
| 90>    C       -4.54875       -11.63974        -4.10254
| 91>    N       -3.73151       -10.84736        -3.96257
| 92>    C       -5.46584       -13.24085        -5.57430
| 93>    N       -5.42316       -13.66399        -6.63866
| 94>    C       -8.84511       -17.02420        -5.10154
| 95>    N       -9.25202       -17.65420        -5.96602
| 96>    C       -9.32588       -17.79893        -2.45154
| 97>    N       -9.92118       -18.75432        -2.24539
| 98>    H       -6.50559       -16.23327         3.90015
| 99>    H       -7.24114       -11.48681         2.54126
|100>    H       -2.78349       -13.14768         6.59541
|101>    H       -2.71339       -10.36689         3.94466
|102>    H        1.97932        -3.24495        -1.14060
|103>    H        3.04807        -3.33532         1.07507
|104>    H       -4.63074        -9.85388         0.49006
|105>    H       -6.23369       -11.30340        -0.31812
|106>    H       -8.29013       -16.14544        -0.62726
|107>    H       -7.42451       -14.81510        -5.36688
|108> *
|109>
|110>                          ****END OF INPUT****

CARTESIAN COORDINATES (ANGSTROEM)
---------------------------------
  C     -5.796700  -14.192710    4.052620
  C     -6.646460  -15.200330    3.624480
  C     -7.703170  -14.859410    2.779840
  C     -8.512400  -15.873120    2.213460
  N     -9.138970  -16.679570    1.695110
  C     -7.940990  -13.524770    2.398440
  C     -8.992420  -13.223090    1.500670
  N     -9.811140  -12.966860    0.741870
  C     -7.088650  -12.513800    2.837130
  C     -6.020500  -12.869340    3.632760
  C     -4.925740  -11.997010    4.103010
  O     -4.806360  -10.823250    3.821700
  C     -4.072800  -12.859210    4.959640
  C     -4.588820  -14.220060    4.875640
  C     -4.014770  -15.344210    5.400850
  C     -4.562650  -16.641160    5.277810
  N     -4.967750  -17.712320    5.218960
  C     -2.793070  -15.382950    6.110770
  N     -1.797330  -15.499970    6.668140
  C     -3.107270  -12.447320    5.835280
  C     -2.508320  -11.166800    5.922650
  C     -2.400990  -10.198220    4.954730
  C     -1.828200   -9.000740    5.415010
  C     -1.657850   -7.764690    4.749210
  C     -1.139320   -6.711780    5.524720
  C     -0.682070   -7.002920    6.840800
  N     -0.802960   -8.160670    7.452570
  C     -1.402270   -9.112520    6.769580
  S     -1.762170  -10.665540    7.439570
  S      0.018240   -5.623720    7.631740
  C     -0.419840   -4.633810    6.267730
  C     -1.019180   -5.315170    5.259180
  F     -1.546830   -4.701130    4.191790
  F     -0.188960   -3.330750    6.303460
  C     -1.958850   -7.605010    3.355080
  C     -1.246320   -6.831320    2.435710
  C     -1.804020   -6.871240    1.111130
  N     -1.275940   -6.159130    0.112690
  C     -0.215170   -5.439390    0.392330
  C      0.358860   -4.612910   -0.705300
  O     -0.129430   -4.567100   -1.810840
  C      1.573860   -3.856140   -0.345450
  C      2.154600   -3.904840    0.857270
  C      1.644350   -4.714770    1.977830
  O      2.184560   -4.747410    3.060540
  C      0.396550   -5.474120    1.687390
  N     -0.110150   -6.167460    2.676680
  C     -2.904270   -7.727690    1.014720
  S     -3.260240   -8.416420    2.555280
  C     -3.662670   -8.041330   -0.141380
  C     -4.497460   -9.123090   -0.288020
  C     -5.143590   -9.149390   -1.537260
  C     -6.015380  -10.111120   -2.092560
  C     -6.592980   -9.777390   -3.331720
  C     -6.147000   -8.599600   -3.991450
  N     -5.240910   -7.767980   -3.534570
  C     -4.768670   -8.026270   -2.335350
  S     -3.595680   -7.017560   -1.556870
  S     -6.916420   -8.350980   -5.534430
  C     -7.881550   -9.769550   -5.266120
  C     -7.615680  -10.408190   -4.095820
  F     -8.308000  -11.484940   -3.686100
  F     -8.785080  -10.138020   -6.161110
  C     -6.211260  -11.360530   -1.400940
  C     -6.344870  -12.603090   -1.913980
  C     -6.759300  -13.735070   -1.038130
  O     -6.606950  -13.810540    0.160270
  C     -7.361910  -14.723970   -1.950810
  C     -8.089570  -15.857600   -1.648660
  C     -8.578190  -16.622800   -2.708710
  C     -8.330730  -16.236460   -4.040840
  C     -7.588010  -15.092280   -4.337140
  C     -7.102430  -14.338230   -3.284110
  C     -6.300130  -13.118100   -3.274240
  C     -5.499960  -12.667300   -4.283790
  C     -4.548750  -11.639740   -4.102540
  N     -3.731510  -10.847360   -3.962570
  C     -5.465840  -13.240850   -5.574300
  N     -5.423160  -13.663990   -6.638660
  C     -8.845110  -17.024200   -5.101540
  N     -9.252020  -17.654200   -5.966020
  C     -9.325880  -17.798930   -2.451540
  N     -9.921180  -18.754320   -2.245390
  H     -6.505590  -16.233270    3.900150
  H     -7.241140  -11.486810    2.541260
  H     -2.783490  -13.147680    6.595410
  H     -2.713390  -10.366890    3.944660
  H      1.979320   -3.244950   -1.140600
  H      3.048070   -3.335320    1.075070
  H     -4.630740   -9.853880    0.490060
  H     -6.233690  -11.303400   -0.318120
  H     -8.290130  -16.145440   -0.627260
  H     -7.424510  -14.815100   -5.366880

 Total Charge           Charge          ....    0
 Multiplicity           Mult            ....    1
 Number of Electrons    NEL             ....  590
 Basis Dimension        Dim             .... 1232

ORBITAL ENERGIES
----------------

  NO   OCC          E(Eh)            E(eV)
   0   2.0000     -89.018212     -2422.3087
   1   2.0000     -88.990255     -2421.5479
   2   2.0000     -88.985366     -2421.4149
   3   2.0000     -88.983053     -2421.3520
   4   2.0000     -88.976784     -2421.1814
   5   2.0000     -24.831770      -675.7068
   6   2.0000     -24.824725      -675.5151
   7   2.0000     -24.822608      -675.4575
   8   2.0000     -24.810854      -675.1377
   9   2.0000     -19.258761      -524.0575
  10   2.0000     -19.257235      -524.0160
  11   2.0000     -19.238950      -523.5184
  12   2.0000     -19.238153      -523.4967
  13   2.0000     -14.464015      -393.5858
  14   2.0000     -14.461029      -393.5046
  15   2.0000     -14.447828      -393.1454
  16   2.0000     -14.447674      -393.1412
  17   2.0000     -14.443746      -393.0343
  18   2.0000     -14.443057      -393.0156
  19   2.0000     -14.442834      -393.0095
  20   2.0000     -14.441686      -392.9783
  21   2.0000     -14.440913      -392.9572
  22   2.0000     -14.440094      -392.9349
  23   2.0000     -14.430970      -392.6867
  24   2.0000     -14.426949      -392.5772
  25   2.0000     -10.415682      -283.4251
  26   2.0000     -10.408181      -283.2210
  27   2.0000     -10.407601      -283.2052
  28   2.0000     -10.403544      -283.0948
  29   2.0000     -10.391402      -282.7644
  30   2.0000     -10.388074      -282.6739
  31   2.0000     -10.387638      -282.6620
  32   2.0000     -10.382738      -282.5287
  33   2.0000     -10.377688      -282.3913
  34   2.0000     -10.376256      -282.3523
  35   2.0000     -10.373034      -282.2646
  36   2.0000     -10.372942      -282.2621
  37   2.0000     -10.371610      -282.2259
  38   2.0000     -10.369543      -282.1696
  39   2.0000     -10.369103      -282.1576
  40   2.0000     -10.368831      -282.1502
  41   2.0000     -10.368644      -282.1451
  42   2.0000     -10.365695      -282.0649
  43   2.0000     -10.362702      -281.9834
  44   2.0000     -10.358980      -281.8822
  45   2.0000     -10.356152      -281.8052
  46   2.0000     -10.355180      -281.7788
  47   2.0000     -10.355098      -281.7766
  48   2.0000     -10.353435      -281.7313
  49   2.0000     -10.351336      -281.6742
  50   2.0000     -10.350669      -281.6560
  51   2.0000     -10.350391      -281.6485
  52   2.0000     -10.349767      -281.6315
  53   2.0000     -10.349397      -281.6214
  54   2.0000     -10.348148      -281.5874
  55   2.0000     -10.347748      -281.5765
  56   2.0000     -10.347526      -281.5705
  57   2.0000     -10.344701      -281.4936
  58   2.0000     -10.344390      -281.4852
  59   2.0000     -10.343988      -281.4742
  60   2.0000     -10.343817      -281.4696
  61   2.0000     -10.343685      -281.4660
  62   2.0000     -10.341560      -281.4081
  63   2.0000     -10.341079      -281.3951
  64   2.0000     -10.340285      -281.3735
  65   2.0000     -10.339713      -281.3579
  66   2.0000     -10.339417      -281.3499
  67   2.0000     -10.338924      -281.3364
  68   2.0000     -10.338196      -281.3166
  69   2.0000     -10.335860      -281.2530
  70   2.0000     -10.334445      -281.2145
  71   2.0000     -10.334085      -281.2048
  72   2.0000     -10.333891      -281.1995
  73   2.0000     -10.331324      -281.1296
  74   2.0000     -10.329235      -281.0728
  75   2.0000     -10.326873      -281.0085
  76   2.0000     -10.323718      -280.9226
  77   2.0000     -10.322985      -280.9027
  78   2.0000     -10.322163      -280.8803
  79   2.0000     -10.322055      -280.8774
  80   2.0000     -10.319845      -280.8173
  81   2.0000     -10.319089      -280.7967
  82   2.0000     -10.312005      -280.6039
  83   2.0000      -8.112105      -220.7416
  84   2.0000      -8.087314      -220.0670
  85   2.0000      -8.082658      -219.9403
  86   2.0000      -8.079585      -219.8567
  87   2.0000      -8.072529      -219.6647
  88   2.0000      -6.080979      -165.4718
  89   2.0000      -6.076733      -165.3563
  90   2.0000      -6.075261      -165.3162
  91   2.0000      -6.056842      -164.8150
  92   2.0000      -6.052962      -164.7095
  93   2.0000      -6.052180      -164.6882
  94   2.0000      -6.049010      -164.6019
  95   2.0000      -6.048368      -164.5845
  96   2.0000      -6.048139      -164.5782
  97   2.0000      -6.045043      -164.4940
  98   2.0000      -6.043394      -164.4491
  99   2.0000      -6.042054      -164.4126
 100   2.0000      -6.040921      -164.3818
 101   2.0000      -6.037832      -164.2978
 102   2.0000      -6.033848      -164.1894
 103   2.0000      -1.351337       -36.7717
 104   2.0000      -1.342000       -36.5177
 105   2.0000      -1.333875       -36.2966
 106   2.0000      -1.322287       -35.9812
 107   2.0000      -1.173701       -31.9380
 108   2.0000      -1.172374       -31.9019
 109   2.0000      -1.157070       -31.4855
 110   2.0000      -1.152465       -31.3602
 111   2.0000      -1.115905       -30.3653
 112   2.0000      -1.096856       -29.8470
 113   2.0000      -1.094449       -29.7815
 114   2.0000      -1.055047       -28.7093
 115   2.0000      -1.051862       -28.6226
 116   2.0000      -1.042764       -28.3751
 117   2.0000      -1.040917       -28.3248
 118   2.0000      -1.034730       -28.1564
 119   2.0000      -1.031043       -28.0561
 120   2.0000      -1.025384       -27.9021
 121   2.0000      -1.022185       -27.8151
 122   2.0000      -1.021437       -27.7947
 123   2.0000      -1.019216       -27.7343
 124   2.0000      -1.017581       -27.6898
 125   2.0000      -1.017346       -27.6834
 126   2.0000      -1.012500       -27.5515
 127   2.0000      -1.007844       -27.4248
 128   2.0000      -0.995866       -27.0989
 129   2.0000      -0.993016       -27.0213
 130   2.0000      -0.988337       -26.8940
 131   2.0000      -0.984650       -26.7937
 132   2.0000      -0.959024       -26.0964
 133   2.0000      -0.952606       -25.9217
 134   2.0000      -0.947435       -25.7810
 135   2.0000      -0.939032       -25.5524
 136   2.0000      -0.936730       -25.4897
 137   2.0000      -0.923535       -25.1307
 138   2.0000      -0.914617       -24.8880
 139   2.0000      -0.910022       -24.7630
 140   2.0000      -0.903225       -24.5780
 141   2.0000      -0.891278       -24.2529
 142   2.0000      -0.884113       -24.0579
 143   2.0000      -0.875529       -23.8244
 144   2.0000      -0.873530       -23.7700
 145   2.0000      -0.867253       -23.5992
 146   2.0000      -0.846962       -23.0470
 147   2.0000      -0.843513       -22.9532
 148   2.0000      -0.833974       -22.6936
 149   2.0000      -0.829371       -22.5683
 150   2.0000      -0.824656       -22.4400
 151   2.0000      -0.821092       -22.3430
 152   2.0000      -0.817238       -22.2382
 153   2.0000      -0.806093       -21.9349
 154   2.0000      -0.802648       -21.8412
 155   2.0000      -0.783404       -21.3175
 156   2.0000      -0.771116       -20.9831
 157   2.0000      -0.764293       -20.7975
 158   2.0000      -0.761934       -20.7333
 159   2.0000      -0.754662       -20.5354
 160   2.0000      -0.749631       -20.3985
 161   2.0000      -0.734139       -19.9769
 162   2.0000      -0.733198       -19.9513
 163   2.0000      -0.727677       -19.8011
 164   2.0000      -0.719679       -19.5835
 165   2.0000      -0.717831       -19.5332
 166   2.0000      -0.711608       -19.3638
 167   2.0000      -0.708529       -19.2800
 168   2.0000      -0.699588       -19.0368
 169   2.0000      -0.695748       -18.9323
 170   2.0000      -0.691682       -18.8216
 171   2.0000      -0.689030       -18.7495
 172   2.0000      -0.684135       -18.6163
 173   2.0000      -0.678209       -18.4550
 174   2.0000      -0.676504       -18.4086
 175   2.0000      -0.675165       -18.3722
 176   2.0000      -0.669483       -18.2176
 177   2.0000      -0.667963       -18.1762
 178   2.0000      -0.651610       -17.7312
 179   2.0000      -0.648067       -17.6348
 180   2.0000      -0.646429       -17.5902
 181   2.0000      -0.639284       -17.3958
 182   2.0000      -0.636532       -17.3209
 183   2.0000      -0.628612       -17.1054
 184   2.0000      -0.625644       -17.0246
 185   2.0000      -0.623116       -16.9558
 186   2.0000      -0.617681       -16.8080
 187   2.0000      -0.615967       -16.7613
 188   2.0000      -0.613645       -16.6981
 189   2.0000      -0.609602       -16.5881
 190   2.0000      -0.608549       -16.5595
 191   2.0000      -0.603895       -16.4328
 192   2.0000      -0.602853       -16.4045
 193   2.0000      -0.593849       -16.1594
 194   2.0000      -0.591599       -16.0982
 195   2.0000      -0.588874       -16.0241
 196   2.0000      -0.587269       -15.9804
 197   2.0000      -0.581930       -15.8351
 198   2.0000      -0.581700       -15.8289
 199   2.0000      -0.579725       -15.7751
 200   2.0000      -0.576399       -15.6846
 201   2.0000      -0.574837       -15.6421
 202   2.0000      -0.572902       -15.5894
 203   2.0000      -0.572203       -15.5704
 204   2.0000      -0.570249       -15.5173
 205   2.0000      -0.566855       -15.4249
 206   2.0000      -0.564238       -15.3537
 207   2.0000      -0.562430       -15.3045
 208   2.0000      -0.560397       -15.2492
 209   2.0000      -0.559823       -15.2336
 210   2.0000      -0.553689       -15.0667
 211   2.0000      -0.551565       -15.0088
 212   2.0000      -0.549551       -14.9540
 213   2.0000      -0.546200       -14.8629
 214   2.0000      -0.541776       -14.7425
 215   2.0000      -0.538981       -14.6664
 216   2.0000      -0.535651       -14.5758
 217   2.0000      -0.534088       -14.5333
 218   2.0000      -0.531374       -14.4594
 219   2.0000      -0.528550       -14.3826
 220   2.0000      -0.526339       -14.3224
 221   2.0000      -0.525881       -14.3099
 222   2.0000      -0.523953       -14.2575
 223   2.0000      -0.522382       -14.2147
 224   2.0000      -0.519068       -14.1246
 225   2.0000      -0.518261       -14.1026
 226   2.0000      -0.515796       -14.0355
 227   2.0000      -0.511011       -13.9053
 228   2.0000      -0.508844       -13.8464
 229   2.0000      -0.506691       -13.7878
 230   2.0000      -0.502898       -13.6845
 231   2.0000      -0.502156       -13.6644
 232   2.0000      -0.497938       -13.5496
 233   2.0000      -0.494887       -13.4666
 234   2.0000      -0.493482       -13.4283
 235   2.0000      -0.488692       -13.2980
 236   2.0000      -0.482358       -13.1256
 237   2.0000      -0.477219       -12.9858
 238   2.0000      -0.473780       -12.8922
 239   2.0000      -0.472982       -12.8705
 240   2.0000      -0.472163       -12.8482
 241   2.0000      -0.469454       -12.7745
 242   2.0000      -0.468705       -12.7541
 243   2.0000      -0.468128       -12.7384
 244   2.0000      -0.467424       -12.7192
 245   2.0000      -0.466952       -12.7064
 246   2.0000      -0.465749       -12.6737
 247   2.0000      -0.462815       -12.5938
 248   2.0000      -0.461391       -12.5551
 249   2.0000      -0.459439       -12.5020
 250   2.0000      -0.458909       -12.4876
 251   2.0000      -0.456812       -12.4305
 252   2.0000      -0.455840       -12.4040
 253   2.0000      -0.455007       -12.3814
 254   2.0000      -0.453902       -12.3513
 255   2.0000      -0.453502       -12.3404
 256   2.0000      -0.453017       -12.3272
 257   2.0000      -0.451676       -12.2907
 258   2.0000      -0.450117       -12.2483
 259   2.0000      -0.449099       -12.2206
 260   2.0000      -0.447528       -12.1779
 261   2.0000      -0.445832       -12.1317
 262   2.0000      -0.442631       -12.0446
 263   2.0000      -0.442107       -12.0303
 264   2.0000      -0.436286       -11.8719
 265   2.0000      -0.435539       -11.8516
 266   2.0000      -0.430972       -11.7273
 267   2.0000      -0.427954       -11.6452
 268   2.0000      -0.426863       -11.6155
 269   2.0000      -0.422114       -11.4863
 270   2.0000      -0.419251       -11.4084
 271   2.0000      -0.414517       -11.2796
 272   2.0000      -0.405336       -11.0298
 273   2.0000      -0.387118       -10.5340
 274   2.0000      -0.383999       -10.4491
 275   2.0000      -0.382704       -10.4139
 276   2.0000      -0.379657       -10.3310
 277   2.0000      -0.378783       -10.3072
 278   2.0000      -0.377044       -10.2599
 279   2.0000      -0.373847       -10.1729
 280   2.0000      -0.372662       -10.1406
 281   2.0000      -0.371908       -10.1201
 282   2.0000      -0.363725        -9.8975
 283   2.0000      -0.362950        -9.8764
 284   2.0000      -0.358182        -9.7466
 285   2.0000      -0.355886        -9.6841
 286   2.0000      -0.352552        -9.5934
 287   2.0000      -0.350829        -9.5465
 288   2.0000      -0.347702        -9.4615
 289   2.0000      -0.345446        -9.4001
 290   2.0000      -0.339858        -9.2480
 291   2.0000      -0.311777        -8.4839
 292   2.0000      -0.309780        -8.4295
 293   2.0000      -0.300186        -8.1685
 294   2.0000      -0.275887        -7.5073
 295   0.0000      -0.131065        -3.5665
 296   0.0000      -0.119738        -3.2582
 297   0.0000      -0.111589        -3.0365
 298   0.0000      -0.108139        -2.9426
 299   0.0000      -0.100059        -2.7228

MULLIKEN ATOMIC CHARGES
-----------------------
   0 C :    0.053846
   1 C :   -0.034125
   2 C :   -0.055959
   3 C :   -0.136565
   4 N :    0.166797
   5 C :   -0.010682
   6 C :   -0.211932
   7 N :    0.200890
   8 C :   -0.037424
   9 C :   -0.000561
  10 C :    0.154434
  11 O :   -0.155506
  12 C :   -0.092825
  13 C :    0.295407
  14 C :   -0.324832
  15 C :   -0.183617
  16 N :    0.171356
  17 C :   -0.203003
  18 N :    0.182806
  19 C :    0.044048
  20 C :   -0.108751
  21 C :    0.034898
  22 C :    0.023256
  23 C :    0.162950
  24 C :    0.033465
  25 C :   -0.161430
  26 N :   -0.006584
  27 C :   -0.135137
  28 S :    0.169864
  29 S :    0.150897
  30 C :    0.070959
  31 C :    0.239790
  32 F :   -0.177132
  33 F :   -0.141814
  34 C :   -0.254172
  35 C :    0.059664
  36 C :    0.014869
  37 N :    0.060448
  38 C :   -0.110832
  39 C :    0.140355
  40 O :   -0.092440
  41 C :   -0.015998
  42 C :   -0.018401
  43 C :    0.146895
  44 O :   -0.099207
  45 C :   -0.119017
  46 N :    0.070332
  47 C :   -0.138785
  48 S :    0.248491
  49 C :   -0.038884
  50 C :   -0.087816
  51 C :    0.127299
  52 C :    0.065970
  53 C :    0.013865
  54 C :   -0.164488
  55 N :    0.018697
  56 C :   -0.142341
  57 S :    0.227771
  58 S :    0.164677
  59 C :    0.066990
  60 C :    0.230765
  61 F :   -0.175933
  62 F :   -0.136485
  63 C :    0.001395
  64 C :   -0.080507
  65 C :    0.156302
  66 O :   -0.157895
  67 C :    0.037638
  68 C :   -0.008124
  69 C :   -0.072289
  70 C :   -0.061754
  71 C :   -0.039207
  72 C :    0.051139
  73 C :    0.239755
  74 C :   -0.304419
  75 C :   -0.178150
  76 N :    0.182268
  77 C :   -0.195170
  78 N :    0.187509
  79 C :   -0.175257
  80 N :    0.207598
  81 C :   -0.167464
  82 N :    0.206135
  83 H :    0.020398
  84 H :    0.007134
  85 H :    0.029988
  86 H :    0.015367
  87 H :    0.022858
  88 H :    0.021281
  89 H :   -0.011753
  90 H :    0.011102
  91 H :   -0.011109
  92 H :    0.025156
Sum of atomic charges:   -0.0000000

LOEWDIN ATOMIC CHARGES
----------------------
   0 C :    0.002227
   1 C :    0.037652
   2 C :   -0.022407
   3 C :   -0.018479
   4 N :   -0.021852
   5 C :   -0.019283
   6 C :   -0.032033
   7 N :   -0.026574
   8 C :    0.047435
   9 C :   -0.028336
  10 C :    0.088079
  11 O :   -0.142252
  12 C :   -0.093856
  13 C :    0.067266
  14 C :   -0.116268
  15 C :   -0.021280
  16 N :   -0.028417
  17 C :   -0.026605
  18 N :   -0.026434
  19 C :    0.063798
  20 C :   -0.172051
  21 C :   -0.002285
  22 C :   -0.071437
  23 C :    0.003053
  24 C :   -0.067004
  25 C :   -0.116103
  26 N :   -0.092071
  27 C :   -0.123890
  28 S :    0.436503
  29 S :    0.430451
  30 C :   -0.088166
  31 C :    0.005880
  32 F :   -0.047221
  33 F :   -0.032065
  34 C :   -0.183974
  35 C :   -0.036966
  36 C :   -0.048462
  37 N :   -0.002321
  38 C :   -0.035001
  39 C :    0.055920
  40 O :   -0.089636
  41 C :   -0.010076
  42 C :   -0.012493
  43 C :    0.057658
  44 O :   -0.095265
  45 C :   -0.035158
  46 N :    0.009433
  47 C :   -0.187554
  48 S :    0.577683
  49 C :   -0.157594
  50 C :   -0.062314
  51 C :   -0.038654
  52 C :   -0.017264
  53 C :   -0.075507
  54 C :   -0.126727
  55 N :   -0.069624
  56 C :   -0.127846
  57 S :    0.483373
  58 S :    0.439948
  59 C :   -0.084052
  60 C :   -0.009043
  61 F :   -0.044336
  62 F :   -0.027828
  63 C :    0.066642
  64 C :   -0.066463
  65 C :    0.105917
  66 O :   -0.134243
  67 C :   -0.033393
  68 C :    0.058031
  69 C :   -0.023635
  70 C :   -0.016363
  71 C :    0.033799
  72 C :    0.010146
  73 C :    0.058867
  74 C :   -0.115884
  75 C :   -0.018268
  76 N :   -0.029810
  77 C :   -0.024559
  78 N :   -0.024752
  79 C :   -0.030914
  80 N :   -0.005855
  81 C :   -0.031287
  82 N :   -0.004607
  83 H :    0.052537
  84 H :    0.047732
  85 H :    0.048065
  86 H :    0.017784
  87 H :    0.047719
  88 H :    0.047221
  89 H :    0.024978
  90 H :    0.043613
  91 H :    0.051053
  92 H :    0.053630

  Mayer bond orders larger than 0.100000
B(  0-C ,  1-C ) :   1.3516 B(  0-C ,  9-C ) :   1.3302 B(  0-C , 13-C ) :   0.9630
B(  1-C ,  2-C ) :   1.3900 B(  1-C , 83-H ) :   0.9847 B(  2-C ,  3-C ) :   1.0952
B(  2-C ,  5-C ) :   1.4038 B(  3-C ,  4-N ) :   2.9440 B(  5-C ,  6-C ) :   1.0938
B(  5-C ,  8-C ) :   1.3638 B(  6-C ,  7-N ) :   3.0455 B(  8-C ,  9-C ) :   1.3670
B(  8-C , 84-H ) :   1.0087 B(  9-C , 10-C ) :   0.9411 B( 10-C , 11-O ) :   2.1763
B( 10-C , 12-C ) :   0.9519 B( 12-C , 13-C ) :   1.0647 B( 12-C , 19-C ) :   1.6011
B( 13-C , 14-C ) :   1.6697 B( 14-C , 15-C ) :   1.1428 B( 14-C , 17-C ) :   1.1339
B( 15-C , 16-N ) :   2.9633 B( 17-C , 18-N ) :   2.9943 B( 19-C , 20-C ) :   1.1839
B( 19-C , 85-H ) :   0.9333 B( 20-C , 21-C ) :   1.5135 B( 20-C , 28-S ) :   1.0636
B( 21-C , 22-C ) :   1.2231 B( 21-C , 86-H ) :   0.9528 B( 22-C , 23-C ) :   1.2885
B( 22-C , 27-C ) :   1.1877 B( 23-C , 24-C ) :   1.3912 B( 23-C , 34-C ) :   1.0402
B( 24-C , 25-C ) :   1.1585 B( 24-C , 31-C ) :   1.0912 B( 25-C , 26-N ) :   1.5557
B( 25-C , 29-S ) :   1.0937 B( 26-N , 27-C ) :   1.5331 B( 27-C , 28-S ) :   1.1033
B( 29-S , 30-C ) :   1.0738 B( 30-C , 31-C ) :   1.5135 B( 30-C , 33-F ) :   1.1513
B( 31-C , 32-F ) :   1.1249 B( 34-C , 35-C ) :   1.3618 B( 34-C , 47-C ) :   0.1463
B( 34-C , 48-S ) :   1.1893 B( 35-C , 36-C ) :   1.1942 B( 35-C , 46-N ) :   1.4237
B( 36-C , 37-N ) :   1.4289 B( 36-C , 47-C ) :   1.3114 B( 37-N , 38-C ) :   1.7181
B( 38-C , 39-C ) :   0.8869 B( 38-C , 45-C ) :   1.0998 B( 39-C , 40-O ) :   2.2616
B( 39-C , 41-C ) :   1.0196 B( 41-C , 42-C ) :   1.6805 B( 41-C , 87-H ) :   0.9979
B( 42-C , 43-C ) :   1.0203 B( 42-C , 88-H ) :   0.9986 B( 43-C , 44-O ) :   2.2559
B( 43-C , 45-C ) :   0.8874 B( 45-C , 46-N ) :   1.7114 B( 47-C , 48-S ) :   1.1935
B( 47-C , 49-C ) :   1.1766 B( 49-C , 50-C ) :   1.4898 B( 49-C , 57-S ) :   1.1092
B( 50-C , 51-C ) :   1.2080 B( 50-C , 89-H ) :   0.9871 B( 51-C , 52-C ) :   1.3088
B( 51-C , 56-C ) :   1.1803 B( 52-C , 53-C ) :   1.3264 B( 52-C , 63-C ) :   1.0472
B( 53-C , 54-C ) :   1.1680 B( 53-C , 60-C ) :   1.1126 B( 54-C , 55-N ) :   1.5792
B( 54-C , 58-S ) :   1.0747 B( 55-N , 56-C ) :   1.5392 B( 56-C , 57-S ) :   1.0743
B( 58-S , 59-C ) :   1.1067 B( 59-C , 60-C ) :   1.4718 B( 59-C , 62-F ) :   1.1594
B( 60-C , 61-F ) :   1.1112 B( 63-C , 64-C ) :   1.7525 B( 63-C , 90-H ) :   0.9356
B( 64-C , 65-C ) :   0.9491 B( 64-C , 73-C ) :   0.9986 B( 65-C , 66-O ) :   2.1817
B( 65-C , 67-C ) :   0.9127 B( 67-C , 68-C ) :   1.3450 B( 67-C , 72-C ) :   1.3227
B( 68-C , 69-C ) :   1.3884 B( 68-C , 91-H ) :   1.0064 B( 69-C , 70-C ) :   1.3930
B( 69-C , 81-C ) :   1.0959 B( 70-C , 71-C ) :   1.3887 B( 70-C , 79-C ) :   1.0874
B( 71-C , 72-C ) :   1.3631 B( 71-C , 92-H ) :   0.9936 B( 72-C , 73-C ) :   0.9888
B( 73-C , 74-C ) :   1.6978 B( 74-C , 75-C ) :   1.1673 B( 74-C , 77-C ) :   1.1286
B( 75-C , 76-N ) :   2.9861 B( 77-C , 78-N ) :   2.9966 B( 79-C , 80-N ) :   3.0449
B( 81-C , 82-N ) :   3.0382

-----------------------------------------------------------------------------
         ABSORPTION SPECTRUM VIA TRANSITION ELECTRIC DIPOLE MOMENTS
-----------------------------------------------------------------------------
State   Energy  Wavelength   fosc         T2         TX        TY        TZ
        (cm-1)    (nm)                  (au**2)     (au)      (au)      (au)
-----------------------------------------------------------------------------
   0   15539.3    643.5   0.333915247   7.07425  -0.67421   0.24591  -2.56110
   1   19042.6    525.1   0.502580498   8.68871  -1.43731  -2.47468  -0.70626
   2   20002.3    499.9   0.089255181   1.46902   0.14387  -1.00294   0.66516
   3   21339.7    468.6   0.044764484   0.69059  -0.55122   0.60757  -0.13270
   4   21664.0    461.6   0.045190738   0.68673  -0.22931   0.61545  -0.50534
   5   22285.1    448.7   0.038931374   0.57512   0.72468  -0.07939   0.20894
   6   22949.4    435.7   0.269448940   3.86527  -0.98207  -1.36203  -1.02259
   7   23101.4    432.9   0.528650297   7.53365   1.27661   2.41802   0.23899
   8   24195.4    413.3   0.042156904   0.57360  -0.27676   0.18626  -0.67994
   9   24390.0    410.0   0.022178664   0.29936  -0.30798  -0.44882  -0.05542
  10   25050.5    399.2   0.053936678   0.70883  -0.18721  -0.75146  -0.33029
  11   25915.3    385.9   0.009907724   0.12586   0.33709   0.09871   0.04988
  12   26026.6    384.2   0.000466245   0.00590  -0.06352   0.02854   0.03238
  13   26286.1    380.4   0.046898831   0.58737   0.54499  -0.07648   0.53339
  14   26643.8    375.3   0.082014343   1.01337   0.53059   0.64517   0.56179
  15   26742.3    373.9   0.007425603   0.09141   0.02298   0.18273   0.23978
  16   26990.3    370.5   0.002455540   0.02995  -0.04950   0.16263   0.03244
  17   28253.5    353.9   0.005611920   0.06539   0.22468   0.10937   0.05429
  18   28823.5    346.9   0.004465326   0.05100  -0.08553  -0.20894   0.00552
  19   29153.9    343.0   0.011834948   0.13364  -0.33280   0.04316   0.14500
  20   29187.1    342.6   0.037416004   0.42203   0.38419  -0.30664   0.42473
  21   29713.3    336.5   0.023658254   0.26212  -0.26642  -0.42920   0.08325
  22   30140.8    331.8   0.014555259   0.15898  -0.29936  -0.26036   0.03971
  23   30452.5    328.4   0.002864921   0.03097  -0.08929   0.11072  -0.10363
  24   30707.7    325.7   0.171239886   1.83584  -0.93847  -0.05314  -0.97586
  25   30825.0    324.4   0.624084734   6.66524  -1.36595  -1.27847  -1.77902
  26   30975.6    322.8   0.052034027   0.55302   0.35015   0.01281   0.65594
  27   31284.9    319.6   0.065902802   0.69350  -0.12280   0.07196  -0.82051
  28   31789.3    314.6   0.012283808   0.12721   0.17312   0.30509  -0.06450
  29   32014.9    312.4   0.005541438   0.05698  -0.14683  -0.10387  -0.15696
  30   32228.1    310.3   0.046986692   0.47997  -0.60580  -0.28853  -0.17243
  31   32325.4    309.4   0.169796230   1.72926   0.69595   0.73685  -0.83783
  32   32410.1    308.5   0.059369608   0.60306   0.26516   0.34196  -0.64483
  33   32518.6    307.5   0.022213166   0.22488  -0.25344  -0.30682  -0.25790
  34   33108.9    302.0   0.006244043   0.06209  -0.14740   0.19386   0.05269
  35   33284.6    300.4   0.042309390   0.41848   0.22629  -0.42200   0.43496
  36   33554.8    298.0   0.113096428   1.10961   0.07142  -0.64167   0.83232
  37   33647.9    297.2   0.071130931   0.69595   0.07928   0.23393  -0.79683
  38   33742.2    296.4   0.222621502   2.17205  -1.14728   0.56738  -0.73067
  39   33797.3    295.9   0.142988465   1.39282   0.38280  -0.70574   0.86500
  40   34171.5    292.6   0.051687350   0.49796  -0.34929  -0.18144  -0.58569
  41   34294.7    291.6   0.053885713   0.51728  -0.57695  -0.42936   0.00695
  42   34351.9    291.1   0.092732879   0.88871  -0.52854  -0.39495  -0.67333
  43   34564.3    289.3   0.275576632   2.62476   1.35526   0.88389  -0.08234
  44   34696.5    288.2   0.065631330   0.62273   0.49199   0.59907  -0.14764
  45   34966.9    286.0   0.012823963   0.12074  -0.23844  -0.20156  -0.15250
  46   35168.2    284.3   0.063851094   0.59771   0.27570   0.46552  -0.55226
  47   35540.9    281.4   0.041445913   0.38391   0.59015  -0.01432  -0.18821
  48   35614.9    280.8   0.109848680   1.01540  -0.65433  -0.74146   0.19361
  49   35696.0    280.1   0.317362592   2.92693   1.33358   0.79215   0.72179
  50   35758.8    279.7   0.057094657   0.52564   0.30394  -0.04486   0.65669
  51   35847.2    279.0   0.065394738   0.60057  -0.65497   0.19284   0.36661
  52   36156.7    276.6   0.004531858   0.04126   0.03029   0.09701   0.17588
  53   36334.7    275.2   0.144853642   1.31245   0.07795   0.92691  -0.66874
  54   36366.4    275.0   0.066532550   0.60229  -0.46172   0.47814  -0.40061
  55   36589.2    273.3   0.167790245   1.50969   0.22679   1.20324  -0.10236
  56   37131.9    269.3   0.061208663   0.54268  -0.08318   0.68182  -0.26623
  57   37241.3    268.5   0.092791402   0.82027   0.58541   0.56175  -0.40249
  58   37323.2    267.9   0.078567061   0.69301   0.36904   0.25336  -0.70187
  59   37588.5    266.0   0.085422240   0.74815   0.08949   0.28308  -0.81241
  60   37696.0    265.3   0.158771576   1.38661   0.47028   1.06526   0.17513
  61   37801.2    264.5   0.027498790   0.23949  -0.26765  -0.16793  -0.37370
  62   38109.8    262.4   0.016919735   0.14616   0.16431  -0.34219   0.04553
  63   38201.1    261.8   0.039563018   0.34095  -0.24280  -0.52410  -0.08555
  64   38302.0    261.1   0.034964350   0.30052  -0.07943  -0.46594   0.27770
  65   38378.7    260.6   0.024405696   0.20935   0.26221   0.37135   0.05197
  66   38493.0    259.8   0.073104251   0.62523   0.34878   0.70601   0.07162
  67   38596.0    259.1   0.125043770   1.06658  -0.77025  -0.59560  -0.34433
  68   38643.6    258.8   0.062488411   0.53235   0.69235  -0.01630   0.22963
  69   38808.6    257.7   0.103349319   0.87671   0.29933  -0.80404   0.37501
  70   38890.6    257.1   0.009695185   0.08207  -0.16853   0.09160   0.21278
  71   39009.2    256.4   0.027002216   0.22788  -0.46116   0.00413   0.12326
  72   39182.8    255.2   0.021695053   0.18228   0.02272   0.29485   0.30794
  73   39236.2    254.9   0.104625344   0.87786   0.85115  -0.02634   0.39079
  74   39288.1    254.5   0.058982120   0.49424  -0.28878  -0.63154  -0.10953
  75   39560.3    252.8   0.017431354   0.14506   0.20282   0.27529  -0.16774
  76   39667.7    252.1   0.174572946   1.44882   0.56854   0.96096   0.44961
  77   39774.3    251.4   0.071164662   0.58903   0.22466   0.52049   0.51735
  78   39923.4    250.5   0.002223964   0.01834  -0.00270  -0.12678  -0.04753
  79   39980.5    250.1   0.028239211   0.23253  -0.06307  -0.00499  -0.47805
  80   40147.5    249.1   0.032554560   0.26695   0.06912   0.00126   0.51203

FINAL SINGLE POINT ENERGY     -5559.245265497334

DIPOLE MOMENT
-------------
                                X             Y             Z
Electronic contribution:     -1.81365      20.77731      -2.01918
Nuclear contribution   :      3.38445     -16.65158       4.24267
                        -----------------------------------------
Total Dipole Moment    :      1.57080       4.12573       2.22348
                        -----------------------------------------
Magnitude (a.u.)       :      4.94297
Magnitude (Debye)      :     12.56403

Rotational constants in cm-1:     0.000944     0.000473     0.000339
Rotational constants in MHz :    28.296061    14.194194    10.151794

                             ****ORCA TERMINATED NORMALLY****
TOTAL RUN TIME: 0 days 0 hours 12 minutes 54 seconds 115 msec
