                         Program Version 4.2.0 -  RELEASE  -
|  1> # ORCA input file
|  2> # SCF done       -190.698686105522          0.000871345277
|  3> ! CAM-B3LYP def2-SVP def2/J RIJCOSX Grid4 TightSCF
|  4> %maxcore 5000
|  5> %tddft
|  6>     Mode sTDDFT
|  7>     Ethresh 5.0
|  8>     maxcore 5000
|  9> end
| 10>
| 11> %pal
| 12>   nprocs 6
| 13>   end
| 14> * xyz 0 1
| 15>    C      -16.65554        -6.69971         2.78994
| 16>    C      -17.88169        -6.37153         3.34637
| 17>    C      -19.03713        -6.61932         2.60336
| 18>    C      -20.30033        -6.28320         3.15095
| 19>    N      -21.31720        -6.00769         3.59888
| 20>    C      -18.97312        -7.19320         1.31862
| 21>    C      -20.16369        -7.43387         0.59149
| 22>    N      -21.11541        -7.63600        -0.01232
| 23>    C      -17.73646        -7.51869         0.76090
| 24>    C      -16.60291        -7.26262         1.50288
| 25>    C      -15.19393        -7.50361         1.11459
| 26>    O      -14.84121        -8.02169         0.07895
| 27>    C      -14.37770        -6.98164         2.23597
| 28>    C      -15.28984        -6.56975         3.29722
| 29>    C      -14.96642        -6.18122         4.56919
| 30>    C      -15.91882        -5.81234         5.54608
| 31>    N      -16.63840        -5.49716         6.38210
| 32>    C      -13.67096        -6.11506         5.13194
| 33>    N      -12.67551        -6.03670         5.69870
| 34>    C      -13.02714        -6.78546         2.31299
| 35>    C      -11.93791        -7.06567         1.44094
| 36>    C      -11.93292        -7.77710         0.23592
| 37>    C      -10.78818        -7.96574        -0.52811
| 38>    C       -9.53804        -7.46316        -0.15494
| 39>    C       -9.49869        -6.76427         1.07275
| 40>    C      -10.67091        -6.57020         1.85148
| 41>    N      -10.31004        -5.87674         2.93905
| 42>    N       -9.02827        -5.69205         2.80095
| 43>    N       -8.47994        -6.18481         1.72270
| 44>    C       -8.27008        -4.98533         3.78533
| 45>    C       -8.36090        -7.60264        -0.93863
| 46>    C       -8.19542        -8.24700        -2.17211
| 47>    C       -6.85811        -8.12315        -2.69517
| 48>    N       -6.50653        -8.74339        -3.82206
| 49>    C       -7.44638        -9.37390        -4.48623
| 50>    C       -7.07096        -9.98698        -5.78340
| 51>    O       -5.99213        -9.80164        -6.31035
| 52>    C       -8.12695       -10.78720        -6.42695
| 53>    C       -9.37394       -10.88346        -5.95497
| 54>    C       -9.83397       -10.21969        -4.72109
| 55>    O      -10.97399       -10.30957        -4.32160
| 56>    C       -8.78656        -9.45708        -3.99263
| 57>    N       -9.13107        -8.92547        -2.84206
| 58>    C       -6.02032        -7.36337        -1.86695
| 59>    S       -6.87608        -6.86412        -0.44955
| 60>    C       -4.66525        -6.98588        -2.10306
| 61>    C       -3.79504        -6.62901        -1.07240
| 62>    C       -2.46740        -6.30294        -1.29807
| 63>    C       -1.89671        -6.25305        -2.57294
| 64>    C       -2.75332        -6.61916        -3.63700
| 65>    C       -4.11909        -6.96475        -3.40458
| 66>    N       -4.67209        -7.21365        -4.59780
| 67>    N       -3.70544        -7.07283        -5.44537
| 68>    N       -2.54172        -6.72350        -4.95827
| 69>    C       -3.90535        -7.29808        -6.84189
| 70>    C       -0.52610        -5.88608        -2.72956
| 71>    C        0.12198        -5.39778        -3.82090
| 72>    C        1.60714        -5.47016        -3.88132
| 73>    O        2.36763        -5.69962        -2.97235
| 74>    C        1.94251        -5.25378        -5.31005
| 75>    C        3.17242        -5.33405        -5.92741
| 76>    C        3.23332        -5.11662        -7.30547
| 77>    C        2.06006        -4.82833        -8.02922
| 78>    C        0.82120        -4.73702        -7.39216
| 79>    C        0.76693        -4.94813        -6.02516
| 80>    C       -0.35120        -4.88547        -5.08644
| 81>    C       -1.54322        -4.25274        -5.31363
| 82>    C       -2.46226        -3.93783        -4.29072
| 83>    N       -3.21755        -3.62047        -3.48741
| 84>    C       -1.97017        -3.79773        -6.57697
| 85>    N       -2.38803        -3.45921        -7.59086
| 86>    C        2.13765        -4.62957        -9.43018
| 87>    N        2.18896        -4.46996       -10.56256
| 88>    C        4.47672        -5.18940        -7.97819
| 89>    N        5.49127        -5.25342        -8.50526
| 90>    H      -17.97443        -5.92812         4.32463
| 91>    H      -17.66547        -7.95569        -0.22363
| 92>    H      -12.68159        -6.28044         3.20849
| 93>    H      -12.85716        -8.19431        -0.12815
| 94>    H      -10.86038        -8.51616        -1.45313
| 95>    H       -8.92391        -4.78999         4.63226
| 96>    H       -7.90282        -4.04550         3.37081
| 97>    H       -7.41698        -5.58900         4.09390
| 98>    H       -7.83287       -11.28270        -7.34256
| 99>    H      -10.12831       -11.46176        -6.47119
|100>    H       -4.17024        -6.62928        -0.05936
|101>    H       -1.84875        -6.03953        -0.45287
|102>    H       -4.61053        -8.12296        -6.95158
|103>    H       -2.94821        -7.54038        -7.29827
|104>    H       -4.31562        -6.40301        -7.31412
|105>    H        0.11095        -6.07244        -1.86965
|106>    H        4.06376        -5.55954        -5.36180
|107>    H       -0.05927        -4.51623        -7.97497
|108> *
|109>
|110>                          ****END OF INPUT****

CARTESIAN COORDINATES (ANGSTROEM)
---------------------------------
  C    -16.655540   -6.699710    2.789940
  C    -17.881690   -6.371530    3.346370
  C    -19.037130   -6.619320    2.603360
  C    -20.300330   -6.283200    3.150950
  N    -21.317200   -6.007690    3.598880
  C    -18.973120   -7.193200    1.318620
  C    -20.163690   -7.433870    0.591490
  N    -21.115410   -7.636000   -0.012320
  C    -17.736460   -7.518690    0.760900
  C    -16.602910   -7.262620    1.502880
  C    -15.193930   -7.503610    1.114590
  O    -14.841210   -8.021690    0.078950
  C    -14.377700   -6.981640    2.235970
  C    -15.289840   -6.569750    3.297220
  C    -14.966420   -6.181220    4.569190
  C    -15.918820   -5.812340    5.546080
  N    -16.638400   -5.497160    6.382100
  C    -13.670960   -6.115060    5.131940
  N    -12.675510   -6.036700    5.698700
  C    -13.027140   -6.785460    2.312990
  C    -11.937910   -7.065670    1.440940
  C    -11.932920   -7.777100    0.235920
  C    -10.788180   -7.965740   -0.528110
  C     -9.538040   -7.463160   -0.154940
  C     -9.498690   -6.764270    1.072750
  C    -10.670910   -6.570200    1.851480
  N    -10.310040   -5.876740    2.939050
  N     -9.028270   -5.692050    2.800950
  N     -8.479940   -6.184810    1.722700
  C     -8.270080   -4.985330    3.785330
  C     -8.360900   -7.602640   -0.938630
  C     -8.195420   -8.247000   -2.172110
  C     -6.858110   -8.123150   -2.695170
  N     -6.506530   -8.743390   -3.822060
  C     -7.446380   -9.373900   -4.486230
  C     -7.070960   -9.986980   -5.783400
  O     -5.992130   -9.801640   -6.310350
  C     -8.126950  -10.787200   -6.426950
  C     -9.373940  -10.883460   -5.954970
  C     -9.833970  -10.219690   -4.721090
  O    -10.973990  -10.309570   -4.321600
  C     -8.786560   -9.457080   -3.992630
  N     -9.131070   -8.925470   -2.842060
  C     -6.020320   -7.363370   -1.866950
  S     -6.876080   -6.864120   -0.449550
  C     -4.665250   -6.985880   -2.103060
  C     -3.795040   -6.629010   -1.072400
  C     -2.467400   -6.302940   -1.298070
  C     -1.896710   -6.253050   -2.572940
  C     -2.753320   -6.619160   -3.637000
  C     -4.119090   -6.964750   -3.404580
  N     -4.672090   -7.213650   -4.597800
  N     -3.705440   -7.072830   -5.445370
  N     -2.541720   -6.723500   -4.958270
  C     -3.905350   -7.298080   -6.841890
  C     -0.526100   -5.886080   -2.729560
  C      0.121980   -5.397780   -3.820900
  C      1.607140   -5.470160   -3.881320
  O      2.367630   -5.699620   -2.972350
  C      1.942510   -5.253780   -5.310050
  C      3.172420   -5.334050   -5.927410
  C      3.233320   -5.116620   -7.305470
  C      2.060060   -4.828330   -8.029220
  C      0.821200   -4.737020   -7.392160
  C      0.766930   -4.948130   -6.025160
  C     -0.351200   -4.885470   -5.086440
  C     -1.543220   -4.252740   -5.313630
  C     -2.462260   -3.937830   -4.290720
  N     -3.217550   -3.620470   -3.487410
  C     -1.970170   -3.797730   -6.576970
  N     -2.388030   -3.459210   -7.590860
  C      2.137650   -4.629570   -9.430180
  N      2.188960   -4.469960  -10.562560
  C      4.476720   -5.189400   -7.978190
  N      5.491270   -5.253420   -8.505260
  H    -17.974430   -5.928120    4.324630
  H    -17.665470   -7.955690   -0.223630
  H    -12.681590   -6.280440    3.208490
  H    -12.857160   -8.194310   -0.128150
  H    -10.860380   -8.516160   -1.453130
  H     -8.923910   -4.789990    4.632260
  H     -7.902820   -4.045500    3.370810
  H     -7.416980   -5.589000    4.093900
  H     -7.832870  -11.282700   -7.342560
  H    -10.128310  -11.461760   -6.471190
  H     -4.170240   -6.629280   -0.059360
  H     -1.848750   -6.039530   -0.452870
  H     -4.610530   -8.122960   -6.951580
  H     -2.948210   -7.540380   -7.298270
  H     -4.315620   -6.403010   -7.314120
  H      0.110950   -6.072440   -1.869650
  H      4.063760   -5.559540   -5.361800
  H     -0.059270   -4.516230   -7.974970

 Total Charge           Charge          ....    0
 Multiplicity           Mult            ....    1
 Number of Electrons    NEL             ....  502
 Basis Dimension        Dim             .... 1144

ORBITAL ENERGIES
----------------

  NO   OCC          E(Eh)            E(eV)
   0   2.0000     -89.010095     -2422.0878
   1   2.0000     -19.244626      -523.6729
   2   2.0000     -19.243520      -523.6428
   3   2.0000     -19.241607      -523.5907
   4   2.0000     -19.237702      -523.4845
   5   2.0000     -14.567622      -396.4051
   6   2.0000     -14.558929      -396.1686
   7   2.0000     -14.469322      -393.7303
   8   2.0000     -14.467172      -393.6718
   9   2.0000     -14.459433      -393.4612
  10   2.0000     -14.456746      -393.3881
  11   2.0000     -14.455645      -393.3581
  12   2.0000     -14.455167      -393.3451
  13   2.0000     -14.434128      -392.7726
  14   2.0000     -14.433772      -392.7629
  15   2.0000     -14.433021      -392.7425
  16   2.0000     -14.430011      -392.6606
  17   2.0000     -14.429156      -392.6373
  18   2.0000     -14.428689      -392.6246
  19   2.0000     -14.428522      -392.6200
  20   2.0000     -14.428065      -392.6076
  21   2.0000     -10.394279      -282.8427
  22   2.0000     -10.393228      -282.8141
  23   2.0000     -10.389756      -282.7196
  24   2.0000     -10.387916      -282.6696
  25   2.0000     -10.366273      -282.0806
  26   2.0000     -10.362295      -281.9724
  27   2.0000     -10.361568      -281.9526
  28   2.0000     -10.361075      -281.9392
  29   2.0000     -10.361067      -281.9390
  30   2.0000     -10.360383      -281.9204
  31   2.0000     -10.358426      -281.8671
  32   2.0000     -10.354402      -281.7576
  33   2.0000     -10.354131      -281.7502
  34   2.0000     -10.351306      -281.6733
  35   2.0000     -10.348351      -281.5930
  36   2.0000     -10.346624      -281.5459
  37   2.0000     -10.345167      -281.5063
  38   2.0000     -10.343454      -281.4597
  39   2.0000     -10.341428      -281.4046
  40   2.0000     -10.339736      -281.3585
  41   2.0000     -10.339315      -281.3471
  42   2.0000     -10.335517      -281.2437
  43   2.0000     -10.335470      -281.2424
  44   2.0000     -10.335224      -281.2358
  45   2.0000     -10.334844      -281.2254
  46   2.0000     -10.334724      -281.2221
  47   2.0000     -10.334686      -281.2211
  48   2.0000     -10.334180      -281.2073
  49   2.0000     -10.333126      -281.1786
  50   2.0000     -10.332233      -281.1544
  51   2.0000     -10.331785      -281.1422
  52   2.0000     -10.331377      -281.1311
  53   2.0000     -10.330254      -281.1005
  54   2.0000     -10.328267      -281.0464
  55   2.0000     -10.327550      -281.0269
  56   2.0000     -10.326525      -280.9990
  57   2.0000     -10.326309      -280.9931
  58   2.0000     -10.324970      -280.9567
  59   2.0000     -10.324963      -280.9565
  60   2.0000     -10.324833      -280.9530
  61   2.0000     -10.324470      -280.9431
  62   2.0000     -10.323975      -280.9296
  63   2.0000     -10.323301      -280.9113
  64   2.0000     -10.322927      -280.9011
  65   2.0000     -10.322556      -280.8910
  66   2.0000     -10.322542      -280.8906
  67   2.0000     -10.320160      -280.8258
  68   2.0000     -10.317510      -280.7537
  69   2.0000     -10.316534      -280.7272
  70   2.0000     -10.313546      -280.6458
  71   2.0000     -10.313495      -280.6445
  72   2.0000     -10.307717      -280.4873
  73   2.0000     -10.301420      -280.3159
  74   2.0000     -10.297053      -280.1970
  75   2.0000      -8.103583      -220.5097
  76   2.0000      -6.072430      -165.2392
  77   2.0000      -6.068076      -165.1207
  78   2.0000      -6.066947      -165.0900
  79   2.0000      -1.245163       -33.8826
  80   2.0000      -1.237553       -33.6755
  81   2.0000      -1.159597       -31.5542
  82   2.0000      -1.159095       -31.5406
  83   2.0000      -1.155089       -31.4316
  84   2.0000      -1.152942       -31.3731
  85   2.0000      -1.112205       -30.2646
  86   2.0000      -1.044860       -28.4321
  87   2.0000      -1.042650       -28.3719
  88   2.0000      -1.038696       -28.2643
  89   2.0000      -1.030301       -28.0359
  90   2.0000      -1.029040       -28.0016
  91   2.0000      -1.028192       -27.9785
  92   2.0000      -1.016684       -27.6654
  93   2.0000      -1.013558       -27.5803
  94   2.0000      -1.013087       -27.5675
  95   2.0000      -1.011051       -27.5121
  96   2.0000      -1.010431       -27.4952
  97   2.0000      -1.008545       -27.4439
  98   2.0000      -1.007737       -27.4219
  99   2.0000      -1.007619       -27.4187
 100   2.0000      -1.004761       -27.3409
 101   2.0000      -0.995614       -27.0920
 102   2.0000      -0.980725       -26.6869
 103   2.0000      -0.977486       -26.5987
 104   2.0000      -0.953311       -25.9409
 105   2.0000      -0.947237       -25.7756
 106   2.0000      -0.943833       -25.6830
 107   2.0000      -0.932088       -25.3634
 108   2.0000      -0.928244       -25.2588
 109   2.0000      -0.924927       -25.1686
 110   2.0000      -0.918559       -24.9953
 111   2.0000      -0.906056       -24.6550
 112   2.0000      -0.903892       -24.5962
 113   2.0000      -0.892438       -24.2845
 114   2.0000      -0.886795       -24.1309
 115   2.0000      -0.875963       -23.8362
 116   2.0000      -0.852887       -23.2082
 117   2.0000      -0.839026       -22.8311
 118   2.0000      -0.832395       -22.6506
 119   2.0000      -0.822249       -22.3745
 120   2.0000      -0.819158       -22.2904
 121   2.0000      -0.811635       -22.0857
 122   2.0000      -0.808086       -21.9891
 123   2.0000      -0.803026       -21.8515
 124   2.0000      -0.798134       -21.7183
 125   2.0000      -0.768794       -20.9200
 126   2.0000      -0.764165       -20.7940
 127   2.0000      -0.757001       -20.5990
 128   2.0000      -0.755023       -20.5452
 129   2.0000      -0.749012       -20.3816
 130   2.0000      -0.746316       -20.3083
 131   2.0000      -0.733257       -19.9529
 132   2.0000      -0.729180       -19.8420
 133   2.0000      -0.722679       -19.6651
 134   2.0000      -0.716719       -19.5029
 135   2.0000      -0.709604       -19.3093
 136   2.0000      -0.708298       -19.2738
 137   2.0000      -0.691743       -18.8233
 138   2.0000      -0.688983       -18.7482
 139   2.0000      -0.687446       -18.7064
 140   2.0000      -0.681036       -18.5319
 141   2.0000      -0.671525       -18.2731
 142   2.0000      -0.664157       -18.0726
 143   2.0000      -0.656647       -17.8683
 144   2.0000      -0.656158       -17.8550
 145   2.0000      -0.649522       -17.6744
 146   2.0000      -0.642751       -17.4901
 147   2.0000      -0.639476       -17.4010
 148   2.0000      -0.628583       -17.1046
 149   2.0000      -0.628079       -17.0909
 150   2.0000      -0.625870       -17.0308
 151   2.0000      -0.620682       -16.8896
 152   2.0000      -0.617737       -16.8095
 153   2.0000      -0.612818       -16.6756
 154   2.0000      -0.612500       -16.6670
 155   2.0000      -0.606019       -16.4906
 156   2.0000      -0.604055       -16.4372
 157   2.0000      -0.599073       -16.3016
 158   2.0000      -0.597949       -16.2710
 159   2.0000      -0.586345       -15.9553
 160   2.0000      -0.583661       -15.8822
 161   2.0000      -0.579190       -15.7605
 162   2.0000      -0.576003       -15.6738
 163   2.0000      -0.571153       -15.5419
 164   2.0000      -0.569808       -15.5053
 165   2.0000      -0.568862       -15.4795
 166   2.0000      -0.565450       -15.3867
 167   2.0000      -0.563992       -15.3470
 168   2.0000      -0.560872       -15.2621
 169   2.0000      -0.559705       -15.2303
 170   2.0000      -0.553861       -15.0713
 171   2.0000      -0.550013       -14.9666
 172   2.0000      -0.546133       -14.8610
 173   2.0000      -0.541231       -14.7277
 174   2.0000      -0.538451       -14.6520
 175   2.0000      -0.534663       -14.5489
 176   2.0000      -0.533871       -14.5274
 177   2.0000      -0.529386       -14.4053
 178   2.0000      -0.526827       -14.3357
 179   2.0000      -0.525413       -14.2972
 180   2.0000      -0.524374       -14.2690
 181   2.0000      -0.523145       -14.2355
 182   2.0000      -0.521030       -14.1779
 183   2.0000      -0.518201       -14.1010
 184   2.0000      -0.516962       -14.0673
 185   2.0000      -0.514581       -14.0025
 186   2.0000      -0.513368       -13.9694
 187   2.0000      -0.510081       -13.8800
 188   2.0000      -0.506057       -13.7705
 189   2.0000      -0.504442       -13.7266
 190   2.0000      -0.503007       -13.6875
 191   2.0000      -0.499488       -13.5918
 192   2.0000      -0.496519       -13.5110
 193   2.0000      -0.492499       -13.4016
 194   2.0000      -0.488906       -13.3038
 195   2.0000      -0.481338       -13.0979
 196   2.0000      -0.480145       -13.0654
 197   2.0000      -0.476452       -12.9649
 198   2.0000      -0.468389       -12.7455
 199   2.0000      -0.467429       -12.7194
 200   2.0000      -0.465226       -12.6594
 201   2.0000      -0.463881       -12.6228
 202   2.0000      -0.462620       -12.5885
 203   2.0000      -0.461157       -12.5487
 204   2.0000      -0.459873       -12.5138
 205   2.0000      -0.459574       -12.5056
 206   2.0000      -0.457604       -12.4520
 207   2.0000      -0.456895       -12.4327
 208   2.0000      -0.455054       -12.3826
 209   2.0000      -0.454696       -12.3729
 210   2.0000      -0.454076       -12.3560
 211   2.0000      -0.452936       -12.3250
 212   2.0000      -0.452713       -12.3189
 213   2.0000      -0.451927       -12.2976
 214   2.0000      -0.444299       -12.0900
 215   2.0000      -0.444020       -12.0824
 216   2.0000      -0.442380       -12.0378
 217   2.0000      -0.441521       -12.0144
 218   2.0000      -0.436636       -11.8815
 219   2.0000      -0.434938       -11.8353
 220   2.0000      -0.433835       -11.8052
 221   2.0000      -0.429191       -11.6789
 222   2.0000      -0.428816       -11.6687
 223   2.0000      -0.428271       -11.6538
 224   2.0000      -0.427388       -11.6298
 225   2.0000      -0.423269       -11.5177
 226   2.0000      -0.422036       -11.4842
 227   2.0000      -0.417621       -11.3641
 228   2.0000      -0.415394       -11.3034
 229   2.0000      -0.409494       -11.1429
 230   2.0000      -0.402390       -10.9496
 231   2.0000      -0.395106       -10.7514
 232   2.0000      -0.387977       -10.5574
 233   2.0000      -0.383311       -10.4304
 234   2.0000      -0.378276       -10.2934
 235   2.0000      -0.375929       -10.2296
 236   2.0000      -0.371643       -10.1129
 237   2.0000      -0.368863       -10.0373
 238   2.0000      -0.365872        -9.9559
 239   2.0000      -0.362349        -9.8600
 240   2.0000      -0.362096        -9.8531
 241   2.0000      -0.359435        -9.7807
 242   2.0000      -0.358493        -9.7551
 243   2.0000      -0.350645        -9.5415
 244   2.0000      -0.348388        -9.4801
 245   2.0000      -0.345934        -9.4133
 246   2.0000      -0.338270        -9.2048
 247   2.0000      -0.331708        -9.0262
 248   2.0000      -0.324425        -8.8280
 249   2.0000      -0.309178        -8.4132
 250   2.0000      -0.269353        -7.3295
 251   0.0000      -0.132705        -3.6111
 252   0.0000      -0.111780        -3.0417
 253   0.0000      -0.102838        -2.7984
 254   0.0000      -0.099500        -2.7075
 255   0.0000      -0.090562        -2.4643

MULLIKEN ATOMIC CHARGES
-----------------------
   0 C :    0.043082
   1 C :   -0.034307
   2 C :   -0.065227
   3 C :   -0.172476
   4 N :    0.204643
   5 C :   -0.068228
   6 C :   -0.170583
   7 N :    0.197219
   8 C :   -0.029751
   9 C :   -0.005344
  10 C :    0.168462
  11 O :   -0.131299
  12 C :   -0.053141
  13 C :    0.311311
  14 C :   -0.338358
  15 C :   -0.191273
  16 N :    0.168159
  17 C :   -0.198806
  18 N :    0.176602
  19 C :   -0.061176
  20 C :    0.039776
  21 C :   -0.013659
  22 C :   -0.049096
  23 C :    0.089468
  24 C :   -0.041560
  25 C :   -0.005929
  26 N :   -0.040673
  27 N :   -0.059213
  28 N :   -0.091037
  29 C :    0.141008
  30 C :   -0.163052
  31 C :    0.028765
  32 C :    0.052992
  33 N :    0.102949
  34 C :   -0.126973
  35 C :    0.158782
  36 O :   -0.122467
  37 C :   -0.012615
  38 C :   -0.014368
  39 C :    0.144386
  40 O :   -0.100645
  41 C :   -0.111957
  42 N :    0.068480
  43 C :   -0.188238
  44 S :    0.246702
  45 C :    0.091500
  46 C :   -0.047338
  47 C :    0.001152
  48 C :    0.052574
  49 C :   -0.028437
  50 C :    0.006579
  51 N :   -0.012052
  52 N :   -0.059610
  53 N :   -0.070478
  54 C :    0.132278
  55 C :    0.002085
  56 C :   -0.116922
  57 C :    0.138554
  58 O :   -0.126116
  59 C :    0.005539
  60 C :   -0.031659
  61 C :   -0.068704
  62 C :   -0.059091
  63 C :   -0.045271
  64 C :    0.043251
  65 C :    0.309447
  66 C :   -0.299795
  67 C :   -0.215147
  68 N :    0.179080
  69 C :   -0.189873
  70 N :    0.160981
  71 C :   -0.174478
  72 N :    0.197282
  73 C :   -0.174876
  74 N :    0.194613
  75 H :    0.020522
  76 H :    0.016270
  77 H :    0.030534
  78 H :    0.010357
  79 H :    0.007290
  80 H :    0.069940
  81 H :    0.058492
  82 H :    0.055960
  83 H :    0.020294
  84 H :    0.023471
  85 H :   -0.011409
  86 H :   -0.007894
  87 H :    0.065570
  88 H :    0.045686
  89 H :    0.061240
  90 H :    0.022617
  91 H :    0.016620
  92 H :    0.018039
Sum of atomic charges:   -0.0000000

LOEWDIN ATOMIC CHARGES
----------------------
   0 C :    0.001685
   1 C :    0.034458
   2 C :   -0.023720
   3 C :   -0.031604
   4 N :   -0.010738
   5 C :   -0.028420
   6 C :   -0.031797
   7 N :   -0.013388
   8 C :    0.049292
   9 C :   -0.029270
  10 C :    0.087570
  11 O :   -0.120864
  12 C :   -0.095073
  13 C :    0.069011
  14 C :   -0.120995
  15 C :   -0.020870
  16 N :   -0.035875
  17 C :   -0.027602
  18 N :   -0.030163
  19 C :    0.087567
  20 C :   -0.051876
  21 C :    0.030745
  22 C :   -0.004533
  23 C :   -0.018970
  24 C :   -0.060337
  25 C :   -0.038425
  26 N :   -0.076052
  27 N :    0.163800
  28 N :   -0.112094
  29 C :    0.035104
  30 C :   -0.169473
  31 C :   -0.034149
  32 C :   -0.037611
  33 N :    0.030895
  34 C :   -0.047461
  35 C :    0.069635
  36 O :   -0.108575
  37 C :   -0.012915
  38 C :   -0.007859
  39 C :    0.056875
  40 O :   -0.095117
  41 C :   -0.035586
  42 N :    0.003925
  43 C :   -0.167940
  44 S :    0.576367
  45 C :   -0.012429
  46 C :   -0.026352
  47 C :    0.023876
  48 C :   -0.045096
  49 C :   -0.040124
  50 C :   -0.041138
  51 N :   -0.044206
  52 N :    0.171971
  53 N :   -0.099580
  54 C :    0.028367
  55 C :    0.078052
  56 C :   -0.087190
  57 C :    0.085838
  58 O :   -0.126271
  59 C :   -0.033003
  60 C :    0.049468
  61 C :   -0.032334
  62 C :   -0.023068
  63 C :    0.028358
  64 C :    0.011097
  65 C :    0.065174
  66 C :   -0.116533
  67 C :   -0.019633
  68 N :   -0.041886
  69 C :   -0.020325
  70 N :   -0.044785
  71 C :   -0.031041
  72 N :   -0.013296
  73 C :   -0.032532
  74 N :   -0.016207
  75 H :    0.052309
  76 H :    0.054143
  77 H :    0.050126
  78 H :    0.035682
  79 H :    0.038780
  80 H :    0.050029
  81 H :    0.043257
  82 H :    0.043063
  83 H :    0.046638
  84 H :    0.047840
  85 H :    0.027823
  86 H :    0.038130
  87 H :    0.042477
  88 H :    0.039919
  89 H :    0.043254
  90 H :    0.048688
  91 H :    0.054099
  92 H :    0.050991

  Mayer bond orders larger than 0.100000
B(  0-C ,  1-C ) :   1.3552 B(  0-C ,  9-C ) :   1.3362 B(  0-C , 13-C ) :   0.9523
B(  1-C ,  2-C ) :   1.3985 B(  1-C , 75-H ) :   0.9844 B(  2-C ,  3-C ) :   1.0861
B(  2-C ,  5-C ) :   1.4006 B(  3-C ,  4-N ) :   3.0449 B(  5-C ,  6-C ) :   1.0858
B(  5-C ,  8-C ) :   1.3615 B(  6-C ,  7-N ) :   3.0437 B(  8-C ,  9-C ) :   1.3664
B(  8-C , 76-H ) :   1.0142 B(  9-C , 10-C ) :   0.9348 B( 10-C , 11-O ) :   2.1889
B( 10-C , 12-C ) :   0.9304 B( 12-C , 13-C ) :   1.0791 B( 12-C , 19-C ) :   1.5192
B( 13-C , 14-C ) :   1.6486 B( 14-C , 15-C ) :   1.1494 B( 14-C , 17-C ) :   1.1356
B( 15-C , 16-N ) :   2.9620 B( 17-C , 18-N ) :   2.9854 B( 19-C , 20-C ) :   1.2136
B( 19-C , 77-H ) :   0.9349 B( 20-C , 21-C ) :   1.3515 B( 20-C , 23-C ) :   0.1002
B( 20-C , 25-C ) :   1.1521 B( 21-C , 22-C ) :   1.2666 B( 21-C , 78-H ) :   0.9793
B( 22-C , 23-C ) :   1.4014 B( 22-C , 79-H ) :   0.9835 B( 23-C , 24-C ) :   1.1574
B( 23-C , 30-C ) :   1.1740 B( 24-C , 25-C ) :   1.2360 B( 24-C , 28-N ) :   1.4452
B( 25-C , 26-N ) :   1.4826 B( 26-N , 27-N ) :   1.2466 B( 26-N , 28-N ) :   0.1594
B( 27-N , 28-N ) :   1.2241 B( 27-N , 29-C ) :   0.9490 B( 29-C , 80-H ) :   0.9650
B( 29-C , 81-H ) :   0.9692 B( 29-C , 82-H ) :   0.9690 B( 30-C , 31-C ) :   1.3145
B( 30-C , 43-C ) :   0.1475 B( 30-C , 44-S ) :   1.1904 B( 31-C , 32-C ) :   1.1927
B( 31-C , 42-N ) :   1.4451 B( 32-C , 33-N ) :   1.4476 B( 32-C , 43-C ) :   1.3142
B( 33-N , 34-C ) :   1.7073 B( 34-C , 35-C ) :   0.9004 B( 34-C , 41-C ) :   1.0970
B( 35-C , 36-O ) :   2.1562 B( 35-C , 37-C ) :   1.0261 B( 37-C , 38-C ) :   1.6868
B( 37-C , 83-H ) :   0.9972 B( 38-C , 39-C ) :   1.0257 B( 38-C , 84-H ) :   0.9976
B( 39-C , 40-O ) :   2.2337 B( 39-C , 41-C ) :   0.8870 B( 41-C , 42-N ) :   1.7126
B( 43-C , 44-S ) :   1.1830 B( 43-C , 45-C ) :   1.0968 B( 45-C , 46-C ) :   1.3850
B( 45-C , 50-C ) :   1.2213 B( 46-C , 47-C ) :   1.3052 B( 46-C , 85-H ) :   0.9908
B( 47-C , 48-C ) :   1.3688 B( 47-C , 86-H ) :   0.9938 B( 48-C , 49-C ) :   1.1788
B( 48-C , 55-C ) :   1.0956 B( 49-C , 50-C ) :   1.2262 B( 49-C , 53-N ) :   1.4736
B( 50-C , 51-N ) :   1.4472 B( 51-N , 52-N ) :   1.2747 B( 51-N , 53-N ) :   0.1467
B( 52-N , 53-N ) :   1.2063 B( 52-N , 54-C ) :   0.9448 B( 54-C , 87-H ) :   0.9513
B( 54-C , 88-H ) :   0.9652 B( 54-C , 89-H ) :   0.9639 B( 55-C , 56-C ) :   1.6502
B( 55-C , 90-H ) :   0.9469 B( 56-C , 57-C ) :   0.9436 B( 56-C , 65-C ) :   1.0486
B( 57-C , 58-O ) :   2.2812 B( 57-C , 59-C ) :   0.8983 B( 59-C , 60-C ) :   1.3714
B( 59-C , 64-C ) :   1.3289 B( 60-C , 61-C ) :   1.3666 B( 60-C , 91-H ) :   1.0135
B( 61-C , 62-C ) :   1.4031 B( 61-C , 73-C ) :   1.0861 B( 62-C , 63-C ) :   1.3872
B( 62-C , 71-C ) :   1.0843 B( 63-C , 64-C ) :   1.3607 B( 63-C , 92-H ) :   0.9902
B( 64-C , 65-C ) :   0.9880 B( 65-C , 66-C ) :   1.6624 B( 66-C , 67-C ) :   1.1597
B( 66-C , 69-C ) :   1.1454 B( 67-C , 68-N ) :   3.0092 B( 69-C , 70-N ) :   2.9647
B( 71-C , 72-N ) :   3.0442 B( 73-C , 74-N ) :   3.0452

-----------------------------------------------------------------------------
         ABSORPTION SPECTRUM VIA TRANSITION ELECTRIC DIPOLE MOMENTS
-----------------------------------------------------------------------------
State   Energy  Wavelength   fosc         T2         TX        TY        TZ
        (cm-1)    (nm)                  (au**2)     (au)      (au)      (au)
-----------------------------------------------------------------------------
   0   14526.6    688.4   1.563066150  35.42342   5.18955   0.36124  -2.89162
   1   19254.5    519.4   0.177640100   3.03728   0.32413   1.47968   0.86183
   2   21296.6    469.6   0.144532328   2.23424   1.07916   0.13261  -1.02570
   3   21903.8    456.5   0.054484660   0.81890  -0.42819  -0.42229   0.67618
   4   22194.7    450.6   0.039743829   0.58952  -0.68381   0.27910   0.20980
   5   23985.7    416.9   0.185667546   2.54835  -1.59486   0.02768   0.06331
   6   24149.2    414.1   0.004432674   0.06043  -0.22572   0.00257  -0.09732
   7   24328.8    411.0   0.055221254   0.74724   0.00221  -0.78272  -0.36685
   8   25225.2    396.4   0.035461371   0.46280  -0.53182  -0.36317   0.21928
   9   26611.6    375.8   0.001267415   0.01568  -0.07826   0.09034  -0.03732
  10   26655.0    375.2   0.049883310   0.61610   0.77296  -0.12599   0.05257
  11   28150.1    355.2   0.027524212   0.32189  -0.26489  -0.41140   0.28719
  12   28668.1    348.8   0.011205321   0.12868  -0.34329  -0.10131  -0.02382
  13   29236.0    342.0   0.044613200   0.50237   0.25206   0.10364  -0.65429
  14   29448.2    339.6   0.017618687   0.19697   0.18783   0.39107   0.09353
  15   29738.4    336.3   0.039295166   0.43501  -0.13150   0.06218  -0.64331
  16   29907.7    334.4   0.094860942   1.04419   0.96483  -0.25606  -0.21845
  17   30083.5    332.4   0.027682679   0.30294  -0.53740  -0.10086   0.06302
  18   30409.6    328.8   0.004582282   0.04961  -0.01525  -0.14140   0.17141
  19   31207.9    320.4   0.009911063   0.10455  -0.29379   0.11690   0.06762
  20   31335.6    319.1   0.113974066   1.19741  -1.04564   0.12244  -0.29841
  21   31671.6    315.7   0.027198802   0.28272  -0.49541   0.18103   0.06719
  22   32085.0    311.7   0.070818366   0.72664  -0.80076   0.19301   0.21950
  23   32327.3    309.3   0.074933194   0.76310  -0.44782   0.09393   0.74414
  24   32493.0    307.8   0.031758335   0.32177  -0.31448   0.02990   0.47114
  25   32901.4    303.9   0.050114923   0.50145   0.28793   0.25209   0.59582
  26   33424.4    299.2   0.100544235   0.99030   0.75059  -0.28814  -0.58643
  27   33516.0    298.4   0.294935836   2.89702   1.69188  -0.15449   0.10343
  28   33814.9    295.7   0.025483741   0.24810   0.41897  -0.04362   0.26583
  29   33917.1    294.8   0.369389124   3.58543  -1.38851  -0.70981  -1.07408
  30   34161.0    292.7   0.033334780   0.32125  -0.46853   0.27239   0.16595
  31   34299.8    291.5   0.042976495   0.41249   0.57292   0.01323   0.28997
  32   34718.7    288.0   0.171474961   1.62597   1.04010   0.48112   0.55918
  33   35003.4    285.7   0.002438479   0.02293   0.02410   0.14835  -0.01857
  34   35212.3    284.0   0.077953017   0.72881   0.85113   0.04698  -0.04670
  35   35382.1    282.6   0.039994230   0.37213   0.47754   0.02534  -0.37873
  36   35549.0    281.3   0.008755350   0.08108   0.24064  -0.01151  -0.15180
  37   35611.4    280.8   0.006928741   0.06405  -0.13105  -0.10123  -0.19139
  38   35830.9    279.1   0.132694009   1.21918   0.16583   0.59049   0.91815
  39   36115.8    276.9   0.334139323   3.04583   1.08205   0.43144   1.29956
  40   36543.1    273.6   0.015917533   0.14340  -0.31940  -0.16895   0.11330
  41   36647.2    272.9   0.054446073   0.48910   0.63830  -0.06501  -0.27830
  42   36774.3    271.9   0.096801384   0.86659  -0.65746  -0.23213  -0.61681
  43   37015.7    270.2   0.009181727   0.08166   0.24144  -0.11716   0.09820
  44   37213.6    268.7   0.076628754   0.67790  -0.29291   0.12271   0.75964
  45   37299.9    268.1   0.047675450   0.42079   0.36163  -0.03756  -0.53722
  46   37888.0    263.9   0.154699103   1.34419  -1.00964   0.25804   0.50817
  47   38233.9    261.5   0.017448039   0.15024  -0.21420   0.00160   0.32303
  48   38661.9    258.7   0.042935994   0.36561  -0.09664  -0.17536   0.57054
  49   38840.5    257.5   0.019968557   0.16925   0.07107   0.08624   0.39593
  50   38884.6    257.2   0.003890563   0.03294  -0.15263  -0.01608  -0.09688
  51   39021.6    256.3   0.024115225   0.20345   0.00279  -0.09279  -0.44140
  52   39633.3    252.3   0.018315270   0.15213   0.00120   0.26319   0.28786
  53   39759.6    251.5   0.033047894   0.27364   0.31946  -0.20485  -0.36003
  54   39771.4    251.4   0.010495533   0.08688   0.27160  -0.06747  -0.09251
  55   40285.1    248.2   0.027608616   0.22562  -0.29059  -0.02471   0.37492

FINAL SINGLE POINT ENERGY     -3639.300552290363

DIPOLE MOMENT
-------------
                                X             Y             Z
Electronic contribution:     -6.67485       2.32067       0.19521
Nuclear contribution   :      8.44840      -3.94353       0.83998
                        -----------------------------------------
Total Dipole Moment    :      1.77355      -1.62286       1.03519
                        -----------------------------------------
Magnitude (a.u.)       :      2.61740
Magnitude (Debye)      :      6.65290

Rotational constants in cm-1:     0.002237     0.000279     0.000260
Rotational constants in MHz :    67.072082     8.368813     7.789573

                             ****ORCA TERMINATED NORMALLY****
TOTAL RUN TIME: 0 days 0 hours 9 minutes 42 seconds 392 msec
