                         Program Version 4.2.0 -  RELEASE  -
|  1> # ORCA input file
|  2> # SCF done       -180.695376875257          0.000721488515
|  3> ! CAM-B3LYP def2-SVP def2/J RIJCOSX Grid4 TightSCF
|  4> %maxcore 5000
|  5> %tddft
|  6>     Mode sTDDFT
|  7>     Ethresh 5.0
|  8>     maxcore 5000
|  9> end
| 10>
| 11> %pal
| 12>   nprocs 6
| 13>   end
| 14> * xyz 0 1
| 15>    C        2.00023        -3.44275         0.08878
| 16>    C        3.20723        -2.79838         0.30091
| 17>    C        3.88505        -3.03374         1.49956
| 18>    C        5.12513        -2.38840         1.73144
| 19>    N        6.12629        -1.86188         1.90875
| 20>    C        3.36319        -3.89972         2.47968
| 21>    C        4.08105        -4.11494         3.68093
| 22>    N        4.65701        -4.30031         4.65304
| 23>    C        2.14518        -4.54673         2.26399
| 24>    C        1.49060        -4.30867         1.07459
| 25>    C        0.20815        -4.87773         0.60876
| 26>    O       -0.47855        -5.67554         1.21723
| 27>    C       -0.03451        -4.29648        -0.71581
| 28>    C        1.06516        -3.41289        -1.04021
| 29>    C        1.23537        -2.67047        -2.18019
| 30>    C        2.34600        -1.83255        -2.42007
| 31>    N        3.22157        -1.13613        -2.67576
| 32>    C        0.35011        -2.62210        -3.27892
| 33>    N       -0.30528        -2.51637        -4.21596
| 34>    C       -1.12170        -4.56071        -1.51811
| 35>    C       -2.21642        -5.39489        -1.28874
| 36>    C       -3.24516        -5.54574        -2.25939
| 37>    O       -3.15360        -4.86610        -3.40860
| 38>    C       -4.18602        -5.02744        -4.35869
| 39>    C       -4.24365        -6.42250        -1.86376
| 40>    C       -4.02000        -6.94762        -0.59397
| 41>    S       -2.55747        -6.35716         0.12390
| 42>    C       -4.83067        -7.89664         0.08449
| 43>    C       -4.51935        -8.29510         1.40621
| 44>    C       -5.25712        -9.31164         2.10206
| 45>    N       -4.90188        -9.64452         3.34757
| 46>    C       -3.89305        -9.04542         3.93064
| 47>    C       -3.16893        -8.01651         3.24182
| 48>    N       -3.50371        -7.68293         2.02303
| 49>    C       -2.08847        -7.34739         3.87311
| 50>    N       -1.22348        -6.83485         4.42004
| 51>    C       -3.53190        -9.42246         5.24850
| 52>    N       -3.21350        -9.70793         6.31055
| 53>    C       -6.33690       -10.01092         1.50532
| 54>    C       -6.72477        -9.53548         0.23107
| 55>    C       -5.98159        -8.50422        -0.46837
| 56>    N       -6.54393        -8.20992        -1.64187
| 57>    S       -7.86884        -9.09791        -1.82991
| 58>    N       -7.80044        -9.91021        -0.45851
| 59>    C       -6.94387       -11.08697         2.20446
| 60>    C       -7.72044       -12.15112         1.69806
| 61>    O       -7.87443       -12.31464         0.37941
| 62>    C       -8.76227       -13.31856        -0.06315
| 63>    C       -8.19996       -12.99269         2.70154
| 64>    C       -7.80559       -12.61185         3.97594
| 65>    S       -6.73995       -11.23304         3.91499
| 66>    C       -8.05088       -13.21372         5.22372
| 67>    C       -8.98515       -14.14004         5.59504
| 68>    C       -8.75458       -14.91014         6.84744
| 69>    O       -7.94545       -14.67343         7.71055
| 70>    C       -9.69305       -16.05521         6.77476
| 71>    C       -9.80141       -17.13323         7.62668
| 72>    C      -10.74530       -18.11724         7.32559
| 73>    C      -11.55124       -17.99661         6.17761
| 74>    C      -11.44178       -16.89303         5.32839
| 75>    C      -10.50955       -15.91750         5.63512
| 76>    C      -10.18176       -14.65194         4.97229
| 77>    C      -11.01216       -13.98776         4.10657
| 78>    C      -10.81749       -12.65209         3.69962
| 79>    N      -10.72889       -11.55858         3.36303
| 80>    C      -12.19856       -14.53458         3.57518
| 81>    N      -13.15300       -14.94269         3.08586
| 82>    C      -12.48717       -19.01624         5.87297
| 83>    N      -13.24192       -19.83704         5.61409
| 84>    C      -10.88752       -19.24361         8.17187
| 85>    N      -10.98730       -20.14933         8.86510
| 86>    H        3.64152        -2.12683        -0.42220
| 87>    H        1.72479        -5.21268         3.00258
| 88>    H       -1.16183        -4.06697        -2.48180
| 89>    H       -3.91235        -4.39053        -5.19740
| 90>    H       -5.14957        -4.70862        -3.95192
| 91>    H       -4.25675        -6.06655        -4.69169
| 92>    H       -5.10840        -6.68858        -2.44219
| 93>    H       -8.39420       -14.31772         0.19068
| 94>    H       -8.80620       -13.21478        -1.14541
| 95>    H       -9.76143       -13.17525         0.35719
| 96>    H       -8.76991       -13.88342         2.50965
| 97>    H       -7.34890       -12.95123         6.01029
| 98>    H       -9.17286       -17.21445         8.50039
| 99>    H      -12.07364       -16.83488         4.45602
|100> *
|101>
|102>                          ****END OF INPUT****

CARTESIAN COORDINATES (ANGSTROEM)
---------------------------------
  C      2.000230   -3.442750    0.088780
  C      3.207230   -2.798380    0.300910
  C      3.885050   -3.033740    1.499560
  C      5.125130   -2.388400    1.731440
  N      6.126290   -1.861880    1.908750
  C      3.363190   -3.899720    2.479680
  C      4.081050   -4.114940    3.680930
  N      4.657010   -4.300310    4.653040
  C      2.145180   -4.546730    2.263990
  C      1.490600   -4.308670    1.074590
  C      0.208150   -4.877730    0.608760
  O     -0.478550   -5.675540    1.217230
  C     -0.034510   -4.296480   -0.715810
  C      1.065160   -3.412890   -1.040210
  C      1.235370   -2.670470   -2.180190
  C      2.346000   -1.832550   -2.420070
  N      3.221570   -1.136130   -2.675760
  C      0.350110   -2.622100   -3.278920
  N     -0.305280   -2.516370   -4.215960
  C     -1.121700   -4.560710   -1.518110
  C     -2.216420   -5.394890   -1.288740
  C     -3.245160   -5.545740   -2.259390
  O     -3.153600   -4.866100   -3.408600
  C     -4.186020   -5.027440   -4.358690
  C     -4.243650   -6.422500   -1.863760
  C     -4.020000   -6.947620   -0.593970
  S     -2.557470   -6.357160    0.123900
  C     -4.830670   -7.896640    0.084490
  C     -4.519350   -8.295100    1.406210
  C     -5.257120   -9.311640    2.102060
  N     -4.901880   -9.644520    3.347570
  C     -3.893050   -9.045420    3.930640
  C     -3.168930   -8.016510    3.241820
  N     -3.503710   -7.682930    2.023030
  C     -2.088470   -7.347390    3.873110
  N     -1.223480   -6.834850    4.420040
  C     -3.531900   -9.422460    5.248500
  N     -3.213500   -9.707930    6.310550
  C     -6.336900  -10.010920    1.505320
  C     -6.724770   -9.535480    0.231070
  C     -5.981590   -8.504220   -0.468370
  N     -6.543930   -8.209920   -1.641870
  S     -7.868840   -9.097910   -1.829910
  N     -7.800440   -9.910210   -0.458510
  C     -6.943870  -11.086970    2.204460
  C     -7.720440  -12.151120    1.698060
  O     -7.874430  -12.314640    0.379410
  C     -8.762270  -13.318560   -0.063150
  C     -8.199960  -12.992690    2.701540
  C     -7.805590  -12.611850    3.975940
  S     -6.739950  -11.233040    3.914990
  C     -8.050880  -13.213720    5.223720
  C     -8.985150  -14.140040    5.595040
  C     -8.754580  -14.910140    6.847440
  O     -7.945450  -14.673430    7.710550
  C     -9.693050  -16.055210    6.774760
  C     -9.801410  -17.133230    7.626680
  C    -10.745300  -18.117240    7.325590
  C    -11.551240  -17.996610    6.177610
  C    -11.441780  -16.893030    5.328390
  C    -10.509550  -15.917500    5.635120
  C    -10.181760  -14.651940    4.972290
  C    -11.012160  -13.987760    4.106570
  C    -10.817490  -12.652090    3.699620
  N    -10.728890  -11.558580    3.363030
  C    -12.198560  -14.534580    3.575180
  N    -13.153000  -14.942690    3.085860
  C    -12.487170  -19.016240    5.872970
  N    -13.241920  -19.837040    5.614090
  C    -10.887520  -19.243610    8.171870
  N    -10.987300  -20.149330    8.865100
  H      3.641520   -2.126830   -0.422200
  H      1.724790   -5.212680    3.002580
  H     -1.161830   -4.066970   -2.481800
  H     -3.912350   -4.390530   -5.197400
  H     -5.149570   -4.708620   -3.951920
  H     -4.256750   -6.066550   -4.691690
  H     -5.108400   -6.688580   -2.442190
  H     -8.394200  -14.317720    0.190680
  H     -8.806200  -13.214780   -1.145410
  H     -9.761430  -13.175250    0.357190
  H     -8.769910  -13.883420    2.509650
  H     -7.348900  -12.951230    6.010290
  H     -9.172860  -17.214450    8.500390
  H    -12.073640  -16.834880    4.456020

 Total Charge           Charge          ....    0
 Multiplicity           Mult            ....    1
 Number of Electrons    NEL             ....  492
 Basis Dimension        Dim             .... 1076

ORBITAL ENERGIES
----------------

  NO   OCC          E(Eh)            E(eV)
   0   2.0000     -89.069007     -2423.6909
   1   2.0000     -88.994324     -2421.6587
   2   2.0000     -88.974029     -2421.1064
   3   2.0000     -19.284543      -524.7591
   4   2.0000     -19.281193      -524.6679
   5   2.0000     -19.246985      -523.7371
   6   2.0000     -19.233975      -523.3831
   7   2.0000     -14.491818      -394.3424
   8   2.0000     -14.485930      -394.1822
   9   2.0000     -14.475390      -393.8954
  10   2.0000     -14.475014      -393.8852
  11   2.0000     -14.450611      -393.2211
  12   2.0000     -14.448060      -393.1517
  13   2.0000     -14.445580      -393.0842
  14   2.0000     -14.444910      -393.0660
  15   2.0000     -14.436415      -392.8348
  16   2.0000     -14.436181      -392.8285
  17   2.0000     -14.426471      -392.5642
  18   2.0000     -14.423680      -392.4883
  19   2.0000     -14.421876      -392.4392
  20   2.0000     -14.421363      -392.4252
  21   2.0000     -10.409160      -283.2477
  22   2.0000     -10.408916      -283.2410
  23   2.0000     -10.397899      -282.9412
  24   2.0000     -10.382633      -282.5258
  25   2.0000     -10.382044      -282.5098
  26   2.0000     -10.377583      -282.3884
  27   2.0000     -10.375002      -282.3182
  28   2.0000     -10.374721      -282.3105
  29   2.0000     -10.373953      -282.2896
  30   2.0000     -10.370059      -282.1837
  31   2.0000     -10.369995      -282.1819
  32   2.0000     -10.369795      -282.1765
  33   2.0000     -10.369430      -282.1665
  34   2.0000     -10.368764      -282.1484
  35   2.0000     -10.355169      -281.7785
  36   2.0000     -10.354882      -281.7707
  37   2.0000     -10.353462      -281.7320
  38   2.0000     -10.353230      -281.7257
  39   2.0000     -10.352836      -281.7150
  40   2.0000     -10.352258      -281.6993
  41   2.0000     -10.351167      -281.6696
  42   2.0000     -10.349653      -281.6284
  43   2.0000     -10.346877      -281.5528
  44   2.0000     -10.346105      -281.5318
  45   2.0000     -10.345787      -281.5232
  46   2.0000     -10.345035      -281.5027
  47   2.0000     -10.344473      -281.4874
  48   2.0000     -10.343664      -281.4654
  49   2.0000     -10.343386      -281.4578
  50   2.0000     -10.342675      -281.4385
  51   2.0000     -10.341686      -281.4116
  52   2.0000     -10.340394      -281.3764
  53   2.0000     -10.337242      -281.2906
  54   2.0000     -10.335530      -281.2441
  55   2.0000     -10.332586      -281.1640
  56   2.0000     -10.332487      -281.1613
  57   2.0000     -10.332462      -281.1606
  58   2.0000     -10.329365      -281.0763
  59   2.0000     -10.328488      -281.0524
  60   2.0000     -10.328318      -281.0478
  61   2.0000     -10.326579      -281.0005
  62   2.0000     -10.326104      -280.9876
  63   2.0000     -10.326065      -280.9865
  64   2.0000     -10.319041      -280.7954
  65   2.0000     -10.318549      -280.7820
  66   2.0000     -10.317907      -280.7645
  67   2.0000     -10.317196      -280.7452
  68   2.0000     -10.316379      -280.7230
  69   2.0000     -10.305412      -280.4245
  70   2.0000     -10.296675      -280.1868
  71   2.0000      -8.160331      -222.0539
  72   2.0000      -8.087984      -220.0852
  73   2.0000      -8.066397      -219.4978
  74   2.0000      -6.131339      -166.8422
  75   2.0000      -6.123408      -166.6264
  76   2.0000      -6.123379      -166.6256
  77   2.0000      -6.057483      -164.8325
  78   2.0000      -6.052981      -164.7100
  79   2.0000      -6.050036      -164.6299
  80   2.0000      -6.035899      -164.2452
  81   2.0000      -6.031310      -164.1203
  82   2.0000      -6.028241      -164.0368
  83   2.0000      -1.194920       -32.5154
  84   2.0000      -1.187919       -32.3249
  85   2.0000      -1.166454       -31.7408
  86   2.0000      -1.163046       -31.6481
  87   2.0000      -1.150868       -31.3167
  88   2.0000      -1.150232       -31.2994
  89   2.0000      -1.078282       -29.3416
  90   2.0000      -1.054711       -28.7001
  91   2.0000      -1.040154       -28.3040
  92   2.0000      -1.036415       -28.2023
  93   2.0000      -1.035802       -28.1856
  94   2.0000      -1.027305       -27.9544
  95   2.0000      -1.024332       -27.8735
  96   2.0000      -1.022016       -27.8105
  97   2.0000      -1.021948       -27.8086
  98   2.0000      -1.021105       -27.7857
  99   2.0000      -1.019499       -27.7420
 100   2.0000      -1.015522       -27.6338
 101   2.0000      -1.007743       -27.4221
 102   2.0000      -1.005124       -27.3508
 103   2.0000      -1.002994       -27.2928
 104   2.0000      -1.000915       -27.2363
 105   2.0000      -0.993234       -27.0273
 106   2.0000      -0.988549       -26.8998
 107   2.0000      -0.971821       -26.4446
 108   2.0000      -0.940289       -25.5866
 109   2.0000      -0.937902       -25.5216
 110   2.0000      -0.933537       -25.4028
 111   2.0000      -0.922546       -25.1038
 112   2.0000      -0.919460       -25.0198
 113   2.0000      -0.914421       -24.8827
 114   2.0000      -0.906373       -24.6637
 115   2.0000      -0.896751       -24.4018
 116   2.0000      -0.880422       -23.9575
 117   2.0000      -0.877194       -23.8697
 118   2.0000      -0.860042       -23.4029
 119   2.0000      -0.857350       -23.3297
 120   2.0000      -0.856823       -23.3153
 121   2.0000      -0.842638       -22.9293
 122   2.0000      -0.828503       -22.5447
 123   2.0000      -0.820216       -22.3192
 124   2.0000      -0.816215       -22.2104
 125   2.0000      -0.809145       -22.0180
 126   2.0000      -0.802558       -21.8387
 127   2.0000      -0.786532       -21.4026
 128   2.0000      -0.767270       -20.8785
 129   2.0000      -0.765599       -20.8330
 130   2.0000      -0.755058       -20.5462
 131   2.0000      -0.745100       -20.2752
 132   2.0000      -0.739041       -20.1103
 133   2.0000      -0.731084       -19.8938
 134   2.0000      -0.724385       -19.7115
 135   2.0000      -0.722220       -19.6526
 136   2.0000      -0.713340       -19.4110
 137   2.0000      -0.706843       -19.2342
 138   2.0000      -0.695480       -18.9250
 139   2.0000      -0.688447       -18.7336
 140   2.0000      -0.683444       -18.5975
 141   2.0000      -0.679449       -18.4888
 142   2.0000      -0.673529       -18.3277
 143   2.0000      -0.669801       -18.2262
 144   2.0000      -0.666951       -18.1487
 145   2.0000      -0.660277       -17.9670
 146   2.0000      -0.654643       -17.8137
 147   2.0000      -0.649246       -17.6669
 148   2.0000      -0.648023       -17.6336
 149   2.0000      -0.634704       -17.2712
 150   2.0000      -0.630084       -17.1455
 151   2.0000      -0.621988       -16.9251
 152   2.0000      -0.619804       -16.8657
 153   2.0000      -0.616063       -16.7639
 154   2.0000      -0.609118       -16.5749
 155   2.0000      -0.606654       -16.5079
 156   2.0000      -0.594225       -16.1697
 157   2.0000      -0.591397       -16.0927
 158   2.0000      -0.587080       -15.9753
 159   2.0000      -0.583859       -15.8876
 160   2.0000      -0.583030       -15.8650
 161   2.0000      -0.580564       -15.7979
 162   2.0000      -0.578731       -15.7481
 163   2.0000      -0.578319       -15.7369
 164   2.0000      -0.570993       -15.5375
 165   2.0000      -0.569459       -15.4958
 166   2.0000      -0.563580       -15.3358
 167   2.0000      -0.560853       -15.2616
 168   2.0000      -0.557326       -15.1656
 169   2.0000      -0.556182       -15.1345
 170   2.0000      -0.547588       -14.9006
 171   2.0000      -0.543529       -14.7902
 172   2.0000      -0.541803       -14.7432
 173   2.0000      -0.535696       -14.5770
 174   2.0000      -0.533537       -14.5183
 175   2.0000      -0.531924       -14.4744
 176   2.0000      -0.530731       -14.4419
 177   2.0000      -0.526645       -14.3308
 178   2.0000      -0.524761       -14.2795
 179   2.0000      -0.520570       -14.1654
 180   2.0000      -0.516233       -14.0474
 181   2.0000      -0.513814       -13.9816
 182   2.0000      -0.512940       -13.9578
 183   2.0000      -0.508515       -13.8374
 184   2.0000      -0.506953       -13.7949
 185   2.0000      -0.503751       -13.7078
 186   2.0000      -0.500077       -13.6078
 187   2.0000      -0.497849       -13.5472
 188   2.0000      -0.495438       -13.4816
 189   2.0000      -0.493249       -13.4220
 190   2.0000      -0.484477       -13.1833
 191   2.0000      -0.484251       -13.1771
 192   2.0000      -0.477322       -12.9886
 193   2.0000      -0.474821       -12.9205
 194   2.0000      -0.471856       -12.8399
 195   2.0000      -0.471561       -12.8318
 196   2.0000      -0.470346       -12.7988
 197   2.0000      -0.468552       -12.7499
 198   2.0000      -0.466002       -12.6806
 199   2.0000      -0.462018       -12.5721
 200   2.0000      -0.461886       -12.5686
 201   2.0000      -0.460893       -12.5415
 202   2.0000      -0.459763       -12.5108
 203   2.0000      -0.459143       -12.4939
 204   2.0000      -0.457834       -12.4583
 205   2.0000      -0.456024       -12.4090
 206   2.0000      -0.454714       -12.3734
 207   2.0000      -0.454467       -12.3667
 208   2.0000      -0.452069       -12.3014
 209   2.0000      -0.451852       -12.2955
 210   2.0000      -0.448075       -12.1928
 211   2.0000      -0.447592       -12.1796
 212   2.0000      -0.446901       -12.1608
 213   2.0000      -0.445944       -12.1348
 214   2.0000      -0.444138       -12.0856
 215   2.0000      -0.443039       -12.0557
 216   2.0000      -0.442159       -12.0317
 217   2.0000      -0.437817       -11.9136
 218   2.0000      -0.437241       -11.8979
 219   2.0000      -0.436146       -11.8681
 220   2.0000      -0.436035       -11.8651
 221   2.0000      -0.435688       -11.8557
 222   2.0000      -0.431220       -11.7341
 223   2.0000      -0.428703       -11.6656
 224   2.0000      -0.427254       -11.6262
 225   2.0000      -0.423959       -11.5365
 226   2.0000      -0.421431       -11.4677
 227   2.0000      -0.418341       -11.3836
 228   2.0000      -0.417390       -11.3578
 229   2.0000      -0.402483       -10.9521
 230   2.0000      -0.395409       -10.7596
 231   2.0000      -0.389409       -10.5963
 232   2.0000      -0.384266       -10.4564
 233   2.0000      -0.378132       -10.2895
 234   2.0000      -0.373375       -10.1600
 235   2.0000      -0.372053       -10.1241
 236   2.0000      -0.368277       -10.0213
 237   2.0000      -0.363434        -9.8895
 238   2.0000      -0.354479        -9.6459
 239   2.0000      -0.344257        -9.3677
 240   2.0000      -0.340930        -9.2772
 241   2.0000      -0.337869        -9.1939
 242   2.0000      -0.331215        -9.0128
 243   2.0000      -0.326592        -8.8870
 244   2.0000      -0.301700        -8.2097
 245   2.0000      -0.265312        -7.2195
 246   0.0000      -0.157838        -4.2950
 247   0.0000      -0.118290        -3.2188
 248   0.0000      -0.102258        -2.7826
 249   0.0000      -0.100242        -2.7277
 250   0.0000      -0.086568        -2.3556

MULLIKEN ATOMIC CHARGES
-----------------------
   0 C :    0.045138
   1 C :   -0.046917
   2 C :   -0.065178
   3 C :   -0.174384
   4 N :    0.201068
   5 C :   -0.067342
   6 C :   -0.173248
   7 N :    0.196076
   8 C :   -0.038347
   9 C :   -0.000833
  10 C :    0.166145
  11 O :   -0.163841
  12 C :   -0.099811
  13 C :    0.328622
  14 C :   -0.349942
  15 C :   -0.189511
  16 N :    0.161882
  17 C :   -0.190547
  18 N :    0.158967
  19 C :   -0.022138
  20 C :   -0.111676
  21 C :    0.290243
  22 O :   -0.286028
  23 C :    0.173822
  24 C :   -0.116414
  25 C :   -0.118379
  26 S :    0.205221
  27 C :    0.184369
  28 C :   -0.053221
  29 C :   -0.045707
  30 N :    0.003134
  31 C :   -0.102347
  32 C :   -0.108319
  33 N :    0.020533
  34 C :   -0.213734
  35 N :    0.258659
  36 C :   -0.241187
  37 N :    0.260491
  38 C :    0.189006
  39 C :   -0.025755
  40 C :   -0.010049
  41 N :   -0.294246
  42 S :    0.558170
  43 N :   -0.245885
  44 C :   -0.235709
  45 C :    0.258392
  46 O :   -0.276398
  47 C :    0.173124
  48 C :   -0.090763
  49 C :   -0.055960
  50 S :    0.214133
  51 C :    0.102986
  52 C :   -0.139341
  53 C :    0.142263
  54 O :   -0.118847
  55 C :    0.010065
  56 C :   -0.030856
  57 C :   -0.064239
  58 C :   -0.059997
  59 C :   -0.041561
  60 C :    0.036064
  61 C :    0.268818
  62 C :   -0.332139
  63 C :   -0.208478
  64 N :    0.191775
  65 C :   -0.178198
  66 N :    0.175270
  67 C :   -0.173534
  68 N :    0.202438
  69 C :   -0.176664
  70 N :    0.201334
  71 H :    0.019970
  72 H :    0.022677
  73 H :    0.022940
  74 H :    0.059215
  75 H :    0.031294
  76 H :    0.030267
  77 H :   -0.009919
  78 H :    0.030605
  79 H :    0.044581
  80 H :    0.037838
  81 H :   -0.008818
  82 H :    0.035014
  83 H :    0.021377
  84 H :    0.022420
Sum of atomic charges:   -0.0000000

LOEWDIN ATOMIC CHARGES
----------------------
   0 C :    0.003076
   1 C :    0.031873
   2 C :   -0.025916
   3 C :   -0.031065
   4 N :   -0.014894
   5 C :   -0.029844
   6 C :   -0.031341
   7 N :   -0.015956
   8 C :    0.048380
   9 C :   -0.028256
  10 C :    0.081907
  11 O :   -0.154697
  12 C :   -0.118089
  13 C :    0.069355
  14 C :   -0.132210
  15 C :   -0.021755
  16 N :   -0.043311
  17 C :   -0.022270
  18 N :   -0.042291
  19 C :    0.065431
  20 C :   -0.219799
  21 C :    0.055112
  22 O :   -0.072652
  23 C :    0.085869
  24 C :   -0.094009
  25 C :   -0.143246
  26 S :    0.543874
  27 C :   -0.042448
  28 C :   -0.003798
  29 C :   -0.011314
  30 N :   -0.015484
  31 C :   -0.017766
  32 C :   -0.009635
  33 N :   -0.006338
  34 C :   -0.032994
  35 N :    0.009770
  36 C :   -0.040784
  37 N :    0.009080
  38 C :   -0.020474
  39 C :   -0.043037
  40 C :   -0.031798
  41 N :   -0.286901
  42 S :    0.689146
  43 N :   -0.253946
  44 C :   -0.182093
  45 C :    0.046684
  46 O :   -0.067480
  47 C :    0.083166
  48 C :   -0.062924
  49 C :   -0.172992
  50 S :    0.520035
  51 C :    0.057007
  52 C :   -0.094652
  53 C :    0.082901
  54 O :   -0.120321
  55 C :   -0.030660
  56 C :    0.051045
  57 C :   -0.027283
  58 C :   -0.022026
  59 C :    0.030293
  60 C :    0.003519
  61 C :    0.059715
  62 C :   -0.128899
  63 C :   -0.020978
  64 N :   -0.028143
  65 C :   -0.026018
  66 N :   -0.033635
  67 C :   -0.031948
  68 N :   -0.008452
  69 C :   -0.032772
  70 N :   -0.009685
  71 H :    0.051797
  72 H :    0.056515
  73 H :    0.050576
  74 H :    0.038171
  75 H :    0.020704
  76 H :    0.020238
  77 H :    0.027459
  78 H :    0.018746
  79 H :    0.032833
  80 H :    0.023933
  81 H :    0.031319
  82 H :    0.051632
  83 H :    0.056075
  84 H :    0.052045

  Mayer bond orders larger than 0.100000
B(  0-C ,  1-C ) :   1.3643 B(  0-C ,  9-C ) :   1.3354 B(  0-C , 13-C ) :   0.9491
B(  1-C ,  2-C ) :   1.3875 B(  1-C , 71-H ) :   0.9855 B(  2-C ,  3-C ) :   1.0879
B(  2-C ,  5-C ) :   1.4077 B(  3-C ,  4-N ) :   3.0443 B(  5-C ,  6-C ) :   1.0851
B(  5-C ,  8-C ) :   1.3525 B(  6-C ,  7-N ) :   3.0440 B(  8-C ,  9-C ) :   1.3674
B(  8-C , 72-H ) :   1.0151 B(  9-C , 10-C ) :   0.9358 B( 10-C , 11-O ) :   2.1429
B( 10-C , 12-C ) :   0.9865 B( 12-C , 13-C ) :   1.1033 B( 12-C , 19-C ) :   1.4348
B( 13-C , 14-C ) :   1.6286 B( 14-C , 15-C ) :   1.1509 B( 14-C , 17-C ) :   1.1450
B( 15-C , 16-N ) :   2.9576 B( 17-C , 18-N ) :   2.9608 B( 19-C , 20-C ) :   1.3347
B( 19-C , 73-H ) :   0.9301 B( 20-C , 21-C ) :   1.2875 B( 20-C , 26-S ) :   1.0324
B( 21-C , 22-O ) :   1.2043 B( 21-C , 24-C ) :   1.2532 B( 22-O , 23-C ) :   0.9397
B( 23-C , 74-H ) :   0.9783 B( 23-C , 75-H ) :   0.9713 B( 23-C , 76-H ) :   0.9710
B( 24-C , 25-C ) :   1.3495 B( 24-C , 77-H ) :   0.9940 B( 25-C , 26-S ) :   1.1273
B( 25-C , 27-C ) :   1.2116 B( 27-C , 28-C ) :   1.2450 B( 27-C , 38-C ) :   0.1212
B( 27-C , 40-C ) :   1.1993 B( 28-C , 29-C ) :   1.1306 B( 28-C , 33-N ) :   1.4059
B( 29-C , 30-N ) :   1.4013 B( 29-C , 38-C ) :   1.2480 B( 30-N , 31-C ) :   1.6944
B( 31-C , 32-C ) :   1.2137 B( 31-C , 36-C ) :   1.1683 B( 32-C , 33-N ) :   1.7132
B( 32-C , 34-C ) :   1.1664 B( 34-C , 35-N ) :   3.0240 B( 36-C , 37-N ) :   3.0419
B( 38-C , 39-C ) :   1.2103 B( 38-C , 44-C ) :   1.1591 B( 39-C , 40-C ) :   1.0882
B( 39-C , 43-N ) :   1.5238 B( 40-C , 41-N ) :   1.5184 B( 41-N , 42-S ) :   1.2670
B( 41-N , 43-N ) :   0.1502 B( 42-S , 43-N ) :   1.3141 B( 44-C , 45-C ) :   1.3626
B( 44-C , 49-C ) :   0.1034 B( 44-C , 50-S ) :   1.1543 B( 45-C , 46-O ) :   1.2287
B( 45-C , 48-C ) :   1.2741 B( 46-O , 47-C ) :   0.9410 B( 47-C , 78-H ) :   0.9696
B( 47-C , 79-H ) :   0.9779 B( 47-C , 80-H ) :   0.9704 B( 48-C , 49-C ) :   1.3696
B( 48-C , 81-H ) :   0.9949 B( 49-C , 50-S ) :   1.0883 B( 49-C , 51-C ) :   1.1629
B( 51-C , 52-C ) :   1.6283 B( 51-C , 82-H ) :   0.9260 B( 52-C , 53-C ) :   0.9484
B( 52-C , 61-C ) :   1.0536 B( 53-C , 54-O ) :   2.2825 B( 53-C , 55-C ) :   0.8977
B( 55-C , 56-C ) :   1.3734 B( 55-C , 60-C ) :   1.3334 B( 56-C , 57-C ) :   1.3636
B( 56-C , 83-H ) :   1.0142 B( 57-C , 58-C ) :   1.4036 B( 57-C , 69-C ) :   1.0885
B( 58-C , 59-C ) :   1.3873 B( 58-C , 67-C ) :   1.0855 B( 59-C , 60-C ) :   1.3626
B( 59-C , 84-H ) :   0.9900 B( 60-C , 61-C ) :   0.9763 B( 61-C , 62-C ) :   1.6517
B( 62-C , 63-C ) :   1.1744 B( 62-C , 65-C ) :   1.1279 B( 63-C , 64-N ) :   2.9941
B( 65-C , 66-N ) :   2.9828 B( 67-C , 68-N ) :   3.0437 B( 69-C , 70-N ) :   3.0450

-----------------------------------------------------------------------------
         ABSORPTION SPECTRUM VIA TRANSITION ELECTRIC DIPOLE MOMENTS
-----------------------------------------------------------------------------
State   Energy  Wavelength   fosc         T2         TX        TY        TZ
        (cm-1)    (nm)                  (au**2)     (au)      (au)      (au)
-----------------------------------------------------------------------------
   0    8279.7   1207.8   0.668369405  26.57525  -3.31822  -3.50369   1.81352
   1   15630.1    639.8   0.060738479   1.27932   0.39885   0.88897  -0.57444
   2   18141.6    551.2   0.257491920   4.67265  -1.58890  -1.26554   0.73921
   3   19950.1    501.3   0.056992718   0.94048  -0.52805  -0.52314   0.62286
   4   20087.7    497.8   0.067427112   1.10504   0.78986   0.63633  -0.27613
   5   20410.6    489.9   0.377937634   6.09592   1.82982   1.54625  -0.59730
   6   21552.6    464.0   0.008788003   0.13424  -0.21158  -0.24320  -0.17414
   7   22562.9    443.2   0.038102195   0.55594   0.56599  -0.09069   0.47684
   8   22739.8    439.8   0.244200096   3.53537   1.17900   1.31087  -0.65341
   9   24925.9    401.2   0.048401150   0.63926   0.59551   0.39118  -0.36278
  10   25525.5    391.8   0.046839826   0.60411  -0.35750  -0.00059  -0.69015
  11   25589.1    390.8   0.011073889   0.14247  -0.31805  -0.20298  -0.01042
  12   26509.8    377.2   0.008769791   0.10891  -0.28432   0.06275  -0.15534
  13   26754.4    373.8   0.048630493   0.59840  -0.59303   0.31057  -0.38764
  14   27152.6    368.3   0.013274885   0.16095   0.20043   0.26246  -0.22780
  15   28083.9    356.1   0.081383131   0.95401   0.81678   0.52900   0.08394
  16   28632.2    349.3   0.008885827   0.10217   0.15572   0.26232   0.09544
  17   29261.4    341.7   0.009753402   0.10973   0.11207   0.14436  -0.27629
  18   29485.7    339.1   0.004208287   0.04699  -0.04239  -0.07809   0.19771
  19   29607.9    337.7   0.034725376   0.38611   0.01572   0.18667  -0.59247
  20   29669.5    337.0   0.068413844   0.75912   0.42117   0.72027   0.25088
  21   30555.0    327.3   0.139478823   1.50280   0.69022  -0.32846   0.95839
  22   30725.4    325.5   0.449988350   4.82146   1.34167   0.16247   1.73060
  23   31012.0    322.5   0.130364455   1.38390  -0.28349   0.56129  -0.99422
  24   31694.3    315.5   0.056244888   0.58422  -0.59356  -0.43324  -0.21025
  25   31986.6    312.6   0.033330754   0.34305   0.24218   0.21152   0.48955
  26   32065.6    311.9   0.042118376   0.43242   0.10304  -0.35277   0.54530
  27   32662.9    306.2   0.010835192   0.10921   0.22976  -0.07738   0.22457
  28   32848.5    304.4   0.177658672   1.78052   0.36048  -0.35787   1.23390
  29   33066.1    302.4   0.127811806   1.27252  -0.37811  -1.00011   0.35963
  30   33561.1    298.0   0.008031023   0.07878   0.09255   0.16089  -0.21054
  31   33643.8    297.2   0.077156525   0.75499  -0.70320  -0.45784  -0.22557
  32   34024.1    293.9   0.070254563   0.67977  -0.74094  -0.22831  -0.28044
  33   34554.6    289.4   0.219666372   2.09283   0.30233  -0.96977   1.03003
  34   34685.1    288.3   0.136379236   1.29444   0.35442  -0.66111   0.85543
  35   34916.1    286.4   0.040853446   0.38519  -0.17997   0.55858  -0.20197
  36   35164.0    284.4   0.323004212   3.02403   0.73727  -0.35862   1.53357
  37   35349.1    282.9   0.195447307   1.82023   0.19481   0.72007  -1.12418
  38   35667.1    280.4   0.146904301   1.35595   0.40650   0.86307  -0.66769
  39   35709.5    280.0   0.179933194   1.65883  -0.33326   0.62482  -1.07581
  40   35856.5    278.9   0.013520819   0.12414   0.13190  -0.09012   0.31404
  41   36129.6    276.8   0.022643197   0.20632   0.42097   0.16160   0.05473
  42   36268.0    275.7   0.092291933   0.83775  -0.34242   0.51836  -0.67216
  43   36760.4    272.0   0.044835587   0.40153   0.10302   0.51323  -0.35709
  44   36816.1    271.6   0.081319437   0.72716  -0.04870  -0.46849   0.71085
  45   37081.4    269.7   0.127617517   1.13300  -0.69464   0.08219  -0.80232
  46   37685.8    265.4   0.049609699   0.43338  -0.31241   0.02593  -0.57888
  47   37784.4    264.7   0.040022308   0.34871  -0.01386   0.06867  -0.58635
  48   38560.3    259.3   0.003300154   0.02818   0.05084  -0.15967   0.00986
  49   38817.8    257.6   0.151621986   1.28590  -0.93867  -0.44100  -0.45860
  50   39032.7    256.2   0.103176443   0.87022  -0.83770  -0.23269  -0.33814
  51   39056.2    256.0   0.034769561   0.29308  -0.32961  -0.27400  -0.33070
  52   39407.9    253.8   0.081799418   0.68335  -0.14538   0.60652  -0.54254
  53   39569.1    252.7   0.012761558   0.10618   0.00864   0.28971  -0.14889
  54   39860.3    250.9   0.054844520   0.45297  -0.42570  -0.47450  -0.21586
  55   40039.8    249.8   0.068138104   0.56024  -0.16357   0.59513  -0.42345
  56   40198.1    248.8   0.146024294   1.19590   0.93116   0.14502   0.55480

FINAL SINGLE POINT ENERGY     -4171.382746386482

DIPOLE MOMENT
-------------
                                X             Y             Z
Electronic contribution:      7.70319       2.68864      18.77101
Nuclear contribution   :    -11.58675      -4.30870     -22.34309
                        -----------------------------------------
Total Dipole Moment    :     -3.88355      -1.62006      -3.57207
                        -----------------------------------------
Magnitude (a.u.)       :      5.51963
Magnitude (Debye)      :     14.02978

Rotational constants in cm-1:     0.002167     0.000322     0.000284
Rotational constants in MHz :    64.960548     9.647929     8.515329

                             ****ORCA TERMINATED NORMALLY****
TOTAL RUN TIME: 0 days 0 hours 8 minutes 37 seconds 290 msec
