                         Program Version 4.2.0 -  RELEASE  -
|  1> # ORCA input file
|  2> # SCF done       -178.192436652047          0.000496260381
|  3> ! CAM-B3LYP def2-SVP def2/J RIJCOSX Grid4 TightSCF
|  4> %maxcore 5000
|  5> %tddft
|  6>     Mode sTDDFT
|  7>     Ethresh 5.0
|  8>     maxcore 5000
|  9> end
| 10>
| 11> %pal
| 12>   nprocs 6
| 13>   end
| 14> * xyz 0 1
| 15>    C       -5.77460         0.62343         1.95706
| 16>    C       -4.58713         0.93838         2.59238
| 17>    C       -4.60683         1.92133         3.58445
| 18>    C       -3.40617         2.24780         4.26189
| 19>    N       -2.42995         2.49877         4.80492
| 20>    C       -5.79858         2.58887         3.92521
| 21>    C       -5.78373         3.59090         4.92488
| 22>    N       -5.79067         4.40319         5.73212
| 23>    C       -6.99559         2.26177         3.28396
| 24>    C       -6.96804         1.28012         2.31722
| 25>    C       -8.09474         0.72779         1.52157
| 26>    O       -9.25086         1.07947         1.54500
| 27>    C       -7.50289        -0.38525         0.74504
| 28>    C       -6.06852        -0.30888         0.86746
| 29>    C       -5.14863        -0.76912        -0.04079
| 30>    C       -3.75555        -0.62616         0.10754
| 31>    N       -2.61356        -0.56207         0.20439
| 32>    C       -5.51450        -1.34953        -1.27340
| 33>    N       -5.78086        -1.76505        -2.30970
| 34>    C       -8.31670        -1.31538         0.15292
| 35>    C       -8.02611        -2.63139        -0.22405
| 36>    C       -8.86682        -3.44493        -1.01570
| 37>    O       -9.99675        -2.93288        -1.50268
| 38>    C      -10.78394        -3.75868        -2.34256
| 39>    C       -8.36155        -4.73037        -1.21349
| 40>    C       -7.15588        -4.94308        -0.56389
| 41>    S       -6.63593        -3.53847         0.31219
| 42>    C       -6.39293        -6.12318        -0.60882
| 43>    C       -6.70965        -7.28432        -1.32991
| 44>    C       -5.69775        -8.29045        -1.20692
| 45>    N       -5.75875        -9.44246        -1.86205
| 46>    C       -6.81047        -9.64024        -2.63145
| 47>    C       -6.86174       -10.89980        -3.40730
| 48>    O       -5.98485       -11.74037        -3.34424
| 49>    C       -8.04859       -11.05657        -4.26095
| 50>    C       -9.03427       -10.15411        -4.33051
| 51>    C       -9.04820        -8.89562        -3.56630
| 52>    O       -9.96371        -8.10230        -3.62548
| 53>    C       -7.84890        -8.66152        -2.71917
| 54>    N       -7.78955        -7.51048        -2.08422
| 55>    C       -4.61653        -7.90179        -0.39863
| 56>    S       -4.85255        -6.30150         0.19597
| 57>    C       -3.47680        -8.69599        -0.25171
| 58>    C       -2.21830        -8.33740         0.25735
| 59>    O       -2.08577        -7.12968         0.82209
| 60>    C       -0.78673        -6.72014         1.20448
| 61>    C       -1.25991        -9.33446         0.05324
| 62>    C       -1.76260       -10.43482        -0.62142
| 63>    S       -3.46960       -10.28291        -0.93361
| 64>    C       -1.06780       -11.59465        -1.05191
| 65>    C       -1.44757       -12.40745        -2.07431
| 66>    C       -0.96086       -13.81346        -2.15261
| 67>    O       -0.01650       -14.29336        -1.57549
| 68>    C       -1.93949       -14.49947        -3.03161
| 69>    C       -2.05667       -15.84477        -3.31448
| 70>    C       -3.11234       -16.25593        -4.13091
| 71>    C       -4.03386       -15.31491        -4.63269
| 72>    C       -3.89808       -13.95407        -4.35672
| 73>    C       -2.83931       -13.55328        -3.56243
| 74>    C       -2.43191       -12.22185        -3.12890
| 75>    C       -2.70713       -11.06288        -3.79804
| 76>    C       -2.08700        -9.83213        -3.48950
| 77>    N       -1.56993        -8.82804        -3.28633
| 78>    C       -3.59536       -10.96580        -4.88905
| 79>    N       -4.31208       -10.81539        -5.77193
| 80>    C       -5.12416       -15.75355        -5.42411
| 81>    N       -6.01430       -16.09169        -6.05977
| 82>    C       -3.26724       -17.62762        -4.44551
| 83>    N       -3.37791       -18.74040        -4.69218
| 84>    H       -3.65846         0.44401         2.35388
| 85>    H       -7.91651         2.76381         3.53884
| 86>    H       -9.35483        -1.02240         0.02781
| 87>    H      -11.63946        -3.15175        -2.63121
| 88>    H      -11.12639        -4.65076        -1.81237
| 89>    H      -10.22676        -4.05828        -3.23314
| 90>    H       -8.81795        -5.50396        -1.80339
| 91>    H       -8.07970       -11.96715        -4.84384
| 92>    H       -9.89244       -10.31049        -4.96991
| 93>    H       -0.89828        -5.70850         1.58881
| 94>    H       -0.10978        -6.71485         0.34657
| 95>    H       -0.38500        -7.36837         1.98795
| 96>    H       -0.22303        -9.24911         0.32253
| 97>    H       -0.20092       -11.90558        -0.47880
| 98>    H       -1.35636       -16.56122        -2.91255
| 99>    H       -4.62718       -13.25033        -4.72470
|100> *
|101>
|102>                          ****END OF INPUT****

CARTESIAN COORDINATES (ANGSTROEM)
---------------------------------
  C     -5.774600    0.623430    1.957060
  C     -4.587130    0.938380    2.592380
  C     -4.606830    1.921330    3.584450
  C     -3.406170    2.247800    4.261890
  N     -2.429950    2.498770    4.804920
  C     -5.798580    2.588870    3.925210
  C     -5.783730    3.590900    4.924880
  N     -5.790670    4.403190    5.732120
  C     -6.995590    2.261770    3.283960
  C     -6.968040    1.280120    2.317220
  C     -8.094740    0.727790    1.521570
  O     -9.250860    1.079470    1.545000
  C     -7.502890   -0.385250    0.745040
  C     -6.068520   -0.308880    0.867460
  C     -5.148630   -0.769120   -0.040790
  C     -3.755550   -0.626160    0.107540
  N     -2.613560   -0.562070    0.204390
  C     -5.514500   -1.349530   -1.273400
  N     -5.780860   -1.765050   -2.309700
  C     -8.316700   -1.315380    0.152920
  C     -8.026110   -2.631390   -0.224050
  C     -8.866820   -3.444930   -1.015700
  O     -9.996750   -2.932880   -1.502680
  C    -10.783940   -3.758680   -2.342560
  C     -8.361550   -4.730370   -1.213490
  C     -7.155880   -4.943080   -0.563890
  S     -6.635930   -3.538470    0.312190
  C     -6.392930   -6.123180   -0.608820
  C     -6.709650   -7.284320   -1.329910
  C     -5.697750   -8.290450   -1.206920
  N     -5.758750   -9.442460   -1.862050
  C     -6.810470   -9.640240   -2.631450
  C     -6.861740  -10.899800   -3.407300
  O     -5.984850  -11.740370   -3.344240
  C     -8.048590  -11.056570   -4.260950
  C     -9.034270  -10.154110   -4.330510
  C     -9.048200   -8.895620   -3.566300
  O     -9.963710   -8.102300   -3.625480
  C     -7.848900   -8.661520   -2.719170
  N     -7.789550   -7.510480   -2.084220
  C     -4.616530   -7.901790   -0.398630
  S     -4.852550   -6.301500    0.195970
  C     -3.476800   -8.695990   -0.251710
  C     -2.218300   -8.337400    0.257350
  O     -2.085770   -7.129680    0.822090
  C     -0.786730   -6.720140    1.204480
  C     -1.259910   -9.334460    0.053240
  C     -1.762600  -10.434820   -0.621420
  S     -3.469600  -10.282910   -0.933610
  C     -1.067800  -11.594650   -1.051910
  C     -1.447570  -12.407450   -2.074310
  C     -0.960860  -13.813460   -2.152610
  O     -0.016500  -14.293360   -1.575490
  C     -1.939490  -14.499470   -3.031610
  C     -2.056670  -15.844770   -3.314480
  C     -3.112340  -16.255930   -4.130910
  C     -4.033860  -15.314910   -4.632690
  C     -3.898080  -13.954070   -4.356720
  C     -2.839310  -13.553280   -3.562430
  C     -2.431910  -12.221850   -3.128900
  C     -2.707130  -11.062880   -3.798040
  C     -2.087000   -9.832130   -3.489500
  N     -1.569930   -8.828040   -3.286330
  C     -3.595360  -10.965800   -4.889050
  N     -4.312080  -10.815390   -5.771930
  C     -5.124160  -15.753550   -5.424110
  N     -6.014300  -16.091690   -6.059770
  C     -3.267240  -17.627620   -4.445510
  N     -3.377910  -18.740400   -4.692180
  H     -3.658460    0.444010    2.353880
  H     -7.916510    2.763810    3.538840
  H     -9.354830   -1.022400    0.027810
  H    -11.639460   -3.151750   -2.631210
  H    -11.126390   -4.650760   -1.812370
  H    -10.226760   -4.058280   -3.233140
  H     -8.817950   -5.503960   -1.803390
  H     -8.079700  -11.967150   -4.843840
  H     -9.892440  -10.310490   -4.969910
  H     -0.898280   -5.708500    1.588810
  H     -0.109780   -6.714850    0.346570
  H     -0.385000   -7.368370    1.987950
  H     -0.223030   -9.249110    0.322530
  H     -0.200920  -11.905580   -0.478800
  H     -1.356360  -16.561220   -2.912550
  H     -4.627180  -13.250330   -4.724700

 Total Charge           Charge          ....    0
 Multiplicity           Mult            ....    1
 Number of Electrons    NEL             ....  482
 Basis Dimension        Dim             .... 1058

ORBITAL ENERGIES
----------------

  NO   OCC          E(Eh)            E(eV)
   0   2.0000     -89.019684     -2422.3487
   1   2.0000     -88.988430     -2421.4983
   2   2.0000     -88.984445     -2421.3899
   3   2.0000     -19.293762      -525.0100
   4   2.0000     -19.283643      -524.7346
   5   2.0000     -19.253178      -523.9056
   6   2.0000     -19.249522      -523.8061
   7   2.0000     -19.242968      -523.6278
   8   2.0000     -19.223472      -523.0973
   9   2.0000     -14.476106      -393.9149
  10   2.0000     -14.470250      -393.7555
  11   2.0000     -14.435460      -392.8088
  12   2.0000     -14.435090      -392.7988
  13   2.0000     -14.431513      -392.7014
  14   2.0000     -14.431101      -392.6902
  15   2.0000     -14.424228      -392.5032
  16   2.0000     -14.423086      -392.4721
  17   2.0000     -14.422844      -392.4655
  18   2.0000     -14.419161      -392.3653
  19   2.0000     -10.401089      -283.0280
  20   2.0000     -10.397420      -282.9282
  21   2.0000     -10.395032      -282.8632
  22   2.0000     -10.379320      -282.4356
  23   2.0000     -10.375847      -282.3412
  24   2.0000     -10.375629      -282.3352
  25   2.0000     -10.367914      -282.1253
  26   2.0000     -10.365270      -282.0533
  27   2.0000     -10.364013      -282.0191
  28   2.0000     -10.363913      -282.0164
  29   2.0000     -10.362595      -281.9806
  30   2.0000     -10.362083      -281.9666
  31   2.0000     -10.360719      -281.9295
  32   2.0000     -10.357849      -281.8514
  33   2.0000     -10.354745      -281.7669
  34   2.0000     -10.354274      -281.7541
  35   2.0000     -10.353384      -281.7299
  36   2.0000     -10.352136      -281.6959
  37   2.0000     -10.351828      -281.6876
  38   2.0000     -10.351799      -281.6868
  39   2.0000     -10.350492      -281.6512
  40   2.0000     -10.348785      -281.6048
  41   2.0000     -10.344685      -281.4932
  42   2.0000     -10.342508      -281.4339
  43   2.0000     -10.342020      -281.4207
  44   2.0000     -10.340780      -281.3869
  45   2.0000     -10.339824      -281.3609
  46   2.0000     -10.337507      -281.2979
  47   2.0000     -10.337120      -281.2873
  48   2.0000     -10.336666      -281.2750
  49   2.0000     -10.333663      -281.1933
  50   2.0000     -10.332036      -281.1490
  51   2.0000     -10.329514      -281.0804
  52   2.0000     -10.328235      -281.0456
  53   2.0000     -10.328002      -281.0392
  54   2.0000     -10.327740      -281.0321
  55   2.0000     -10.327313      -281.0205
  56   2.0000     -10.327263      -281.0191
  57   2.0000     -10.326886      -281.0089
  58   2.0000     -10.326743      -281.0050
  59   2.0000     -10.326542      -280.9995
  60   2.0000     -10.324864      -280.9538
  61   2.0000     -10.322192      -280.8811
  62   2.0000     -10.321564      -280.8640
  63   2.0000     -10.319903      -280.8188
  64   2.0000     -10.319783      -280.8156
  65   2.0000     -10.318400      -280.7779
  66   2.0000     -10.316848      -280.7357
  67   2.0000     -10.298288      -280.2307
  68   2.0000     -10.296894      -280.1927
  69   2.0000      -8.113377      -220.7762
  70   2.0000      -8.082143      -219.9263
  71   2.0000      -8.079606      -219.8573
  72   2.0000      -6.082480      -165.5127
  73   2.0000      -6.078149      -165.3948
  74   2.0000      -6.076220      -165.3423
  75   2.0000      -6.051689      -164.6748
  76   2.0000      -6.049113      -164.6047
  77   2.0000      -6.047282      -164.5549
  78   2.0000      -6.045074      -164.4948
  79   2.0000      -6.043886      -164.4625
  80   2.0000      -6.041139      -164.3877
  81   2.0000      -1.198577       -32.6149
  82   2.0000      -1.190233       -32.3879
  83   2.0000      -1.167574       -31.7713
  84   2.0000      -1.162291       -31.6276
  85   2.0000      -1.158708       -31.5301
  86   2.0000      -1.139207       -30.9994
  87   2.0000      -1.125217       -30.6187
  88   2.0000      -1.053485       -28.6668
  89   2.0000      -1.047720       -28.5099
  90   2.0000      -1.036472       -28.2038
  91   2.0000      -1.034883       -28.1606
  92   2.0000      -1.031536       -28.0695
  93   2.0000      -1.021405       -27.7939
  94   2.0000      -1.018088       -27.7036
  95   2.0000      -1.015037       -27.6206
  96   2.0000      -1.011844       -27.5337
  97   2.0000      -1.010717       -27.5030
  98   2.0000      -1.005185       -27.3525
  99   2.0000      -1.003108       -27.2960
 100   2.0000      -1.002509       -27.2797
 101   2.0000      -0.998424       -27.1685
 102   2.0000      -0.982635       -26.7389
 103   2.0000      -0.971151       -26.4264
 104   2.0000      -0.960161       -26.1273
 105   2.0000      -0.934864       -25.4389
 106   2.0000      -0.930271       -25.3140
 107   2.0000      -0.919067       -25.0091
 108   2.0000      -0.917177       -24.9576
 109   2.0000      -0.906821       -24.6758
 110   2.0000      -0.899513       -24.4770
 111   2.0000      -0.896690       -24.4002
 112   2.0000      -0.895930       -24.3795
 113   2.0000      -0.874758       -23.8034
 114   2.0000      -0.873065       -23.7573
 115   2.0000      -0.861994       -23.4561
 116   2.0000      -0.849178       -23.1073
 117   2.0000      -0.837454       -22.7883
 118   2.0000      -0.819987       -22.3130
 119   2.0000      -0.818968       -22.2852
 120   2.0000      -0.813333       -22.1319
 121   2.0000      -0.810935       -22.0667
 122   2.0000      -0.802773       -21.8446
 123   2.0000      -0.800303       -21.7774
 124   2.0000      -0.783867       -21.3301
 125   2.0000      -0.765093       -20.8192
 126   2.0000      -0.757772       -20.6200
 127   2.0000      -0.754459       -20.5299
 128   2.0000      -0.743647       -20.2357
 129   2.0000      -0.726443       -19.7675
 130   2.0000      -0.715034       -19.4571
 131   2.0000      -0.710524       -19.3343
 132   2.0000      -0.705057       -19.1856
 133   2.0000      -0.699919       -19.0458
 134   2.0000      -0.696924       -18.9643
 135   2.0000      -0.688016       -18.7219
 136   2.0000      -0.683168       -18.5899
 137   2.0000      -0.681315       -18.5395
 138   2.0000      -0.671509       -18.2727
 139   2.0000      -0.666003       -18.1229
 140   2.0000      -0.663332       -18.0502
 141   2.0000      -0.659564       -17.9477
 142   2.0000      -0.648849       -17.6561
 143   2.0000      -0.642439       -17.4817
 144   2.0000      -0.642009       -17.4700
 145   2.0000      -0.629930       -17.1413
 146   2.0000      -0.625363       -17.0170
 147   2.0000      -0.616096       -16.7648
 148   2.0000      -0.610764       -16.6197
 149   2.0000      -0.606400       -16.5010
 150   2.0000      -0.603046       -16.4097
 151   2.0000      -0.598778       -16.2936
 152   2.0000      -0.596016       -16.2184
 153   2.0000      -0.592889       -16.1333
 154   2.0000      -0.589073       -16.0295
 155   2.0000      -0.584308       -15.8998
 156   2.0000      -0.582685       -15.8557
 157   2.0000      -0.582276       -15.8445
 158   2.0000      -0.574466       -15.6320
 159   2.0000      -0.573202       -15.5976
 160   2.0000      -0.571034       -15.5386
 161   2.0000      -0.565400       -15.3853
 162   2.0000      -0.561945       -15.2913
 163   2.0000      -0.560652       -15.2561
 164   2.0000      -0.554209       -15.0808
 165   2.0000      -0.552291       -15.0286
 166   2.0000      -0.550241       -14.9728
 167   2.0000      -0.545590       -14.8463
 168   2.0000      -0.543702       -14.7949
 169   2.0000      -0.540336       -14.7033
 170   2.0000      -0.538657       -14.6576
 171   2.0000      -0.534708       -14.5501
 172   2.0000      -0.530978       -14.4486
 173   2.0000      -0.529821       -14.4172
 174   2.0000      -0.526542       -14.3279
 175   2.0000      -0.523550       -14.2465
 176   2.0000      -0.522322       -14.2131
 177   2.0000      -0.521237       -14.1836
 178   2.0000      -0.519389       -14.1333
 179   2.0000      -0.517492       -14.0817
 180   2.0000      -0.515039       -14.0149
 181   2.0000      -0.512573       -13.9478
 182   2.0000      -0.506819       -13.7912
 183   2.0000      -0.504164       -13.7190
 184   2.0000      -0.499493       -13.5919
 185   2.0000      -0.497122       -13.5274
 186   2.0000      -0.491113       -13.3639
 187   2.0000      -0.486764       -13.2455
 188   2.0000      -0.483672       -13.1614
 189   2.0000      -0.477781       -13.0011
 190   2.0000      -0.473360       -12.8808
 191   2.0000      -0.470183       -12.7943
 192   2.0000      -0.469321       -12.7709
 193   2.0000      -0.466365       -12.6904
 194   2.0000      -0.463657       -12.6167
 195   2.0000      -0.462073       -12.5737
 196   2.0000      -0.457970       -12.4620
 197   2.0000      -0.457062       -12.4373
 198   2.0000      -0.456398       -12.4192
 199   2.0000      -0.455900       -12.4057
 200   2.0000      -0.455298       -12.3893
 201   2.0000      -0.455077       -12.3833
 202   2.0000      -0.452661       -12.3175
 203   2.0000      -0.450003       -12.2452
 204   2.0000      -0.448815       -12.2129
 205   2.0000      -0.447784       -12.1848
 206   2.0000      -0.446155       -12.1405
 207   2.0000      -0.445293       -12.1170
 208   2.0000      -0.443512       -12.0686
 209   2.0000      -0.442428       -12.0391
 210   2.0000      -0.441056       -12.0017
 211   2.0000      -0.439067       -11.9476
 212   2.0000      -0.437259       -11.8984
 213   2.0000      -0.436658       -11.8821
 214   2.0000      -0.431596       -11.7443
 215   2.0000      -0.429882       -11.6977
 216   2.0000      -0.427590       -11.6353
 217   2.0000      -0.425974       -11.5913
 218   2.0000      -0.423764       -11.5312
 219   2.0000      -0.423224       -11.5165
 220   2.0000      -0.417547       -11.3620
 221   2.0000      -0.415328       -11.3017
 222   2.0000      -0.411444       -11.1960
 223   2.0000      -0.393321       -10.7028
 224   2.0000      -0.391763       -10.6604
 225   2.0000      -0.387102       -10.5336
 226   2.0000      -0.380995       -10.3674
 227   2.0000      -0.371952       -10.1213
 228   2.0000      -0.370329       -10.0772
 229   2.0000      -0.369797       -10.0627
 230   2.0000      -0.364945        -9.9307
 231   2.0000      -0.361856        -9.8466
 232   2.0000      -0.357930        -9.7398
 233   2.0000      -0.353733        -9.6256
 234   2.0000      -0.347901        -9.4669
 235   2.0000      -0.341142        -9.2829
 236   2.0000      -0.337328        -9.1792
 237   2.0000      -0.327668        -8.9163
 238   2.0000      -0.325215        -8.8496
 239   2.0000      -0.297716        -8.1013
 240   2.0000      -0.258349        -7.0300
 241   0.0000      -0.137198        -3.7333
 242   0.0000      -0.116337        -3.1657
 243   0.0000      -0.104161        -2.8344
 244   0.0000      -0.095601        -2.6014
 245   0.0000      -0.091756        -2.4968

MULLIKEN ATOMIC CHARGES
-----------------------
   0 C :    0.035589
   1 C :   -0.037839
   2 C :   -0.064620
   3 C :   -0.173144
   4 N :    0.193930
   5 C :   -0.070291
   6 C :   -0.174788
   7 N :    0.192121
   8 C :   -0.033593
   9 C :    0.004559
  10 C :    0.144159
  11 O :   -0.134332
  12 C :   -0.144977
  13 C :    0.246179
  14 C :   -0.318538
  15 C :   -0.173411
  16 N :    0.150844
  17 C :   -0.207773
  18 N :    0.168853
  19 C :    0.056112
  20 C :   -0.172076
  21 C :    0.307227
  22 O :   -0.277876
  23 C :    0.169223
  24 C :   -0.135141
  25 C :   -0.038148
  26 S :    0.139647
  27 C :   -0.129201
  28 C :    0.063579
  29 C :    0.006972
  30 N :    0.026671
  31 C :   -0.103450
  32 C :    0.172854
  33 O :   -0.136223
  34 C :   -0.009901
  35 C :   -0.013264
  36 C :    0.145002
  37 O :   -0.105717
  38 C :   -0.110920
  39 N :    0.054913
  40 C :   -0.075404
  41 S :    0.275947
  42 C :   -0.150164
  43 C :    0.238928
  44 O :   -0.304313
  45 C :    0.164777
  46 C :   -0.036629
  47 C :   -0.093552
  48 S :    0.197745
  49 C :    0.088527
  50 C :   -0.142028
  51 C :    0.146201
  52 O :   -0.120964
  53 C :    0.010047
  54 C :   -0.033261
  55 C :   -0.069139
  56 C :   -0.059264
  57 C :   -0.014308
  58 C :    0.023397
  59 C :    0.239258
  60 C :   -0.290000
  61 C :   -0.196088
  62 N :    0.175424
  63 C :   -0.170733
  64 N :    0.171054
  65 C :   -0.171731
  66 N :    0.193769
  67 C :   -0.174761
  68 N :    0.194061
  69 H :    0.017274
  70 H :    0.014517
  71 H :    0.035656
  72 H :    0.051039
  73 H :    0.041091
  74 H :    0.046611
  75 H :    0.006551
  76 H :    0.028068
  77 H :    0.026675
  78 H :    0.057848
  79 H :    0.047296
  80 H :    0.036054
  81 H :   -0.007878
  82 H :    0.031596
  83 H :    0.017866
  84 H :    0.019728
Sum of atomic charges:    0.0000000

LOEWDIN ATOMIC CHARGES
----------------------
   0 C :    0.006462
   1 C :    0.027567
   2 C :   -0.026908
   3 C :   -0.030667
   4 N :   -0.017829
   5 C :   -0.032878
   6 C :   -0.031808
   7 N :   -0.019403
   8 C :    0.046044
   9 C :   -0.028650
  10 C :    0.079497
  11 O :   -0.137908
  12 C :   -0.125080
  13 C :    0.053659
  14 C :   -0.145495
  15 C :   -0.023424
  16 N :   -0.050921
  17 C :   -0.038135
  18 N :   -0.047317
  19 C :    0.067418
  20 C :   -0.217930
  21 C :    0.070221
  22 O :   -0.067334
  23 C :    0.088496
  24 C :   -0.089808
  25 C :   -0.137144
  26 S :    0.456505
  27 C :   -0.208546
  28 C :   -0.026038
  29 C :   -0.050408
  30 N :   -0.007982
  31 C :   -0.041845
  32 C :    0.071678
  33 O :   -0.115222
  34 C :   -0.004206
  35 C :   -0.005206
  36 C :    0.059854
  37 O :   -0.099338
  38 C :   -0.028974
  39 N :    0.005414
  40 C :   -0.169776
  41 S :    0.547005
  42 C :   -0.203924
  43 C :    0.035088
  44 O :   -0.088072
  45 C :    0.086863
  46 C :   -0.058330
  47 C :   -0.169596
  48 S :    0.536664
  49 C :    0.053229
  50 C :   -0.087929
  51 C :    0.083950
  52 O :   -0.123804
  53 C :   -0.032742
  54 C :    0.047784
  55 C :   -0.029985
  56 C :   -0.024008
  57 C :    0.042107
  58 C :    0.008756
  59 C :    0.053693
  60 C :   -0.118572
  61 C :   -0.031347
  62 N :   -0.039993
  63 C :   -0.018455
  64 N :   -0.044675
  65 C :   -0.028831
  66 N :   -0.016868
  67 C :   -0.032437
  68 N :   -0.015151
  69 H :    0.050495
  70 H :    0.053259
  71 H :    0.055035
  72 H :    0.035119
  73 H :    0.024835
  74 H :    0.027890
  75 H :    0.035627
  76 H :    0.051171
  77 H :    0.049872
  78 H :    0.037959
  79 H :    0.026716
  80 H :    0.021567
  81 H :    0.037382
  82 H :    0.053277
  83 H :    0.054420
  84 H :    0.048319

  Mayer bond orders larger than 0.100000
B(  0-C ,  1-C ) :   1.3696 B(  0-C ,  9-C ) :   1.3366 B(  0-C , 13-C ) :   0.9796
B(  1-C ,  2-C ) :   1.3811 B(  1-C , 69-H ) :   0.9901 B(  2-C ,  3-C ) :   1.0849
B(  2-C ,  5-C ) :   1.4072 B(  3-C ,  4-N ) :   3.0445 B(  5-C ,  6-C ) :   1.0874
B(  5-C ,  8-C ) :   1.3601 B(  6-C ,  7-N ) :   3.0459 B(  8-C ,  9-C ) :   1.3763
B(  8-C , 70-H ) :   1.0142 B(  9-C , 10-C ) :   0.8942 B( 10-C , 11-O ) :   2.2767
B( 10-C , 12-C ) :   0.9698 B( 12-C , 13-C ) :   1.0852 B( 12-C , 19-C ) :   1.5015
B( 13-C , 14-C ) :   1.6317 B( 14-C , 15-C ) :   1.1347 B( 14-C , 17-C ) :   1.1528
B( 15-C , 16-N ) :   2.9794 B( 17-C , 18-N ) :   3.0250 B( 19-C , 20-C ) :   1.2526
B( 19-C , 71-H ) :   0.9484 B( 20-C , 21-C ) :   1.3348 B( 20-C , 26-S ) :   1.0630
B( 21-C , 22-O ) :   1.2530 B( 21-C , 24-C ) :   1.2101 B( 22-O , 23-C ) :   0.9271
B( 23-C , 72-H ) :   0.9787 B( 23-C , 73-H ) :   0.9723 B( 23-C , 74-H ) :   0.9721
B( 24-C , 25-C ) :   1.4315 B( 24-C , 75-H ) :   0.9878 B( 25-C , 26-S ) :   1.1335
B( 25-C , 27-C ) :   1.2149 B( 27-C , 28-C ) :   1.3574 B( 27-C , 40-C ) :   0.1205
B( 27-C , 41-S ) :   1.1184 B( 28-C , 29-C ) :   1.2070 B( 28-C , 39-N ) :   1.4283
B( 29-C , 30-N ) :   1.4315 B( 29-C , 40-C ) :   1.2687 B( 30-N , 31-C ) :   1.6743
B( 31-C , 32-C ) :   0.9187 B( 31-C , 38-C ) :   1.1114 B( 32-C , 33-O ) :   2.1412
B( 32-C , 34-C ) :   1.0316 B( 34-C , 35-C ) :   1.6770 B( 34-C , 76-H ) :   0.9998
B( 35-C , 36-C ) :   1.0277 B( 35-C , 77-H ) :   0.9982 B( 36-C , 37-O ) :   2.2288
B( 36-C , 38-C ) :   0.8930 B( 38-C , 39-N ) :   1.7110 B( 40-C , 41-S ) :   1.1939
B( 40-C , 42-C ) :   1.2635 B( 42-C , 43-C ) :   1.3539 B( 42-C , 48-S ) :   1.1418
B( 43-C , 44-O ) :   1.2079 B( 43-C , 46-C ) :   1.2479 B( 44-O , 45-C ) :   0.9292
B( 45-C , 78-H ) :   0.9801 B( 45-C , 79-H ) :   0.9722 B( 45-C , 80-H ) :   0.9719
B( 46-C , 47-C ) :   1.3910 B( 46-C , 81-H ) :   1.0070 B( 47-C , 48-S ) :   1.1123
B( 47-C , 49-C ) :   1.1157 B( 49-C , 50-C ) :   1.6632 B( 49-C , 82-H ) :   0.9555
B( 50-C , 51-C ) :   0.9418 B( 50-C , 59-C ) :   1.0194 B( 51-C , 52-O ) :   2.2944
B( 51-C , 53-C ) :   0.8966 B( 53-C , 54-C ) :   1.3658 B( 53-C , 58-C ) :   1.3300
B( 54-C , 55-C ) :   1.3733 B( 54-C , 83-H ) :   1.0134 B( 55-C , 56-C ) :   1.3940
B( 55-C , 67-C ) :   1.0891 B( 56-C , 57-C ) :   1.3851 B( 56-C , 65-C ) :   1.0857
B( 57-C , 58-C ) :   1.3770 B( 57-C , 84-H ) :   0.9809 B( 58-C , 59-C ) :   0.9863
B( 59-C , 60-C ) :   1.6973 B( 60-C , 61-C ) :   1.1481 B( 60-C , 63-C ) :   1.1469
B( 61-C , 62-N ) :   3.0107 B( 63-C , 64-N ) :   2.9729 B( 65-C , 66-N ) :   3.0444
B( 67-C , 68-N ) :   3.0440

-----------------------------------------------------------------------------
         ABSORPTION SPECTRUM VIA TRANSITION ELECTRIC DIPOLE MOMENTS
-----------------------------------------------------------------------------
State   Energy  Wavelength   fosc         T2         TX        TY        TZ
        (cm-1)    (nm)                  (au**2)     (au)      (au)      (au)
-----------------------------------------------------------------------------
   0   10525.7    950.1   0.576832698  18.04162  -1.87621   3.70952   0.87231
   1   15314.1    653.0   0.215505225   4.63279   0.95136   1.84557   0.56706
   2   18104.7    552.3   0.144803138   2.63307   0.26151   1.18871   1.07315
   3   19178.9    521.4   0.152969487   2.62577  -1.11648  -1.17281   0.06145
   4   19560.7    511.2   0.021530551   0.36236   0.52512  -0.19683   0.21879
   5   21940.0    455.8   0.254147299   3.81351  -0.80727   1.65253   0.65649
   6   22925.1    436.2   0.076056208   1.09219   0.51038  -0.91161  -0.02584
   7   23183.4    431.3   0.094047122   1.33550  -0.09631  -1.09080  -0.36928
   8   24499.6    408.2   0.028502335   0.38300   0.50980   0.05849   0.34595
   9   25333.7    394.7   0.004055707   0.05270   0.02142   0.02559  -0.22714
  10   25594.4    390.7   0.007449158   0.09582  -0.29770   0.03200  -0.07852
  11   25831.3    387.1   0.036822243   0.46929   0.06211  -0.63799  -0.24166
  12   26458.3    378.0   0.032776790   0.40783   0.00011  -0.35777  -0.52899
  13   26721.9    374.2   0.023629083   0.29111   0.12079  -0.48593  -0.20097
  14   27739.8    360.5   0.030690466   0.36423  -0.32923  -0.12940  -0.48897
  15   27854.6    359.0   0.042273240   0.49963  -0.39096   0.31373  -0.49835
  16   28960.9    345.3   0.114687557   1.30371   1.01240  -0.46047  -0.25830
  17   29146.3    343.1   0.033100341   0.37387   0.42282  -0.44099  -0.02494
  18   29413.2    340.0   0.052365838   0.58611  -0.61412   0.28752  -0.35539
  19   29835.8    335.2   0.030356326   0.33495  -0.27036   0.24828   0.44746
  20   30316.1    329.9   0.073757664   0.80096   0.00731  -0.57290  -0.68752
  21   30564.7    327.2   0.002855763   0.03076   0.11991  -0.00274  -0.12796
  22   30717.8    325.5   0.023227892   0.24894   0.00146   0.39248   0.30806
  23   31210.7    320.4   0.051286546   0.54097  -0.37762   0.46878  -0.42263
  24   31575.5    316.7   0.100991004   1.05295   0.66526  -0.77878  -0.06230
  25   31709.6    315.4   0.090247503   0.93696   0.79734  -0.53241   0.13321
  26   31901.9    313.5   0.016012605   0.16524  -0.14888  -0.37111  -0.07317
  27   32230.8    310.3   0.333788246   3.40938   1.01977   1.00138   1.16906
  28   32845.1    304.5   0.126735576   1.27029   0.10662  -0.92818  -0.63041
  29   33226.0    301.0   0.179426676   1.77781  -0.14721   1.19580   0.57114
  30   33350.1    299.8   0.088958486   0.87814  -0.39599  -0.78473  -0.32487
  31   33600.7    297.6   0.007672306   0.07517  -0.01483   0.16992   0.21466
  32   33744.7    296.3   0.004358788   0.04252   0.05797  -0.02303   0.19655
  33   33984.4    294.3   0.040884819   0.39606   0.28421   0.31949   0.46174
  34   34334.5    291.3   0.232056244   2.22504  -0.30854  -1.21574  -0.80735
  35   34670.8    288.4   0.127486652   1.21053  -0.25793   0.94556  -0.49993
  36   34738.0    287.9   0.230998989   2.18918  -0.19270  -1.40923  -0.40756
  37   34937.1    286.2   0.024378230   0.22972   0.15523  -0.39718   0.21879
  38   34997.4    285.7   0.288516102   2.71400  -0.45310   1.13642   1.10329
  39   35217.9    283.9   0.063579850   0.59433  -0.09425  -0.64490   0.41178
  40   35849.3    278.9   0.070116812   0.64390   0.76795  -0.05854   0.22521
  41   35913.2    278.4   0.014154820   0.12976  -0.17228   0.21384  -0.23312
  42   36153.3    276.6   0.020027008   0.18237  -0.35285  -0.10488   0.21648
  43   36345.6    275.1   0.019466515   0.17632   0.06211  -0.40438   0.09458
  44   36750.6    272.1   0.016490205   0.14772  -0.20307   0.11397  -0.30577
  45   37078.0    269.7   0.072193007   0.64099   0.43551   0.60093   0.30035
  46   37259.6    268.4   0.027388754   0.24200   0.29425  -0.37248  -0.12913
  47   37417.8    267.3   0.084729673   0.74547   0.22195  -0.75694  -0.35108
  48   37635.0    265.7   0.062326132   0.54520  -0.25719   0.51742   0.45970
  49   37793.3    264.6   0.027278079   0.23762  -0.07863   0.37548   0.30075
  50   37976.7    263.3   0.009526691   0.08258   0.26001  -0.09444  -0.07784
  51   38019.1    263.0   0.010256236   0.08881  -0.28067  -0.02550  -0.09686
  52   38264.1    261.3   0.086419815   0.74353  -0.32537   0.44531  -0.66285
  53   38471.1    259.9   0.019515933   0.16701  -0.08776  -0.39761  -0.03474
  54   38664.1    258.6   0.027643696   0.23538   0.24758  -0.36395   0.20401
  55   38769.9    257.9   0.104102415   0.88398   0.77112  -0.39441   0.36577
  56   39134.3    255.5   0.100680687   0.84696   0.06670  -0.69307  -0.60180
  57   39202.4    255.1   0.089909606   0.75504   0.41210  -0.25144  -0.72249
  58   39536.1    252.9   0.018510905   0.15414  -0.30581  -0.09869   0.22556
  59   39952.0    250.3   0.015093996   0.12438   0.24236   0.22095   0.12968
  60   40122.7    249.2   0.087616085   0.71890  -0.61629  -0.24727  -0.52720
  61   40237.9    248.5   0.103731630   0.84869  -0.69358  -0.17768  -0.57971

FINAL SINGLE POINT ENERGY     -4104.176722636664

DIPOLE MOMENT
-------------
                                X             Y             Z
Electronic contribution:      5.75946      -4.06710       0.95953
Nuclear contribution   :     -6.60941       1.69118      -0.26281
                        -----------------------------------------
Total Dipole Moment    :     -0.84995      -2.37592       0.69673
                        -----------------------------------------
Magnitude (a.u.)       :      2.61780
Magnitude (Debye)      :      6.65391

Rotational constants in cm-1:     0.002281     0.000425     0.000372
Rotational constants in MHz :    68.395702    12.729238    11.143201

                             ****ORCA TERMINATED NORMALLY****
TOTAL RUN TIME: 0 days 0 hours 8 minutes 46 seconds 599 msec
