                         Program Version 4.2.0 -  RELEASE  -
|  1> # ORCA input file
|  2> # SCF done       -210.629037007901          0.000909896912
|  3> ! CAM-B3LYP def2-SVP def2/J RIJCOSX Grid4 TightSCF
|  4> %maxcore 5000
|  5> %tddft
|  6>     Mode sTDDFT
|  7>     Ethresh 5.0
|  8>     maxcore 5000
|  9> end
| 10>
| 11> %pal
| 12>   nprocs 6
| 13>   end
| 14> * xyz 0 1
| 15>    C      -11.43592        -2.88569         6.10278
| 16>    C      -12.17184        -2.22217         7.07116
| 17>    C      -13.52344        -2.54127         7.21581
| 18>    C      -14.29413        -1.86984         8.19673
| 19>    N      -14.91287        -1.32155         8.98888
| 20>    C      -14.13614        -3.51557         6.40481
| 21>    C      -15.50734        -3.81976         6.57571
| 22>    N      -16.61596        -4.08187         6.69590
| 23>    C      -13.39113        -4.17911         5.42876
| 24>    C      -12.05941        -3.85093         5.29382
| 25>    C      -11.08201        -4.40256         4.32568
| 26>    O      -11.34150        -5.26995         3.51481
| 27>    C       -9.82254        -3.67529         4.56958
| 28>    C      -10.03200        -2.78718         5.70457
| 29>    C       -9.09829        -2.02150         6.35456
| 30>    C       -9.38893        -1.19982         7.46542
| 31>    N       -9.55346        -0.51276         8.37010
| 32>    C       -7.71657        -1.93441         6.07159
| 33>    N       -6.58284        -1.78642         5.95768
| 34>    C       -8.64035        -3.67951         3.87125
| 35>    C       -8.12101        -4.43333         2.78632
| 36>    C       -6.84196        -4.04257         2.28894
| 37>    O       -6.26879        -2.96600         2.86674
| 38>    C       -4.96402        -2.58209         2.49977
| 39>    C       -6.26694        -4.76775         1.25910
| 40>    C       -6.88697        -5.87990         0.69534
| 41>    C       -8.15576        -6.27131         1.18631
| 42>    C       -8.74320        -5.54881         2.20317
| 43>    O       -8.74199        -7.34408         0.59005
| 44>    C      -10.05621        -7.68841         0.96811
| 45>    C       -6.20824        -6.60414        -0.37868
| 46>    C       -6.18748        -7.97456        -0.40577
| 47>    C       -5.45745        -8.65554        -1.40438
| 48>    C       -5.25141       -10.00785        -1.63311
| 49>    C       -5.80869       -11.17681        -0.89161
| 50>    C       -5.30258       -11.21733         0.56329
| 51>    N       -5.35134       -12.58295         1.04971
| 52>    C       -7.34656       -11.18316        -0.96543
| 53>    N       -7.88373       -12.42512        -0.42854
| 54>    C       -4.36069       -10.10629        -2.76622
| 55>    C       -3.78626       -11.17173        -3.35448
| 56>    C       -2.83353       -11.02068        -4.48863
| 57>    C       -2.64008        -9.61068        -4.95644
| 58>    C       -3.22002        -8.55519        -4.35519
| 59>    C       -4.06688        -8.74529        -3.23832
| 60>    C       -4.73591        -7.87450        -2.40228
| 61>    C       -4.80769        -6.46315        -2.36836
| 62>    C       -5.51622        -5.85417        -1.38462
| 63>    C       -3.25854       -11.88112        -5.65171
| 64>    C       -2.44713       -12.75790        -6.24227
| 65>    C       -2.75840       -13.60636        -7.37625
| 66>    C       -1.68911       -14.21429        -8.08025
| 67>    O       -0.43673       -13.91205        -7.65099
| 68>    C        0.66341       -14.51826        -8.28846
| 69>    C       -1.96909       -15.04173        -9.14551
| 70>    C       -3.28501       -15.35438        -9.52547
| 71>    C       -4.34849       -14.72428        -8.83566
| 72>    C       -4.06045       -13.86327        -7.78742
| 73>    O       -5.60361       -14.98037        -9.27903
| 74>    C       -6.69544       -14.32897        -8.66949
| 75>    C       -3.44676       -16.23543       -10.63797
| 76>    C       -4.45989       -17.04712       -11.05187
| 77>    C       -4.41717       -17.54191       -12.45521
| 78>    O       -3.49460       -17.45695       -13.23154
| 79>    C       -5.75694       -18.12053       -12.70832
| 80>    C       -6.26930       -18.62598       -13.88347
| 81>    C       -7.58297       -19.09973       -13.87968
| 82>    C       -8.34711       -19.05193       -12.69763
| 83>    C       -7.81349       -18.54812       -11.50988
| 84>    C       -6.50951       -18.08240       -11.51765
| 85>    C       -5.67522       -17.53529       -10.44804
| 86>    C       -5.93359       -17.66045        -9.10728
| 87>    C       -4.98823       -17.37576        -8.10356
| 88>    N       -4.24134       -17.17030        -7.25647
| 89>    C       -7.14706       -18.13747        -8.57319
| 90>    N       -8.12864       -18.47826        -8.08490
| 91>    C       -9.68383       -19.52107       -12.71405
| 92>    N      -10.76503       -19.89760       -12.71398
| 93>    C       -8.14849       -19.62502       -15.06567
| 94>    N       -8.58924       -20.04382       -16.03627
| 95>    H      -11.74213        -1.46822         7.71057
| 96>    H      -13.84398        -4.92658         4.79506
| 97>    H       -7.92798        -2.93594         4.20689
| 98>    H       -4.71548        -1.75358         3.16063
| 99>    H       -4.92298        -2.24603         1.45919
|100>    H       -4.24962        -3.39580         2.65281
|101>    H       -5.29228        -4.49424         0.88748
|102>    H       -9.71035        -5.83065         2.57809
|103>    H      -10.34048        -8.51015         0.31248
|104>    H      -10.74838        -6.85396         0.82848
|105>    H      -10.10121        -8.02158         2.00918
|106>    H       -6.68970        -8.53274         0.36582
|107>    H       -5.45013       -12.09729        -1.36330
|108>    H       -5.88999       -10.51186         1.17196
|109>    H       -4.25781       -10.88798         0.58604
|110>    H       -6.31279       -12.90965         0.99872
|111>    H       -5.04856       -12.62583         2.01675
|112>    H       -7.64084       -11.00480        -2.01472
|113>    H       -7.74965       -10.36252        -0.36827
|114>    H       -7.59645       -13.20820        -1.00781
|115>    H       -8.89780       -12.39824        -0.42627
|116>    H       -3.97302       -12.18367        -3.02115
|117>    H       -1.85872       -11.39868        -4.14224
|118>    H       -1.99205        -9.48705        -5.81058
|119>    H       -3.04057        -7.55148        -4.71287
|120>    H       -4.29650        -5.88491        -3.12421
|121>    H       -5.59361        -4.77720        -1.36051
|122>    H       -4.26296       -11.69724        -6.00447
|123>    H       -1.43376       -12.86469        -5.87946
|124>    H        1.54311       -14.15703        -7.75828
|125>    H        0.73037       -14.22353        -9.34014
|126>    H        0.61851       -15.60879        -8.21439
|127>    H       -1.17202       -15.51630        -9.69512
|128>    H       -4.86410       -13.40068        -7.24007
|129>    H       -7.57907       -14.67428        -9.20474
|130>    H       -6.61691       -13.24238        -8.76491
|131>    H       -6.78464       -14.60237        -7.61383
|132>    H       -2.60713       -16.23218       -11.33025
|133>    H       -5.67197       -18.65423       -14.78215
|134>    H       -8.42819       -18.52618       -10.62378
|135> *
|136>
|137>                          ****END OF INPUT****

CARTESIAN COORDINATES (ANGSTROEM)
---------------------------------
  C    -11.435920   -2.885690    6.102780
  C    -12.171840   -2.222170    7.071160
  C    -13.523440   -2.541270    7.215810
  C    -14.294130   -1.869840    8.196730
  N    -14.912870   -1.321550    8.988880
  C    -14.136140   -3.515570    6.404810
  C    -15.507340   -3.819760    6.575710
  N    -16.615960   -4.081870    6.695900
  C    -13.391130   -4.179110    5.428760
  C    -12.059410   -3.850930    5.293820
  C    -11.082010   -4.402560    4.325680
  O    -11.341500   -5.269950    3.514810
  C     -9.822540   -3.675290    4.569580
  C    -10.032000   -2.787180    5.704570
  C     -9.098290   -2.021500    6.354560
  C     -9.388930   -1.199820    7.465420
  N     -9.553460   -0.512760    8.370100
  C     -7.716570   -1.934410    6.071590
  N     -6.582840   -1.786420    5.957680
  C     -8.640350   -3.679510    3.871250
  C     -8.121010   -4.433330    2.786320
  C     -6.841960   -4.042570    2.288940
  O     -6.268790   -2.966000    2.866740
  C     -4.964020   -2.582090    2.499770
  C     -6.266940   -4.767750    1.259100
  C     -6.886970   -5.879900    0.695340
  C     -8.155760   -6.271310    1.186310
  C     -8.743200   -5.548810    2.203170
  O     -8.741990   -7.344080    0.590050
  C    -10.056210   -7.688410    0.968110
  C     -6.208240   -6.604140   -0.378680
  C     -6.187480   -7.974560   -0.405770
  C     -5.457450   -8.655540   -1.404380
  C     -5.251410  -10.007850   -1.633110
  C     -5.808690  -11.176810   -0.891610
  C     -5.302580  -11.217330    0.563290
  N     -5.351340  -12.582950    1.049710
  C     -7.346560  -11.183160   -0.965430
  N     -7.883730  -12.425120   -0.428540
  C     -4.360690  -10.106290   -2.766220
  C     -3.786260  -11.171730   -3.354480
  C     -2.833530  -11.020680   -4.488630
  C     -2.640080   -9.610680   -4.956440
  C     -3.220020   -8.555190   -4.355190
  C     -4.066880   -8.745290   -3.238320
  C     -4.735910   -7.874500   -2.402280
  C     -4.807690   -6.463150   -2.368360
  C     -5.516220   -5.854170   -1.384620
  C     -3.258540  -11.881120   -5.651710
  C     -2.447130  -12.757900   -6.242270
  C     -2.758400  -13.606360   -7.376250
  C     -1.689110  -14.214290   -8.080250
  O     -0.436730  -13.912050   -7.650990
  C      0.663410  -14.518260   -8.288460
  C     -1.969090  -15.041730   -9.145510
  C     -3.285010  -15.354380   -9.525470
  C     -4.348490  -14.724280   -8.835660
  C     -4.060450  -13.863270   -7.787420
  O     -5.603610  -14.980370   -9.279030
  C     -6.695440  -14.328970   -8.669490
  C     -3.446760  -16.235430  -10.637970
  C     -4.459890  -17.047120  -11.051870
  C     -4.417170  -17.541910  -12.455210
  O     -3.494600  -17.456950  -13.231540
  C     -5.756940  -18.120530  -12.708320
  C     -6.269300  -18.625980  -13.883470
  C     -7.582970  -19.099730  -13.879680
  C     -8.347110  -19.051930  -12.697630
  C     -7.813490  -18.548120  -11.509880
  C     -6.509510  -18.082400  -11.517650
  C     -5.675220  -17.535290  -10.448040
  C     -5.933590  -17.660450   -9.107280
  C     -4.988230  -17.375760   -8.103560
  N     -4.241340  -17.170300   -7.256470
  C     -7.147060  -18.137470   -8.573190
  N     -8.128640  -18.478260   -8.084900
  C     -9.683830  -19.521070  -12.714050
  N    -10.765030  -19.897600  -12.713980
  C     -8.148490  -19.625020  -15.065670
  N     -8.589240  -20.043820  -16.036270
  H    -11.742130   -1.468220    7.710570
  H    -13.843980   -4.926580    4.795060
  H     -7.927980   -2.935940    4.206890
  H     -4.715480   -1.753580    3.160630
  H     -4.922980   -2.246030    1.459190
  H     -4.249620   -3.395800    2.652810
  H     -5.292280   -4.494240    0.887480
  H     -9.710350   -5.830650    2.578090
  H    -10.340480   -8.510150    0.312480
  H    -10.748380   -6.853960    0.828480
  H    -10.101210   -8.021580    2.009180
  H     -6.689700   -8.532740    0.365820
  H     -5.450130  -12.097290   -1.363300
  H     -5.889990  -10.511860    1.171960
  H     -4.257810  -10.887980    0.586040
  H     -6.312790  -12.909650    0.998720
  H     -5.048560  -12.625830    2.016750
  H     -7.640840  -11.004800   -2.014720
  H     -7.749650  -10.362520   -0.368270
  H     -7.596450  -13.208200   -1.007810
  H     -8.897800  -12.398240   -0.426270
  H     -3.973020  -12.183670   -3.021150
  H     -1.858720  -11.398680   -4.142240
  H     -1.992050   -9.487050   -5.810580
  H     -3.040570   -7.551480   -4.712870
  H     -4.296500   -5.884910   -3.124210
  H     -5.593610   -4.777200   -1.360510
  H     -4.262960  -11.697240   -6.004470
  H     -1.433760  -12.864690   -5.879460
  H      1.543110  -14.157030   -7.758280
  H      0.730370  -14.223530   -9.340140
  H      0.618510  -15.608790   -8.214390
  H     -1.172020  -15.516300   -9.695120
  H     -4.864100  -13.400680   -7.240070
  H     -7.579070  -14.674280   -9.204740
  H     -6.616910  -13.242380   -8.764910
  H     -6.784640  -14.602370   -7.613830
  H     -2.607130  -16.232180  -11.330250
  H     -5.671970  -18.654230  -14.782150
  H     -8.428190  -18.526180  -10.623780

 Total Charge           Charge          ....    0
 Multiplicity           Mult            ....    1
 Number of Electrons    NEL             ....  542
 Basis Dimension        Dim             .... 1320

ORBITAL ENERGIES
----------------

  NO   OCC          E(Eh)            E(eV)
   0   2.0000     -19.280069      -524.6373
   1   2.0000     -19.267704      -524.3009
   2   2.0000     -19.264240      -524.2066
   3   2.0000     -19.252463      -523.8861
   4   2.0000     -19.235741      -523.4311
   5   2.0000     -19.235594      -523.4271
   6   2.0000     -14.433122      -392.7452
   7   2.0000     -14.428862      -392.6293
   8   2.0000     -14.428132      -392.6094
   9   2.0000     -14.427793      -392.6002
  10   2.0000     -14.426340      -392.5607
  11   2.0000     -14.426154      -392.5556
  12   2.0000     -14.424617      -392.5138
  13   2.0000     -14.424150      -392.5011
  14   2.0000     -14.394764      -391.7014
  15   2.0000     -14.359575      -390.7439
  16   2.0000     -10.387193      -282.6499
  17   2.0000     -10.385147      -282.5942
  18   2.0000     -10.363011      -281.9919
  19   2.0000     -10.360056      -281.9115
  20   2.0000     -10.359719      -281.9023
  21   2.0000     -10.357872      -281.8520
  22   2.0000     -10.357651      -281.8460
  23   2.0000     -10.355972      -281.8003
  24   2.0000     -10.355960      -281.8000
  25   2.0000     -10.355593      -281.7900
  26   2.0000     -10.353936      -281.7449
  27   2.0000     -10.353590      -281.7355
  28   2.0000     -10.350409      -281.6489
  29   2.0000     -10.348325      -281.5922
  30   2.0000     -10.340762      -281.3864
  31   2.0000     -10.339284      -281.3462
  32   2.0000     -10.338634      -281.3285
  33   2.0000     -10.335071      -281.2316
  34   2.0000     -10.334758      -281.2231
  35   2.0000     -10.334600      -281.2188
  36   2.0000     -10.333528      -281.1896
  37   2.0000     -10.332635      -281.1653
  38   2.0000     -10.330129      -281.0971
  39   2.0000     -10.329195      -281.0717
  40   2.0000     -10.329189      -281.0715
  41   2.0000     -10.328743      -281.0594
  42   2.0000     -10.328206      -281.0448
  43   2.0000     -10.327069      -281.0138
  44   2.0000     -10.326907      -281.0094
  45   2.0000     -10.324621      -280.9472
  46   2.0000     -10.324497      -280.9438
  47   2.0000     -10.324335      -280.9394
  48   2.0000     -10.323171      -280.9078
  49   2.0000     -10.322881      -280.8999
  50   2.0000     -10.320615      -280.8382
  51   2.0000     -10.319901      -280.8188
  52   2.0000     -10.309404      -280.5331
  53   2.0000     -10.308459      -280.5074
  54   2.0000     -10.307929      -280.4930
  55   2.0000     -10.307735      -280.4877
  56   2.0000     -10.307701      -280.4868
  57   2.0000     -10.305893      -280.4376
  58   2.0000     -10.302009      -280.3319
  59   2.0000     -10.299029      -280.2508
  60   2.0000     -10.297089      -280.1980
  61   2.0000     -10.296989      -280.1953
  62   2.0000     -10.294122      -280.1173
  63   2.0000     -10.290650      -280.0228
  64   2.0000     -10.287414      -279.9348
  65   2.0000     -10.286448      -279.9085
  66   2.0000     -10.284751      -279.8623
  67   2.0000     -10.281663      -279.7783
  68   2.0000     -10.280338      -279.7422
  69   2.0000     -10.279366      -279.7158
  70   2.0000     -10.276781      -279.6454
  71   2.0000     -10.276407      -279.6353
  72   2.0000     -10.275686      -279.6156
  73   2.0000     -10.275235      -279.6033
  74   2.0000     -10.274493      -279.5832
  75   2.0000     -10.269862      -279.4572
  76   2.0000     -10.268390      -279.4171
  77   2.0000     -10.268341      -279.4158
  78   2.0000     -10.267979      -279.4059
  79   2.0000     -10.267391      -279.3899
  80   2.0000      -1.184024       -32.2189
  81   2.0000      -1.173684       -31.9376
  82   2.0000      -1.169231       -31.8164
  83   2.0000      -1.157200       -31.4890
  84   2.0000      -1.150535       -31.3076
  85   2.0000      -1.149937       -31.2914
  86   2.0000      -1.041083       -28.3293
  87   2.0000      -1.038238       -28.2519
  88   2.0000      -1.027447       -27.9583
  89   2.0000      -1.023663       -27.8553
  90   2.0000      -1.010642       -27.5010
  91   2.0000      -1.008984       -27.4559
  92   2.0000      -1.007341       -27.4111
  93   2.0000      -1.007302       -27.4101
  94   2.0000      -1.004245       -27.3269
  95   2.0000      -1.003101       -27.2958
  96   2.0000      -0.990221       -26.9453
  97   2.0000      -0.981644       -26.7119
  98   2.0000      -0.977694       -26.6044
  99   2.0000      -0.976029       -26.5591
 100   2.0000      -0.974839       -26.5267
 101   2.0000      -0.970150       -26.3991
 102   2.0000      -0.950621       -25.8677
 103   2.0000      -0.941154       -25.6101
 104   2.0000      -0.930870       -25.3303
 105   2.0000      -0.924276       -25.1508
 106   2.0000      -0.920962       -25.0607
 107   2.0000      -0.920647       -25.0521
 108   2.0000      -0.904778       -24.6203
 109   2.0000      -0.903158       -24.5762
 110   2.0000      -0.899102       -24.4658
 111   2.0000      -0.889143       -24.1948
 112   2.0000      -0.879234       -23.9252
 113   2.0000      -0.872125       -23.7317
 114   2.0000      -0.867649       -23.6099
 115   2.0000      -0.857718       -23.3397
 116   2.0000      -0.850484       -23.1428
 117   2.0000      -0.844073       -22.9684
 118   2.0000      -0.834250       -22.7011
 119   2.0000      -0.830239       -22.5919
 120   2.0000      -0.826570       -22.4921
 121   2.0000      -0.818579       -22.2747
 122   2.0000      -0.815074       -22.1793
 123   2.0000      -0.807302       -21.9678
 124   2.0000      -0.805312       -21.9136
 125   2.0000      -0.798524       -21.7290
 126   2.0000      -0.777766       -21.1641
 127   2.0000      -0.770500       -20.9664
 128   2.0000      -0.761065       -20.7096
 129   2.0000      -0.759531       -20.6679
 130   2.0000      -0.752010       -20.4632
 131   2.0000      -0.746239       -20.3062
 132   2.0000      -0.740129       -20.1399
 133   2.0000      -0.725435       -19.7401
 134   2.0000      -0.720086       -19.5945
 135   2.0000      -0.716035       -19.4843
 136   2.0000      -0.712088       -19.3769
 137   2.0000      -0.710259       -19.3271
 138   2.0000      -0.695054       -18.9134
 139   2.0000      -0.692023       -18.8309
 140   2.0000      -0.684665       -18.6307
 141   2.0000      -0.680251       -18.5106
 142   2.0000      -0.677201       -18.4276
 143   2.0000      -0.676604       -18.4113
 144   2.0000      -0.675119       -18.3709
 145   2.0000      -0.666373       -18.1329
 146   2.0000      -0.661596       -18.0029
 147   2.0000      -0.655253       -17.8304
 148   2.0000      -0.654453       -17.8086
 149   2.0000      -0.645846       -17.5744
 150   2.0000      -0.645551       -17.5663
 151   2.0000      -0.635368       -17.2892
 152   2.0000      -0.631895       -17.1947
 153   2.0000      -0.621700       -16.9173
 154   2.0000      -0.621284       -16.9060
 155   2.0000      -0.615269       -16.7423
 156   2.0000      -0.609004       -16.5718
 157   2.0000      -0.606042       -16.4912
 158   2.0000      -0.601650       -16.3717
 159   2.0000      -0.599784       -16.3209
 160   2.0000      -0.596010       -16.2182
 161   2.0000      -0.592170       -16.1138
 162   2.0000      -0.589537       -16.0421
 163   2.0000      -0.588602       -16.0167
 164   2.0000      -0.582683       -15.8556
 165   2.0000      -0.575018       -15.6470
 166   2.0000      -0.572093       -15.5674
 167   2.0000      -0.571705       -15.5569
 168   2.0000      -0.568181       -15.4610
 169   2.0000      -0.565249       -15.3812
 170   2.0000      -0.565199       -15.3798
 171   2.0000      -0.562906       -15.3174
 172   2.0000      -0.562594       -15.3089
 173   2.0000      -0.560066       -15.2402
 174   2.0000      -0.558682       -15.2025
 175   2.0000      -0.557976       -15.1833
 176   2.0000      -0.551911       -15.0182
 177   2.0000      -0.550594       -14.9824
 178   2.0000      -0.547570       -14.9001
 179   2.0000      -0.543362       -14.7856
 180   2.0000      -0.542861       -14.7720
 181   2.0000      -0.540279       -14.7017
 182   2.0000      -0.535310       -14.5665
 183   2.0000      -0.533341       -14.5129
 184   2.0000      -0.531810       -14.4713
 185   2.0000      -0.529041       -14.3959
 186   2.0000      -0.527432       -14.3521
 187   2.0000      -0.522525       -14.2186
 188   2.0000      -0.520814       -14.1721
 189   2.0000      -0.520196       -14.1553
 190   2.0000      -0.519483       -14.1359
 191   2.0000      -0.518936       -14.1210
 192   2.0000      -0.516555       -14.0562
 193   2.0000      -0.511705       -13.9242
 194   2.0000      -0.508274       -13.8308
 195   2.0000      -0.506546       -13.7838
 196   2.0000      -0.506376       -13.7792
 197   2.0000      -0.503878       -13.7112
 198   2.0000      -0.502231       -13.6664
 199   2.0000      -0.501722       -13.6526
 200   2.0000      -0.495407       -13.4807
 201   2.0000      -0.494076       -13.4445
 202   2.0000      -0.493581       -13.4310
 203   2.0000      -0.491913       -13.3856
 204   2.0000      -0.485922       -13.2226
 205   2.0000      -0.484301       -13.1785
 206   2.0000      -0.483340       -13.1524
 207   2.0000      -0.475385       -12.9359
 208   2.0000      -0.471747       -12.8369
 209   2.0000      -0.469585       -12.7781
 210   2.0000      -0.465844       -12.6763
 211   2.0000      -0.461324       -12.5533
 212   2.0000      -0.460315       -12.5258
 213   2.0000      -0.458793       -12.4844
 214   2.0000      -0.457914       -12.4605
 215   2.0000      -0.457372       -12.4457
 216   2.0000      -0.456716       -12.4279
 217   2.0000      -0.454292       -12.3619
 218   2.0000      -0.453885       -12.3508
 219   2.0000      -0.452502       -12.3132
 220   2.0000      -0.452425       -12.3111
 221   2.0000      -0.452342       -12.3089
 222   2.0000      -0.451278       -12.2799
 223   2.0000      -0.450631       -12.2623
 224   2.0000      -0.449070       -12.2198
 225   2.0000      -0.448803       -12.2126
 226   2.0000      -0.447922       -12.1886
 227   2.0000      -0.446133       -12.1399
 228   2.0000      -0.443500       -12.0682
 229   2.0000      -0.441542       -12.0150
 230   2.0000      -0.440625       -11.9900
 231   2.0000      -0.437079       -11.8935
 232   2.0000      -0.436442       -11.8762
 233   2.0000      -0.435288       -11.8448
 234   2.0000      -0.432673       -11.7736
 235   2.0000      -0.429671       -11.6919
 236   2.0000      -0.428202       -11.6520
 237   2.0000      -0.428069       -11.6483
 238   2.0000      -0.425047       -11.5661
 239   2.0000      -0.424948       -11.5634
 240   2.0000      -0.423999       -11.5376
 241   2.0000      -0.421221       -11.4620
 242   2.0000      -0.419450       -11.4138
 243   2.0000      -0.417900       -11.3716
 244   2.0000      -0.415387       -11.3033
 245   2.0000      -0.413822       -11.2607
 246   2.0000      -0.412154       -11.2153
 247   2.0000      -0.408048       -11.1035
 248   2.0000      -0.403649       -10.9838
 249   2.0000      -0.397514       -10.8169
 250   2.0000      -0.393265       -10.7013
 251   2.0000      -0.391134       -10.6433
 252   2.0000      -0.390391       -10.6231
 253   2.0000      -0.374688       -10.1958
 254   2.0000      -0.372714       -10.1421
 255   2.0000      -0.368259       -10.0208
 256   2.0000      -0.364462        -9.9175
 257   2.0000      -0.359564        -9.7842
 258   2.0000      -0.354609        -9.6494
 259   2.0000      -0.352782        -9.5997
 260   2.0000      -0.341788        -9.3005
 261   2.0000      -0.338162        -9.2018
 262   2.0000      -0.332152        -9.0383
 263   2.0000      -0.318874        -8.6770
 264   2.0000      -0.316483        -8.6119
 265   2.0000      -0.310474        -8.4484
 266   2.0000      -0.307404        -8.3649
 267   2.0000      -0.288896        -7.8613
 268   2.0000      -0.282889        -7.6978
 269   2.0000      -0.275630        -7.5003
 270   2.0000      -0.228449        -6.2164
 271   0.0000      -0.104898        -2.8544
 272   0.0000      -0.103955        -2.8288
 273   0.0000      -0.091467        -2.4889
 274   0.0000      -0.090332        -2.4581
 275   0.0000      -0.071196        -1.9373

MULLIKEN ATOMIC CHARGES
-----------------------
   0 C :    0.042592
   1 C :   -0.040461
   2 C :   -0.060244
   3 C :   -0.175002
   4 N :    0.199765
   5 C :   -0.067809
   6 C :   -0.173748
   7 N :    0.194612
   8 C :   -0.038540
   9 C :    0.008976
  10 C :    0.165464
  11 O :   -0.155230
  12 C :   -0.059672
  13 C :    0.309444
  14 C :   -0.343015
  15 C :   -0.194181
  16 N :    0.159970
  17 C :   -0.196439
  18 N :    0.165943
  19 C :   -0.020301
  20 C :    0.018135
  21 C :    0.255711
  22 O :   -0.301984
  23 C :    0.174532
  24 C :   -0.160984
  25 C :    0.062428
  26 C :    0.216395
  27 C :   -0.147696
  28 O :   -0.314886
  29 C :    0.183146
  30 C :    0.064390
  31 C :   -0.033174
  32 C :    0.031645
  33 C :   -0.023459
  34 C :   -0.055173
  35 C :    0.157562
  36 N :   -0.227700
  37 C :    0.138717
  38 N :   -0.216629
  39 C :    0.105608
  40 C :   -0.149578
  41 C :    0.134099
  42 C :   -0.039061
  43 C :    0.025091
  44 C :    0.011679
  45 C :    0.031275
  46 C :   -0.005596
  47 C :   -0.018092
  48 C :   -0.038402
  49 C :    0.022194
  50 C :    0.064954
  51 C :    0.241555
  52 O :   -0.313715
  53 C :    0.174530
  54 C :   -0.147905
  55 C :    0.069125
  56 C :    0.221978
  57 C :   -0.133479
  58 O :   -0.311946
  59 C :    0.172593
  60 C :    0.003998
  61 C :   -0.108098
  62 C :    0.135291
  63 O :   -0.130708
  64 C :    0.011268
  65 C :   -0.038435
  66 C :   -0.073401
  67 C :   -0.059145
  68 C :   -0.051468
  69 C :    0.039510
  70 C :    0.313939
  71 C :   -0.329168
  72 C :   -0.212256
  73 N :    0.182726
  74 C :   -0.190366
  75 N :    0.163746
  76 C :   -0.173390
  77 N :    0.199604
  78 C :   -0.173733
  79 N :    0.198387
  80 H :    0.020521
  81 H :    0.011787
  82 H :    0.031523
  83 H :    0.056753
  84 H :    0.026200
  85 H :    0.032733
  86 H :   -0.027814
  87 H :   -0.026545
  88 H :    0.032306
  89 H :    0.034170
  90 H :    0.029781
  91 H :   -0.028248
  92 H :   -0.034972
  93 H :   -0.023426
  94 H :   -0.003715
  95 H :    0.080113
  96 H :    0.082212
  97 H :   -0.007621
  98 H :   -0.006776
  99 H :    0.101614
 100 H :    0.096393
 101 H :    0.002512
 102 H :    0.041596
 103 H :   -0.011796
 104 H :   -0.035798
 105 H :   -0.037445
 106 H :   -0.024582
 107 H :    0.005813
 108 H :   -0.000655
 109 H :    0.041929
 110 H :    0.027250
 111 H :    0.032567
 112 H :   -0.029254
 113 H :   -0.041053
 114 H :    0.044707
 115 H :    0.036941
 116 H :    0.041090
 117 H :    0.026101
 118 H :    0.016346
 119 H :    0.018430
Sum of atomic charges:   -0.0000000

LOEWDIN ATOMIC CHARGES
----------------------
   0 C :    0.002543
   1 C :    0.033706
   2 C :   -0.025444
   3 C :   -0.031181
   4 N :   -0.013686
   5 C :   -0.030771
   6 C :   -0.031549
   7 N :   -0.017208
   8 C :    0.046074
   9 C :   -0.028032
  10 C :    0.088710
  11 O :   -0.141513
  12 C :   -0.114387
  13 C :    0.071514
  14 C :   -0.130096
  15 C :   -0.020791
  16 N :   -0.043418
  17 C :   -0.025289
  18 N :   -0.040072
  19 C :    0.099276
  20 C :   -0.071635
  21 C :    0.081339
  22 O :   -0.081719
  23 C :    0.082162
  24 C :   -0.069956
  25 C :    0.017012
  26 C :    0.038494
  27 C :   -0.027775
  28 O :   -0.100846
  29 C :    0.078131
  30 C :   -0.030039
  31 C :    0.010201
  32 C :   -0.021687
  33 C :   -0.025333
  34 C :   -0.040763
  35 C :    0.032089
  36 N :   -0.131697
  37 C :    0.026828
  38 N :   -0.103470
  39 C :   -0.017066
  40 C :    0.065592
  41 C :   -0.028478
  42 C :   -0.034210
  43 C :   -0.015640
  44 C :   -0.038527
  45 C :   -0.029321
  46 C :   -0.010655
  47 C :   -0.031092
  48 C :    0.009536
  49 C :   -0.027280
  50 C :   -0.005139
  51 C :    0.049802
  52 O :   -0.100101
  53 C :    0.078772
  54 C :   -0.037985
  55 C :   -0.055961
  56 C :    0.067982
  57 C :   -0.048307
  58 O :   -0.076941
  59 C :    0.078852
  60 C :    0.083680
  61 C :   -0.097575
  62 C :    0.085219
  63 O :   -0.130445
  64 C :   -0.033094
  65 C :    0.049001
  66 C :   -0.033025
  67 C :   -0.023761
  68 C :    0.026459
  69 C :    0.008144
  70 C :    0.060654
  71 C :   -0.123346
  72 C :   -0.018842
  73 N :   -0.039364
  74 C :   -0.024347
  75 N :   -0.044079
  76 C :   -0.031218
  77 N :   -0.013465
  78 C :   -0.032467
  79 N :   -0.016596
  80 H :    0.052082
  81 H :    0.051976
  82 H :    0.046618
  83 H :    0.037382
  84 H :    0.017231
  85 H :    0.020460
  86 H :    0.032729
  87 H :    0.028064
  88 H :    0.026577
  89 H :    0.021013
  90 H :    0.018376
  91 H :    0.021706
  92 H :    0.020762
  93 H :   -0.002305
  94 H :    0.016672
  95 H :    0.034991
  96 H :    0.049848
  97 H :    0.002383
  98 H :    0.017575
  99 H :    0.056413
 100 H :    0.057172
 101 H :    0.033177
 102 H :    0.062020
 103 H :    0.025193
 104 H :    0.029733
 105 H :    0.026960
 106 H :    0.025167
 107 H :    0.023769
 108 H :    0.032158
 109 H :    0.031677
 110 H :    0.016931
 111 H :    0.019017
 112 H :    0.032865
 113 H :    0.030104
 114 H :    0.032461
 115 H :    0.021680
 116 H :    0.021838
 117 H :    0.047755
 118 H :    0.053961
 119 H :    0.050724

  Mayer bond orders larger than 0.100000
B(  0-C ,  1-C ) :   1.3558 B(  0-C ,  9-C ) :   1.3392 B(  0-C , 13-C ) :   0.9470
B(  1-C ,  2-C ) :   1.3900 B(  1-C , 80-H ) :   0.9865 B(  2-C ,  3-C ) :   1.0883
B(  2-C ,  5-C ) :   1.4038 B(  3-C ,  4-N ) :   3.0432 B(  5-C ,  6-C ) :   1.0839
B(  5-C ,  8-C ) :   1.3592 B(  6-C ,  7-N ) :   3.0454 B(  8-C ,  9-C ) :   1.3603
B(  8-C , 81-H ) :   1.0167 B(  9-C , 10-C ) :   0.9416 B( 10-C , 11-O ) :   2.1488
B( 10-C , 12-C ) :   0.9461 B( 11-O , 87-H ) :   0.1123 B( 12-C , 13-C ) :   1.0999
B( 12-C , 19-C ) :   1.4760 B( 13-C , 14-C ) :   1.6285 B( 14-C , 15-C ) :   1.1536
B( 14-C , 17-C ) :   1.1364 B( 15-C , 16-N ) :   2.9576 B( 17-C , 18-N ) :   2.9845
B( 19-C , 20-C ) :   1.2499 B( 19-C , 82-H ) :   0.9219 B( 20-C , 21-C ) :   1.2592
B( 20-C , 27-C ) :   1.2476 B( 21-C , 22-O ) :   1.1746 B( 21-C , 24-C ) :   1.2863
B( 22-O , 23-C ) :   0.9443 B( 23-C , 83-H ) :   0.9755 B( 23-C , 84-H ) :   0.9705
B( 23-C , 85-H ) :   0.9696 B( 24-C , 25-C ) :   1.3578 B( 24-C , 86-H ) :   0.9976
B( 25-C , 26-C ) :   1.3288 B( 25-C , 30-C ) :   0.9645 B( 26-C , 27-C ) :   1.3313
B( 26-C , 28-O ) :   1.1571 B( 27-C , 87-H ) :   0.9710 B( 28-O , 29-C ) :   0.9568
B( 29-C , 88-H ) :   0.9746 B( 29-C , 89-H ) :   0.9683 B( 29-C , 90-H ) :   0.9687
B( 30-C , 31-C ) :   1.5744 B( 30-C , 47-C ) :   1.1367 B( 31-C , 32-C ) :   1.1378
B( 31-C , 91-H ) :   0.9820 B( 32-C , 33-C ) :   1.4711 B( 32-C , 45-C ) :   1.1188
B( 33-C , 34-C ) :   1.0240 B( 33-C , 39-C ) :   1.1174 B( 34-C , 35-C ) :   1.0274
B( 34-C , 37-C ) :   1.0466 B( 34-C , 92-H ) :   0.8775 B( 35-C , 36-N ) :   1.1058
B( 35-C , 93-H ) :   0.9264 B( 35-C , 94-H ) :   0.9457 B( 36-N , 95-H ) :   0.9429
B( 36-N , 96-H ) :   0.9668 B( 37-C , 38-N ) :   1.0813 B( 37-C , 97-H ) :   0.9462
B( 37-C , 98-H ) :   0.9321 B( 38-N , 95-H ) :   0.1002 B( 38-N , 99-H ) :   0.9624
B( 38-N ,100-H ) :   0.9672 B( 39-C , 40-C ) :   1.6388 B( 39-C , 44-C ) :   1.0431
B( 40-C , 41-C ) :   0.9603 B( 40-C ,101-H ) :   0.9836 B( 41-C , 42-C ) :   0.9870
B( 41-C , 48-C ) :   0.9620 B( 41-C ,102-H ) :   0.8632 B( 42-C , 43-C ) :   1.7000
B( 42-C ,103-H ) :   0.9764 B( 43-C , 44-C ) :   1.1351 B( 43-C ,104-H ) :   0.9891
B( 44-C , 45-C ) :   1.4379 B( 45-C , 46-C ) :   1.1467 B( 46-C , 47-C ) :   1.6039
B( 46-C ,105-H ) :   0.9923 B( 47-C ,106-H ) :   0.9827 B( 48-C , 49-C ) :   1.8007
B( 48-C ,107-H ) :   0.9626 B( 49-C , 50-C ) :   1.0726 B( 49-C ,108-H ) :   0.9678
B( 50-C , 51-C ) :   1.2932 B( 50-C , 57-C ) :   1.3658 B( 51-C , 52-O ) :   1.1683
B( 51-C , 54-C ) :   1.3255 B( 52-O , 53-C ) :   0.9581 B( 53-C ,109-H ) :   0.9782
B( 53-C ,110-H ) :   0.9685 B( 53-C ,111-H ) :   0.9688 B( 54-C , 55-C ) :   1.2531
B( 54-C ,112-H ) :   1.0040 B( 55-C , 56-C ) :   1.3096 B( 55-C , 60-C ) :   1.1188
B( 56-C , 57-C ) :   1.2862 B( 56-C , 58-O ) :   1.1660 B( 57-C ,113-H ) :   0.9907
B( 58-O , 59-C ) :   0.9397 B( 59-C ,114-H ) :   0.9759 B( 59-C ,115-H ) :   0.9706
B( 59-C ,116-H ) :   0.9681 B( 60-C , 61-C ) :   1.6256 B( 60-C ,117-H ) :   0.9330
B( 61-C , 62-C ) :   0.9497 B( 61-C , 70-C ) :   1.0535 B( 62-C , 63-O ) :   2.2642
B( 62-C , 64-C ) :   0.9029 B( 64-C , 65-C ) :   1.3712 B( 64-C , 69-C ) :   1.3297
B( 65-C , 66-C ) :   1.3617 B( 65-C ,118-H ) :   1.0150 B( 66-C , 67-C ) :   1.4065
B( 66-C , 78-C ) :   1.0866 B( 67-C , 68-C ) :   1.3871 B( 67-C , 76-C ) :   1.0844
B( 68-C , 69-C ) :   1.3575 B( 68-C ,119-H ) :   0.9896 B( 69-C , 70-C ) :   0.9793
B( 70-C , 71-C ) :   1.6442 B( 71-C , 72-C ) :   1.1764 B( 71-C , 74-C ) :   1.1394
B( 72-C , 73-N ) :   2.9983 B( 74-C , 75-N ) :   2.9713 B( 76-C , 77-N ) :   3.0445
B( 78-C , 79-N ) :   3.0462

-----------------------------------------------------------------------------
         ABSORPTION SPECTRUM VIA TRANSITION ELECTRIC DIPOLE MOMENTS
-----------------------------------------------------------------------------
State   Energy  Wavelength   fosc         T2         TX        TY        TZ
        (cm-1)    (nm)                  (au**2)     (au)      (au)      (au)
-----------------------------------------------------------------------------
   0   13739.0    727.9   0.103003063   2.46814   0.29590  -1.42222  -0.59823
   1   16554.5    604.1   0.327987100   6.52252   1.39466  -0.86254  -1.95792
   2   17192.8    581.6   0.175708766   3.36451  -0.31312   1.05931   1.46435
   3   19442.4    514.3   0.054688336   0.92602  -0.71362   0.29271   0.57541
   4   20554.8    486.5   0.489252773   7.83602   1.34867  -1.33237  -2.05959
   5   21124.6    473.4   0.025607335   0.39907  -0.47002  -0.40636   0.11414
   6   21306.5    469.3   0.334273413   5.16494  -0.97212  -1.77823  -1.02851
   7   24013.7    416.4   0.080537996   1.10412  -1.00817  -0.05833   0.29038
   8   25239.5    396.2   0.200113206   2.61018  -0.07936  -1.15613  -1.12572
   9   26853.9    372.4   0.020679726   0.25352  -0.10550   0.49138   0.03056
  10   27250.7    367.0   0.178054256   2.15105   0.76583   1.23449   0.20150
  11   27717.5    360.8   0.446550408   5.30387  -0.77407   1.38853   1.66633
  12   28409.0    352.0   0.038383962   0.44481   0.12888  -0.16053  -0.63437
  13   29373.6    340.4   0.195082053   2.18643  -0.23892  -0.79284  -1.22505
  14   29486.1    339.1   0.015978054   0.17839   0.33199   0.22679   0.12940
  15   29738.4    336.3   0.085233724   0.94356  -0.49959   0.45125   0.70025
  16   30168.4    331.5   0.081256766   0.88671   0.65210  -0.42538  -0.52965
  17   30418.6    328.7   0.013282242   0.14375   0.21292  -0.04975  -0.30975
  18   30704.8    325.7   0.066478093   0.71277  -0.77756   0.15036   0.29251
  19   31031.6    322.3   0.000385668   0.00409  -0.03610   0.05255  -0.00515
  20   31249.2    320.0   0.073132577   0.77046   0.30297   0.58104   0.58400
  21   31313.4    319.4   0.002202418   0.02315  -0.13909   0.06064  -0.01154
  22   31410.0    318.4   0.005126136   0.05373  -0.18371   0.03186  -0.13771
  23   31786.6    314.6   0.159412443   1.65103   0.85886  -0.63614  -0.71325
  24   32389.8    308.7   0.128615040   1.30725   0.91583  -0.42483  -0.53669
  25   32602.1    306.7   0.156481489   1.58013  -0.53010  -0.30564  -1.09805
  26   32819.8    304.7   0.007216102   0.07238   0.22671   0.10036  -0.10448
  27   33438.9    299.1   0.033482302   0.32964   0.13768  -0.45864  -0.31676
  28   33782.2    296.0   0.062465539   0.60873   0.61860   0.47421   0.03468
  29   33826.3    295.6   0.052779689   0.51367   0.54138   0.42721   0.19513
  30   33832.9    295.6   0.008488580   0.08260   0.00875  -0.02278  -0.28636
  31   33986.2    294.2   0.186703069   1.80853   0.61278   0.31619   1.15458
  32   34314.6    291.4   0.109032711   1.04605  -0.33294  -0.74405  -0.61773
  33   35109.3    284.8   0.003132752   0.02938   0.07057   0.01201   0.15573
  34   35415.0    282.4   0.385315408   3.58182  -1.65288  -0.82380  -0.41373
  35   35605.1    280.9   0.236391245   2.18572   0.56318   0.01629  -1.36685
  36   35869.3    278.8   0.393909859   3.61534  -0.76718  -0.51262  -1.66253
  37   35948.8    278.2   0.164455511   1.50605   0.90254  -0.07862  -0.82782
  38   36206.8    276.2   0.031715602   0.28838   0.51178   0.14613   0.07145
  39   36566.5    273.5   0.001078444   0.00971   0.03300   0.03789   0.08476
  40   36911.7    270.9   0.025645031   0.22873  -0.08791   0.46890  -0.03365
  41   37125.2    269.4   0.304722708   2.70217  -0.47905   1.03288   1.18568
  42   37271.9    268.3   0.017385658   0.15356   0.14411  -0.26072  -0.25460
  43   37406.9    267.3   0.137274650   1.20813   0.96682  -0.14807  -0.50147
  44   37582.6    266.1   0.017450305   0.15286   0.15285   0.22262   0.28273
  45   37611.3    265.9   0.062234717   0.54474  -0.70042  -0.14694  -0.18043
  46   37876.3    264.0   0.112171062   0.97497   0.73236  -0.39043  -0.53496
  47   38160.8    262.0   0.082033691   0.70770  -0.80117  -0.15621   0.20354
  48   38648.7    258.7   0.094694032   0.80661  -0.76428  -0.16249   0.44281
  49   38825.5    257.6   0.018091654   0.15340   0.03828   0.27890   0.27232
  50   39028.5    256.2   0.233474817   1.96940   0.28995  -1.03230  -0.90536
  51   39139.7    255.5   0.117815645   0.99097  -0.27188   0.48872   0.82353
  52   39410.1    253.7   0.024645835   0.20588   0.41494  -0.02199  -0.18226
  53   39621.1    252.4   0.003544770   0.02945  -0.04339   0.16100  -0.04061
  54   39645.5    252.2   0.001019945   0.00847  -0.04509   0.07190  -0.03559
  55   40065.8    249.6   0.014908918   0.12250   0.10319   0.32853   0.06266

FINAL SINGLE POINT ENERGY     -3457.139096921898

DIPOLE MOMENT
-------------
                                X             Y             Z
Electronic contribution:    -46.26840       1.77426      -4.61959
Nuclear contribution   :     50.95020      -1.52497       1.89051
                        -----------------------------------------
Total Dipole Moment    :      4.68181       0.24929      -2.72907
                        -----------------------------------------
Magnitude (a.u.)       :      5.42488
Magnitude (Debye)      :     13.78894

Rotational constants in cm-1:     0.001545     0.000180     0.000166
Rotational constants in MHz :    46.327819     5.404438     4.989539

                             ****ORCA TERMINATED NORMALLY****
TOTAL RUN TIME: 0 days 0 hours 13 minutes 46 seconds 491 msec
