                         Program Version 4.2.0 -  RELEASE  -
|  1> # ORCA input file
|  2> # SCF done       -171.350927986958          0.000804672678
|  3> ! CAM-B3LYP def2-SVP def2/J RIJCOSX Grid4 TightSCF
|  4> %maxcore 5000
|  5> %tddft
|  6>     Mode sTDDFT
|  7>     Ethresh 5.0
|  8>     maxcore 5000
|  9> end
| 10>
| 11> %pal
| 12>   nprocs 6
| 13>   end
| 14> * xyz 0 1
| 15>    C        2.11916        -4.62052        -1.57961
| 16>    C        3.36197        -4.08611        -1.88171
| 17>    C        4.46455        -4.94095        -1.90821
| 18>    C        5.74377        -4.41672        -2.22280
| 19>    N        6.77298        -3.98754        -2.48069
| 20>    C        4.33111        -6.31620        -1.63270
| 21>    C        5.47022        -7.15703        -1.66597
| 22>    N        6.37900        -7.85286        -1.68961
| 23>    C        3.07809        -6.85127        -1.33277
| 24>    C        1.99414        -5.99807        -1.31348
| 25>    C        0.57965        -6.33208        -1.03802
| 26>    O        0.13915        -7.42108        -0.75557
| 27>    C       -0.16779        -5.05665        -1.23707
| 28>    C        0.80328        -3.99574        -1.47812
| 29>    C        0.54501        -2.65581        -1.52662
| 30>    C        1.53172        -1.66611        -1.73706
| 31>    N        2.29335        -0.82631        -1.90837
| 32>    C       -0.73071        -2.07737        -1.33428
| 33>    N       -1.73054        -1.54198        -1.16430
| 34>    C       -1.51092        -4.96434        -1.36750
| 35>    C       -2.44509        -6.04542        -1.14378
| 36>    N       -3.37755        -6.22575        -2.08584
| 37>    N       -4.25152        -7.14052        -1.99710
| 38>    C       -4.25678        -8.02760        -0.99898
| 39>    C       -3.31916        -7.91686         0.04088
| 40>    C       -2.42791        -6.87114        -0.00710
| 41>    C       -5.27227        -9.06224        -1.05792
| 42>    C       -5.92142        -9.56684         0.07905
| 43>    C       -7.01696       -10.49065        -0.06285
| 44>    N       -7.56048       -11.06125         1.01933
| 45>    C       -7.26463       -10.59502         2.21122
| 46>    C       -6.29737        -9.54251         2.34180
| 47>    N       -5.60543        -9.12417         1.31287
| 48>    C       -6.00737        -9.01011         3.62394
| 49>    N       -5.80074        -8.58554         4.66691
| 50>    C       -7.88980       -11.18586         3.33194
| 51>    N       -8.45279       -11.64982         4.21625
| 52>    C       -7.57885       -10.81054        -1.31402
| 53>    C       -6.90103       -10.35796        -2.45320
| 54>    C       -5.73472        -9.50930        -2.31300
| 55>    N       -5.22122        -9.18820        -3.49967
| 56>    S       -6.10814        -9.84470        -4.65534
| 57>    N       -7.20114       -10.58472        -3.73129
| 58>    C       -8.80058       -11.55728        -1.23764
| 59>    N       -9.42915       -11.44778        -0.05639
| 60>    N      -10.30338       -12.28911         0.31664
| 61>    C      -10.71412       -13.26815        -0.49155
| 62>    C      -10.32917       -13.27215        -1.84494
| 63>    C       -9.31522       -12.42039        -2.21825
| 64>    C      -11.57697       -14.25749         0.11557
| 65>    C      -11.42226       -14.68317         1.38493
| 66>    C      -12.52457       -15.39500         2.10606
| 67>    O      -13.48165       -15.93392         1.61273
| 68>    C      -12.20003       -15.22512         3.53988
| 69>    C      -12.96919       -15.54060         4.64148
| 70>    C      -12.46079       -15.23674         5.90524
| 71>    C      -11.20624       -14.60668         6.03785
| 72>    C      -10.43093       -14.29632         4.92012
| 73>    C      -10.93014       -14.62556         3.67098
| 74>    C      -10.34848       -14.45118         2.34454
| 75>    C       -9.01312       -14.36927         2.08374
| 76>    C       -8.44686       -14.36595         0.79067
| 77>    N       -7.92183       -14.39174        -0.22931
| 78>    C       -8.00923       -14.40885         3.07911
| 79>    N       -7.14349       -14.49150         3.82583
| 80>    C      -10.73046       -14.28722         7.33487
| 81>    N      -10.35570       -14.03447         8.38627
| 82>    C      -13.21795       -15.55293         7.05979
| 83>    N      -13.84625       -15.82097         7.97846
| 84>    H        3.50181        -3.03987        -2.10255
| 85>    H        2.95764        -7.90332        -1.12309
| 86>    H       -1.95630        -4.05067        -1.73943
| 87>    H       -3.31551        -8.62728         0.85049
| 88>    H       -1.74119        -6.67932         0.80103
| 89>    H      -10.75979       -13.98064        -2.53440
| 90>    H       -8.87837       -12.42397        -3.20382
| 91>    H      -12.42703       -14.62213        -0.44740
| 92>    H      -13.93671       -16.00618         4.52992
| 93>    H       -9.48761       -13.78647         5.04296
| 94> *
| 95>
| 96>                          ****END OF INPUT****

CARTESIAN COORDINATES (ANGSTROEM)
---------------------------------
  C      2.119160   -4.620520   -1.579610
  C      3.361970   -4.086110   -1.881710
  C      4.464550   -4.940950   -1.908210
  C      5.743770   -4.416720   -2.222800
  N      6.772980   -3.987540   -2.480690
  C      4.331110   -6.316200   -1.632700
  C      5.470220   -7.157030   -1.665970
  N      6.379000   -7.852860   -1.689610
  C      3.078090   -6.851270   -1.332770
  C      1.994140   -5.998070   -1.313480
  C      0.579650   -6.332080   -1.038020
  O      0.139150   -7.421080   -0.755570
  C     -0.167790   -5.056650   -1.237070
  C      0.803280   -3.995740   -1.478120
  C      0.545010   -2.655810   -1.526620
  C      1.531720   -1.666110   -1.737060
  N      2.293350   -0.826310   -1.908370
  C     -0.730710   -2.077370   -1.334280
  N     -1.730540   -1.541980   -1.164300
  C     -1.510920   -4.964340   -1.367500
  C     -2.445090   -6.045420   -1.143780
  N     -3.377550   -6.225750   -2.085840
  N     -4.251520   -7.140520   -1.997100
  C     -4.256780   -8.027600   -0.998980
  C     -3.319160   -7.916860    0.040880
  C     -2.427910   -6.871140   -0.007100
  C     -5.272270   -9.062240   -1.057920
  C     -5.921420   -9.566840    0.079050
  C     -7.016960  -10.490650   -0.062850
  N     -7.560480  -11.061250    1.019330
  C     -7.264630  -10.595020    2.211220
  C     -6.297370   -9.542510    2.341800
  N     -5.605430   -9.124170    1.312870
  C     -6.007370   -9.010110    3.623940
  N     -5.800740   -8.585540    4.666910
  C     -7.889800  -11.185860    3.331940
  N     -8.452790  -11.649820    4.216250
  C     -7.578850  -10.810540   -1.314020
  C     -6.901030  -10.357960   -2.453200
  C     -5.734720   -9.509300   -2.313000
  N     -5.221220   -9.188200   -3.499670
  S     -6.108140   -9.844700   -4.655340
  N     -7.201140  -10.584720   -3.731290
  C     -8.800580  -11.557280   -1.237640
  N     -9.429150  -11.447780   -0.056390
  N    -10.303380  -12.289110    0.316640
  C    -10.714120  -13.268150   -0.491550
  C    -10.329170  -13.272150   -1.844940
  C     -9.315220  -12.420390   -2.218250
  C    -11.576970  -14.257490    0.115570
  C    -11.422260  -14.683170    1.384930
  C    -12.524570  -15.395000    2.106060
  O    -13.481650  -15.933920    1.612730
  C    -12.200030  -15.225120    3.539880
  C    -12.969190  -15.540600    4.641480
  C    -12.460790  -15.236740    5.905240
  C    -11.206240  -14.606680    6.037850
  C    -10.430930  -14.296320    4.920120
  C    -10.930140  -14.625560    3.670980
  C    -10.348480  -14.451180    2.344540
  C     -9.013120  -14.369270    2.083740
  C     -8.446860  -14.365950    0.790670
  N     -7.921830  -14.391740   -0.229310
  C     -8.009230  -14.408850    3.079110
  N     -7.143490  -14.491500    3.825830
  C    -10.730460  -14.287220    7.334870
  N    -10.355700  -14.034470    8.386270
  C    -13.217950  -15.552930    7.059790
  N    -13.846250  -15.820970    7.978460
  H      3.501810   -3.039870   -2.102550
  H      2.957640   -7.903320   -1.123090
  H     -1.956300   -4.050670   -1.739430
  H     -3.315510   -8.627280    0.850490
  H     -1.741190   -6.679320    0.801030
  H    -10.759790  -13.980640   -2.534400
  H     -8.878370  -12.423970   -3.203820
  H    -12.427030  -14.622130   -0.447400
  H    -13.936710  -16.006180    4.529920
  H     -9.487610  -13.786470    5.042960

 Total Charge           Charge          ....    0
 Multiplicity           Mult            ....    1
 Number of Electrons    NEL             ....  456
 Basis Dimension        Dim             .... 1020

ORBITAL ENERGIES
----------------

  NO   OCC          E(Eh)            E(eV)
   0   2.0000     -89.061615     -2423.4897
   1   2.0000     -19.258254      -524.0437
   2   2.0000     -19.249308      -523.8003
   3   2.0000     -14.484104      -394.1325
   4   2.0000     -14.478371      -393.9765
   5   2.0000     -14.476229      -393.9182
   6   2.0000     -14.471687      -393.7946
   7   2.0000     -14.469713      -393.7409
   8   2.0000     -14.468657      -393.7122
   9   2.0000     -14.461936      -393.5293
  10   2.0000     -14.457476      -393.4079
  11   2.0000     -14.447687      -393.1415
  12   2.0000     -14.446781      -393.1169
  13   2.0000     -14.446276      -393.1032
  14   2.0000     -14.444014      -393.0416
  15   2.0000     -14.442025      -392.9875
  16   2.0000     -14.439872      -392.9289
  17   2.0000     -14.438926      -392.9032
  18   2.0000     -14.434537      -392.7837
  19   2.0000     -14.430107      -392.6632
  20   2.0000     -14.427261      -392.5857
  21   2.0000     -10.409712      -283.2627
  22   2.0000     -10.400716      -283.0179
  23   2.0000     -10.400185      -283.0034
  24   2.0000     -10.390897      -282.7507
  25   2.0000     -10.384176      -282.5678
  26   2.0000     -10.376950      -282.3712
  27   2.0000     -10.374318      -282.2995
  28   2.0000     -10.373453      -282.2760
  29   2.0000     -10.372811      -282.2585
  30   2.0000     -10.369574      -282.1705
  31   2.0000     -10.368972      -282.1541
  32   2.0000     -10.367986      -282.1272
  33   2.0000     -10.363981      -282.0183
  34   2.0000     -10.362621      -281.9813
  35   2.0000     -10.362262      -281.9715
  36   2.0000     -10.360949      -281.9358
  37   2.0000     -10.357433      -281.8401
  38   2.0000     -10.356383      -281.8115
  39   2.0000     -10.355850      -281.7970
  40   2.0000     -10.349036      -281.6116
  41   2.0000     -10.348870      -281.6071
  42   2.0000     -10.348798      -281.6051
  43   2.0000     -10.348243      -281.5900
  44   2.0000     -10.347906      -281.5808
  45   2.0000     -10.347139      -281.5600
  46   2.0000     -10.346829      -281.5515
  47   2.0000     -10.344002      -281.4746
  48   2.0000     -10.343888      -281.4715
  49   2.0000     -10.341840      -281.4158
  50   2.0000     -10.341572      -281.4085
  51   2.0000     -10.340785      -281.3871
  52   2.0000     -10.339078      -281.3406
  53   2.0000     -10.338811      -281.3333
  54   2.0000     -10.338462      -281.3239
  55   2.0000     -10.338400      -281.3222
  56   2.0000     -10.336380      -281.2672
  57   2.0000     -10.335972      -281.2561
  58   2.0000     -10.335363      -281.2395
  59   2.0000     -10.334731      -281.2223
  60   2.0000     -10.333869      -281.1989
  61   2.0000     -10.332868      -281.1716
  62   2.0000     -10.331375      -281.1310
  63   2.0000     -10.330770      -281.1145
  64   2.0000     -10.330152      -281.0977
  65   2.0000     -10.326570      -281.0003
  66   2.0000     -10.323833      -280.9258
  67   2.0000     -10.323240      -280.9096
  68   2.0000     -10.318694      -280.7859
  69   2.0000      -8.152866      -221.8508
  70   2.0000      -6.123867      -166.6389
  71   2.0000      -6.115958      -166.4237
  72   2.0000      -6.115915      -166.4225
  73   2.0000      -1.174376       -31.9564
  74   2.0000      -1.167521       -31.7699
  75   2.0000      -1.165144       -31.7052
  76   2.0000      -1.158967       -31.5371
  77   2.0000      -1.150009       -31.2933
  78   2.0000      -1.137954       -30.9653
  79   2.0000      -1.065980       -29.0068
  80   2.0000      -1.058415       -28.8009
  81   2.0000      -1.049052       -28.5462
  82   2.0000      -1.042540       -28.3690
  83   2.0000      -1.034177       -28.1414
  84   2.0000      -1.030369       -28.0378
  85   2.0000      -1.025442       -27.9037
  86   2.0000      -1.024604       -27.8809
  87   2.0000      -1.020662       -27.7736
  88   2.0000      -1.018471       -27.7140
  89   2.0000      -1.017560       -27.6892
  90   2.0000      -1.015173       -27.6243
  91   2.0000      -1.013530       -27.5795
  92   2.0000      -1.007708       -27.4211
  93   2.0000      -1.005054       -27.3489
  94   2.0000      -0.994981       -27.0748
  95   2.0000      -0.987561       -26.8729
  96   2.0000      -0.971977       -26.4488
  97   2.0000      -0.963876       -26.2284
  98   2.0000      -0.953664       -25.9505
  99   2.0000      -0.942831       -25.6557
 100   2.0000      -0.940577       -25.5944
 101   2.0000      -0.932739       -25.3811
 102   2.0000      -0.924136       -25.1470
 103   2.0000      -0.919436       -25.0191
 104   2.0000      -0.911145       -24.7935
 105   2.0000      -0.907480       -24.6938
 106   2.0000      -0.905207       -24.6319
 107   2.0000      -0.883916       -24.0526
 108   2.0000      -0.854198       -23.2439
 109   2.0000      -0.847085       -23.0504
 110   2.0000      -0.839169       -22.8350
 111   2.0000      -0.825262       -22.4565
 112   2.0000      -0.819953       -22.3121
 113   2.0000      -0.815300       -22.1854
 114   2.0000      -0.799370       -21.7520
 115   2.0000      -0.782726       -21.2991
 116   2.0000      -0.775317       -21.0975
 117   2.0000      -0.770247       -20.9595
 118   2.0000      -0.762679       -20.7536
 119   2.0000      -0.758364       -20.6361
 120   2.0000      -0.755887       -20.5687
 121   2.0000      -0.735192       -20.0056
 122   2.0000      -0.728651       -19.8276
 123   2.0000      -0.722307       -19.6550
 124   2.0000      -0.719951       -19.5909
 125   2.0000      -0.716183       -19.4883
 126   2.0000      -0.713231       -19.4080
 127   2.0000      -0.701994       -19.1022
 128   2.0000      -0.696501       -18.9528
 129   2.0000      -0.689798       -18.7704
 130   2.0000      -0.674995       -18.3675
 131   2.0000      -0.671203       -18.2644
 132   2.0000      -0.665049       -18.0969
 133   2.0000      -0.656421       -17.8621
 134   2.0000      -0.649817       -17.6824
 135   2.0000      -0.646011       -17.5788
 136   2.0000      -0.644545       -17.5390
 137   2.0000      -0.642863       -17.4932
 138   2.0000      -0.630674       -17.1615
 139   2.0000      -0.623229       -16.9589
 140   2.0000      -0.617766       -16.8103
 141   2.0000      -0.613784       -16.7019
 142   2.0000      -0.610585       -16.6149
 143   2.0000      -0.607085       -16.5196
 144   2.0000      -0.597707       -16.2644
 145   2.0000      -0.596134       -16.2216
 146   2.0000      -0.583387       -15.8748
 147   2.0000      -0.581857       -15.8331
 148   2.0000      -0.580413       -15.7939
 149   2.0000      -0.579359       -15.7652
 150   2.0000      -0.573794       -15.6137
 151   2.0000      -0.571955       -15.5637
 152   2.0000      -0.571433       -15.5495
 153   2.0000      -0.563081       -15.3222
 154   2.0000      -0.561250       -15.2724
 155   2.0000      -0.558396       -15.1947
 156   2.0000      -0.556296       -15.1376
 157   2.0000      -0.550457       -14.9787
 158   2.0000      -0.544910       -14.8278
 159   2.0000      -0.542716       -14.7681
 160   2.0000      -0.538069       -14.6416
 161   2.0000      -0.537328       -14.6214
 162   2.0000      -0.533522       -14.5179
 163   2.0000      -0.529957       -14.4209
 164   2.0000      -0.529513       -14.4088
 165   2.0000      -0.527287       -14.3482
 166   2.0000      -0.520116       -14.1531
 167   2.0000      -0.519932       -14.1481
 168   2.0000      -0.518210       -14.1012
 169   2.0000      -0.515486       -14.0271
 170   2.0000      -0.505023       -13.7424
 171   2.0000      -0.500691       -13.6245
 172   2.0000      -0.499372       -13.5886
 173   2.0000      -0.496666       -13.5150
 174   2.0000      -0.494899       -13.4669
 175   2.0000      -0.478504       -13.0208
 176   2.0000      -0.476998       -12.9798
 177   2.0000      -0.476629       -12.9697
 178   2.0000      -0.473549       -12.8859
 179   2.0000      -0.472718       -12.8633
 180   2.0000      -0.471911       -12.8414
 181   2.0000      -0.467795       -12.7293
 182   2.0000      -0.466567       -12.6959
 183   2.0000      -0.465427       -12.6649
 184   2.0000      -0.464624       -12.6431
 185   2.0000      -0.463247       -12.6056
 186   2.0000      -0.462324       -12.5805
 187   2.0000      -0.461804       -12.5663
 188   2.0000      -0.459996       -12.5171
 189   2.0000      -0.458729       -12.4827
 190   2.0000      -0.456722       -12.4280
 191   2.0000      -0.455484       -12.3943
 192   2.0000      -0.455237       -12.3876
 193   2.0000      -0.452845       -12.3225
 194   2.0000      -0.451294       -12.2803
 195   2.0000      -0.450578       -12.2609
 196   2.0000      -0.447599       -12.1798
 197   2.0000      -0.446733       -12.1562
 198   2.0000      -0.445940       -12.1346
 199   2.0000      -0.442276       -12.0349
 200   2.0000      -0.439141       -11.9496
 201   2.0000      -0.438744       -11.9388
 202   2.0000      -0.438160       -11.9229
 203   2.0000      -0.435455       -11.8493
 204   2.0000      -0.431535       -11.7427
 205   2.0000      -0.429809       -11.6957
 206   2.0000      -0.427971       -11.6457
 207   2.0000      -0.426431       -11.6038
 208   2.0000      -0.424097       -11.5403
 209   2.0000      -0.418275       -11.3819
 210   2.0000      -0.409478       -11.1425
 211   2.0000      -0.406179       -11.0527
 212   2.0000      -0.404433       -11.0052
 213   2.0000      -0.394477       -10.7343
 214   2.0000      -0.393508       -10.7079
 215   2.0000      -0.384316       -10.4578
 216   2.0000      -0.377736       -10.2787
 217   2.0000      -0.374213       -10.1829
 218   2.0000      -0.371636       -10.1127
 219   2.0000      -0.368587       -10.0298
 220   2.0000      -0.363794        -9.8993
 221   2.0000      -0.361511        -9.8372
 222   2.0000      -0.356490        -9.7006
 223   2.0000      -0.343478        -9.3465
 224   2.0000      -0.336179        -9.1479
 225   2.0000      -0.317629        -8.6431
 226   2.0000      -0.308671        -8.3994
 227   2.0000      -0.292709        -7.9650
 228   0.0000      -0.142364        -3.8739
 229   0.0000      -0.122726        -3.3396
 230   0.0000      -0.112054        -3.0492
 231   0.0000      -0.106939        -2.9100
 232   0.0000      -0.096685        -2.6309

MULLIKEN ATOMIC CHARGES
-----------------------
   0 C :    0.055318
   1 C :   -0.036513
   2 C :   -0.059381
   3 C :   -0.175381
   4 N :    0.212728
   5 C :   -0.063132
   6 C :   -0.176203
   7 N :    0.204711
   8 C :   -0.022802
   9 C :   -0.017492
  10 C :    0.159087
  11 O :   -0.118489
  12 C :   -0.085644
  13 C :    0.287183
  14 C :   -0.304022
  15 C :   -0.185181
  16 N :    0.182146
  17 C :   -0.202406
  18 N :    0.188186
  19 C :    0.032046
  20 C :   -0.029347
  21 N :   -0.061434
  22 N :   -0.039549
  23 C :   -0.106317
  24 C :    0.054226
  25 C :    0.101930
  26 C :    0.131341
  27 C :   -0.028019
  28 C :   -0.039149
  29 N :    0.064314
  30 C :   -0.134362
  31 C :   -0.105425
  32 N :    0.036447
  33 C :   -0.221455
  34 N :    0.244742
  35 C :   -0.187656
  36 N :    0.228297
  37 C :    0.136998
  38 C :    0.016009
  39 C :   -0.012263
  40 N :   -0.221518
  41 S :    0.558649
  42 N :   -0.280647
  43 C :   -0.069734
  44 N :   -0.043333
  45 N :   -0.068511
  46 C :   -0.036929
  47 C :    0.073229
  48 C :    0.066013
  49 C :    0.063261
  50 C :   -0.096240
  51 C :    0.141833
  52 O :   -0.112457
  53 C :    0.005094
  54 C :   -0.027752
  55 C :   -0.074037
  56 C :   -0.062656
  57 C :   -0.007144
  58 C :    0.019338
  59 C :    0.294363
  60 C :   -0.291918
  61 C :   -0.170947
  62 N :    0.161616
  63 C :   -0.217155
  64 N :    0.199532
  65 C :   -0.168849
  66 N :    0.207057
  67 C :   -0.171648
  68 N :    0.196674
  69 H :    0.024473
  70 H :    0.020606
  71 H :    0.055201
  72 H :    0.006789
  73 H :    0.005191
  74 H :    0.004759
  75 H :    0.011349
  76 H :    0.033972
  77 H :    0.018016
  78 H :    0.030377
Sum of atomic charges:   -0.0000000

LOEWDIN ATOMIC CHARGES
----------------------
   0 C :    0.002887
   1 C :    0.036597
   2 C :   -0.018950
   3 C :   -0.032425
   4 N :   -0.003389
   5 C :   -0.025136
   6 C :   -0.032883
   7 N :   -0.006686
   8 C :    0.053203
   9 C :   -0.032611
  10 C :    0.086873
  11 O :   -0.111890
  12 C :   -0.077654
  13 C :    0.065102
  14 C :   -0.104355
  15 C :   -0.021404
  16 N :   -0.021208
  17 C :   -0.024581
  18 N :   -0.017967
  19 C :    0.089304
  20 C :   -0.026330
  21 N :   -0.031792
  22 N :   -0.024141
  23 C :   -0.000229
  24 C :    0.016437
  25 C :    0.026940
  26 C :   -0.015292
  27 C :   -0.004941
  28 C :    0.016762
  29 N :    0.040861
  30 C :   -0.044042
  31 C :   -0.011876
  32 N :   -0.013806
  33 C :   -0.037488
  34 N :    0.004764
  35 C :   -0.014934
  36 N :   -0.016568
  37 C :   -0.020857
  38 C :   -0.040633
  39 C :   -0.034181
  40 N :   -0.247127
  41 S :    0.695213
  42 N :   -0.295608
  43 C :    0.010382
  44 N :    0.005990
  45 N :   -0.038889
  46 C :   -0.018026
  47 C :    0.010231
  48 C :    0.031226
  49 C :    0.059474
  50 C :   -0.049706
  51 C :    0.087353
  52 O :   -0.114186
  53 C :   -0.035270
  54 C :    0.049889
  55 C :   -0.027171
  56 C :   -0.018378
  57 C :    0.046746
  58 C :    0.007731
  59 C :    0.073422
  60 C :   -0.104515
  61 C :   -0.013607
  62 N :   -0.045554
  63 C :   -0.026913
  64 N :   -0.025324
  65 C :   -0.029696
  66 N :   -0.006329
  67 C :   -0.031968
  68 N :   -0.012184
  69 H :    0.053695
  70 H :    0.055828
  71 H :    0.056157
  72 H :    0.039494
  73 H :    0.039564
  74 H :    0.042794
  75 H :    0.044553
  76 H :    0.051639
  77 H :    0.054732
  78 H :    0.052856

  Mayer bond orders larger than 0.100000
B(  0-C ,  1-C ) :   1.3511 B(  0-C ,  9-C ) :   1.3275 B(  0-C , 13-C ) :   0.9758
B(  1-C ,  2-C ) :   1.4005 B(  1-C , 69-H ) :   0.9867 B(  2-C ,  3-C ) :   1.0873
B(  2-C ,  5-C ) :   1.3957 B(  3-C ,  4-N ) :   3.0459 B(  5-C ,  6-C ) :   1.0884
B(  5-C ,  8-C ) :   1.3690 B(  6-C ,  7-N ) :   3.0448 B(  8-C ,  9-C ) :   1.3633
B(  8-C , 70-H ) :   1.0142 B(  9-C , 10-C ) :   0.9296 B( 10-C , 11-O ) :   2.2488
B( 10-C , 12-C ) :   0.9228 B( 12-C , 13-C ) :   1.0261 B( 12-C , 19-C ) :   1.7384
B( 13-C , 14-C ) :   1.7027 B( 14-C , 15-C ) :   1.1366 B( 14-C , 17-C ) :   1.1350
B( 15-C , 16-N ) :   2.9696 B( 17-C , 18-N ) :   2.9983 B( 19-C , 20-C ) :   1.0191
B( 19-C , 71-H ) :   0.9445 B( 20-C , 21-N ) :   1.4883 B( 20-C , 25-C ) :   1.3160
B( 21-N , 22-N ) :   1.3757 B( 22-N , 23-C ) :   1.5357 B( 23-C , 24-C ) :   1.3274
B( 23-C , 26-C ) :   0.9848 B( 24-C , 25-C ) :   1.4201 B( 24-C , 72-H ) :   0.9773
B( 25-C , 73-H ) :   0.9738 B( 26-C , 27-C ) :   1.3568 B( 26-C , 37-C ) :   0.1346
B( 26-C , 39-C ) :   1.2310 B( 27-C , 28-C ) :   1.1183 B( 27-C , 32-N ) :   1.3882
B( 28-C , 29-N ) :   1.3706 B( 28-C , 37-C ) :   1.3192 B( 29-N , 30-C ) :   1.6926
B( 30-C , 31-C ) :   1.1687 B( 30-C , 35-C ) :   1.1790 B( 31-C , 32-N ) :   1.7590
B( 31-C , 33-C ) :   1.1577 B( 33-C , 34-N ) :   3.0476 B( 35-C , 36-N ) :   3.0028
B( 37-C , 38-C ) :   1.2248 B( 37-C , 43-C ) :   1.0410 B( 38-C , 39-C ) :   1.0989
B( 38-C , 42-N ) :   1.5319 B( 39-C , 40-N ) :   1.5231 B( 40-N , 41-S ) :   1.3160
B( 40-N , 42-N ) :   0.1518 B( 41-S , 42-N ) :   1.2649 B( 43-C , 44-N ) :   1.4203
B( 43-C , 48-C ) :   1.3414 B( 44-N , 45-N ) :   1.3927 B( 45-N , 46-C ) :   1.4627
B( 46-C , 47-C ) :   1.2977 B( 46-C , 49-C ) :   1.0012 B( 47-C , 48-C ) :   1.3924
B( 47-C , 74-H ) :   0.9886 B( 48-C , 75-H ) :   0.9712 B( 49-C , 50-C ) :   1.7801
B( 49-C , 76-H ) :   0.9516 B( 50-C , 51-C ) :   0.9245 B( 50-C , 59-C ) :   0.9992
B( 51-C , 52-O ) :   2.3060 B( 51-C , 53-C ) :   0.9003 B( 53-C , 54-C ) :   1.3634
B( 53-C , 58-C ) :   1.3231 B( 54-C , 55-C ) :   1.3770 B( 54-C , 77-H ) :   1.0133
B( 55-C , 56-C ) :   1.3890 B( 55-C , 67-C ) :   1.0913 B( 56-C , 57-C ) :   1.3966
B( 56-C , 65-C ) :   1.0892 B( 57-C , 58-C ) :   1.3630 B( 57-C , 78-H ) :   0.9785
B( 58-C , 59-C ) :   0.9843 B( 59-C , 60-C ) :   1.7128 B( 60-C , 61-C ) :   1.1561
B( 60-C , 63-C ) :   1.1361 B( 61-C , 62-N ) :   2.9717 B( 63-C , 64-N ) :   2.9963
B( 65-C , 66-N ) :   3.0421 B( 67-C , 68-N ) :   3.0445

-----------------------------------------------------------------------------
         ABSORPTION SPECTRUM VIA TRANSITION ELECTRIC DIPOLE MOMENTS
-----------------------------------------------------------------------------
State   Energy  Wavelength   fosc         T2         TX        TY        TZ
        (cm-1)    (nm)                  (au**2)     (au)      (au)      (au)
-----------------------------------------------------------------------------
   0   13613.8    734.5   0.232862601   5.63112  -1.77145  -1.43720   0.65387
   1   15627.7    639.9   0.005998582   0.12637  -0.20599  -0.28108   0.07023
   2   19195.7    520.9   0.420368269   7.20942   2.02356   1.75535  -0.18267
   3   20005.4    499.9   0.009836158   0.16187  -0.26875   0.28432  -0.09381
   4   20156.8    496.1   0.016401328   0.26788   0.32960   0.39108   0.07934
   5   24930.9    401.1   0.051360276   0.67821  -0.63946  -0.51418   0.07012
   6   25098.0    398.4   0.061972723   0.81290  -0.72017  -0.50269   0.20386
   7   25416.8    393.4   0.105150476   1.36196   0.96221   0.63123  -0.19405
   8   26044.7    384.0   0.048148974   0.60862  -0.16825   0.58804  -0.48427
   9   26268.6    380.7   0.012015587   0.15059  -0.29448   0.01316   0.25238
  10   26716.3    374.3   0.088775235   1.09393   0.79503   0.65622  -0.17670
  11   27195.1    367.7   0.002848867   0.03449  -0.17669   0.04092   0.03992
  12   27737.2    360.5   0.021673551   0.25724   0.13281   0.30750   0.38085
  13   28036.6    356.7   0.031911697   0.37471   0.00640   0.45086  -0.41400
  14   28888.0    346.2   0.037764093   0.43037   0.51699  -0.24621  -0.32011
  15   29241.9    342.0   0.022911189   0.25794  -0.27738   0.37140   0.20752
  16   29719.6    336.5   0.005662007   0.06272  -0.17257   0.18024   0.02129
  17   29988.9    333.5   0.009653552   0.10597   0.16536   0.16350  -0.22781
  18   30220.1    330.9   0.093124204   1.01448   0.64873   0.75811   0.13746
  19   30631.6    326.5   0.010888188   0.11702   0.17189   0.07429  -0.28628
  20   31029.2    322.3   0.170245552   1.80626   0.00796  -0.09598   1.34052
  21   31114.7    321.4   0.025761551   0.27257  -0.46480   0.23776  -0.00277
  22   31473.9    317.7   0.034148226   0.35718  -0.25792   0.26578  -0.46907
  23   31623.8    316.2   0.046341983   0.48243   0.55167  -0.21301  -0.36431
  24   31661.8    315.8   0.164103188   1.70631   1.13606   0.64440   0.02080
  25   32079.9    311.7   0.129122518   1.32509   0.52958   0.48064  -0.90201
  26   32230.0    310.3   0.145350317   1.48467   0.96946   0.29880  -0.67494
  27   32546.5    307.3   0.104970950   1.06180   1.00717   0.20135   0.08282
  28   32656.5    306.2   0.044347250   0.44707  -0.15966  -0.27754   0.58698
  29   33605.8    297.6   0.270109189   2.64606   0.96837  -1.25998  -0.34751
  30   33898.1    295.0   0.083611000   0.81201  -0.49770  -0.39583   0.63846
  31   33938.3    294.7   0.107189548   1.03977  -0.80495   0.59299   0.20048
  32   34362.7    291.0   0.159887254   1.53180   0.16692  -1.17808   0.34069
  33   34804.7    287.3   0.060858238   0.57565   0.11714  -0.44963  -0.59980
  34   35020.8    285.5   0.055585673   0.52253   0.44172   0.38090  -0.42701
  35   35195.7    284.1   0.234158746   2.19026  -0.41898  -0.04178   1.41879
  36   35304.5    283.2   0.298594492   2.78437   1.48177  -0.15733  -0.75098
  37   35881.4    278.7   0.048533399   0.44529   0.30742  -0.21730  -0.55097
  38   35906.0    278.5   0.323818714   2.96900  -0.64266  -1.18364   1.07470
  39   35953.6    278.1   0.083789446   0.76722   0.53798   0.43529  -0.53696
  40   36184.1    276.4   0.009813466   0.08929   0.25453   0.02397   0.15467
  41   36567.9    273.5   0.292337071   2.63184  -1.54276   0.49692  -0.06938
  42   36881.7    271.1   0.239510877   2.13791   0.63948  -0.43495   1.24088
  43   37121.5    269.4   0.001372878   0.01218  -0.06854   0.04475  -0.07400
  44   37291.6    268.2   0.219097704   1.93421   0.40354  -0.58971  -1.19315
  45   37650.9    265.6   0.014128342   0.12354   0.14195   0.30627  -0.09791
  46   37662.4    265.5   0.059769927   0.52246   0.59650   0.40813   0.00845
  47   38070.7    262.7   0.245332436   2.12149  -0.13883  -0.00835   1.44988
  48   38631.7    258.9   0.033615525   0.28647  -0.21445   0.03128   0.48938
  49   38655.1    258.7   0.077268024   0.65806  -0.20284  -0.28601   0.73152
  50   38846.6    257.4   0.112131008   0.95027  -0.78899  -0.56883  -0.06478
  51   38957.6    256.7   0.088757207   0.75004  -0.65488  -0.21260   0.52534
  52   39076.2    255.9   0.041021734   0.34560   0.35763   0.39227  -0.25263
  53   39510.4    253.1   0.142707860   1.18908   0.13244  -0.09477   1.07822
  54   40056.8    249.6   0.228600121   1.87878   1.03399   0.44451  -0.78234

FINAL SINGLE POINT ENERGY     -3365.103145752043

DIPOLE MOMENT
-------------
                                X             Y             Z
Electronic contribution:      1.07802       1.88535      -0.50112
Nuclear contribution   :     -2.86403      -2.97869      -3.74743
                        -----------------------------------------
Total Dipole Moment    :     -1.78601      -1.09334      -4.24855
                        -----------------------------------------
Magnitude (a.u.)       :      4.73661
Magnitude (Debye)      :     12.03950

Rotational constants in cm-1:     0.002357     0.000357     0.000338
Rotational constants in MHz :    70.657836    10.691138    10.132852

                             ****ORCA TERMINATED NORMALLY****
TOTAL RUN TIME: 0 days 0 hours 17 minutes 13 seconds 882 msec
