                         Program Version 4.2.0 -  RELEASE  -
|  1> # ORCA input file
|  2> # SCF done       -162.319417625205          0.000658599868
|  3> ! CAM-B3LYP def2-SVP def2/J RIJCOSX Grid4 TightSCF
|  4> %maxcore 5000
|  5> %tddft
|  6>     Mode sTDDFT
|  7>     Ethresh 5.0
|  8>     maxcore 5000
|  9> end
| 10>
| 11> %pal
| 12>   nprocs 6
| 13>   end
| 14> * xyz 0 1
| 15>    C       -1.67592        -3.44304         5.17607
| 16>    C       -1.19876        -2.60704         6.17373
| 17>    C       -1.65380        -2.80134         7.47843
| 18>    C       -1.17980        -1.95682         8.51365
| 19>    N       -0.79326        -1.27154         9.34491
| 20>    C       -2.57608        -3.82040         7.78779
| 21>    C       -3.01164        -3.99828         9.12322
| 22>    N       -3.37437        -4.15970        10.19714
| 23>    C       -3.06071        -4.65416         6.77951
| 24>    C       -2.60556        -4.45184         5.49328
| 25>    C       -2.97274        -5.20207         4.27104
| 26>    O       -3.73913        -6.13395         4.20845
| 27>    C       -2.23706        -4.52864         3.16302
| 28>    C       -1.38555        -3.49919         3.74610
| 29>    C       -0.42664        -2.77323         3.09704
| 30>    C        0.39261        -1.80665         3.72200
| 31>    N        1.08017        -1.01058         4.17915
| 32>    C       -0.09010        -2.91722         1.73181
| 33>    N        0.25945        -2.99644         0.64221
| 34>    C       -2.46350        -4.72376         1.84208
| 35>    C       -3.29621        -5.75279         1.26176
| 36>    N       -4.09392        -5.36092         0.25906
| 37>    N       -4.84381        -6.18395        -0.35814
| 38>    C       -4.89595        -7.47652        -0.02887
| 39>    C       -4.11704        -7.97410         1.02615
| 40>    C       -3.27717        -7.09567         1.67041
| 41>    C       -5.77485        -8.31696        -0.82940
| 42>    C       -6.56208        -9.33882        -0.26873
| 43>    C       -7.46377       -10.11965        -1.07315
| 44>    N       -8.20745       -11.09244        -0.49593
| 45>    C       -8.09028       -11.28782         0.78388
| 46>    C       -7.21973       -10.50560         1.57867
| 47>    N       -6.48419        -9.56503         1.06457
| 48>    C       -7.56866        -9.92046        -2.46299
| 49>    C       -6.77628        -8.91172        -3.02424
| 50>    C       -5.89154        -8.10679        -2.20839
| 51>    N       -5.22206        -7.21208        -2.94347
| 52>    S       -5.68543        -7.34593        -4.46526
| 53>    N       -6.73757        -8.53760        -4.30805
| 54>    C       -8.40460       -10.76560        -3.29808
| 55>    N       -7.91665       -11.09127        -4.49537
| 56>    N       -8.53822       -11.87005        -5.28927
| 57>    C       -9.69039       -12.45424        -4.93560
| 58>    C      -10.30611       -12.13033        -3.71586
| 59>    C       -9.66262       -11.24099        -2.88980
| 60>    C      -10.28067       -13.36761        -5.88279
| 61>    C       -9.60456       -14.17301        -6.72961
| 62>    C      -10.29121       -14.77940        -7.90681
| 63>    O      -11.47922       -14.88291        -8.08373
| 64>    C       -9.19417       -15.16623        -8.82347
| 65>    C       -9.28319       -15.64918       -10.11272
| 66>    C       -8.09781       -15.91523       -10.79942
| 67>    C       -6.85292       -15.68240       -10.18180
| 68>    C       -6.77301       -15.20120        -8.87439
| 69>    C       -7.95181       -14.95023        -8.19213
| 70>    C       -8.18715       -14.48726        -6.82622
| 71>    C       -7.29846       -14.58043        -5.79514
| 72>    C       -7.64402       -14.36638        -4.44235
| 73>    N       -7.89599       -14.26767        -3.32774
| 74>    C       -5.95782       -14.99658        -5.94654
| 75>    N       -4.86177       -15.32497        -6.02486
| 76>    C       -5.66049       -15.94125       -10.90331
| 77>    N       -4.69423       -16.14425       -11.48237
| 78>    C       -8.14544       -16.41583       -12.12326
| 79>    N       -8.20396       -16.82003       -13.19287
| 80>    H       -0.49560        -1.81408         5.97479
| 81>    H       -3.77129        -5.43691         6.99788
| 82>    H       -2.05176        -4.02863         1.12150
| 83>    H       -4.15544        -9.01856         1.28665
| 84>    H       -2.59168        -7.43006         2.43183
| 85>    H       -8.69376       -12.07579         1.21295
| 86>    H       -7.13368       -10.66183         2.64525
| 87>    H      -11.24461       -12.58592        -3.44066
| 88>    H      -10.08808       -10.92022        -1.95393
| 89>    H      -11.36035       -13.35168        -5.97874
| 90>    H      -10.24312       -15.81597       -10.57744
| 91>    H       -5.80519       -15.02592        -8.43155
| 92> *
| 93>
| 94>                          ****END OF INPUT****

CARTESIAN COORDINATES (ANGSTROEM)
---------------------------------
  C     -1.675920   -3.443040    5.176070
  C     -1.198760   -2.607040    6.173730
  C     -1.653800   -2.801340    7.478430
  C     -1.179800   -1.956820    8.513650
  N     -0.793260   -1.271540    9.344910
  C     -2.576080   -3.820400    7.787790
  C     -3.011640   -3.998280    9.123220
  N     -3.374370   -4.159700   10.197140
  C     -3.060710   -4.654160    6.779510
  C     -2.605560   -4.451840    5.493280
  C     -2.972740   -5.202070    4.271040
  O     -3.739130   -6.133950    4.208450
  C     -2.237060   -4.528640    3.163020
  C     -1.385550   -3.499190    3.746100
  C     -0.426640   -2.773230    3.097040
  C      0.392610   -1.806650    3.722000
  N      1.080170   -1.010580    4.179150
  C     -0.090100   -2.917220    1.731810
  N      0.259450   -2.996440    0.642210
  C     -2.463500   -4.723760    1.842080
  C     -3.296210   -5.752790    1.261760
  N     -4.093920   -5.360920    0.259060
  N     -4.843810   -6.183950   -0.358140
  C     -4.895950   -7.476520   -0.028870
  C     -4.117040   -7.974100    1.026150
  C     -3.277170   -7.095670    1.670410
  C     -5.774850   -8.316960   -0.829400
  C     -6.562080   -9.338820   -0.268730
  C     -7.463770  -10.119650   -1.073150
  N     -8.207450  -11.092440   -0.495930
  C     -8.090280  -11.287820    0.783880
  C     -7.219730  -10.505600    1.578670
  N     -6.484190   -9.565030    1.064570
  C     -7.568660   -9.920460   -2.462990
  C     -6.776280   -8.911720   -3.024240
  C     -5.891540   -8.106790   -2.208390
  N     -5.222060   -7.212080   -2.943470
  S     -5.685430   -7.345930   -4.465260
  N     -6.737570   -8.537600   -4.308050
  C     -8.404600  -10.765600   -3.298080
  N     -7.916650  -11.091270   -4.495370
  N     -8.538220  -11.870050   -5.289270
  C     -9.690390  -12.454240   -4.935600
  C    -10.306110  -12.130330   -3.715860
  C     -9.662620  -11.240990   -2.889800
  C    -10.280670  -13.367610   -5.882790
  C     -9.604560  -14.173010   -6.729610
  C    -10.291210  -14.779400   -7.906810
  O    -11.479220  -14.882910   -8.083730
  C     -9.194170  -15.166230   -8.823470
  C     -9.283190  -15.649180  -10.112720
  C     -8.097810  -15.915230  -10.799420
  C     -6.852920  -15.682400  -10.181800
  C     -6.773010  -15.201200   -8.874390
  C     -7.951810  -14.950230   -8.192130
  C     -8.187150  -14.487260   -6.826220
  C     -7.298460  -14.580430   -5.795140
  C     -7.644020  -14.366380   -4.442350
  N     -7.895990  -14.267670   -3.327740
  C     -5.957820  -14.996580   -5.946540
  N     -4.861770  -15.324970   -6.024860
  C     -5.660490  -15.941250  -10.903310
  N     -4.694230  -16.144250  -11.482370
  C     -8.145440  -16.415830  -12.123260
  N     -8.203960  -16.820030  -13.192870
  H     -0.495600   -1.814080    5.974790
  H     -3.771290   -5.436910    6.997880
  H     -2.051760   -4.028630    1.121500
  H     -4.155440   -9.018560    1.286650
  H     -2.591680   -7.430060    2.431830
  H     -8.693760  -12.075790    1.212950
  H     -7.133680  -10.661830    2.645250
  H    -11.244610  -12.585920   -3.440660
  H    -10.088080  -10.920220   -1.953930
  H    -11.360350  -13.351680   -5.978740
  H    -10.243120  -15.815970  -10.577440
  H     -5.805190  -15.025920   -8.431550

 Total Charge           Charge          ....    0
 Multiplicity           Mult            ....    1
 Number of Electrons    NEL             ....  432
 Basis Dimension        Dim             ....  974

ORBITAL ENERGIES
----------------

  NO   OCC          E(Eh)            E(eV)
   0   2.0000     -89.043259     -2422.9902
   1   2.0000     -19.253642      -523.9182
   2   2.0000     -19.246127      -523.7137
   3   2.0000     -14.457121      -393.3982
   4   2.0000     -14.453976      -393.3127
   5   2.0000     -14.452847      -393.2820
   6   2.0000     -14.449888      -393.2014
   7   2.0000     -14.449429      -393.1890
   8   2.0000     -14.447789      -393.1443
   9   2.0000     -14.445997      -393.0956
  10   2.0000     -14.445918      -393.0934
  11   2.0000     -14.443863      -393.0375
  12   2.0000     -14.442541      -393.0015
  13   2.0000     -14.437922      -392.8758
  14   2.0000     -14.436737      -392.8436
  15   2.0000     -14.436594      -392.8397
  16   2.0000     -14.435401      -392.8072
  17   2.0000     -14.432122      -392.7180
  18   2.0000     -14.431623      -392.7044
  19   2.0000     -10.405175      -283.1392
  20   2.0000     -10.396634      -282.9068
  21   2.0000     -10.379373      -282.4371
  22   2.0000     -10.372741      -282.2566
  23   2.0000     -10.371331      -282.2183
  24   2.0000     -10.370571      -282.1976
  25   2.0000     -10.370374      -282.1922
  26   2.0000     -10.365545      -282.0608
  27   2.0000     -10.364720      -282.0384
  28   2.0000     -10.364139      -282.0225
  29   2.0000     -10.352223      -281.6983
  30   2.0000     -10.347262      -281.5633
  31   2.0000     -10.346859      -281.5523
  32   2.0000     -10.345996      -281.5289
  33   2.0000     -10.345733      -281.5217
  34   2.0000     -10.345321      -281.5105
  35   2.0000     -10.345061      -281.5034
  36   2.0000     -10.344985      -281.5014
  37   2.0000     -10.344280      -281.4822
  38   2.0000     -10.343737      -281.4674
  39   2.0000     -10.342741      -281.4403
  40   2.0000     -10.341866      -281.4165
  41   2.0000     -10.341040      -281.3940
  42   2.0000     -10.340982      -281.3924
  43   2.0000     -10.340590      -281.3818
  44   2.0000     -10.339848      -281.3616
  45   2.0000     -10.339484      -281.3517
  46   2.0000     -10.338747      -281.3316
  47   2.0000     -10.338712      -281.3307
  48   2.0000     -10.337305      -281.2924
  49   2.0000     -10.337283      -281.2918
  50   2.0000     -10.337143      -281.2880
  51   2.0000     -10.336593      -281.2730
  52   2.0000     -10.334169      -281.2070
  53   2.0000     -10.333116      -281.1784
  54   2.0000     -10.332488      -281.1613
  55   2.0000     -10.331456      -281.1332
  56   2.0000     -10.328592      -281.0553
  57   2.0000     -10.327714      -281.0314
  58   2.0000     -10.326140      -280.9885
  59   2.0000     -10.319573      -280.8099
  60   2.0000     -10.319292      -280.8022
  61   2.0000     -10.318706      -280.7863
  62   2.0000     -10.316392      -280.7233
  63   2.0000     -10.315041      -280.6865
  64   2.0000     -10.310203      -280.5549
  65   2.0000      -8.134554      -221.3525
  66   2.0000      -6.105362      -166.1353
  67   2.0000      -6.098028      -165.9358
  68   2.0000      -6.097460      -165.9203
  69   2.0000      -1.169730       -31.8300
  70   2.0000      -1.161735       -31.6124
  71   2.0000      -1.144692       -31.1487
  72   2.0000      -1.140879       -31.0449
  73   2.0000      -1.137192       -30.9446
  74   2.0000      -1.106114       -30.0989
  75   2.0000      -1.054742       -28.7010
  76   2.0000      -1.048280       -28.5251
  77   2.0000      -1.039149       -28.2767
  78   2.0000      -1.032500       -28.0957
  79   2.0000      -1.031541       -28.0697
  80   2.0000      -1.022188       -27.8152
  81   2.0000      -1.020614       -27.7723
  82   2.0000      -1.016329       -27.6557
  83   2.0000      -1.016122       -27.6501
  84   2.0000      -1.014157       -27.5966
  85   2.0000      -1.011079       -27.5128
  86   2.0000      -0.994409       -27.0592
  87   2.0000      -0.991583       -26.9824
  88   2.0000      -0.987493       -26.8710
  89   2.0000      -0.983266       -26.7560
  90   2.0000      -0.959191       -26.1009
  91   2.0000      -0.954280       -25.9673
  92   2.0000      -0.939988       -25.5784
  93   2.0000      -0.938759       -25.5449
  94   2.0000      -0.931615       -25.3505
  95   2.0000      -0.926775       -25.2188
  96   2.0000      -0.916207       -24.9313
  97   2.0000      -0.909633       -24.7524
  98   2.0000      -0.902975       -24.5712
  99   2.0000      -0.898959       -24.4619
 100   2.0000      -0.885078       -24.0842
 101   2.0000      -0.868156       -23.6237
 102   2.0000      -0.842461       -22.9245
 103   2.0000      -0.834255       -22.7012
 104   2.0000      -0.821438       -22.3525
 105   2.0000      -0.814842       -22.1730
 106   2.0000      -0.806911       -21.9572
 107   2.0000      -0.786122       -21.3915
 108   2.0000      -0.780018       -21.2254
 109   2.0000      -0.770931       -20.9781
 110   2.0000      -0.763642       -20.7798
 111   2.0000      -0.758069       -20.6281
 112   2.0000      -0.757034       -20.5999
 113   2.0000      -0.750539       -20.4232
 114   2.0000      -0.731101       -19.8943
 115   2.0000      -0.724317       -19.7097
 116   2.0000      -0.720329       -19.6011
 117   2.0000      -0.714948       -19.4547
 118   2.0000      -0.714066       -19.4307
 119   2.0000      -0.699751       -19.0412
 120   2.0000      -0.695481       -18.9250
 121   2.0000      -0.689115       -18.7518
 122   2.0000      -0.671415       -18.2701
 123   2.0000      -0.669872       -18.2281
 124   2.0000      -0.663812       -18.0632
 125   2.0000      -0.653790       -17.7905
 126   2.0000      -0.644054       -17.5256
 127   2.0000      -0.643055       -17.4984
 128   2.0000      -0.634471       -17.2648
 129   2.0000      -0.631550       -17.1854
 130   2.0000      -0.630118       -17.1464
 131   2.0000      -0.618399       -16.8275
 132   2.0000      -0.615874       -16.7588
 133   2.0000      -0.609880       -16.5957
 134   2.0000      -0.607510       -16.5312
 135   2.0000      -0.605215       -16.4687
 136   2.0000      -0.591306       -16.0903
 137   2.0000      -0.580108       -15.7855
 138   2.0000      -0.578847       -15.7512
 139   2.0000      -0.575898       -15.6710
 140   2.0000      -0.574997       -15.6465
 141   2.0000      -0.573814       -15.6143
 142   2.0000      -0.571256       -15.5447
 143   2.0000      -0.567986       -15.4557
 144   2.0000      -0.567085       -15.4312
 145   2.0000      -0.562009       -15.2930
 146   2.0000      -0.555029       -15.1031
 147   2.0000      -0.551933       -15.0188
 148   2.0000      -0.549387       -14.9496
 149   2.0000      -0.547969       -14.9110
 150   2.0000      -0.542545       -14.7634
 151   2.0000      -0.540131       -14.6977
 152   2.0000      -0.537173       -14.6172
 153   2.0000      -0.533644       -14.5212
 154   2.0000      -0.529447       -14.4070
 155   2.0000      -0.527212       -14.3462
 156   2.0000      -0.525598       -14.3022
 157   2.0000      -0.521017       -14.1776
 158   2.0000      -0.519442       -14.1347
 159   2.0000      -0.513700       -13.9785
 160   2.0000      -0.512597       -13.9485
 161   2.0000      -0.510956       -13.9038
 162   2.0000      -0.509252       -13.8574
 163   2.0000      -0.500014       -13.6061
 164   2.0000      -0.499118       -13.5817
 165   2.0000      -0.495056       -13.4712
 166   2.0000      -0.479816       -13.0564
 167   2.0000      -0.472971       -12.8702
 168   2.0000      -0.470867       -12.8129
 169   2.0000      -0.469333       -12.7712
 170   2.0000      -0.468004       -12.7350
 171   2.0000      -0.464485       -12.6393
 172   2.0000      -0.463469       -12.6116
 173   2.0000      -0.462978       -12.5983
 174   2.0000      -0.462820       -12.5940
 175   2.0000      -0.460577       -12.5329
 176   2.0000      -0.460104       -12.5201
 177   2.0000      -0.457484       -12.4488
 178   2.0000      -0.456677       -12.4268
 179   2.0000      -0.455413       -12.3924
 180   2.0000      -0.454861       -12.3774
 181   2.0000      -0.453059       -12.3284
 182   2.0000      -0.451726       -12.2921
 183   2.0000      -0.447081       -12.1657
 184   2.0000      -0.445442       -12.1211
 185   2.0000      -0.444151       -12.0860
 186   2.0000      -0.439502       -11.9595
 187   2.0000      -0.438006       -11.9188
 188   2.0000      -0.437504       -11.9051
 189   2.0000      -0.436767       -11.8850
 190   2.0000      -0.435205       -11.8425
 191   2.0000      -0.433438       -11.7944
 192   2.0000      -0.431654       -11.7459
 193   2.0000      -0.425665       -11.5829
 194   2.0000      -0.421892       -11.4803
 195   2.0000      -0.416993       -11.3470
 196   2.0000      -0.415885       -11.3168
 197   2.0000      -0.404106       -10.9963
 198   2.0000      -0.400310       -10.8930
 199   2.0000      -0.397423       -10.8144
 200   2.0000      -0.392826       -10.6894
 201   2.0000      -0.386515       -10.5176
 202   2.0000      -0.379588       -10.3291
 203   2.0000      -0.375028       -10.2050
 204   2.0000      -0.373706       -10.1691
 205   2.0000      -0.371237       -10.1019
 206   2.0000      -0.366268        -9.9667
 207   2.0000      -0.357169        -9.7191
 208   2.0000      -0.352253        -9.5853
 209   2.0000      -0.349582        -9.5126
 210   2.0000      -0.343811        -9.3556
 211   2.0000      -0.338106        -9.2003
 212   2.0000      -0.332689        -9.0529
 213   2.0000      -0.305994        -8.3265
 214   2.0000      -0.302515        -8.2319
 215   2.0000      -0.288585        -7.8528
 216   0.0000      -0.124297        -3.3823
 217   0.0000      -0.116152        -3.1607
 218   0.0000      -0.108511        -2.9527
 219   0.0000      -0.101071        -2.7503
 220   0.0000      -0.094594        -2.5740

MULLIKEN ATOMIC CHARGES
-----------------------
   0 C :    0.050811
   1 C :   -0.037836
   2 C :   -0.058591
   3 C :   -0.173375
   4 N :    0.208224
   5 C :   -0.063639
   6 C :   -0.173585
   7 N :    0.202140
   8 C :   -0.028928
   9 C :   -0.012913
  10 C :    0.153711
  11 O :   -0.119462
  12 C :   -0.083427
  13 C :    0.292319
  14 C :   -0.306245
  15 C :   -0.186141
  16 N :    0.176739
  17 C :   -0.204517
  18 N :    0.190204
  19 C :    0.032380
  20 C :   -0.023427
  21 N :   -0.063877
  22 N :   -0.039628
  23 C :   -0.104637
  24 C :    0.061487
  25 C :    0.088372
  26 C :    0.116169
  27 C :   -0.049766
  28 C :   -0.039441
  29 N :   -0.023148
  30 C :    0.034461
  31 C :    0.029870
  32 N :   -0.024953
  33 C :    0.106815
  34 C :    0.001778
  35 C :    0.001810
  36 N :   -0.241256
  37 S :    0.552193
  38 N :   -0.244550
  39 C :   -0.099598
  40 N :   -0.034621
  41 N :   -0.077905
  42 C :   -0.024079
  43 C :    0.049588
  44 C :    0.100035
  45 C :    0.066698
  46 C :   -0.101667
  47 C :    0.140714
  48 O :   -0.117239
  49 C :    0.003720
  50 C :   -0.030756
  51 C :   -0.067023
  52 C :   -0.060585
  53 C :   -0.034433
  54 C :    0.035133
  55 C :    0.290542
  56 C :   -0.281605
  57 C :   -0.182484
  58 N :    0.171446
  59 C :   -0.191191
  60 N :    0.176608
  61 C :   -0.170963
  62 N :    0.204652
  63 C :   -0.173212
  64 N :    0.199176
  65 H :    0.023923
  66 H :    0.019037
  67 H :    0.053438
  68 H :   -0.002804
  69 H :   -0.001862
  70 H :    0.023261
  71 H :    0.024088
  72 H :   -0.002379
  73 H :   -0.002224
  74 H :    0.033329
  75 H :    0.018417
  76 H :    0.026679
Sum of atomic charges:    0.0000000

LOEWDIN ATOMIC CHARGES
----------------------
   0 C :    0.002639
   1 C :    0.036322
   2 C :   -0.020095
   3 C :   -0.032092
   4 N :   -0.005297
   5 C :   -0.026355
   6 C :   -0.032567
   7 N :   -0.009157
   8 C :    0.051572
   9 C :   -0.032013
  10 C :    0.085624
  11 O :   -0.113314
  12 C :   -0.083942
  13 C :    0.065905
  14 C :   -0.106993
  15 C :   -0.021005
  16 N :   -0.024445
  17 C :   -0.025432
  18 N :   -0.018823
  19 C :    0.093676
  20 C :   -0.032182
  21 N :   -0.032006
  22 N :   -0.025109
  23 C :    0.008458
  24 C :    0.013213
  25 C :    0.022636
  26 C :   -0.019966
  27 C :   -0.007451
  28 C :   -0.004797
  29 N :   -0.027205
  30 C :    0.015458
  31 C :    0.013608
  32 N :   -0.031323
  33 C :   -0.023771
  34 C :   -0.038187
  35 C :   -0.038699
  36 N :   -0.271522
  37 S :    0.698868
  38 N :   -0.273711
  39 C :    0.009069
  40 N :   -0.018004
  41 N :   -0.041412
  42 C :   -0.030899
  43 C :    0.010075
  44 C :    0.026978
  45 C :    0.070352
  46 C :   -0.061230
  47 C :    0.086359
  48 O :   -0.118260
  49 C :   -0.033634
  50 C :    0.051576
  51 C :   -0.028575
  52 C :   -0.020062
  53 C :    0.035391
  54 C :    0.008727
  55 C :    0.070902
  56 C :   -0.099231
  57 C :   -0.015675
  58 N :   -0.037281
  59 C :   -0.020779
  60 N :   -0.029306
  61 C :   -0.031213
  62 N :   -0.008031
  63 C :   -0.032518
  64 N :   -0.011750
  65 H :    0.053444
  66 H :    0.055020
  67 H :    0.055985
  68 H :    0.037401
  69 H :    0.036751
  70 H :    0.031135
  71 H :    0.030898
  72 H :    0.039650
  73 H :    0.037513
  74 H :    0.051089
  75 H :    0.055088
  76 H :    0.053936

  Mayer bond orders larger than 0.100000
B(  0-C ,  1-C ) :   1.3501 B(  0-C ,  9-C ) :   1.3311 B(  0-C , 13-C ) :   0.9712
B(  1-C ,  2-C ) :   1.3980 B(  1-C , 65-H ) :   0.9871 B(  2-C ,  3-C ) :   1.0865
B(  2-C ,  5-C ) :   1.3982 B(  3-C ,  4-N ) :   3.0434 B(  5-C ,  6-C ) :   1.0857
B(  5-C ,  8-C ) :   1.3680 B(  6-C ,  7-N ) :   3.0446 B(  8-C ,  9-C ) :   1.3621
B(  8-C , 66-H ) :   1.0149 B(  9-C , 10-C ) :   0.9269 B( 10-C , 11-O ) :   2.2513
B( 10-C , 12-C ) :   0.9258 B( 12-C , 13-C ) :   1.0339 B( 12-C , 19-C ) :   1.7108
B( 13-C , 14-C ) :   1.6947 B( 14-C , 15-C ) :   1.1386 B( 14-C , 17-C ) :   1.1347
B( 15-C , 16-N ) :   2.9672 B( 17-C , 18-N ) :   2.9988 B( 19-C , 20-C ) :   1.0302
B( 19-C , 67-H ) :   0.9448 B( 20-C , 21-N ) :   1.4861 B( 20-C , 25-C ) :   1.3133
B( 21-N , 22-N ) :   1.3709 B( 22-N , 23-C ) :   1.5360 B( 23-C , 24-C ) :   1.3334
B( 23-C , 26-C ) :   0.9602 B( 24-C , 25-C ) :   1.4166 B( 24-C , 68-H ) :   0.9797
B( 25-C , 69-H ) :   0.9754 B( 26-C , 27-C ) :   1.3640 B( 26-C , 33-C ) :   0.1521
B( 26-C , 35-C ) :   1.2621 B( 27-C , 28-C ) :   1.1240 B( 27-C , 32-N ) :   1.4245
B( 28-C , 29-N ) :   1.4168 B( 28-C , 33-C ) :   1.3622 B( 29-N , 30-C ) :   1.7098
B( 30-C , 31-C ) :   1.1641 B( 30-C , 70-H ) :   0.9741 B( 31-C , 32-N ) :   1.7113
B( 31-C , 71-H ) :   0.9738 B( 33-C , 34-C ) :   1.2560 B( 33-C , 39-C ) :   0.9747
B( 34-C , 35-C ) :   1.0944 B( 34-C , 38-N ) :   1.5070 B( 35-C , 36-N ) :   1.5069
B( 36-N , 37-S ) :   1.3098 B( 36-N , 38-N ) :   0.1631 B( 37-S , 38-N ) :   1.3085
B( 39-C , 40-N ) :   1.5427 B( 39-C , 44-C ) :   1.3209 B( 40-N , 41-N ) :   1.3562
B( 41-N , 42-C ) :   1.4654 B( 42-C , 43-C ) :   1.2941 B( 42-C , 45-C ) :   1.0115
B( 43-C , 44-C ) :   1.4104 B( 43-C , 72-H ) :   0.9899 B( 44-C , 73-H ) :   0.9741
B( 45-C , 46-C ) :   1.7688 B( 45-C , 74-H ) :   0.9473 B( 46-C , 47-C ) :   0.9304
B( 46-C , 55-C ) :   1.0011 B( 47-C , 48-O ) :   2.2982 B( 47-C , 49-C ) :   0.8992
B( 49-C , 50-C ) :   1.3614 B( 49-C , 54-C ) :   1.3314 B( 50-C , 51-C ) :   1.3728
B( 50-C , 75-H ) :   1.0151 B( 51-C , 52-C ) :   1.3980 B( 51-C , 63-C ) :   1.0867
B( 52-C , 53-C ) :   1.3918 B( 52-C , 61-C ) :   1.0865 B( 53-C , 54-C ) :   1.3562
B( 53-C , 76-H ) :   0.9908 B( 54-C , 55-C ) :   0.9825 B( 55-C , 56-C ) :   1.7200
B( 56-C , 57-C ) :   1.1516 B( 56-C , 59-C ) :   1.1327 B( 57-C , 58-N ) :   3.0011
B( 59-C , 60-N ) :   2.9870 B( 61-C , 62-N ) :   3.0437 B( 63-C , 64-N ) :   3.0452

-----------------------------------------------------------------------------
         ABSORPTION SPECTRUM VIA TRANSITION ELECTRIC DIPOLE MOMENTS
-----------------------------------------------------------------------------
State   Energy  Wavelength   fosc         T2         TX        TY        TZ
        (cm-1)    (nm)                  (au**2)     (au)      (au)      (au)
-----------------------------------------------------------------------------
   0   16980.8    588.9   0.091724508   1.77829  -0.66138  -0.83022  -0.80722
   1   17595.1    568.3   0.008327262   0.15581   0.21578   0.10231   0.31429
   2   20779.4    481.2   0.682258497  10.80917   1.53689   2.09936   2.00993
   3   21451.6    466.2   0.051416913   0.78908   0.31899   0.41853   0.71566
   4   22116.9    452.1   0.116801447   1.73860  -0.54412  -0.89926  -0.79616
   5   24132.2    414.4   0.068897194   0.93990  -0.95608  -0.04732  -0.15349
   6   24627.9    406.0   0.008444247   0.11288   0.11922  -0.20516   0.23785
   7   24957.2    400.7   0.026923608   0.35515   0.06485   0.46070   0.37243
   8   25610.4    390.5   0.001863155   0.02395   0.05429   0.14095  -0.03368
   9   26409.9    378.6   0.007297324   0.09096   0.16389  -0.04187   0.24970
  10   27187.3    367.8   0.016763299   0.20299  -0.04282  -0.10060  -0.43707
  11   28583.6    349.9   0.015106386   0.17399  -0.25107   0.02208   0.33236
  12   28690.2    348.6   0.043082656   0.49436   0.33870   0.59756   0.15024
  13   29425.1    339.8   0.079888400   0.89380  -0.64384  -0.13246  -0.67951
  14   29836.7    335.2   0.022261991   0.24563   0.04247   0.40231   0.28631
  15   30055.9    332.7   0.017291434   0.18940   0.39507   0.15406   0.09789
  16   30166.7    331.5   0.045363463   0.49506   0.58865   0.37934  -0.06815
  17   30377.8    329.2   0.029227464   0.31675   0.22171  -0.50978  -0.08782
  18   31033.2    322.2   0.032248055   0.34210   0.42140  -0.27020   0.30252
  19   31625.3    316.2   0.025427666   0.26470   0.13119  -0.00623  -0.49744
  20   31701.7    315.4   0.057837976   0.60063   0.35003   0.27104   0.63612
  21   32056.7    311.9   0.032238335   0.33108  -0.27133  -0.41028   0.29854
  22   32176.5    310.8   0.249127493   2.54894  -0.23284  -0.79842   1.36281
  23   32423.1    308.4   0.023822519   0.24188  -0.47375   0.08666  -0.09966
  24   33021.5    302.8   0.118029768   1.17671   0.66561  -0.19620  -0.83378
  25   33219.3    301.0   0.196681010   1.94916  -0.81285  -1.07004   0.37876
  26   33853.4    295.4   0.119758433   1.16461  -0.91343  -0.46673   0.33527
  27   34495.0    289.9   0.292159766   2.78831   0.03888   0.31681   1.63903
  28   35026.5    285.5   0.011979283   0.11259   0.22522   0.09392  -0.23032
  29   35310.1    283.2   0.017164599   0.16003   0.20453   0.02578  -0.34284
  30   35469.3    281.9   0.528138925   4.90198   0.13436   0.68066   2.10253
  31   35597.5    280.9   0.047937832   0.44334   0.14628   0.29523   0.57860
  32   35921.2    278.4   0.040698279   0.37299  -0.02908  -0.32038  -0.51914
  33   36071.1    277.2   0.108237853   0.98786  -0.46481  -0.25088   0.84195
  34   36171.1    276.5   0.497104469   4.52441   0.02075   0.24165   2.11319
  35   36428.1    274.5   0.165552924   1.49615  -0.37631  -0.12299   1.15733
  36   36576.3    273.4   0.023532511   0.21181   0.11135   0.12379  -0.42905
  37   37029.8    270.1   0.006057011   0.05385   0.00032  -0.01476  -0.23159
  38   37179.9    269.0   0.113078292   1.00126  -0.39924  -0.27107  -0.87658
  39   37313.2    268.0   0.030552686   0.26956   0.44784   0.25930   0.04209
  40   37795.9    264.6   0.113183693   0.98586   0.50701   0.27715   0.80745
  41   38139.1    262.2   0.003801449   0.03281  -0.14350  -0.07136  -0.08443
  42   38435.6    260.2   0.194379476   1.66492  -0.74447  -0.98954  -0.36262
  43   38527.8    259.6   0.016527452   0.14122  -0.25870  -0.04403   0.26899
  44   38618.8    258.9   0.052310929   0.44593   0.45784   0.19948   0.44330
  45   39166.0    255.3   0.081552193   0.68549   0.45926  -0.58549  -0.36300
  46   39419.2    253.7   0.053146790   0.44386   0.49015   0.43449   0.12179
  47   39536.8    252.9   0.354423615   2.95119  -0.47035  -1.12744  -1.20782
  48   39732.4    251.7   0.006417495   0.05317  -0.12286  -0.14771  -0.12751
  49   39801.7    251.2   0.059136004   0.48913   0.41068   0.35386   0.44188
  50   40200.3    248.8   0.016777291   0.13739   0.24961  -0.16927  -0.21549

FINAL SINGLE POINT ENERGY     -3180.887428624526

DIPOLE MOMENT
-------------
                                X             Y             Z
Electronic contribution:      7.50830       6.22938      -8.26945
Nuclear contribution   :    -10.65279      -7.15639       9.69520
                        -----------------------------------------
Total Dipole Moment    :     -3.14449      -0.92701       1.42575
                        -----------------------------------------
Magnitude (a.u.)       :      3.57491
Magnitude (Debye)      :      9.08669

Rotational constants in cm-1:     0.003312     0.000317     0.000302
Rotational constants in MHz :    99.280344     9.510276     9.066881

                             ****ORCA TERMINATED NORMALLY****
TOTAL RUN TIME: 0 days 0 hours 7 minutes 11 seconds 69 msec
