                         Program Version 4.2.0 -  RELEASE  -
|  1> # ORCA input file
|  2> # SCF done       -208.164542499030          0.000681266745
|  3> ! CAM-B3LYP def2-SVP def2/J RIJCOSX Grid4 TightSCF
|  4> %maxcore 5000
|  5> %tddft
|  6>     Mode sTDDFT
|  7>     Ethresh 5.0
|  8>     maxcore 5000
|  9> end
| 10>
| 11> %pal
| 12>   nprocs 6
| 13>   end
| 14> * xyz 0 1
| 15>    C       -0.07711        -3.76103         8.74578
| 16>    C        0.70510        -2.93398         9.53340
| 17>    C        0.48150        -1.55657         9.47498
| 18>    C        1.27807        -0.68823        10.26170
| 19>    N        1.92787         0.00939        10.89558
| 20>    C       -0.51722        -1.01349         8.64436
| 21>    C       -0.72127         0.38645         8.60488
| 22>    N       -0.90357         1.51604         8.55550
| 23>    C       -1.30256        -1.85306         7.85207
| 24>    C       -1.06695        -3.20945         7.91226
| 25>    C       -1.74196        -4.29005         7.15137
| 26>    O       -2.66455        -4.13197         6.37989
| 27>    C       -1.02177        -5.52619         7.51148
| 28>    C       -0.08781        -5.21283         8.57383
| 29>    C        0.58301        -6.11005         9.36316
| 30>    C        1.44865        -5.74038        10.41404
| 31>    N        2.16061        -5.49105        11.27877
| 32>    C        0.44498        -7.51269         9.27825
| 33>    N        0.34889        -8.65648         9.28890
| 34>    C       -1.04291        -6.73108         6.84861
| 35>    C       -1.92736        -7.20878         5.87224
| 36>    C       -3.20698        -6.80050         5.49155
| 37>    C       -3.77613        -7.58524         4.50646
| 38>    C       -2.90435        -8.62143         4.10168
| 39>    S       -1.43075        -8.63577         4.96751
| 40>    C       -3.38138        -9.45344         3.07098
| 41>    C       -4.68415        -9.16540         2.61440
| 42>   Si       -5.37583        -7.67974         3.52953
| 43>    C       -6.85928        -8.08470         4.59503
| 44>    C       -5.63417        -6.19975         2.41470
| 45>    C       -5.05593       -10.03545         1.60304
| 46>    C       -4.06850       -10.95791         1.26014
| 47>    S       -2.63146       -10.75246         2.22838
| 48>    C       -4.12832       -11.94232         0.24242
| 49>    C       -2.98537       -12.69778        -0.11153
| 50>    C       -2.98908       -13.63866        -1.19970
| 51>    N       -1.86030       -14.27921        -1.51926
| 52>    C       -0.76277       -14.06384        -0.83516
| 53>    C       -0.76670       -13.14944         0.26646
| 54>    N       -1.86123       -12.50197         0.58522
| 55>    C        0.41140       -12.92678         1.02173
| 56>    N        1.37921       -12.76043         1.61076
| 57>    C        0.42427       -14.74101        -1.20964
| 58>    N        1.39730       -15.26993        -1.50067
| 59>    C       -4.14822       -13.91660        -1.96247
| 60>    C       -5.30978       -13.20543        -1.57463
| 61>    C       -5.29556       -12.22770        -0.50707
| 62>    N       -6.49512       -11.67189        -0.33810
| 63>    S       -7.52874       -12.30123        -1.39168
| 64>    N       -6.51872       -13.30919        -2.12597
| 65>    C       -4.10763       -14.82743        -3.04689
| 66>    C       -5.17424       -15.25669        -3.83546
| 67>    C       -4.80779       -16.12585        -4.84963
| 68>    C       -3.41628       -16.35378        -4.83615
| 69>    S       -2.59777       -15.53317        -3.56588
| 70>    C       -2.93350       -17.19533        -5.85461
| 71>    C       -3.89806       -17.70331        -6.74855
| 72>   Si       -5.60253       -17.09893        -6.24259
| 73>    C       -6.70419       -18.48220        -5.63332
| 74>    C       -6.40442       -16.01385        -7.53961
| 75>    C       -3.30476       -18.47194        -7.73410
| 76>    C       -1.92056       -18.59581        -7.60963
| 77>    S       -1.33639       -17.68681        -6.22831
| 78>    C       -1.07593       -19.24005        -8.52904
| 79>    C        0.25526       -19.54002        -8.43499
| 80>    C        1.05009       -19.71392        -9.67399
| 81>    O        0.63401       -19.85666       -10.80022
| 82>    C        2.46460       -19.60777        -9.23852
| 83>    C        3.60377       -19.56746       -10.01312
| 84>    C        4.83290       -19.41472        -9.36796
| 85>    C        4.88879       -19.30224        -7.96546
| 86>    C        3.72951       -19.35898        -7.18842
| 87>    C        2.51600       -19.51704        -7.83326
| 88>    C        1.15420       -19.63723        -7.30979
| 89>    C        0.83165       -20.06887        -6.04953
| 90>    C       -0.47186       -20.47239        -5.69240
| 91>    N       -1.51162       -20.85760        -5.39595
| 92>    C        1.77841       -20.27635        -5.02576
| 93>    N        2.51812       -20.45376        -4.16701
| 94>    C        6.14516       -19.12351        -7.33501
| 95>    N        7.15759       -18.97572        -6.82147
| 96>    C        6.02535       -19.36380       -10.12911
| 97>    N        6.97712       -19.32462       -10.76478
| 98>    H        1.48207        -3.31476        10.17704
| 99>    H       -2.06911        -1.45161         7.20670
|100>    H       -0.23116        -7.41324         7.07628
|101>    H       -3.69194        -5.95324         5.93793
|102>    H       -6.68567        -8.94556         5.23825
|103>    H       -7.73707        -8.30837         3.99212
|104>    H       -7.12452        -7.25105         5.24210
|105>    H       -4.76966        -6.00317         1.78293
|106>    H       -5.81823        -5.29498         2.99047
|107>    H       -6.48872        -6.33529         1.75473
|108>    H       -6.00602       -10.01979         1.10197
|109>    H       -6.17804       -14.92263        -3.64860
|110>    H       -6.19848       -19.12189        -4.91207
|111>    H       -7.03425       -19.12208        -6.44931
|112>    H       -7.60054       -18.09956        -5.14912
|113>    H       -5.74246       -15.22221        -7.88615
|114>    H       -7.30331       -15.53377        -7.15833
|115>    H       -6.70127       -16.58774        -8.41513
|116>    H       -3.84431       -18.95829        -8.52744
|117>    H       -1.51745       -19.43766        -9.50182
|118>    H        3.54757       -19.64861       -11.08802
|119>    H        3.80335       -19.26474        -6.11625
|120> *
|121>
|122>                          ****END OF INPUT****

CARTESIAN COORDINATES (ANGSTROEM)
---------------------------------
  C     -0.077110   -3.761030    8.745780
  C      0.705100   -2.933980    9.533400
  C      0.481500   -1.556570    9.474980
  C      1.278070   -0.688230   10.261700
  N      1.927870    0.009390   10.895580
  C     -0.517220   -1.013490    8.644360
  C     -0.721270    0.386450    8.604880
  N     -0.903570    1.516040    8.555500
  C     -1.302560   -1.853060    7.852070
  C     -1.066950   -3.209450    7.912260
  C     -1.741960   -4.290050    7.151370
  O     -2.664550   -4.131970    6.379890
  C     -1.021770   -5.526190    7.511480
  C     -0.087810   -5.212830    8.573830
  C      0.583010   -6.110050    9.363160
  C      1.448650   -5.740380   10.414040
  N      2.160610   -5.491050   11.278770
  C      0.444980   -7.512690    9.278250
  N      0.348890   -8.656480    9.288900
  C     -1.042910   -6.731080    6.848610
  C     -1.927360   -7.208780    5.872240
  C     -3.206980   -6.800500    5.491550
  C     -3.776130   -7.585240    4.506460
  C     -2.904350   -8.621430    4.101680
  S     -1.430750   -8.635770    4.967510
  C     -3.381380   -9.453440    3.070980
  C     -4.684150   -9.165400    2.614400
  Si    -5.375830   -7.679740    3.529530
  C     -6.859280   -8.084700    4.595030
  C     -5.634170   -6.199750    2.414700
  C     -5.055930  -10.035450    1.603040
  C     -4.068500  -10.957910    1.260140
  S     -2.631460  -10.752460    2.228380
  C     -4.128320  -11.942320    0.242420
  C     -2.985370  -12.697780   -0.111530
  C     -2.989080  -13.638660   -1.199700
  N     -1.860300  -14.279210   -1.519260
  C     -0.762770  -14.063840   -0.835160
  C     -0.766700  -13.149440    0.266460
  N     -1.861230  -12.501970    0.585220
  C      0.411400  -12.926780    1.021730
  N      1.379210  -12.760430    1.610760
  C      0.424270  -14.741010   -1.209640
  N      1.397300  -15.269930   -1.500670
  C     -4.148220  -13.916600   -1.962470
  C     -5.309780  -13.205430   -1.574630
  C     -5.295560  -12.227700   -0.507070
  N     -6.495120  -11.671890   -0.338100
  S     -7.528740  -12.301230   -1.391680
  N     -6.518720  -13.309190   -2.125970
  C     -4.107630  -14.827430   -3.046890
  C     -5.174240  -15.256690   -3.835460
  C     -4.807790  -16.125850   -4.849630
  C     -3.416280  -16.353780   -4.836150
  S     -2.597770  -15.533170   -3.565880
  C     -2.933500  -17.195330   -5.854610
  C     -3.898060  -17.703310   -6.748550
  Si    -5.602530  -17.098930   -6.242590
  C     -6.704190  -18.482200   -5.633320
  C     -6.404420  -16.013850   -7.539610
  C     -3.304760  -18.471940   -7.734100
  C     -1.920560  -18.595810   -7.609630
  S     -1.336390  -17.686810   -6.228310
  C     -1.075930  -19.240050   -8.529040
  C      0.255260  -19.540020   -8.434990
  C      1.050090  -19.713920   -9.673990
  O      0.634010  -19.856660  -10.800220
  C      2.464600  -19.607770   -9.238520
  C      3.603770  -19.567460  -10.013120
  C      4.832900  -19.414720   -9.367960
  C      4.888790  -19.302240   -7.965460
  C      3.729510  -19.358980   -7.188420
  C      2.516000  -19.517040   -7.833260
  C      1.154200  -19.637230   -7.309790
  C      0.831650  -20.068870   -6.049530
  C     -0.471860  -20.472390   -5.692400
  N     -1.511620  -20.857600   -5.395950
  C      1.778410  -20.276350   -5.025760
  N      2.518120  -20.453760   -4.167010
  C      6.145160  -19.123510   -7.335010
  N      7.157590  -18.975720   -6.821470
  C      6.025350  -19.363800  -10.129110
  N      6.977120  -19.324620  -10.764780
  H      1.482070   -3.314760   10.177040
  H     -2.069110   -1.451610    7.206700
  H     -0.231160   -7.413240    7.076280
  H     -3.691940   -5.953240    5.937930
  H     -6.685670   -8.945560    5.238250
  H     -7.737070   -8.308370    3.992120
  H     -7.124520   -7.251050    5.242100
  H     -4.769660   -6.003170    1.782930
  H     -5.818230   -5.294980    2.990470
  H     -6.488720   -6.335290    1.754730
  H     -6.006020  -10.019790    1.101970
  H     -6.178040  -14.922630   -3.648600
  H     -6.198480  -19.121890   -4.912070
  H     -7.034250  -19.122080   -6.449310
  H     -7.600540  -18.099560   -5.149120
  H     -5.742460  -15.222210   -7.886150
  H     -7.303310  -15.533770   -7.158330
  H     -6.701270  -16.587740   -8.415130
  H     -3.844310  -18.958290   -8.527440
  H     -1.517450  -19.437660   -9.501820
  H      3.547570  -19.648610  -11.088020
  H      3.803350  -19.264740   -6.116250

 Total Charge           Charge          ....    0
 Multiplicity           Mult            ....    1
 Number of Electrons    NEL             ....  604
 Basis Dimension        Dim             .... 1300

ORBITAL ENERGIES
----------------

  NO   OCC          E(Eh)            E(eV)
   0   2.0000     -89.066374     -2423.6193
   1   2.0000     -88.989382     -2421.5242
   2   2.0000     -88.987618     -2421.4762
   3   2.0000     -88.983230     -2421.3568
   4   2.0000     -88.982747     -2421.3437
   5   2.0000     -66.217151     -1801.8603
   6   2.0000     -66.215371     -1801.8119
   7   2.0000     -19.235378      -523.4212
   8   2.0000     -19.230722      -523.2945
   9   2.0000     -14.484687      -394.1484
  10   2.0000     -14.484506      -394.1434
  11   2.0000     -14.475876      -393.9086
  12   2.0000     -14.475752      -393.9052
  13   2.0000     -14.445487      -393.0817
  14   2.0000     -14.445030      -393.0692
  15   2.0000     -14.426751      -392.5718
  16   2.0000     -14.426705      -392.5706
  17   2.0000     -14.426556      -392.5666
  18   2.0000     -14.426313      -392.5599
  19   2.0000     -14.426105      -392.5543
  20   2.0000     -14.424880      -392.5209
  21   2.0000     -14.424771      -392.5180
  22   2.0000     -14.423829      -392.4923
  23   2.0000     -10.403157      -283.0843
  24   2.0000     -10.402821      -283.0751
  25   2.0000     -10.387431      -282.6564
  26   2.0000     -10.382904      -282.5332
  27   2.0000     -10.367562      -282.1157
  28   2.0000     -10.367291      -282.1083
  29   2.0000     -10.366341      -282.0825
  30   2.0000     -10.366109      -282.0762
  31   2.0000     -10.359018      -281.8832
  32   2.0000     -10.357800      -281.8501
  33   2.0000     -10.356871      -281.8248
  34   2.0000     -10.356425      -281.8127
  35   2.0000     -10.356336      -281.8102
  36   2.0000     -10.356314      -281.8096
  37   2.0000     -10.355180      -281.7788
  38   2.0000     -10.355067      -281.7757
  39   2.0000     -10.342638      -281.4375
  40   2.0000     -10.342432      -281.4319
  41   2.0000     -10.339887      -281.3626
  42   2.0000     -10.339484      -281.3517
  43   2.0000     -10.338407      -281.3224
  44   2.0000     -10.337931      -281.3094
  45   2.0000     -10.337817      -281.3063
  46   2.0000     -10.336161      -281.2612
  47   2.0000     -10.335790      -281.2511
  48   2.0000     -10.335073      -281.2316
  49   2.0000     -10.332386      -281.1585
  50   2.0000     -10.332258      -281.1550
  51   2.0000     -10.330992      -281.1206
  52   2.0000     -10.330459      -281.1061
  53   2.0000     -10.330304      -281.1019
  54   2.0000     -10.330062      -281.0953
  55   2.0000     -10.329957      -281.0924
  56   2.0000     -10.328746      -281.0595
  57   2.0000     -10.328221      -281.0452
  58   2.0000     -10.328181      -281.0441
  59   2.0000     -10.327878      -281.0358
  60   2.0000     -10.327321      -281.0207
  61   2.0000     -10.326542      -280.9995
  62   2.0000     -10.325989      -280.9844
  63   2.0000     -10.323465      -280.9158
  64   2.0000     -10.321685      -280.8673
  65   2.0000     -10.321630      -280.8658
  66   2.0000     -10.321226      -280.8548
  67   2.0000     -10.321224      -280.8548
  68   2.0000     -10.320224      -280.8276
  69   2.0000     -10.313436      -280.6429
  70   2.0000     -10.310548      -280.5643
  71   2.0000     -10.307794      -280.4893
  72   2.0000     -10.304841      -280.4090
  73   2.0000     -10.299530      -280.2645
  74   2.0000     -10.298859      -280.2462
  75   2.0000     -10.283297      -279.8228
  76   2.0000     -10.281156      -279.7645
  77   2.0000     -10.280928      -279.7583
  78   2.0000     -10.280383      -279.7434
  79   2.0000     -10.269930      -279.4590
  80   2.0000     -10.267682      -279.3978
  81   2.0000     -10.267566      -279.3947
  82   2.0000     -10.267080      -279.3815
  83   2.0000      -8.157688      -221.9820
  84   2.0000      -8.084356      -219.9865
  85   2.0000      -8.083255      -219.9565
  86   2.0000      -8.076775      -219.7802
  87   2.0000      -8.076403      -219.7701
  88   2.0000      -6.128844      -166.7743
  89   2.0000      -6.120870      -166.5573
  90   2.0000      -6.120485      -166.5469
  91   2.0000      -6.053503      -164.7242
  92   2.0000      -6.052260      -164.6904
  93   2.0000      -6.049466      -164.6144
  94   2.0000      -6.048320      -164.5831
  95   2.0000      -6.046648      -164.5377
  96   2.0000      -6.046204      -164.5256
  97   2.0000      -6.045833      -164.5155
  98   2.0000      -6.045625      -164.5098
  99   2.0000      -6.041633      -164.4012
 100   2.0000      -6.041262      -164.3911
 101   2.0000      -6.039083      -164.3318
 102   2.0000      -6.038674      -164.3207
 103   2.0000      -5.383456      -146.4913
 104   2.0000      -5.381810      -146.4465
 105   2.0000      -3.747020      -101.9616
 106   2.0000      -3.745601      -101.9230
 107   2.0000      -3.745386      -101.9171
 108   2.0000      -3.744337      -101.8886
 109   2.0000      -3.743905      -101.8768
 110   2.0000      -3.742688      -101.8437
 111   2.0000      -1.164137       -31.6778
 112   2.0000      -1.150300       -31.3013
 113   2.0000      -1.146144       -31.1882
 114   2.0000      -1.144714       -31.1493
 115   2.0000      -1.072596       -29.1868
 116   2.0000      -1.039605       -28.2891
 117   2.0000      -1.039521       -28.2868
 118   2.0000      -1.031852       -28.0781
 119   2.0000      -1.026742       -27.9391
 120   2.0000      -1.024953       -27.8904
 121   2.0000      -1.024143       -27.8683
 122   2.0000      -1.021958       -27.8089
 123   2.0000      -1.019180       -27.7333
 124   2.0000      -1.017272       -27.6814
 125   2.0000      -1.008584       -27.4450
 126   2.0000      -1.007538       -27.4165
 127   2.0000      -1.006754       -27.3952
 128   2.0000      -1.005022       -27.3481
 129   2.0000      -1.004775       -27.3413
 130   2.0000      -1.003892       -27.3173
 131   2.0000      -1.003596       -27.3092
 132   2.0000      -0.995127       -27.0788
 133   2.0000      -0.984776       -26.7971
 134   2.0000      -0.975594       -26.5473
 135   2.0000      -0.974523       -26.5181
 136   2.0000      -0.931930       -25.3591
 137   2.0000      -0.929555       -25.2945
 138   2.0000      -0.922521       -25.1031
 139   2.0000      -0.922222       -25.0949
 140   2.0000      -0.921384       -25.0721
 141   2.0000      -0.910697       -24.7813
 142   2.0000      -0.901107       -24.5204
 143   2.0000      -0.900287       -24.4981
 144   2.0000      -0.886642       -24.1267
 145   2.0000      -0.874193       -23.7880
 146   2.0000      -0.868426       -23.6311
 147   2.0000      -0.865594       -23.5540
 148   2.0000      -0.856993       -23.3200
 149   2.0000      -0.849237       -23.1089
 150   2.0000      -0.847339       -23.0573
 151   2.0000      -0.842076       -22.9141
 152   2.0000      -0.838541       -22.8178
 153   2.0000      -0.820517       -22.3274
 154   2.0000      -0.813165       -22.1273
 155   2.0000      -0.811309       -22.0768
 156   2.0000      -0.806954       -21.9583
 157   2.0000      -0.805534       -21.9197
 158   2.0000      -0.802837       -21.8463
 159   2.0000      -0.787449       -21.4276
 160   2.0000      -0.786097       -21.3908
 161   2.0000      -0.777910       -21.1680
 162   2.0000      -0.764359       -20.7993
 163   2.0000      -0.753575       -20.5058
 164   2.0000      -0.749495       -20.3948
 165   2.0000      -0.745277       -20.2800
 166   2.0000      -0.734935       -19.9986
 167   2.0000      -0.725214       -19.7341
 168   2.0000      -0.722820       -19.6689
 169   2.0000      -0.714513       -19.4429
 170   2.0000      -0.709141       -19.2967
 171   2.0000      -0.705937       -19.2095
 172   2.0000      -0.697452       -18.9786
 173   2.0000      -0.693282       -18.8652
 174   2.0000      -0.687814       -18.7164
 175   2.0000      -0.682926       -18.5834
 176   2.0000      -0.675929       -18.3930
 177   2.0000      -0.674581       -18.3563
 178   2.0000      -0.662866       -18.0375
 179   2.0000      -0.656891       -17.8749
 180   2.0000      -0.652878       -17.7657
 181   2.0000      -0.651543       -17.7294
 182   2.0000      -0.644049       -17.5255
 183   2.0000      -0.640941       -17.4409
 184   2.0000      -0.633283       -17.2325
 185   2.0000      -0.631195       -17.1757
 186   2.0000      -0.629637       -17.1333
 187   2.0000      -0.625456       -17.0195
 188   2.0000      -0.617266       -16.7967
 189   2.0000      -0.610005       -16.5991
 190   2.0000      -0.605741       -16.4831
 191   2.0000      -0.602280       -16.3889
 192   2.0000      -0.598547       -16.2873
 193   2.0000      -0.593957       -16.1624
 194   2.0000      -0.592436       -16.1210
 195   2.0000      -0.582391       -15.8477
 196   2.0000      -0.578634       -15.7454
 197   2.0000      -0.574450       -15.6316
 198   2.0000      -0.566473       -15.4145
 199   2.0000      -0.565226       -15.3806
 200   2.0000      -0.563466       -15.3327
 201   2.0000      -0.562188       -15.2979
 202   2.0000      -0.559080       -15.2133
 203   2.0000      -0.556051       -15.1309
 204   2.0000      -0.551923       -15.0186
 205   2.0000      -0.546116       -14.8606
 206   2.0000      -0.544935       -14.8284
 207   2.0000      -0.540551       -14.7091
 208   2.0000      -0.535362       -14.5680
 209   2.0000      -0.533613       -14.5203
 210   2.0000      -0.530830       -14.4446
 211   2.0000      -0.529860       -14.4182
 212   2.0000      -0.528635       -14.3849
 213   2.0000      -0.526876       -14.3370
 214   2.0000      -0.521742       -14.1973
 215   2.0000      -0.519152       -14.1268
 216   2.0000      -0.515807       -14.0358
 217   2.0000      -0.514313       -13.9952
 218   2.0000      -0.512787       -13.9536
 219   2.0000      -0.509699       -13.8696
 220   2.0000      -0.508710       -13.8427
 221   2.0000      -0.507384       -13.8066
 222   2.0000      -0.506526       -13.7833
 223   2.0000      -0.505825       -13.7642
 224   2.0000      -0.503969       -13.7137
 225   2.0000      -0.503876       -13.7112
 226   2.0000      -0.502408       -13.6712
 227   2.0000      -0.495965       -13.4959
 228   2.0000      -0.492535       -13.4025
 229   2.0000      -0.491168       -13.3654
 230   2.0000      -0.489771       -13.3274
 231   2.0000      -0.488575       -13.2948
 232   2.0000      -0.487742       -13.2721
 233   2.0000      -0.487402       -13.2629
 234   2.0000      -0.486907       -13.2494
 235   2.0000      -0.485167       -13.2021
 236   2.0000      -0.482269       -13.1232
 237   2.0000      -0.479311       -13.0427
 238   2.0000      -0.476940       -12.9782
 239   2.0000      -0.473990       -12.8979
 240   2.0000      -0.472045       -12.8450
 241   2.0000      -0.467653       -12.7255
 242   2.0000      -0.466440       -12.6925
 243   2.0000      -0.460670       -12.5355
 244   2.0000      -0.459334       -12.4991
 245   2.0000      -0.458337       -12.4720
 246   2.0000      -0.458303       -12.4711
 247   2.0000      -0.457951       -12.4615
 248   2.0000      -0.456847       -12.4314
 249   2.0000      -0.455004       -12.3813
 250   2.0000      -0.454440       -12.3659
 251   2.0000      -0.452994       -12.3266
 252   2.0000      -0.451725       -12.2921
 253   2.0000      -0.451302       -12.2805
 254   2.0000      -0.450553       -12.2602
 255   2.0000      -0.449355       -12.2276
 256   2.0000      -0.448884       -12.2148
 257   2.0000      -0.448244       -12.1973
 258   2.0000      -0.447257       -12.1705
 259   2.0000      -0.443135       -12.0583
 260   2.0000      -0.441754       -12.0207
 261   2.0000      -0.439809       -11.9678
 262   2.0000      -0.438545       -11.9334
 263   2.0000      -0.437041       -11.8925
 264   2.0000      -0.436651       -11.8819
 265   2.0000      -0.436043       -11.8653
 266   2.0000      -0.431717       -11.7476
 267   2.0000      -0.430954       -11.7268
 268   2.0000      -0.428637       -11.6638
 269   2.0000      -0.428556       -11.6616
 270   2.0000      -0.426524       -11.6063
 271   2.0000      -0.425624       -11.5818
 272   2.0000      -0.425061       -11.5665
 273   2.0000      -0.424143       -11.5415
 274   2.0000      -0.419108       -11.4045
 275   2.0000      -0.418042       -11.3755
 276   2.0000      -0.413721       -11.2579
 277   2.0000      -0.412677       -11.2295
 278   2.0000      -0.410140       -11.1605
 279   2.0000      -0.404862       -11.0169
 280   2.0000      -0.402017       -10.9394
 281   2.0000      -0.400062       -10.8863
 282   2.0000      -0.395702       -10.7676
 283   2.0000      -0.391273       -10.6471
 284   2.0000      -0.383619       -10.4388
 285   2.0000      -0.369928       -10.0663
 286   2.0000      -0.369608       -10.0576
 287   2.0000      -0.365844        -9.9551
 288   2.0000      -0.364126        -9.9084
 289   2.0000      -0.363182        -9.8827
 290   2.0000      -0.359792        -9.7904
 291   2.0000      -0.354898        -9.6573
 292   2.0000      -0.350245        -9.5306
 293   2.0000      -0.348453        -9.4819
 294   2.0000      -0.347492        -9.4557
 295   2.0000      -0.345333        -9.3970
 296   2.0000      -0.344033        -9.3616
 297   2.0000      -0.335797        -9.1375
 298   2.0000      -0.329227        -8.9587
 299   2.0000      -0.309751        -8.4287
 300   2.0000      -0.281224        -7.6525
 301   2.0000      -0.248495        -6.7619
 302   0.0000      -0.150130        -4.0852
 303   0.0000      -0.108608        -2.9554
 304   0.0000      -0.105661        -2.8752
 305   0.0000      -0.092927        -2.5287
 306   0.0000      -0.089927        -2.4470

MULLIKEN ATOMIC CHARGES
-----------------------
   0 C :    0.048122
   1 C :   -0.039437
   2 C :   -0.060650
   3 C :   -0.175621
   4 N :    0.201058
   5 C :   -0.065660
   6 C :   -0.173793
   7 N :    0.191824
   8 C :   -0.038323
   9 C :   -0.003334
  10 C :    0.157231
  11 O :   -0.150723
  12 C :   -0.110022
  13 C :    0.283351
  14 C :   -0.325168
  15 C :   -0.184146
  16 N :    0.162008
  17 C :   -0.208330
  18 N :    0.169306
  19 C :    0.051517
  20 C :   -0.110066
  21 C :    0.022727
  22 C :   -0.137974
  23 C :   -0.074369
  24 S :    0.190622
  25 C :   -0.051639
  26 C :   -0.097539
  27 Si:    0.529388
  28 C :   -0.198089
  29 C :   -0.197217
  30 C :   -0.036198
  31 C :   -0.176152
  32 S :    0.186582
  33 C :    0.197787
  34 C :   -0.053731
  35 C :   -0.056453
  36 N :   -0.000698
  37 C :   -0.098109
  38 C :   -0.098019
  39 N :    0.002159
  40 C :   -0.238508
  41 N :    0.255221
  42 C :   -0.240073
  43 N :    0.258359
  44 C :    0.200715
  45 C :   -0.011814
  46 C :   -0.014886
  47 N :   -0.288628
  48 S :    0.555735
  49 N :   -0.287972
  50 C :   -0.176113
  51 C :   -0.034358
  52 C :   -0.102403
  53 C :   -0.047704
  54 S :    0.184861
  55 C :   -0.075042
  56 C :   -0.105669
  57 Si:    0.526457
  58 C :   -0.198598
  59 C :   -0.197993
  60 C :    0.010677
  61 C :   -0.081341
  62 S :    0.183946
  63 C :    0.054909
  64 C :   -0.149354
  65 C :    0.145890
  66 O :   -0.133287
  67 C :    0.007955
  68 C :   -0.035190
  69 C :   -0.068035
  70 C :   -0.063103
  71 C :   -0.034104
  72 C :    0.033875
  73 C :    0.244841
  74 C :   -0.303032
  75 C :   -0.213275
  76 N :    0.179726
  77 C :   -0.178545
  78 N :    0.172810
  79 C :   -0.174954
  80 N :    0.200189
  81 C :   -0.176463
  82 N :    0.193692
  83 H :    0.021969
  84 H :    0.013111
  85 H :    0.026758
  86 H :    0.012786
  87 H :    0.057532
  88 H :    0.045779
  89 H :    0.050172
  90 H :    0.056106
  91 H :    0.053246
  92 H :    0.045289
  93 H :   -0.005807
  94 H :   -0.005330
  95 H :    0.064588
  96 H :    0.048162
  97 H :    0.046183
  98 H :    0.055952
  99 H :    0.046148
 100 H :    0.047047
 101 H :   -0.002893
 102 H :    0.027949
 103 H :    0.017347
 104 H :    0.026266
Sum of atomic charges:   -0.0000000

LOEWDIN ATOMIC CHARGES
----------------------
   0 C :    0.003288
   1 C :    0.033199
   2 C :   -0.025318
   3 C :   -0.031440
   4 N :   -0.013175
   5 C :   -0.030527
   6 C :   -0.031516
   7 N :   -0.017290
   8 C :    0.044969
   9 C :   -0.027661
  10 C :    0.083276
  11 O :   -0.139522
  12 C :   -0.112271
  13 C :    0.067738
  14 C :   -0.130499
  15 C :   -0.022459
  16 N :   -0.039795
  17 C :   -0.027051
  18 N :   -0.039698
  19 C :    0.053585
  20 C :   -0.183249
  21 C :    0.005391
  22 C :   -0.200069
  23 C :   -0.160229
  24 S :    0.473279
  25 C :   -0.195556
  26 C :   -0.188383
  27 Si:    0.667361
  28 C :   -0.241784
  29 C :   -0.241170
  30 C :   -0.031129
  31 C :   -0.163344
  32 S :    0.488227
  33 C :   -0.039437
  34 C :   -0.012917
  35 C :   -0.013313
  36 N :   -0.014290
  37 C :   -0.018728
  38 C :   -0.018361
  39 N :   -0.014481
  40 C :   -0.039638
  41 N :    0.006888
  42 C :   -0.040363
  43 N :    0.007789
  44 C :   -0.038240
  45 C :   -0.036288
  46 C :   -0.035886
  47 N :   -0.274871
  48 S :    0.678924
  49 N :   -0.274972
  50 C :   -0.163725
  51 C :   -0.029838
  52 C :   -0.189607
  53 C :   -0.192801
  54 S :    0.488610
  55 C :   -0.155883
  56 C :   -0.198497
  57 Si:    0.666795
  58 C :   -0.240842
  59 C :   -0.242539
  60 C :   -0.001499
  61 C :   -0.184313
  62 S :    0.485898
  63 C :    0.057967
  64 C :   -0.115195
  65 C :    0.081738
  66 O :   -0.136406
  67 C :   -0.030353
  68 C :    0.047010
  69 C :   -0.031066
  70 C :   -0.023715
  71 C :    0.031430
  72 C :    0.006365
  73 C :    0.053356
  74 C :   -0.132622
  75 C :   -0.036300
  76 N :   -0.039883
  77 C :   -0.025210
  78 N :   -0.034489
  79 C :   -0.031357
  80 N :   -0.011960
  81 C :   -0.031882
  82 N :   -0.016741
  83 H :    0.052463
  84 H :    0.052327
  85 H :    0.045949
  86 H :    0.035127
  87 H :    0.043443
  88 H :    0.038422
  89 H :    0.040179
  90 H :    0.043312
  91 H :    0.041396
  92 H :    0.037871
  93 H :    0.028064
  94 H :    0.028230
  95 H :    0.046564
  96 H :    0.039442
  97 H :    0.038480
  98 H :    0.042666
  99 H :    0.038596
 100 H :    0.038739
 101 H :    0.036495
 102 H :    0.053516
 103 H :    0.053967
 104 H :    0.053309

  Mayer bond orders larger than 0.100000
B(  0-C ,  1-C ) :   1.3641 B(  0-C ,  9-C ) :   1.3354 B(  0-C , 13-C ) :   0.9571
B(  1-C ,  2-C ) :   1.3869 B(  1-C , 83-H ) :   0.9876 B(  2-C ,  3-C ) :   1.0869
B(  2-C ,  5-C ) :   1.4059 B(  3-C ,  4-N ) :   3.0445 B(  5-C ,  6-C ) :   1.0852
B(  5-C ,  8-C ) :   1.3590 B(  6-C ,  7-N ) :   3.0445 B(  8-C ,  9-C ) :   1.3703
B(  8-C , 84-H ) :   1.0145 B(  9-C , 10-C ) :   0.9274 B( 10-C , 11-O ) :   2.1912
B( 10-C , 12-C ) :   0.9680 B( 12-C , 13-C ) :   1.0925 B( 12-C , 19-C ) :   1.5257
B( 13-C , 14-C ) :   1.6466 B( 14-C , 15-C ) :   1.1436 B( 14-C , 17-C ) :   1.1371
B( 15-C , 16-N ) :   2.9666 B( 17-C , 18-N ) :   3.0039 B( 19-C , 20-C ) :   1.2639
B( 19-C , 85-H ) :   0.9291 B( 20-C , 21-C ) :   1.3690 B( 20-C , 24-S ) :   1.0682
B( 21-C , 22-C ) :   1.3399 B( 21-C , 86-H ) :   0.9836 B( 22-C , 23-C ) :   1.4122
B( 22-C , 27-Si) :   0.8664 B( 23-C , 24-S ) :   1.1686 B( 23-C , 25-C ) :   1.1924
B( 25-C , 26-C ) :   1.4423 B( 25-C , 32-S ) :   1.0792 B( 26-C , 27-Si) :   0.8738
B( 26-C , 30-C ) :   1.2870 B( 27-Si, 28-C ) :   1.0640 B( 27-Si, 29-C ) :   1.0661
B( 28-C , 87-H ) :   0.9481 B( 28-C , 88-H ) :   0.9532 B( 28-C , 89-H ) :   0.9533
B( 29-C , 90-H ) :   0.9483 B( 29-C , 91-H ) :   0.9530 B( 29-C , 92-H ) :   0.9524
B( 30-C , 31-C ) :   1.4098 B( 30-C , 93-H ) :   0.9880 B( 31-C , 32-S ) :   1.1090
B( 31-C , 33-C ) :   1.2073 B( 33-C , 34-C ) :   1.2419 B( 33-C , 44-C ) :   0.1180
B( 33-C , 46-C ) :   1.1919 B( 34-C , 35-C ) :   1.1159 B( 34-C , 39-N ) :   1.4064
B( 35-C , 36-N ) :   1.4079 B( 35-C , 44-C ) :   1.2372 B( 36-N , 37-C ) :   1.6943
B( 37-C , 38-C ) :   1.2190 B( 37-C , 42-C ) :   1.1661 B( 38-C , 39-N ) :   1.6974
B( 38-C , 40-C ) :   1.1663 B( 40-C , 41-N ) :   3.0387 B( 42-C , 43-N ) :   3.0409
B( 44-C , 45-C ) :   1.1918 B( 44-C , 50-C ) :   1.2136 B( 45-C , 46-C ) :   1.1018
B( 45-C , 49-N ) :   1.5181 B( 46-C , 47-N ) :   1.5181 B( 47-N , 48-S ) :   1.2779
B( 47-N , 49-N ) :   0.1479 B( 48-S , 49-N ) :   1.2779 B( 50-C , 51-C ) :   1.4053
B( 50-C , 54-S ) :   1.1069 B( 51-C , 52-C ) :   1.2877 B( 51-C , 94-H ) :   0.9887
B( 52-C , 53-C ) :   1.4381 B( 52-C , 57-Si) :   0.8764 B( 53-C , 54-S ) :   1.0795
B( 53-C , 55-C ) :   1.2020 B( 55-C , 56-C ) :   1.4266 B( 55-C , 62-S ) :   1.1590
B( 56-C , 57-Si) :   0.8644 B( 56-C , 60-C ) :   1.3245 B( 57-Si, 58-C ) :   1.0669
B( 57-Si, 59-C ) :   1.0605 B( 58-C , 95-H ) :   0.9481 B( 58-C , 96-H ) :   0.9523
B( 58-C , 97-H ) :   0.9524 B( 59-C , 98-H ) :   0.9484 B( 59-C , 99-H ) :   0.9538
B( 59-C ,100-H ) :   0.9533 B( 60-C , 61-C ) :   1.3662 B( 60-C ,101-H ) :   1.0034
B( 61-C , 62-S ) :   1.0784 B( 61-C , 63-C ) :   1.2124 B( 63-C , 64-C ) :   1.5596
B( 63-C ,102-H ) :   0.9482 B( 64-C , 65-C ) :   0.9632 B( 64-C , 73-C ) :   1.0595
B( 65-C , 66-O ) :   2.2731 B( 65-C , 67-C ) :   0.8998 B( 67-C , 68-C ) :   1.3739
B( 67-C , 72-C ) :   1.3357 B( 68-C , 69-C ) :   1.3629 B( 68-C ,103-H ) :   1.0140
B( 69-C , 70-C ) :   1.4051 B( 69-C , 81-C ) :   1.0879 B( 70-C , 71-C ) :   1.3833
B( 70-C , 79-C ) :   1.0858 B( 71-C , 72-C ) :   1.3674 B( 71-C ,104-H ) :   0.9912
B( 72-C , 73-C ) :   0.9761 B( 73-C , 74-C ) :   1.6587 B( 74-C , 75-C ) :   1.1530
B( 74-C , 77-C ) :   1.1347 B( 75-C , 76-N ) :   3.0260 B( 77-C , 78-N ) :   2.9895
B( 79-C , 80-N ) :   3.0435 B( 81-C , 82-N ) :   3.0455

-----------------------------------------------------------------------------
         ABSORPTION SPECTRUM VIA TRANSITION ELECTRIC DIPOLE MOMENTS
-----------------------------------------------------------------------------
State   Energy  Wavelength   fosc         T2         TX        TY        TZ
        (cm-1)    (nm)                  (au**2)     (au)      (au)      (au)
-----------------------------------------------------------------------------
   0    6793.0   1472.1   0.697081073  33.78292  -0.26748   3.89611   4.30484
   1   15211.7    657.4   0.120013280   2.59734   1.57300   0.08561   0.34011
   2   16924.4    590.9   0.500094949   9.72780  -1.40609   2.15717   1.75992
   3   18078.6    553.1   0.792179914  14.42562   1.36175   2.12311   2.83967
   4   21337.3    468.7   0.188536048   2.90891   0.32915  -1.53431  -0.66819
   5   21548.5    464.1   0.132996991   2.03189   0.11212  -0.66790  -1.25428
   6   21814.7    458.4   0.130652438   1.97172  -0.17487   0.61932   1.24803
   7   23541.9    424.8   0.209936440   2.93577   1.69579   0.06737   0.23567
   8   23741.4    421.2   0.000887405   0.01231  -0.00268  -0.10952  -0.01742
   9   23948.5    417.6   0.003011566   0.04140   0.16602  -0.02052   0.11583
  10   24743.5    404.1   0.004580002   0.06094  -0.24660   0.00592  -0.00961
  11   25215.9    396.6   0.001351173   0.01764  -0.03247   0.08332   0.09820
  12   25595.4    390.7   0.105377663   1.35538  -0.81799   0.10783  -0.82137
  13   26206.6    381.6   0.074408059   0.93473   0.72021  -0.16878   0.62252
  14   26985.3    370.6   0.013883690   0.16938   0.39082   0.00426  -0.12891
  15   28082.6    356.1   0.069973450   0.82030   0.15231  -0.41497  -0.79050
  16   28713.1    348.3   0.056472587   0.64749   0.52915   0.09055   0.59941
  17   29170.1    342.8   0.043302118   0.48871   0.29590   0.38652   0.50175
  18   29684.9    336.9   0.031236755   0.34642   0.00840   0.58288  -0.08129
  19   29914.3    334.3   0.038180371   0.42018  -0.58350   0.10707   0.26123
  20   29982.3    333.5   0.210974744   2.31655  -0.07534   0.95148   1.18556
  21   30180.7    331.3   0.063528414   0.69297  -0.62137   0.23972   0.49940
  22   30575.7    327.1   0.008866506   0.09547   0.20095   0.06764   0.22474
  23   30730.7    325.4   0.458619130   4.91310  -2.20024   0.08030  -0.25607
  24   30957.6    323.0   0.043190733   0.45930   0.04181   0.38233  -0.55801
  25   31132.6    321.2   0.045565616   0.48183   0.16968   0.64180  -0.20283
  26   31368.1    318.8   0.049820418   0.52287  -0.55085  -0.40615   0.23340
  27   31456.2    317.9   0.058543598   0.61270   0.69911   0.33204  -0.11707
  28   31604.5    316.4   0.054435075   0.56703   0.57271  -0.48089   0.08823
  29   31971.4    312.8   0.078042266   0.80361  -0.77637   0.44719  -0.02969
  30   32101.6    311.5   0.060631052   0.62179   0.75600  -0.12351  -0.18708
  31   32557.9    307.1   0.154853403   1.56581   1.02099   0.02525   0.72301
  32   32968.4    303.3   0.078029788   0.77918   0.63129  -0.46796  -0.40207
  33   33484.9    298.6   0.035387632   0.34792   0.44805  -0.38150   0.04041
  34   33693.6    296.8   0.020618810   0.20146  -0.09612  -0.12797   0.41934
  35   34146.4    292.9   0.206903524   1.99479   1.18827  -0.65782   0.38741
  36   34560.7    289.3   0.134205011   1.27838   0.21792  -0.92157   0.61774
  37   34746.6    287.8   0.068665454   0.65058  -0.16300   0.78780   0.05814
  38   35364.5    282.8   0.528931187   4.92387  -1.82210  -0.33728   1.22068
  39   35601.3    280.9   0.272943840   2.52396  -0.09614   1.56388  -0.26269
  40   35764.4    279.6   0.095853584   0.88233  -0.92090  -0.10319   0.15371
  41   35966.4    278.0   0.013227076   0.12107   0.19626   0.23304   0.16807
  42   36200.2    276.2   0.031827851   0.28945  -0.18970  -0.09299   0.49479
  43   36604.8    273.2   0.021486870   0.19325  -0.26781   0.03960  -0.34635
  44   36889.1    271.1   0.020999366   0.18741   0.19482   0.19023   0.33655
  45   36980.8    270.4   0.059058666   0.52575  -0.52994   0.29486   0.39746
  46   37124.5    269.4   0.070008301   0.62082  -0.34193   0.68736   0.17732
  47   37283.6    268.2   0.025737421   0.22726   0.31530  -0.33480   0.12552
  48   37528.1    266.5   0.068161013   0.59794   0.68539  -0.06628   0.35183
  49   37794.9    264.6   0.053063972   0.46221  -0.64495   0.15172  -0.15242
  50   37959.4    263.4   0.034989746   0.30346  -0.39145   0.06269   0.38248
  51   38173.2    262.0   0.181733889   1.56730   0.62614  -0.71711   0.81302
  52   38360.0    260.7   0.007410312   0.06360   0.01249  -0.15622   0.19758
  53   38648.4    258.7   0.013706494   0.11675  -0.10609  -0.08372   0.31383
  54   38756.4    258.0   0.011364910   0.09654   0.29566   0.07577   0.05815
  55   39043.8    256.1   0.136618753   1.15195   1.00197   0.13572   0.35998
  56   39240.3    254.8   0.067840845   0.56916   0.47250   0.57415   0.12748
  57   39694.0    251.9   0.027373702   0.22703  -0.28351  -0.14878  -0.35287
  58   39820.1    251.1   0.013921109   0.11509   0.00577   0.16507   0.29633
  59   39880.2    250.8   0.181365953   1.49718  -1.17035   0.35568   0.03102
  60   39928.7    250.4   0.093718797   0.77271  -0.68536   0.48484   0.26060
  61   40317.7    248.0   0.014464652   0.11811   0.17216   0.25431   0.15427

FINAL SINGLE POINT ENERGY     -5781.533139430538

DIPOLE MOMENT
-------------
                                X             Y             Z
Electronic contribution:     47.51199      -5.67610      14.12996
Nuclear contribution   :    -56.60395       5.42650     -17.92386
                        -----------------------------------------
Total Dipole Moment    :     -9.09196      -0.24961      -3.79390
                        -----------------------------------------
Magnitude (a.u.)       :      9.85493
Magnitude (Debye)      :     25.04925

Rotational constants in cm-1:     0.001097     0.000183     0.000163
Rotational constants in MHz :    32.901232     5.478055     4.895655

                             ****ORCA TERMINATED NORMALLY****
TOTAL RUN TIME: 0 days 0 hours 12 minutes 1 seconds 737 msec
