                         Program Version 4.2.0 -  RELEASE  -
|  1> # ORCA input file
|  2> # SCF done       -204.330316097145          0.000517296510
|  3> ! CAM-B3LYP def2-SVP def2/J RIJCOSX Grid4 TightSCF
|  4> %maxcore 5000
|  5> %tddft
|  6>     Mode sTDDFT
|  7>     Ethresh 5.0
|  8>     maxcore 5000
|  9> end
| 10>
| 11> %pal
| 12>   nprocs 6
| 13>   end
| 14> * xyz 0 1
| 15>    C       -1.96400         0.16512        -1.13646
| 16>    C       -1.34605         1.39690        -1.27697
| 17>    C       -0.65420         1.92122        -0.18367
| 18>    C       -0.00603         3.17555        -0.30932
| 19>    N        0.51657         4.18785        -0.42091
| 20>    C       -0.58331         1.22598         1.03919
| 21>    C        0.12604         1.78704         2.12881
| 22>    N        0.69847         2.22517         3.01830
| 23>    C       -1.20400        -0.01651         1.17483
| 24>    C       -1.87961        -0.52611         0.08613
| 25>    C       -2.59038        -1.82104        -0.01778
| 26>    O       -2.69217        -2.64404         0.86337
| 27>    C       -3.06902        -1.89454        -1.41847
| 28>    C       -2.74968        -0.63625        -2.07329
| 29>    C       -3.17113        -0.22095        -3.30745
| 30>    C       -2.84258         1.02980        -3.87622
| 31>    N       -2.60415         2.02654        -4.39123
| 32>    C       -4.01991        -0.95133        -4.16886
| 33>    N       -4.72244        -1.47567        -4.90980
| 34>    C       -3.56564        -2.99007        -2.07047
| 35>    C       -3.98117        -4.24181        -1.57475
| 36>    C       -4.28455        -4.69365        -0.29490
| 37>    C       -4.69470        -6.01986        -0.29407
| 38>    C       -4.69724        -6.59889        -1.58350
| 39>    S       -4.23328        -5.50189        -2.79122
| 40>    C       -5.08600        -7.95576        -1.46696
| 41>    C       -5.34241        -8.23464        -0.11278
| 42>    C       -5.10454        -7.03078         0.67006
| 43>    C       -5.22683        -6.89948         2.02090
| 44>    C       -5.56399        -7.99979         2.84115
| 45>    N       -5.80638        -8.90753         3.49759
| 46>    C       -5.01720        -5.67502         2.69372
| 47>    N       -4.87273        -4.68607         3.25374
| 48>    C       -5.74190        -9.55384         0.09759
| 49>    C       -5.76592       -10.27328        -1.08204
| 50>    S       -5.31018        -9.31631        -2.47321
| 51>    C       -6.09254       -11.66488        -1.22177
| 52>    C       -5.88231       -12.39258        -2.34990
| 53>    C       -6.18995       -13.78885        -2.38062
| 54>    C       -5.98291       -14.56527        -3.50629
| 55>    C       -6.28886       -15.93605        -3.51942
| 56>    N       -6.54601       -17.05534        -3.51253
| 57>    C       -5.45901       -14.01880        -4.68940
| 58>    N       -5.02771       -13.55561        -5.64776
| 59>    C       -6.72658       -14.32837        -1.16975
| 60>    C       -6.92970       -13.52979        -0.08929
| 61>    O       -6.61874       -12.20651        -0.09137
| 62>    C       -7.51117       -13.97220         1.14735
| 63>    C       -7.96086       -13.16701         2.17630
| 64>    C       -8.51057       -13.91897         3.21398
| 65>    C       -8.45068       -15.30342         2.97283
| 66>    S       -7.74684       -15.67655         1.46471
| 67>    C       -9.02015       -15.98215         4.08007
| 68>    C       -9.45169       -15.01952         5.01596
| 69>    C       -9.14624       -13.69352         4.50215
| 70>    C       -9.41112       -12.49848         5.10266
| 71>    C      -10.02115       -12.44292         6.37444
| 72>    N      -10.52144       -12.42913         7.40576
| 73>    C       -9.12925       -11.26624         4.47325
| 74>    N       -8.93165       -10.27489         3.93326
| 75>    C      -10.02496       -15.58539         6.14623
| 76>    C      -10.02509       -16.97421         6.09467
| 77>    S       -9.32987       -17.57190         4.59159
| 78>    C      -10.53842       -17.91218         7.01357
| 79>    C      -10.91238       -17.75452         8.31502
| 80>    C      -11.80345       -18.78875         8.91362
| 81>    O      -12.06783       -19.87172         8.45149
| 82>    C      -12.32697       -18.17593        10.15461
| 83>    C      -13.28690       -18.66415        11.01551
| 84>    C      -13.65056       -17.87616        12.10883
| 85>    C      -13.04997       -16.61764        12.30579
| 86>    C      -12.07001       -16.13796        11.43417
| 87>    C      -11.70409       -16.92879        10.35888
| 88>    C      -10.70526       -16.72134         9.30695
| 89>    C       -9.63109       -15.87847         9.41149
| 90>    C       -8.55216       -15.87633         8.50513
| 91>    N       -7.65154       -15.86573         7.79390
| 92>    C       -9.43113       -14.98821        10.48971
| 93>    N       -9.22562       -14.25628        11.34792
| 94>    C      -13.45250       -15.82260        13.40821
| 95>    N      -13.77733       -15.17564        14.29476
| 96>    C      -14.63296       -18.34074        13.01699
| 97>    N      -15.43059       -18.73398        13.73815
| 98>    H       -1.37421         1.95688        -2.19801
| 99>    H       -1.15723        -0.56525         2.10322
|100>    H       -3.63033        -2.91654        -3.15021
|101>    H       -4.19783        -4.07253         0.57772
|102>    H       -5.99085        -9.98560         1.04942
|103>    H       -5.46579       -11.92252        -3.22683
|104>    H       -6.98538       -15.37452        -1.12507
|105>    H       -7.89666       -12.09465         2.15137
|106>    H      -10.46938       -15.02620         6.94893
|107>    H      -10.73500       -18.90310         6.61325
|108>    H      -13.74488       -19.62697        10.84716
|109>    H      -11.63571       -15.16634        11.60979
|110> *
|111>
|112>                          ****END OF INPUT****

CARTESIAN COORDINATES (ANGSTROEM)
---------------------------------
  C     -1.964000    0.165120   -1.136460
  C     -1.346050    1.396900   -1.276970
  C     -0.654200    1.921220   -0.183670
  C     -0.006030    3.175550   -0.309320
  N      0.516570    4.187850   -0.420910
  C     -0.583310    1.225980    1.039190
  C      0.126040    1.787040    2.128810
  N      0.698470    2.225170    3.018300
  C     -1.204000   -0.016510    1.174830
  C     -1.879610   -0.526110    0.086130
  C     -2.590380   -1.821040   -0.017780
  O     -2.692170   -2.644040    0.863370
  C     -3.069020   -1.894540   -1.418470
  C     -2.749680   -0.636250   -2.073290
  C     -3.171130   -0.220950   -3.307450
  C     -2.842580    1.029800   -3.876220
  N     -2.604150    2.026540   -4.391230
  C     -4.019910   -0.951330   -4.168860
  N     -4.722440   -1.475670   -4.909800
  C     -3.565640   -2.990070   -2.070470
  C     -3.981170   -4.241810   -1.574750
  C     -4.284550   -4.693650   -0.294900
  C     -4.694700   -6.019860   -0.294070
  C     -4.697240   -6.598890   -1.583500
  S     -4.233280   -5.501890   -2.791220
  C     -5.086000   -7.955760   -1.466960
  C     -5.342410   -8.234640   -0.112780
  C     -5.104540   -7.030780    0.670060
  C     -5.226830   -6.899480    2.020900
  C     -5.563990   -7.999790    2.841150
  N     -5.806380   -8.907530    3.497590
  C     -5.017200   -5.675020    2.693720
  N     -4.872730   -4.686070    3.253740
  C     -5.741900   -9.553840    0.097590
  C     -5.765920  -10.273280   -1.082040
  S     -5.310180   -9.316310   -2.473210
  C     -6.092540  -11.664880   -1.221770
  C     -5.882310  -12.392580   -2.349900
  C     -6.189950  -13.788850   -2.380620
  C     -5.982910  -14.565270   -3.506290
  C     -6.288860  -15.936050   -3.519420
  N     -6.546010  -17.055340   -3.512530
  C     -5.459010  -14.018800   -4.689400
  N     -5.027710  -13.555610   -5.647760
  C     -6.726580  -14.328370   -1.169750
  C     -6.929700  -13.529790   -0.089290
  O     -6.618740  -12.206510   -0.091370
  C     -7.511170  -13.972200    1.147350
  C     -7.960860  -13.167010    2.176300
  C     -8.510570  -13.918970    3.213980
  C     -8.450680  -15.303420    2.972830
  S     -7.746840  -15.676550    1.464710
  C     -9.020150  -15.982150    4.080070
  C     -9.451690  -15.019520    5.015960
  C     -9.146240  -13.693520    4.502150
  C     -9.411120  -12.498480    5.102660
  C    -10.021150  -12.442920    6.374440
  N    -10.521440  -12.429130    7.405760
  C     -9.129250  -11.266240    4.473250
  N     -8.931650  -10.274890    3.933260
  C    -10.024960  -15.585390    6.146230
  C    -10.025090  -16.974210    6.094670
  S     -9.329870  -17.571900    4.591590
  C    -10.538420  -17.912180    7.013570
  C    -10.912380  -17.754520    8.315020
  C    -11.803450  -18.788750    8.913620
  O    -12.067830  -19.871720    8.451490
  C    -12.326970  -18.175930   10.154610
  C    -13.286900  -18.664150   11.015510
  C    -13.650560  -17.876160   12.108830
  C    -13.049970  -16.617640   12.305790
  C    -12.070010  -16.137960   11.434170
  C    -11.704090  -16.928790   10.358880
  C    -10.705260  -16.721340    9.306950
  C     -9.631090  -15.878470    9.411490
  C     -8.552160  -15.876330    8.505130
  N     -7.651540  -15.865730    7.793900
  C     -9.431130  -14.988210   10.489710
  N     -9.225620  -14.256280   11.347920
  C    -13.452500  -15.822600   13.408210
  N    -13.777330  -15.175640   14.294760
  C    -14.632960  -18.340740   13.016990
  N    -15.430590  -18.733980   13.738150
  H     -1.374210    1.956880   -2.198010
  H     -1.157230   -0.565250    2.103220
  H     -3.630330   -2.916540   -3.150210
  H     -4.197830   -4.072530    0.577720
  H     -5.990850   -9.985600    1.049420
  H     -5.465790  -11.922520   -3.226830
  H     -6.985380  -15.374520   -1.125070
  H     -7.896660  -12.094650    2.151370
  H    -10.469380  -15.026200    6.948930
  H    -10.735000  -18.903100    6.613250
  H    -13.744880  -19.626970   10.847160
  H    -11.635710  -15.166340   11.609790

 Total Charge           Charge          ....    0
 Multiplicity           Mult            ....    1
 Number of Electrons    NEL             ....  570
 Basis Dimension        Dim             .... 1238

ORBITAL ENERGIES
----------------

  NO   OCC          E(Eh)            E(eV)
   0   2.0000     -89.028013     -2422.5754
   1   2.0000     -89.027713     -2422.5672
   2   2.0000     -89.023204     -2422.4445
   3   2.0000     -89.022244     -2422.4184
   4   2.0000     -19.350230      -526.5465
   5   2.0000     -19.251769      -523.8673
   6   2.0000     -19.248772      -523.7857
   7   2.0000     -14.455966      -393.3668
   8   2.0000     -14.453840      -393.3090
   9   2.0000     -14.453372      -393.2963
  10   2.0000     -14.450858      -393.2278
  11   2.0000     -14.446762      -393.1164
  12   2.0000     -14.444454      -393.0536
  13   2.0000     -14.440989      -392.9593
  14   2.0000     -14.440771      -392.9534
  15   2.0000     -14.435167      -392.8009
  16   2.0000     -14.434686      -392.7878
  17   2.0000     -14.434278      -392.7767
  18   2.0000     -14.433838      -392.7647
  19   2.0000     -14.415839      -392.2749
  20   2.0000     -14.415699      -392.2711
  21   2.0000     -10.416081      -283.4360
  22   2.0000     -10.415849      -283.4297
  23   2.0000     -10.403074      -283.0820
  24   2.0000     -10.399644      -282.9887
  25   2.0000     -10.393601      -282.8243
  26   2.0000     -10.393251      -282.8147
  27   2.0000     -10.379422      -282.4384
  28   2.0000     -10.378234      -282.4061
  29   2.0000     -10.377683      -282.3911
  30   2.0000     -10.375582      -282.3340
  31   2.0000     -10.374268      -282.2982
  32   2.0000     -10.372433      -282.2483
  33   2.0000     -10.371798      -282.2310
  34   2.0000     -10.370723      -282.2017
  35   2.0000     -10.369427      -282.1665
  36   2.0000     -10.369133      -282.1585
  37   2.0000     -10.368794      -282.1492
  38   2.0000     -10.367915      -282.1253
  39   2.0000     -10.367663      -282.1184
  40   2.0000     -10.367316      -282.1090
  41   2.0000     -10.363396      -282.0023
  42   2.0000     -10.362198      -281.9697
  43   2.0000     -10.359330      -281.8917
  44   2.0000     -10.357268      -281.8356
  45   2.0000     -10.356339      -281.8103
  46   2.0000     -10.356326      -281.8099
  47   2.0000     -10.355557      -281.7890
  48   2.0000     -10.354363      -281.7565
  49   2.0000     -10.352720      -281.7118
  50   2.0000     -10.352124      -281.6956
  51   2.0000     -10.350259      -281.6449
  52   2.0000     -10.349193      -281.6159
  53   2.0000     -10.348779      -281.6046
  54   2.0000     -10.346463      -281.5416
  55   2.0000     -10.345876      -281.5256
  56   2.0000     -10.343191      -281.4525
  57   2.0000     -10.342779      -281.4413
  58   2.0000     -10.342184      -281.4251
  59   2.0000     -10.342160      -281.4245
  60   2.0000     -10.341988      -281.4198
  61   2.0000     -10.341521      -281.4071
  62   2.0000     -10.340957      -281.3917
  63   2.0000     -10.340519      -281.3798
  64   2.0000     -10.339658      -281.3564
  65   2.0000     -10.339556      -281.3536
  66   2.0000     -10.339316      -281.3471
  67   2.0000     -10.339109      -281.3415
  68   2.0000     -10.336519      -281.2710
  69   2.0000     -10.336513      -281.2708
  70   2.0000     -10.335120      -281.2329
  71   2.0000     -10.334435      -281.2143
  72   2.0000     -10.334034      -281.2034
  73   2.0000     -10.331622      -281.1377
  74   2.0000     -10.331536      -281.1354
  75   2.0000     -10.331504      -281.1345
  76   2.0000     -10.330930      -281.1189
  77   2.0000     -10.330829      -281.1161
  78   2.0000     -10.330412      -281.1048
  79   2.0000     -10.330263      -281.1007
  80   2.0000     -10.329889      -281.0906
  81   2.0000     -10.318942      -280.7927
  82   2.0000     -10.318809      -280.7891
  83   2.0000      -8.122369      -221.0209
  84   2.0000      -8.121980      -221.0103
  85   2.0000      -8.117845      -220.8978
  86   2.0000      -8.117156      -220.8790
  87   2.0000      -6.091643      -165.7620
  88   2.0000      -6.091258      -165.7516
  89   2.0000      -6.087456      -165.6481
  90   2.0000      -6.087057      -165.6372
  91   2.0000      -6.087000      -165.6357
  92   2.0000      -6.086235      -165.6149
  93   2.0000      -6.084664      -165.5721
  94   2.0000      -6.084317      -165.5627
  95   2.0000      -6.082791      -165.5212
  96   2.0000      -6.082089      -165.5021
  97   2.0000      -6.080387      -165.4557
  98   2.0000      -6.079687      -165.4367
  99   2.0000      -1.260590       -34.3024
 100   2.0000      -1.167753       -31.7762
 101   2.0000      -1.164865       -31.6976
 102   2.0000      -1.079002       -29.3611
 103   2.0000      -1.078234       -29.3402
 104   2.0000      -1.053941       -28.6792
 105   2.0000      -1.052953       -28.6523
 106   2.0000      -1.047502       -28.5040
 107   2.0000      -1.045075       -28.4379
 108   2.0000      -1.039977       -28.2992
 109   2.0000      -1.038246       -28.2521
 110   2.0000      -1.036490       -28.2043
 111   2.0000      -1.033552       -28.1244
 112   2.0000      -1.031282       -28.0626
 113   2.0000      -1.028294       -27.9813
 114   2.0000      -1.022249       -27.8168
 115   2.0000      -1.021181       -27.7878
 116   2.0000      -1.019566       -27.7438
 117   2.0000      -1.019327       -27.7373
 118   2.0000      -1.017510       -27.6879
 119   2.0000      -1.013858       -27.5885
 120   2.0000      -1.013397       -27.5759
 121   2.0000      -0.997512       -27.1437
 122   2.0000      -0.994776       -27.0692
 123   2.0000      -0.993014       -27.0213
 124   2.0000      -0.987374       -26.8678
 125   2.0000      -0.986569       -26.8459
 126   2.0000      -0.980368       -26.6772
 127   2.0000      -0.965449       -26.2712
 128   2.0000      -0.949540       -25.8383
 129   2.0000      -0.940864       -25.6022
 130   2.0000      -0.937535       -25.5116
 131   2.0000      -0.936707       -25.4891
 132   2.0000      -0.921753       -25.0822
 133   2.0000      -0.916286       -24.9334
 134   2.0000      -0.913069       -24.8459
 135   2.0000      -0.912083       -24.8190
 136   2.0000      -0.902072       -24.5466
 137   2.0000      -0.900103       -24.4931
 138   2.0000      -0.898076       -24.4379
 139   2.0000      -0.890692       -24.2370
 140   2.0000      -0.887649       -24.1541
 141   2.0000      -0.865950       -23.5637
 142   2.0000      -0.860780       -23.4230
 143   2.0000      -0.836326       -22.7576
 144   2.0000      -0.829166       -22.5628
 145   2.0000      -0.819437       -22.2980
 146   2.0000      -0.819277       -22.2937
 147   2.0000      -0.808529       -22.0012
 148   2.0000      -0.807970       -21.9860
 149   2.0000      -0.796688       -21.6790
 150   2.0000      -0.786346       -21.3975
 151   2.0000      -0.765823       -20.8391
 152   2.0000      -0.764287       -20.7973
 153   2.0000      -0.757197       -20.6044
 154   2.0000      -0.754844       -20.5404
 155   2.0000      -0.734126       -19.9766
 156   2.0000      -0.732555       -19.9338
 157   2.0000      -0.725620       -19.7451
 158   2.0000      -0.722724       -19.6663
 159   2.0000      -0.719714       -19.5844
 160   2.0000      -0.715342       -19.4654
 161   2.0000      -0.712288       -19.3824
 162   2.0000      -0.707323       -19.2472
 163   2.0000      -0.701113       -19.0783
 164   2.0000      -0.696651       -18.9568
 165   2.0000      -0.692333       -18.8393
 166   2.0000      -0.679115       -18.4796
 167   2.0000      -0.675872       -18.3914
 168   2.0000      -0.667731       -18.1699
 169   2.0000      -0.667441       -18.1620
 170   2.0000      -0.665332       -18.1046
 171   2.0000      -0.660110       -17.9625
 172   2.0000      -0.656702       -17.8698
 173   2.0000      -0.647930       -17.6311
 174   2.0000      -0.642827       -17.4922
 175   2.0000      -0.634982       -17.2787
 176   2.0000      -0.629837       -17.1387
 177   2.0000      -0.626475       -17.0473
 178   2.0000      -0.622909       -16.9502
 179   2.0000      -0.619330       -16.8528
 180   2.0000      -0.618028       -16.8174
 181   2.0000      -0.612354       -16.6630
 182   2.0000      -0.611116       -16.6293
 183   2.0000      -0.606461       -16.5026
 184   2.0000      -0.597585       -16.2611
 185   2.0000      -0.595538       -16.2054
 186   2.0000      -0.580001       -15.7826
 187   2.0000      -0.579151       -15.7595
 188   2.0000      -0.579088       -15.7578
 189   2.0000      -0.577735       -15.7210
 190   2.0000      -0.575869       -15.6702
 191   2.0000      -0.574878       -15.6432
 192   2.0000      -0.571821       -15.5600
 193   2.0000      -0.571081       -15.5399
 194   2.0000      -0.568285       -15.4638
 195   2.0000      -0.566957       -15.4277
 196   2.0000      -0.552469       -15.0334
 197   2.0000      -0.547767       -14.9055
 198   2.0000      -0.546002       -14.8575
 199   2.0000      -0.544660       -14.8209
 200   2.0000      -0.539752       -14.6874
 201   2.0000      -0.537700       -14.6316
 202   2.0000      -0.536486       -14.5985
 203   2.0000      -0.533926       -14.5289
 204   2.0000      -0.532606       -14.4929
 205   2.0000      -0.531853       -14.4725
 206   2.0000      -0.530541       -14.4368
 207   2.0000      -0.528561       -14.3829
 208   2.0000      -0.527138       -14.3442
 209   2.0000      -0.521135       -14.1808
 210   2.0000      -0.519748       -14.1431
 211   2.0000      -0.519027       -14.1234
 212   2.0000      -0.515282       -14.0215
 213   2.0000      -0.513591       -13.9755
 214   2.0000      -0.512353       -13.9418
 215   2.0000      -0.509082       -13.8528
 216   2.0000      -0.506895       -13.7933
 217   2.0000      -0.502969       -13.6865
 218   2.0000      -0.499622       -13.5954
 219   2.0000      -0.498104       -13.5541
 220   2.0000      -0.496083       -13.4991
 221   2.0000      -0.486481       -13.2378
 222   2.0000      -0.485761       -13.2182
 223   2.0000      -0.484061       -13.1720
 224   2.0000      -0.482171       -13.1205
 225   2.0000      -0.479169       -13.0388
 226   2.0000      -0.478747       -13.0274
 227   2.0000      -0.477167       -12.9844
 228   2.0000      -0.474158       -12.9025
 229   2.0000      -0.473264       -12.8782
 230   2.0000      -0.472896       -12.8682
 231   2.0000      -0.470491       -12.8027
 232   2.0000      -0.468362       -12.7448
 233   2.0000      -0.468234       -12.7413
 234   2.0000      -0.467682       -12.7263
 235   2.0000      -0.466179       -12.6854
 236   2.0000      -0.463792       -12.6204
 237   2.0000      -0.463249       -12.6057
 238   2.0000      -0.461513       -12.5584
 239   2.0000      -0.461038       -12.5455
 240   2.0000      -0.460964       -12.5435
 241   2.0000      -0.460407       -12.5283
 242   2.0000      -0.459713       -12.5094
 243   2.0000      -0.458719       -12.4824
 244   2.0000      -0.458472       -12.4757
 245   2.0000      -0.457893       -12.4599
 246   2.0000      -0.457526       -12.4499
 247   2.0000      -0.454224       -12.3601
 248   2.0000      -0.453372       -12.3369
 249   2.0000      -0.452381       -12.3099
 250   2.0000      -0.451426       -12.2839
 251   2.0000      -0.451122       -12.2757
 252   2.0000      -0.449618       -12.2347
 253   2.0000      -0.447540       -12.1782
 254   2.0000      -0.445888       -12.1332
 255   2.0000      -0.442526       -12.0417
 256   2.0000      -0.441695       -12.0191
 257   2.0000      -0.438458       -11.9310
 258   2.0000      -0.437643       -11.9089
 259   2.0000      -0.435348       -11.8464
 260   2.0000      -0.434366       -11.8197
 261   2.0000      -0.433933       -11.8079
 262   2.0000      -0.432916       -11.7802
 263   2.0000      -0.431892       -11.7524
 264   2.0000      -0.430789       -11.7224
 265   2.0000      -0.430490       -11.7142
 266   2.0000      -0.427782       -11.6405
 267   2.0000      -0.417266       -11.3544
 268   2.0000      -0.410404       -11.1677
 269   2.0000      -0.401606       -10.9282
 270   2.0000      -0.383225       -10.4281
 271   2.0000      -0.381937       -10.3930
 272   2.0000      -0.380193       -10.3456
 273   2.0000      -0.377458       -10.2711
 274   2.0000      -0.375025       -10.2049
 275   2.0000      -0.372779       -10.1438
 276   2.0000      -0.369114       -10.0441
 277   2.0000      -0.359748        -9.7892
 278   2.0000      -0.351563        -9.5665
 279   2.0000      -0.349773        -9.5178
 280   2.0000      -0.347164        -9.4468
 281   2.0000      -0.341900        -9.3036
 282   2.0000      -0.316495        -8.6123
 283   2.0000      -0.296046        -8.0558
 284   2.0000      -0.289992        -7.8911
 285   0.0000      -0.141471        -3.8496
 286   0.0000      -0.140242        -3.8162
 287   0.0000      -0.118106        -3.2138
 288   0.0000      -0.117513        -3.1977
 289   0.0000      -0.104864        -2.8535

MULLIKEN ATOMIC CHARGES
-----------------------
   0 C :    0.044445
   1 C :   -0.040885
   2 C :   -0.062270
   3 C :   -0.172100
   4 N :    0.207991
   5 C :   -0.065010
   6 C :   -0.174130
   7 N :    0.203665
   8 C :   -0.031156
   9 C :   -0.003475
  10 C :    0.158423
  11 O :   -0.131281
  12 C :   -0.090263
  13 C :    0.298961
  14 C :   -0.327963
  15 C :   -0.186072
  16 N :    0.176217
  17 C :   -0.201141
  18 N :    0.172511
  19 C :    0.036799
  20 C :   -0.111498
  21 C :    0.011841
  22 C :   -0.005226
  23 C :   -0.083177
  24 S :    0.223927
  25 C :   -0.090578
  26 C :    0.027934
  27 C :    0.297094
  28 C :   -0.276258
  29 C :   -0.184385
  30 N :    0.183488
  31 C :   -0.185564
  32 N :    0.197191
  33 C :   -0.029242
  34 C :   -0.091809
  35 S :    0.228169
  36 C :    0.262753
  37 C :   -0.170818
  38 C :    0.284961
  39 C :   -0.337864
  40 C :   -0.176003
  41 N :    0.133122
  42 C :   -0.174671
  43 N :    0.135953
  44 C :   -0.174870
  45 C :    0.266020
  46 O :   -0.232850
  47 C :   -0.096123
  48 C :   -0.025358
  49 C :    0.025292
  50 C :   -0.093326
  51 S :    0.228296
  52 C :   -0.072553
  53 C :    0.003496
  54 C :    0.292399
  55 C :   -0.267151
  56 C :   -0.181607
  57 N :    0.175069
  58 C :   -0.183904
  59 N :    0.186050
  60 C :    0.001950
  61 C :   -0.107337
  62 S :    0.231531
  63 C :    0.088233
  64 C :   -0.138816
  65 C :    0.140935
  66 O :   -0.123632
  67 C :    0.010458
  68 C :   -0.029060
  69 C :   -0.068511
  70 C :   -0.061631
  71 C :   -0.031384
  72 C :    0.031257
  73 C :    0.261360
  74 C :   -0.311342
  75 C :   -0.198633
  76 N :    0.180580
  77 C :   -0.171755
  78 N :    0.182073
  79 C :   -0.172849
  80 N :    0.205513
  81 C :   -0.172502
  82 N :    0.199214
  83 H :    0.023620
  84 H :    0.021198
  85 H :    0.023491
  86 H :    0.040838
  87 H :    0.020686
  88 H :    0.033929
  89 H :    0.034344
  90 H :    0.022203
  91 H :    0.025281
  92 H :    0.029218
  93 H :    0.019613
  94 H :    0.028442
Sum of atomic charges:   -0.0000000

LOEWDIN ATOMIC CHARGES
----------------------
   0 C :    0.001233
   1 C :    0.034981
   2 C :   -0.021815
   3 C :   -0.031988
   4 N :   -0.007257
   5 C :   -0.026219
   6 C :   -0.032493
   7 N :   -0.009240
   8 C :    0.051050
   9 C :   -0.029522
  10 C :    0.086110
  11 O :   -0.120893
  12 C :   -0.096599
  13 C :    0.068502
  14 C :   -0.121647
  15 C :   -0.022532
  16 N :   -0.029409
  17 C :   -0.024921
  18 N :   -0.034476
  19 C :    0.049240
  20 C :   -0.173464
  21 C :    0.022877
  22 C :   -0.065767
  23 C :   -0.161932
  24 S :    0.509271
  25 C :   -0.175064
  26 C :   -0.052722
  27 C :    0.069662
  28 C :   -0.080446
  29 C :   -0.015681
  30 N :   -0.016219
  31 C :   -0.021588
  32 N :   -0.006815
  33 C :   -0.005705
  34 C :   -0.181533
  35 S :    0.511746
  36 C :    0.075019
  37 C :   -0.054446
  38 C :    0.053441
  39 C :   -0.169669
  40 C :   -0.030306
  41 N :   -0.062155
  42 C :   -0.030573
  43 N :   -0.061830
  44 C :   -0.056282
  45 C :    0.075744
  46 O :   -0.000454
  47 C :   -0.184259
  48 C :   -0.003777
  49 C :   -0.056180
  50 C :   -0.170200
  51 S :    0.512859
  52 C :   -0.162466
  53 C :   -0.058537
  54 C :    0.076074
  55 C :   -0.084758
  56 C :   -0.012202
  57 N :   -0.023667
  58 C :   -0.017325
  59 N :   -0.015189
  60 C :    0.014152
  61 C :   -0.177570
  62 S :    0.513830
  63 C :    0.048887
  64 C :   -0.093929
  65 C :    0.084326
  66 O :   -0.124507
  67 C :   -0.032761
  68 C :    0.051010
  69 C :   -0.027589
  70 C :   -0.020286
  71 C :    0.034694
  72 C :    0.005159
  73 C :    0.058348
  74 C :   -0.119436
  75 C :   -0.014746
  76 N :   -0.030676
  77 C :   -0.023492
  78 N :   -0.023440
  79 C :   -0.031809
  80 N :   -0.006383
  81 C :   -0.032459
  82 N :   -0.010296
  83 H :    0.053070
  84 H :    0.056009
  85 H :    0.045475
  86 H :    0.045866
  87 H :    0.046067
  88 H :    0.042958
  89 H :    0.042920
  90 H :    0.046627
  91 H :    0.043241
  92 H :    0.049314
  93 H :    0.055484
  94 H :    0.054357

  Mayer bond orders larger than 0.100000
B(  0-C ,  1-C ) :   1.3587 B(  0-C ,  9-C ) :   1.3344 B(  0-C , 13-C ) :   0.9580
B(  1-C ,  2-C ) :   1.3930 B(  1-C , 83-H ) :   0.9861 B(  2-C ,  3-C ) :   1.0873
B(  2-C ,  5-C ) :   1.4023 B(  3-C ,  4-N ) :   3.0437 B(  5-C ,  6-C ) :   1.0864
B(  5-C ,  8-C ) :   1.3621 B(  6-C ,  7-N ) :   3.0454 B(  8-C ,  9-C ) :   1.3650
B(  8-C , 84-H ) :   1.0151 B(  9-C , 10-C ) :   0.9306 B( 10-C , 11-O ) :   2.2028
B( 10-C , 12-C ) :   0.9468 B( 12-C , 13-C ) :   1.0756 B( 12-C , 19-C ) :   1.5935
B( 13-C , 14-C ) :   1.6604 B( 14-C , 15-C ) :   1.1446 B( 14-C , 17-C ) :   1.1361
B( 15-C , 16-N ) :   2.9671 B( 17-C , 18-N ) :   2.9893 B( 19-C , 20-C ) :   1.2092
B( 19-C , 85-H ) :   0.9195 B( 20-C , 21-C ) :   1.3967 B( 20-C , 24-S ) :   1.0825
B( 21-C , 22-C ) :   1.3267 B( 21-C , 86-H ) :   0.9742 B( 22-C , 23-C ) :   1.3875
B( 22-C , 27-C ) :   0.9944 B( 23-C , 24-S ) :   1.1697 B( 23-C , 25-C ) :   1.1987
B( 25-C , 26-C ) :   1.4326 B( 25-C , 35-S ) :   1.1321 B( 26-C , 27-C ) :   0.9949
B( 26-C , 33-C ) :   1.2769 B( 27-C , 28-C ) :   1.7297 B( 28-C , 29-C ) :   1.1306
B( 28-C , 31-C ) :   1.1329 B( 29-C , 30-N ) :   2.9843 B( 31-C , 32-N ) :   2.9929
B( 33-C , 34-C ) :   1.4391 B( 33-C , 87-H ) :   1.0065 B( 34-C , 35-S ) :   1.1219
B( 34-C , 36-C ) :   1.0867 B( 36-C , 37-C ) :   1.5630 B( 36-C , 46-O ) :   1.1339
B( 37-C , 38-C ) :   1.1360 B( 37-C , 88-H ) :   0.9583 B( 38-C , 39-C ) :   1.5580
B( 38-C , 44-C ) :   1.1371 B( 39-C , 40-C ) :   1.1304 B( 39-C , 42-C ) :   1.1311
B( 40-C , 41-N ) :   3.0043 B( 42-C , 43-N ) :   3.0049 B( 44-C , 45-C ) :   1.5586
B( 44-C , 89-H ) :   0.9590 B( 45-C , 46-O ) :   1.1344 B( 45-C , 47-C ) :   1.0870
B( 47-C , 48-C ) :   1.4390 B( 47-C , 51-S ) :   1.1208 B( 48-C , 49-C ) :   1.2774
B( 48-C , 90-H ) :   1.0072 B( 49-C , 50-C ) :   1.4352 B( 49-C , 54-C ) :   0.9928
B( 50-C , 51-S ) :   1.1363 B( 50-C , 52-C ) :   1.1928 B( 52-C , 53-C ) :   1.4110
B( 52-C , 62-S ) :   1.1596 B( 53-C , 54-C ) :   0.9966 B( 53-C , 60-C ) :   1.3668
B( 54-C , 55-C ) :   1.7308 B( 55-C , 56-C ) :   1.1320 B( 55-C , 58-C ) :   1.1271
B( 56-C , 57-N ) :   2.9812 B( 58-C , 59-N ) :   2.9882 B( 60-C , 61-C ) :   1.3808
B( 60-C , 91-H ) :   0.9776 B( 61-C , 62-S ) :   1.0966 B( 61-C , 63-C ) :   1.1495
B( 63-C , 64-C ) :   1.6610 B( 63-C , 92-H ) :   0.9234 B( 64-C , 65-C ) :   0.9491
B( 64-C , 73-C ) :   1.0411 B( 65-C , 66-O ) :   2.2770 B( 65-C , 67-C ) :   0.9016
B( 67-C , 68-C ) :   1.3709 B( 67-C , 72-C ) :   1.3332 B( 68-C , 69-C ) :   1.3677
B( 68-C , 93-H ) :   1.0138 B( 69-C , 70-C ) :   1.4018 B( 69-C , 81-C ) :   1.0859
B( 70-C , 71-C ) :   1.3880 B( 70-C , 79-C ) :   1.0869 B( 71-C , 72-C ) :   1.3656
B( 71-C , 94-H ) :   0.9896 B( 72-C , 73-C ) :   0.9733 B( 73-C , 74-C ) :   1.6710
B( 74-C , 75-C ) :   1.1727 B( 74-C , 77-C ) :   1.1240 B( 75-C , 76-N ) :   2.9906
B( 77-C , 78-N ) :   2.9900 B( 79-C , 80-N ) :   3.0429 B( 81-C , 82-N ) :   3.0449

-----------------------------------------------------------------------------
         ABSORPTION SPECTRUM VIA TRANSITION ELECTRIC DIPOLE MOMENTS
-----------------------------------------------------------------------------
State   Energy  Wavelength   fosc         T2         TX        TY        TZ
        (cm-1)    (nm)                  (au**2)     (au)      (au)      (au)
-----------------------------------------------------------------------------
   0   15504.9    645.0   0.417570884   8.86618   1.11703   1.67603  -2.19303
   1   16087.8    621.6   0.307583118   6.29423  -0.54959  -2.40760  -0.44232
   2   20671.6    483.8   0.176443305   2.81000  -0.54675  -0.56810   1.47930
   3   20951.8    477.3   0.297383253   4.67273  -0.46643   0.01128   2.11070
   4   21268.0    470.2   0.592454315   9.17072   0.87703   2.25764  -1.81786
   5   22265.0    449.1   0.825324746  12.20330  -0.95542  -3.35929  -0.07505
   6   25126.2    398.0   0.019246355   0.25217   0.44898   0.13886  -0.17693
   7   25330.8    394.8   0.106747747   1.38735  -0.66921  -0.95571  -0.16160
   8   25592.5    390.7   0.079637544   1.02443   0.32354   0.79071   0.54270
   9   25941.6    385.5   0.440809985   5.59410  -0.92797  -0.64794   2.07681
  10   28067.1    356.3   0.114229304   1.33985   0.51009  -0.25546  -1.00717
  11   28186.2    354.8   0.151089754   1.76471   0.08443   0.95869   0.91569
  12   28699.2    348.4   0.124400525   1.42701  -0.80987  -0.83806  -0.26226
  13   28793.3    347.3   0.060821800   0.69541   0.26618   0.12586  -0.78020
  14   29272.9    341.6   0.071565076   0.80484  -0.48313  -0.58418   0.47976
  15   29678.2    336.9   0.219708092   2.43716  -0.13776   1.53563   0.24498
  16   29908.5    334.4   0.188744013   2.07756   0.31443  -0.07776  -1.40451
  17   29970.3    333.7   0.122234732   1.34270  -0.59768   0.69941   0.70448
  18   30272.6    330.3   0.381663479   4.15055   0.06891  -1.18613  -1.65496
  19   30845.5    324.2   0.019721733   0.21049  -0.28785  -0.35717   0.00771
  20   31442.8    318.0   0.036105445   0.37803  -0.40363  -0.40217   0.23103
  21   31762.0    314.8   0.033113793   0.34322   0.47035   0.18289  -0.29757
  22   31894.5    313.5   0.036128324   0.37291  -0.34887  -0.28768  -0.41042
  23   32070.6    311.8   0.349641871   3.58915  -0.64872   0.69563   1.63841
  24   32299.2    309.6   0.083750617   0.85363   0.29419   0.78156  -0.39528
  25   32559.4    307.1   0.130367949   1.31816   0.80801   0.56298  -0.59020
  26   32864.8    304.3   0.149286670   1.49543   0.28819  -0.27647   1.15583
  27   33248.7    300.8   0.019602847   0.19410   0.01809   0.41105  -0.15749
  28   33531.2    298.2   0.079902342   0.78449  -0.39235   0.09992   0.78776
  29   33674.1    297.0   0.068287094   0.66760  -0.41311  -0.63947   0.29668
  30   33849.4    295.4   0.178648609   1.73750   0.01794   0.90048   0.96245
  31   34144.6    292.9   0.131675554   1.26957  -0.38827  -0.93594  -0.49279
  32   34380.4    290.9   0.027491193   0.26324  -0.39369  -0.14710   0.29430
  33   34519.8    289.7   0.229375323   2.18753   0.71800  -0.87972  -0.94768
  34   34768.0    287.6   0.175277838   1.65968   0.80983   0.90396   0.43208
  35   34993.5    285.8   0.094539110   0.88941   0.60347  -0.63048   0.35739
  36   35186.9    284.2   0.440101946   4.11763   0.04226   0.33544  -2.00083
  37   35448.0    282.1   0.102790418   0.95463   0.30449  -0.00268   0.92839
  38   35505.3    281.6   0.641853085   5.95138   1.82262   1.61075  -0.18683
  39   35791.4    279.4   0.068496679   0.63004   0.27122  -0.63487  -0.39168
  40   36015.0    277.7   0.065468457   0.59844   0.24296   0.43374   0.59269
  41   36140.2    276.7   0.165175960   1.50464  -0.25130  -0.62850  -1.02297
  42   36479.5    274.1   0.040831187   0.36848  -0.20515  -0.55629   0.13013
  43   37019.7    270.1   0.163241371   1.45168   0.51055   0.56249  -0.93522
  44   37312.2    268.0   0.192040082   1.69440  -0.39516  -0.01655  -1.24015
  45   37457.6    267.0   0.061164813   0.53757   0.01098   0.52301  -0.51372
  46   37628.1    265.8   0.055597749   0.48643  -0.22358  -0.52740   0.39786
  47   38277.7    261.2   0.060997453   0.52462  -0.26907   0.31281   0.59529
  48   38414.3    260.3   0.020752646   0.17785  -0.07167  -0.36070  -0.20641
  49   38732.1    258.2   0.009867545   0.08387  -0.04281   0.16532  -0.23390
  50   38849.8    257.4   0.069562969   0.58947  -0.00700  -0.76445  -0.07097
  51   39063.5    256.0   0.134251471   1.13142   0.34908   0.59276  -0.81130
  52   39486.8    253.2   0.095388108   0.79528   0.03411  -0.54260   0.70689
  53   39559.4    252.8   0.038205565   0.31795  -0.09211   0.35094   0.43163
  54   39897.6    250.6   0.020514275   0.16927  -0.03271  -0.17319  -0.37176
  55   39966.3    250.2   0.027491059   0.22645   0.07815   0.21622   0.41664
  56   40120.3    249.3   0.076397779   0.62689   0.06148  -0.68177  -0.39788
  57   40302.0    248.1   0.144740627   1.18233   0.59558   0.79717  -0.43832

FINAL SINGLE POINT ENERGY     -4949.715019711139

DIPOLE MOMENT
-------------
                                X             Y             Z
Electronic contribution:      0.91674      -0.79962      -2.68793
Nuclear contribution   :     -1.51070      -2.07735       0.71872
                        -----------------------------------------
Total Dipole Moment    :     -0.59396      -2.87697      -1.96921
                        -----------------------------------------
Magnitude (a.u.)       :      3.53660
Magnitude (Debye)      :      8.98932

Rotational constants in cm-1:     0.001030     0.000201     0.000172
Rotational constants in MHz :    30.867103     6.033362     5.170322

                             ****ORCA TERMINATED NORMALLY****
TOTAL RUN TIME: 0 days 0 hours 14 minutes 26 seconds 451 msec
