                         Program Version 4.2.0 -  RELEASE  -
|  1> # ORCA input file
|  2> # SCF done       -207.922983301460          0.000459373336
|  3> ! CAM-B3LYP def2-SVP def2/J RIJCOSX Grid4 TightSCF
|  4> %maxcore 5000
|  5> %tddft
|  6>     Mode sTDDFT
|  7>     Ethresh 5.0
|  8>     maxcore 5000
|  9> end
| 10>
| 11> %pal
| 12>   nprocs 6
| 13>   end
| 14> * xyz 0 1
| 15>    C       -7.46796         0.32781        -3.25576
| 16>    C       -7.80861         1.59077        -3.71014
| 17>    C       -8.95444         1.72912        -4.49665
| 18>    C       -9.31892         3.01346        -4.97258
| 19>    N       -9.60708         4.05336        -5.35441
| 20>    C       -9.75420         0.61845        -4.82674
| 21>    C      -10.91077         0.79090        -5.62503
| 22>    N      -11.84985         0.90822        -6.26957
| 23>    C       -9.40793        -0.65329        -4.36780
| 24>    C       -8.27424        -0.77627        -3.59334
| 25>    C       -7.70071        -1.99851        -2.99565
| 26>    O       -8.15054        -3.12615        -3.09764
| 27>    C       -6.50250        -1.57365        -2.27058
| 28>    C       -6.35133        -0.13863        -2.42990
| 29>    C       -5.36286         0.66116        -1.92306
| 30>    C       -5.28860         2.05687        -2.12914
| 31>    N       -5.17279         3.19051        -2.26078
| 32>    C       -4.27726         0.22824        -1.12989
| 33>    N       -3.36809        -0.04296        -0.48393
| 34>    C       -5.66916        -2.40091        -1.55828
| 35>    C       -5.72241        -3.78567        -1.35220
| 36>    C       -4.75764        -4.44990        -0.58126
| 37>    C       -4.98405        -5.80901        -0.50798
| 38>    C       -6.13674        -6.19960        -1.23087
| 39>    S       -6.93215        -4.90286        -1.98851
| 40>    C       -6.27381        -7.60626        -1.09550
| 41>    C       -5.22789        -8.09752        -0.30279
| 42>    C       -4.38092        -6.98875         0.09793
| 43>    C       -3.26229        -7.04385         0.87511
| 44>    C       -2.78272        -8.26201         1.40257
| 45>    N       -2.39908        -9.25581         1.82592
| 46>    C       -2.51403        -5.89230         1.20176
| 47>    N       -1.90395        -4.95969         1.46882
| 48>    C       -5.28600        -9.48737        -0.11903
| 49>    C       -6.36616       -10.03386        -0.75506
| 50>    S       -7.32591        -8.84710        -1.61161
| 51>    C       -6.77801       -11.47279        -0.83016
| 52>    C       -5.98029       -12.35254         0.13983
| 53>    N       -6.40734       -11.92052        -2.19145
| 54>    N       -7.13016       -12.41243        -3.01331
| 55>    C       -8.57153       -12.71946        -2.86297
| 56>    C       -9.09568       -12.19584        -1.57632
| 57>    C       -8.23902       -11.60656        -0.60419
| 58>    N       -8.97788       -11.23386         0.40174
| 59>    O      -10.23377       -11.57264         0.08994
| 60>    N      -10.31133       -12.15638        -1.11073
| 61>    C       -9.27712       -12.07982        -4.06112
| 62>    C       -8.65544       -14.21615        -2.87900
| 63>    C       -9.13551       -15.04091        -3.85927
| 64>    C       -9.01757       -16.39335        -3.50261
| 65>    C       -8.43003       -16.57502        -2.24484
| 66>    S       -8.03399       -15.09474        -1.49718
| 67>    C       -8.34938       -17.96455        -1.97295
| 68>    C       -8.89013       -18.66504        -3.06880
| 69>    C       -9.33078       -17.69770        -4.06464
| 70>    C       -9.91066       -17.95866        -5.26995
| 71>    C      -10.15824       -19.27555        -5.71507
| 72>    N      -10.35165       -20.34474        -6.07914
| 73>    C      -10.29281       -16.92534        -6.15283
| 74>    N      -10.59683       -16.08224        -6.86722
| 75>    C       -8.83556       -20.04329        -2.90259
| 76>    C       -8.29054       -20.40688        -1.67747
| 77>    S       -7.79290       -18.99548        -0.74405
| 78>    C       -8.04371       -21.73041        -1.25488
| 79>    C       -7.71139       -22.20982        -0.02358
| 80>    C       -7.02148       -23.52432         0.08093
| 81>    O       -6.91616       -24.36394        -0.77893
| 82>    C       -6.43862       -23.54085         1.44443
| 83>    C       -5.58958       -24.47059         2.00618
| 84>    C       -5.13669       -24.24610         3.30771
| 85>    C       -5.54179       -23.09544         4.01134
| 86>    C       -6.41308       -22.16679         3.43849
| 87>    C       -6.86335       -22.39777         2.15077
| 88>    C       -7.79034       -21.64431         1.30576
| 89>    C       -8.75423       -20.78812         1.76674
| 90>    C       -9.81647       -20.32583         0.96101
| 91>    N      -10.70993       -19.96926         0.33570
| 92>    C       -8.84385       -20.35341         3.10552
| 93>    N       -8.94165       -19.96197         4.17921
| 94>    C       -5.05122       -22.87188         5.32219
| 95>    N       -4.65678       -22.67844         6.37917
| 96>    C       -4.25945       -25.17394         3.92018
| 97>    N       -3.55015       -25.93432         4.39924
| 98>    H       -7.22380         2.46670        -3.47978
| 99>    H      -10.00929        -1.51591        -4.61154
|100>    H       -4.82371        -1.93579        -1.06596
|101>    H       -3.94176        -3.92863        -0.11228
|102>    H       -4.57730       -10.05228         0.45595
|103>    H       -4.93158       -12.34715        -0.14256
|104>    H       -6.34813       -13.37584         0.09698
|105>    H       -6.09872       -11.97709         1.15238
|106>    H       -9.20488       -10.99646        -3.98938
|107>    H      -10.32572       -12.36346        -4.06294
|108>    H       -8.79734       -12.39982        -4.98120
|109>    H       -9.55816       -14.69135        -4.78195
|110>    H       -9.19056       -20.76834        -3.61266
|111>    H       -8.02866       -22.46958        -2.05104
|112>    H       -5.28222       -25.34601         1.45458
|113>    H       -6.70201       -21.29300         4.00140
|114> *
|115>
|116>                          ****END OF INPUT****

CARTESIAN COORDINATES (ANGSTROEM)
---------------------------------
  C     -7.467960    0.327810   -3.255760
  C     -7.808610    1.590770   -3.710140
  C     -8.954440    1.729120   -4.496650
  C     -9.318920    3.013460   -4.972580
  N     -9.607080    4.053360   -5.354410
  C     -9.754200    0.618450   -4.826740
  C    -10.910770    0.790900   -5.625030
  N    -11.849850    0.908220   -6.269570
  C     -9.407930   -0.653290   -4.367800
  C     -8.274240   -0.776270   -3.593340
  C     -7.700710   -1.998510   -2.995650
  O     -8.150540   -3.126150   -3.097640
  C     -6.502500   -1.573650   -2.270580
  C     -6.351330   -0.138630   -2.429900
  C     -5.362860    0.661160   -1.923060
  C     -5.288600    2.056870   -2.129140
  N     -5.172790    3.190510   -2.260780
  C     -4.277260    0.228240   -1.129890
  N     -3.368090   -0.042960   -0.483930
  C     -5.669160   -2.400910   -1.558280
  C     -5.722410   -3.785670   -1.352200
  C     -4.757640   -4.449900   -0.581260
  C     -4.984050   -5.809010   -0.507980
  C     -6.136740   -6.199600   -1.230870
  S     -6.932150   -4.902860   -1.988510
  C     -6.273810   -7.606260   -1.095500
  C     -5.227890   -8.097520   -0.302790
  C     -4.380920   -6.988750    0.097930
  C     -3.262290   -7.043850    0.875110
  C     -2.782720   -8.262010    1.402570
  N     -2.399080   -9.255810    1.825920
  C     -2.514030   -5.892300    1.201760
  N     -1.903950   -4.959690    1.468820
  C     -5.286000   -9.487370   -0.119030
  C     -6.366160  -10.033860   -0.755060
  S     -7.325910   -8.847100   -1.611610
  C     -6.778010  -11.472790   -0.830160
  C     -5.980290  -12.352540    0.139830
  N     -6.407340  -11.920520   -2.191450
  N     -7.130160  -12.412430   -3.013310
  C     -8.571530  -12.719460   -2.862970
  C     -9.095680  -12.195840   -1.576320
  C     -8.239020  -11.606560   -0.604190
  N     -8.977880  -11.233860    0.401740
  O    -10.233770  -11.572640    0.089940
  N    -10.311330  -12.156380   -1.110730
  C     -9.277120  -12.079820   -4.061120
  C     -8.655440  -14.216150   -2.879000
  C     -9.135510  -15.040910   -3.859270
  C     -9.017570  -16.393350   -3.502610
  C     -8.430030  -16.575020   -2.244840
  S     -8.033990  -15.094740   -1.497180
  C     -8.349380  -17.964550   -1.972950
  C     -8.890130  -18.665040   -3.068800
  C     -9.330780  -17.697700   -4.064640
  C     -9.910660  -17.958660   -5.269950
  C    -10.158240  -19.275550   -5.715070
  N    -10.351650  -20.344740   -6.079140
  C    -10.292810  -16.925340   -6.152830
  N    -10.596830  -16.082240   -6.867220
  C     -8.835560  -20.043290   -2.902590
  C     -8.290540  -20.406880   -1.677470
  S     -7.792900  -18.995480   -0.744050
  C     -8.043710  -21.730410   -1.254880
  C     -7.711390  -22.209820   -0.023580
  C     -7.021480  -23.524320    0.080930
  O     -6.916160  -24.363940   -0.778930
  C     -6.438620  -23.540850    1.444430
  C     -5.589580  -24.470590    2.006180
  C     -5.136690  -24.246100    3.307710
  C     -5.541790  -23.095440    4.011340
  C     -6.413080  -22.166790    3.438490
  C     -6.863350  -22.397770    2.150770
  C     -7.790340  -21.644310    1.305760
  C     -8.754230  -20.788120    1.766740
  C     -9.816470  -20.325830    0.961010
  N    -10.709930  -19.969260    0.335700
  C     -8.843850  -20.353410    3.105520
  N     -8.941650  -19.961970    4.179210
  C     -5.051220  -22.871880    5.322190
  N     -4.656780  -22.678440    6.379170
  C     -4.259450  -25.173940    3.920180
  N     -3.550150  -25.934320    4.399240
  H     -7.223800    2.466700   -3.479780
  H    -10.009290   -1.515910   -4.611540
  H     -4.823710   -1.935790   -1.065960
  H     -3.941760   -3.928630   -0.112280
  H     -4.577300  -10.052280    0.455950
  H     -4.931580  -12.347150   -0.142560
  H     -6.348130  -13.375840    0.096980
  H     -6.098720  -11.977090    1.152380
  H     -9.204880  -10.996460   -3.989380
  H    -10.325720  -12.363460   -4.062940
  H     -8.797340  -12.399820   -4.981200
  H     -9.558160  -14.691350   -4.781950
  H     -9.190560  -20.768340   -3.612660
  H     -8.028660  -22.469580   -2.051040
  H     -5.282220  -25.346010    1.454580
  H     -6.702010  -21.293000    4.001400

 Total Charge           Charge          ....    0
 Multiplicity           Mult            ....    1
 Number of Electrons    NEL             ....  576
 Basis Dimension        Dim             .... 1258

ORBITAL ENERGIES
----------------

  NO   OCC          E(Eh)            E(eV)
   0   2.0000     -89.020689     -2422.3761
   1   2.0000     -89.020013     -2422.3577
   2   2.0000     -89.015670     -2422.2395
   3   2.0000     -89.012815     -2422.1618
   4   2.0000     -19.374531      -527.2078
   5   2.0000     -19.254361      -523.9378
   6   2.0000     -19.246585      -523.7262
   7   2.0000     -14.511640      -394.8818
   8   2.0000     -14.511184      -394.8694
   9   2.0000     -14.501395      -394.6030
  10   2.0000     -14.500995      -394.5921
  11   2.0000     -14.452492      -393.2723
  12   2.0000     -14.451773      -393.2527
  13   2.0000     -14.449223      -393.1834
  14   2.0000     -14.447414      -393.1341
  15   2.0000     -14.443691      -393.0328
  16   2.0000     -14.443228      -393.0202
  17   2.0000     -14.442060      -392.9884
  18   2.0000     -14.438279      -392.8856
  19   2.0000     -14.435850      -392.8194
  20   2.0000     -14.435771      -392.8173
  21   2.0000     -14.435340      -392.8056
  22   2.0000     -14.433588      -392.7579
  23   2.0000     -10.402346      -283.0622
  24   2.0000     -10.398485      -282.9572
  25   2.0000     -10.390314      -282.7348
  26   2.0000     -10.385700      -282.6093
  27   2.0000     -10.378022      -282.4003
  28   2.0000     -10.377886      -282.3966
  29   2.0000     -10.377266      -282.3798
  30   2.0000     -10.376683      -282.3639
  31   2.0000     -10.373986      -282.2905
  32   2.0000     -10.372916      -282.2614
  33   2.0000     -10.372700      -282.2555
  34   2.0000     -10.369837      -282.1776
  35   2.0000     -10.369642      -282.1723
  36   2.0000     -10.369527      -282.1692
  37   2.0000     -10.368402      -282.1386
  38   2.0000     -10.367519      -282.1145
  39   2.0000     -10.367029      -282.1012
  40   2.0000     -10.361142      -281.9410
  41   2.0000     -10.358317      -281.8641
  42   2.0000     -10.358043      -281.8567
  43   2.0000     -10.358006      -281.8557
  44   2.0000     -10.356844      -281.8240
  45   2.0000     -10.356360      -281.8109
  46   2.0000     -10.353198      -281.7248
  47   2.0000     -10.353024      -281.7201
  48   2.0000     -10.352998      -281.7194
  49   2.0000     -10.352815      -281.7144
  50   2.0000     -10.352048      -281.6935
  51   2.0000     -10.351078      -281.6671
  52   2.0000     -10.350728      -281.6576
  53   2.0000     -10.349513      -281.6246
  54   2.0000     -10.349060      -281.6122
  55   2.0000     -10.348145      -281.5873
  56   2.0000     -10.346691      -281.5478
  57   2.0000     -10.344664      -281.4926
  58   2.0000     -10.344110      -281.4775
  59   2.0000     -10.343832      -281.4700
  60   2.0000     -10.343469      -281.4601
  61   2.0000     -10.343123      -281.4507
  62   2.0000     -10.342540      -281.4348
  63   2.0000     -10.341076      -281.3950
  64   2.0000     -10.339799      -281.3602
  65   2.0000     -10.338910      -281.3360
  66   2.0000     -10.335972      -281.2561
  67   2.0000     -10.335593      -281.2458
  68   2.0000     -10.334385      -281.2129
  69   2.0000     -10.333819      -281.1975
  70   2.0000     -10.332325      -281.1568
  71   2.0000     -10.332167      -281.1526
  72   2.0000     -10.331896      -281.1452
  73   2.0000     -10.331759      -281.1414
  74   2.0000     -10.331298      -281.1289
  75   2.0000     -10.329662      -281.0844
  76   2.0000     -10.329441      -281.0784
  77   2.0000     -10.327359      -281.0217
  78   2.0000     -10.326630      -281.0019
  79   2.0000     -10.325973      -280.9840
  80   2.0000     -10.325014      -280.9579
  81   2.0000     -10.310017      -280.5498
  82   2.0000     -10.307242      -280.4743
  83   2.0000      -8.115017      -220.8208
  84   2.0000      -8.114385      -220.8036
  85   2.0000      -8.110192      -220.6895
  86   2.0000      -8.105205      -220.5538
  87   2.0000      -6.084241      -165.5606
  88   2.0000      -6.083617      -165.5436
  89   2.0000      -6.080007      -165.4454
  90   2.0000      -6.079398      -165.4288
  91   2.0000      -6.079354      -165.4276
  92   2.0000      -6.077440      -165.3756
  93   2.0000      -6.076862      -165.3598
  94   2.0000      -6.075206      -165.3148
  95   2.0000      -6.074600      -165.2983
  96   2.0000      -6.072705      -165.2467
  97   2.0000      -6.069844      -165.1689
  98   2.0000      -6.067777      -165.1126
  99   2.0000      -1.332628       -36.2627
 100   2.0000      -1.187967       -32.3262
 101   2.0000      -1.170032       -31.8382
 102   2.0000      -1.162781       -31.6409
 103   2.0000      -1.074835       -29.2477
 104   2.0000      -1.069434       -29.1008
 105   2.0000      -1.054457       -28.6932
 106   2.0000      -1.051613       -28.6159
 107   2.0000      -1.047248       -28.4971
 108   2.0000      -1.044539       -28.4233
 109   2.0000      -1.040800       -28.3216
 110   2.0000      -1.039012       -28.2729
 111   2.0000      -1.036701       -28.2101
 112   2.0000      -1.032311       -28.0906
 113   2.0000      -1.029160       -28.0049
 114   2.0000      -1.027130       -27.9496
 115   2.0000      -1.024959       -27.8906
 116   2.0000      -1.021224       -27.7889
 117   2.0000      -1.020972       -27.7821
 118   2.0000      -1.019986       -27.7552
 119   2.0000      -1.017763       -27.6948
 120   2.0000      -1.015060       -27.6212
 121   2.0000      -1.013680       -27.5836
 122   2.0000      -1.013473       -27.5780
 123   2.0000      -0.994447       -27.0603
 124   2.0000      -0.989471       -26.9249
 125   2.0000      -0.986462       -26.8430
 126   2.0000      -0.981373       -26.7045
 127   2.0000      -0.968694       -26.3595
 128   2.0000      -0.947286       -25.7770
 129   2.0000      -0.940574       -25.5943
 130   2.0000      -0.937744       -25.5173
 131   2.0000      -0.935772       -25.4636
 132   2.0000      -0.925673       -25.1888
 133   2.0000      -0.915035       -24.8994
 134   2.0000      -0.913541       -24.8587
 135   2.0000      -0.911943       -24.8152
 136   2.0000      -0.908255       -24.7149
 137   2.0000      -0.895204       -24.3597
 138   2.0000      -0.890749       -24.2385
 139   2.0000      -0.885459       -24.0946
 140   2.0000      -0.881065       -23.9750
 141   2.0000      -0.858435       -23.3592
 142   2.0000      -0.857309       -23.3286
 143   2.0000      -0.821374       -22.3507
 144   2.0000      -0.819506       -22.2999
 145   2.0000      -0.819054       -22.2876
 146   2.0000      -0.816744       -22.2247
 147   2.0000      -0.806377       -21.9426
 148   2.0000      -0.803655       -21.8686
 149   2.0000      -0.799483       -21.7550
 150   2.0000      -0.796958       -21.6863
 151   2.0000      -0.788936       -21.4680
 152   2.0000      -0.767610       -20.8877
 153   2.0000      -0.765520       -20.8308
 154   2.0000      -0.760414       -20.6919
 155   2.0000      -0.755517       -20.5587
 156   2.0000      -0.732947       -19.9445
 157   2.0000      -0.728115       -19.8130
 158   2.0000      -0.723565       -19.6892
 159   2.0000      -0.722524       -19.6609
 160   2.0000      -0.720525       -19.6065
 161   2.0000      -0.713250       -19.4085
 162   2.0000      -0.708997       -19.2928
 163   2.0000      -0.706250       -19.2180
 164   2.0000      -0.698971       -19.0200
 165   2.0000      -0.694846       -18.9077
 166   2.0000      -0.688816       -18.7436
 167   2.0000      -0.681751       -18.5514
 168   2.0000      -0.676908       -18.4196
 169   2.0000      -0.671214       -18.2647
 170   2.0000      -0.667419       -18.1614
 171   2.0000      -0.662832       -18.0366
 172   2.0000      -0.658477       -17.9181
 173   2.0000      -0.654873       -17.8200
 174   2.0000      -0.652135       -17.7455
 175   2.0000      -0.646002       -17.5786
 176   2.0000      -0.642260       -17.4768
 177   2.0000      -0.639237       -17.3945
 178   2.0000      -0.634361       -17.2618
 179   2.0000      -0.627922       -17.0866
 180   2.0000      -0.624773       -17.0009
 181   2.0000      -0.622899       -16.9499
 182   2.0000      -0.611944       -16.6518
 183   2.0000      -0.606566       -16.5055
 184   2.0000      -0.599046       -16.3009
 185   2.0000      -0.598611       -16.2890
 186   2.0000      -0.589844       -16.0505
 187   2.0000      -0.585536       -15.9332
 188   2.0000      -0.578460       -15.7407
 189   2.0000      -0.576896       -15.6981
 190   2.0000      -0.575716       -15.6660
 191   2.0000      -0.574923       -15.6444
 192   2.0000      -0.571812       -15.5598
 193   2.0000      -0.568764       -15.4769
 194   2.0000      -0.565886       -15.3985
 195   2.0000      -0.565597       -15.3907
 196   2.0000      -0.561425       -15.2771
 197   2.0000      -0.556255       -15.1365
 198   2.0000      -0.554366       -15.0851
 199   2.0000      -0.552596       -15.0369
 200   2.0000      -0.545191       -14.8354
 201   2.0000      -0.543255       -14.7827
 202   2.0000      -0.536820       -14.6076
 203   2.0000      -0.535952       -14.5840
 204   2.0000      -0.534114       -14.5340
 205   2.0000      -0.533807       -14.5256
 206   2.0000      -0.531562       -14.4645
 207   2.0000      -0.530649       -14.4397
 208   2.0000      -0.526499       -14.3268
 209   2.0000      -0.525966       -14.3123
 210   2.0000      -0.525773       -14.3070
 211   2.0000      -0.522621       -14.2213
 212   2.0000      -0.521783       -14.1984
 213   2.0000      -0.520888       -14.1741
 214   2.0000      -0.515591       -14.0299
 215   2.0000      -0.513737       -13.9795
 216   2.0000      -0.510015       -13.8782
 217   2.0000      -0.508326       -13.8323
 218   2.0000      -0.505885       -13.7658
 219   2.0000      -0.502235       -13.6665
 220   2.0000      -0.500983       -13.6324
 221   2.0000      -0.499309       -13.5869
 222   2.0000      -0.496683       -13.5154
 223   2.0000      -0.495257       -13.4766
 224   2.0000      -0.491307       -13.3691
 225   2.0000      -0.481918       -13.1137
 226   2.0000      -0.481316       -13.0973
 227   2.0000      -0.479623       -13.0512
 228   2.0000      -0.478461       -13.0196
 229   2.0000      -0.476733       -12.9726
 230   2.0000      -0.475352       -12.9350
 231   2.0000      -0.472600       -12.8601
 232   2.0000      -0.471464       -12.8292
 233   2.0000      -0.470546       -12.8042
 234   2.0000      -0.468904       -12.7595
 235   2.0000      -0.468701       -12.7540
 236   2.0000      -0.468341       -12.7442
 237   2.0000      -0.466390       -12.6911
 238   2.0000      -0.465704       -12.6724
 239   2.0000      -0.465200       -12.6587
 240   2.0000      -0.461995       -12.5715
 241   2.0000      -0.461880       -12.5684
 242   2.0000      -0.461805       -12.5663
 243   2.0000      -0.461393       -12.5552
 244   2.0000      -0.461186       -12.5495
 245   2.0000      -0.460965       -12.5435
 246   2.0000      -0.459423       -12.5015
 247   2.0000      -0.458872       -12.4865
 248   2.0000      -0.457983       -12.4624
 249   2.0000      -0.457618       -12.4524
 250   2.0000      -0.457473       -12.4485
 251   2.0000      -0.457139       -12.4394
 252   2.0000      -0.454687       -12.3727
 253   2.0000      -0.451445       -12.2844
 254   2.0000      -0.449245       -12.2246
 255   2.0000      -0.448418       -12.2021
 256   2.0000      -0.447796       -12.1851
 257   2.0000      -0.446437       -12.1482
 258   2.0000      -0.444206       -12.0875
 259   2.0000      -0.442304       -12.0357
 260   2.0000      -0.438514       -11.9326
 261   2.0000      -0.435706       -11.8562
 262   2.0000      -0.435209       -11.8426
 263   2.0000      -0.434148       -11.8138
 264   2.0000      -0.432996       -11.7824
 265   2.0000      -0.430787       -11.7223
 266   2.0000      -0.428331       -11.6555
 267   2.0000      -0.424887       -11.5618
 268   2.0000      -0.423632       -11.5276
 269   2.0000      -0.417787       -11.3686
 270   2.0000      -0.410550       -11.1716
 271   2.0000      -0.407698       -11.0940
 272   2.0000      -0.406476       -11.0608
 273   2.0000      -0.380036       -10.3413
 274   2.0000      -0.379106       -10.3160
 275   2.0000      -0.376059       -10.2331
 276   2.0000      -0.372773       -10.1437
 277   2.0000      -0.371212       -10.1012
 278   2.0000      -0.370301       -10.0764
 279   2.0000      -0.366150        -9.9635
 280   2.0000      -0.365685        -9.9508
 281   2.0000      -0.346986        -9.4420
 282   2.0000      -0.344866        -9.3843
 283   2.0000      -0.344495        -9.3742
 284   2.0000      -0.341837        -9.3019
 285   2.0000      -0.324734        -8.8365
 286   2.0000      -0.298518        -8.1231
 287   2.0000      -0.294393        -8.0108
 288   0.0000      -0.136951        -3.7266
 289   0.0000      -0.131902        -3.5892
 290   0.0000      -0.115828        -3.1518
 291   0.0000      -0.113702        -3.0940
 292   0.0000      -0.103567        -2.8182

MULLIKEN ATOMIC CHARGES
-----------------------
   0 C :    0.045932
   1 C :   -0.038770
   2 C :   -0.062513
   3 C :   -0.174410
   4 N :    0.209085
   5 C :   -0.066520
   6 C :   -0.173183
   7 N :    0.199270
   8 C :   -0.032792
   9 C :   -0.003719
  10 C :    0.172737
  11 O :   -0.177999
  12 C :   -0.095075
  13 C :    0.323714
  14 C :   -0.337616
  15 C :   -0.185102
  16 N :    0.172250
  17 C :   -0.189673
  18 N :    0.165737
  19 C :   -0.022166
  20 C :   -0.053027
  21 C :   -0.059995
  22 C :    0.051954
  23 C :   -0.066834
  24 S :    0.249261
  25 C :   -0.097085
  26 C :   -0.000271
  27 C :    0.303702
  28 C :   -0.286534
  29 C :   -0.183571
  30 N :    0.177862
  31 C :   -0.193415
  32 N :    0.188633
  33 C :   -0.018210
  34 C :   -0.037269
  35 S :    0.209577
  36 C :   -0.117230
  37 C :    0.145673
  38 N :   -0.073071
  39 N :   -0.070358
  40 C :   -0.130588
  41 C :   -0.099151
  42 C :   -0.114972
  43 N :    0.079289
  44 O :   -0.113706
  45 N :    0.078075
  46 C :    0.143406
  47 C :   -0.031783
  48 C :   -0.018125
  49 C :    0.002232
  50 C :   -0.086803
  51 S :    0.192490
  52 C :   -0.075160
  53 C :    0.021556
  54 C :    0.299125
  55 C :   -0.282100
  56 C :   -0.186404
  57 N :    0.185844
  58 C :   -0.184634
  59 N :    0.178925
  60 C :    0.008873
  61 C :   -0.088099
  62 S :    0.210704
  63 C :    0.047385
  64 C :   -0.138340
  65 C :    0.146196
  66 O :   -0.121165
  67 C :    0.010747
  68 C :   -0.030499
  69 C :   -0.069213
  70 C :   -0.062820
  71 C :   -0.034503
  72 C :    0.033478
  73 C :    0.238201
  74 C :   -0.306213
  75 C :   -0.212596
  76 N :    0.187056
  77 C :   -0.174714
  78 N :    0.176986
  79 C :   -0.172526
  80 N :    0.205624
  81 C :   -0.171861
  82 N :    0.200072
  83 H :    0.022257
  84 H :    0.015673
  85 H :    0.019870
  86 H :    0.033162
  87 H :    0.008898
  88 H :    0.051529
  89 H :    0.018000
  90 H :    0.048937
  91 H :    0.024499
  92 H :    0.050046
  93 H :    0.046789
  94 H :    0.010725
  95 H :    0.024371
  96 H :    0.041690
  97 H :    0.020424
  98 H :    0.023861
Sum of atomic charges:   -0.0000000

LOEWDIN ATOMIC CHARGES
----------------------
   0 C :    0.004209
   1 C :    0.035128
   2 C :   -0.021974
   3 C :   -0.032168
   4 N :   -0.007609
   5 C :   -0.027907
   6 C :   -0.032312
   7 N :   -0.011564
   8 C :    0.048380
   9 C :   -0.030244
  10 C :    0.085196
  11 O :   -0.163963
  12 C :   -0.117234
  13 C :    0.069071
  14 C :   -0.122220
  15 C :   -0.021905
  16 N :   -0.031830
  17 C :   -0.022758
  18 N :   -0.030865
  19 C :    0.065133
  20 C :   -0.184462
  21 C :    0.019675
  22 C :   -0.074417
  23 C :   -0.160744
  24 S :    0.552865
  25 C :   -0.181640
  26 C :   -0.052234
  27 C :    0.075325
  28 C :   -0.093431
  29 C :   -0.015731
  30 N :   -0.026393
  31 C :   -0.020697
  32 N :   -0.017254
  33 C :   -0.024460
  34 C :   -0.147844
  35 S :    0.489756
  36 C :   -0.051972
  37 C :   -0.023001
  38 N :   -0.012682
  39 N :   -0.012056
  40 C :   -0.051444
  41 C :   -0.085521
  42 C :   -0.088735
  43 N :   -0.001710
  44 O :    0.061676
  45 N :   -0.000892
  46 C :   -0.022007
  47 C :   -0.146788
  48 C :   -0.022265
  49 C :   -0.052428
  50 C :   -0.181015
  51 S :    0.490559
  52 C :   -0.148638
  53 C :   -0.070018
  54 C :    0.076756
  55 C :   -0.088626
  56 C :   -0.017989
  57 N :   -0.018863
  58 C :   -0.016123
  59 N :   -0.022267
  60 C :    0.022064
  61 C :   -0.180217
  62 S :    0.516343
  63 C :    0.060855
  64 C :   -0.107523
  65 C :    0.083815
  66 O :   -0.123680
  67 C :   -0.030721
  68 C :    0.050753
  69 C :   -0.027640
  70 C :   -0.021688
  71 C :    0.031734
  72 C :    0.003803
  73 C :    0.053722
  74 C :   -0.129699
  75 C :   -0.038529
  76 N :   -0.032075
  77 C :   -0.025393
  78 N :   -0.029761
  79 C :   -0.032080
  80 N :   -0.007791
  81 C :   -0.032617
  82 N :   -0.010130
  83 H :    0.053110
  84 H :    0.053899
  85 H :    0.055350
  86 H :    0.050107
  87 H :    0.043616
  88 H :    0.040318
  89 H :    0.023654
  90 H :    0.043105
  91 H :    0.034876
  92 H :    0.042518
  93 H :    0.039368
  94 H :    0.044698
  95 H :    0.049640
  96 H :    0.058916
  97 H :    0.055802
  98 H :    0.052653

  Mayer bond orders larger than 0.100000
B(  0-C ,  1-C ) :   1.3632 B(  0-C ,  9-C ) :   1.3344 B(  0-C , 13-C ) :   0.9543
B(  1-C ,  2-C ) :   1.3907 B(  1-C , 83-H ) :   0.9846 B(  2-C ,  3-C ) :   1.0868
B(  2-C ,  5-C ) :   1.4065 B(  3-C ,  4-N ) :   3.0454 B(  5-C ,  6-C ) :   1.0850
B(  5-C ,  8-C ) :   1.3592 B(  6-C ,  7-N ) :   3.0443 B(  8-C ,  9-C ) :   1.3653
B(  8-C , 84-H ) :   1.0149 B(  9-C , 10-C ) :   0.9425 B( 10-C , 11-O ) :   2.1255
B( 10-C , 12-C ) :   0.9919 B( 12-C , 13-C ) :   1.0852 B( 12-C , 19-C ) :   1.4704
B( 13-C , 14-C ) :   1.6478 B( 14-C , 15-C ) :   1.1470 B( 14-C , 17-C ) :   1.1430
B( 15-C , 16-N ) :   2.9593 B( 17-C , 18-N ) :   2.9580 B( 19-C , 20-C ) :   1.2891
B( 19-C , 85-H ) :   0.9386 B( 20-C , 21-C ) :   1.3152 B( 20-C , 24-S ) :   1.0644
B( 21-C , 22-C ) :   1.3429 B( 21-C , 86-H ) :   1.0076 B( 22-C , 23-C ) :   1.3563
B( 22-C , 27-C ) :   0.9813 B( 23-C , 24-S ) :   1.1400 B( 23-C , 25-C ) :   1.1936
B( 25-C , 26-C ) :   1.4628 B( 25-C , 35-S ) :   1.1294 B( 26-C , 27-C ) :   1.0110
B( 26-C , 33-C ) :   1.2283 B( 27-C , 28-C ) :   1.7200 B( 28-C , 29-C ) :   1.1307
B( 28-C , 31-C ) :   1.1349 B( 29-C , 30-N ) :   2.9877 B( 31-C , 32-N ) :   2.9925
B( 33-C , 34-C ) :   1.5805 B( 33-C , 87-H ) :   0.9968 B( 34-C , 35-S ) :   1.1291
B( 34-C , 36-C ) :   0.9376 B( 36-C , 37-C ) :   1.1067 B( 36-C , 38-N ) :   0.9478
B( 36-C , 42-C ) :   0.9056 B( 37-C , 88-H ) :   0.9374 B( 37-C , 89-H ) :   0.9422
B( 37-C , 90-H ) :   0.9506 B( 38-N , 39-N ) :   1.8505 B( 39-N , 40-C ) :   0.9371
B( 40-C , 41-C ) :   0.9062 B( 40-C , 46-C ) :   1.1133 B( 40-C , 47-C ) :   0.9320
B( 41-C , 42-C ) :   1.1963 B( 41-C , 45-N ) :   1.7432 B( 42-C , 43-N ) :   1.7414
B( 43-N , 44-O ) :   1.0549 B( 43-N , 45-N ) :   0.1523 B( 44-O , 45-N ) :   1.0536
B( 46-C , 91-H ) :   0.9452 B( 46-C , 92-H ) :   0.9503 B( 46-C , 93-H ) :   0.9396
B( 47-C , 48-C ) :   1.5900 B( 47-C , 51-S ) :   1.1227 B( 48-C , 49-C ) :   1.2307
B( 48-C , 94-H ) :   0.9959 B( 49-C , 50-C ) :   1.4652 B( 49-C , 54-C ) :   1.0067
B( 50-C , 51-S ) :   1.1284 B( 50-C , 52-C ) :   1.1932 B( 52-C , 53-C ) :   1.4040
B( 52-C , 62-S ) :   1.1684 B( 53-C , 54-C ) :   0.9867 B( 53-C , 60-C ) :   1.3131
B( 54-C , 55-C ) :   1.7236 B( 55-C , 56-C ) :   1.1301 B( 55-C , 58-C ) :   1.1332
B( 56-C , 57-N ) :   2.9930 B( 58-C , 59-N ) :   2.9872 B( 60-C , 61-C ) :   1.3846
B( 60-C , 95-H ) :   1.0010 B( 61-C , 62-S ) :   1.0799 B( 61-C , 63-C ) :   1.1697
B( 63-C , 64-C ) :   1.6120 B( 63-C , 96-H ) :   0.9466 B( 64-C , 65-C ) :   0.9473
B( 64-C , 73-C ) :   1.0420 B( 65-C , 66-O ) :   2.2849 B( 65-C , 67-C ) :   0.9001
B( 67-C , 68-C ) :   1.3711 B( 67-C , 72-C ) :   1.3349 B( 68-C , 69-C ) :   1.3650
B( 68-C , 97-H ) :   1.0148 B( 69-C , 70-C ) :   1.4035 B( 69-C , 81-C ) :   1.0875
B( 70-C , 71-C ) :   1.3861 B( 70-C , 79-C ) :   1.0859 B( 71-C , 72-C ) :   1.3629
B( 71-C , 98-H ) :   0.9911 B( 72-C , 73-C ) :   0.9809 B( 73-C , 74-C ) :   1.6713
B( 74-C , 75-C ) :   1.1546 B( 74-C , 77-C ) :   1.1292 B( 75-C , 76-N ) :   3.0227
B( 77-C , 78-N ) :   2.9900 B( 79-C , 80-N ) :   3.0445 B( 81-C , 82-N ) :   3.0445

-----------------------------------------------------------------------------
         ABSORPTION SPECTRUM VIA TRANSITION ELECTRIC DIPOLE MOMENTS
-----------------------------------------------------------------------------
State   Energy  Wavelength   fosc         T2         TX        TY        TZ
        (cm-1)    (nm)                  (au**2)     (au)      (au)      (au)
-----------------------------------------------------------------------------
   0   16065.4    622.5   0.222572552   4.56096   0.10703  -1.83200   1.09238
   1   17056.6    586.3   0.227087174   4.38304  -0.15570   2.05292  -0.37991
   2   21342.6    468.5   0.464361285   7.16283  -0.08280   1.79746  -1.98119
   3   22400.6    446.4   0.779690787  11.45878   0.19644  -3.34360   0.49043
   4   23738.8    421.3   0.005258737   0.07293  -0.05969  -0.10681  -0.24074
   5   24539.6    407.5   0.271894871   3.64762  -0.85357   1.53348  -0.75332
   6   25091.6    398.5   0.063727174   0.83613   0.37902  -0.67623   0.48496
   7   26070.9    383.6   0.272271825   3.43813  -0.38346   1.56063  -0.92494
   8   26508.9    377.2   0.004792763   0.05952  -0.07886   0.09530  -0.21029
   9   27932.8    358.0   0.065024048   0.76636   0.50558  -0.64473   0.30834
  10   28152.3    355.2   0.065601589   0.76714  -0.40041   0.77549   0.07367
  11   28586.2    349.8   0.001147333   0.01321   0.02623  -0.08926  -0.06751
  12   29368.5    340.5   0.000642663   0.00720  -0.06343  -0.00799   0.05583
  13   29714.2    336.5   0.251911523   2.79100   0.64300   0.08143   1.53978
  14   29805.1    335.5   0.231564909   2.55775  -1.10284   0.32868  -1.11062
  15   30119.8    332.0   0.049919026   0.54562  -0.65241   0.28464  -0.19738
  16   30470.0    328.2   0.267075361   2.88561  -1.40955  -0.25581  -0.91287
  17   30982.0    322.8   0.027252582   0.28958   0.04738  -0.45380  -0.28532
  18   31453.0    317.9   0.038314063   0.40103   0.28858   0.06618   0.55979
  19   31500.7    317.5   0.000895558   0.00936  -0.00421  -0.00234   0.09662
  20   32166.8    310.9   0.337101332   3.45007   0.80557  -1.51168   0.71829
  21   32426.9    308.4   0.126547166   1.28476  -0.33367   1.01776  -0.37092
  22   32724.8    305.6   0.022467760   0.22603   0.32413   0.20326   0.28222
  23   33175.2    301.4   0.175474001   1.74131   0.41150   1.12446   0.55458
  24   33713.8    296.6   0.189663741   1.85205  -0.45716  -0.34212  -1.23531
  25   34035.8    293.8   0.122368484   1.18361   0.36005  -0.88637   0.51800
  26   34407.1    290.6   0.297384421   2.84542  -1.20766   0.49891  -1.06680
  27   34453.6    290.2   0.163721339   1.56440  -0.56215   0.31908  -1.07078
  28   34522.6    289.7   1.031891028   9.84023  -2.57451  -0.21784  -1.77896
  29   35095.8    284.9   0.166616833   1.56293  -0.73327   1.00245   0.14258
  30   35109.6    284.8   0.008949067   0.08391  -0.23754   0.07066  -0.14998
  31   35163.6    284.4   0.027300128   0.25559   0.40776  -0.11387   0.27633
  32   35424.8    282.3   0.054299088   0.50462  -0.55109   0.44022   0.08442
  33   35587.3    281.0   0.321615763   2.97521  -0.97813   1.41976   0.05239
  34   35642.4    280.6   0.025528736   0.23580   0.20242  -0.43724  -0.06040
  35   35732.8    279.9   0.000799975   0.00737  -0.07159   0.03815   0.02810
  36   36816.4    271.6   0.203634274   1.82090   0.25773   1.32380  -0.04489
  37   36987.2    270.4   0.076756568   0.68319   0.52720  -0.40802   0.48864
  38   37087.1    269.6   0.061460066   0.54556  -0.38823   0.54717   0.30895
  39   37132.2    269.3   0.032909572   0.29177  -0.09933  -0.49237   0.19868
  40   37176.9    269.0   0.082932448   0.73439  -0.04444  -0.85044   0.09577
  41   37669.6    265.5   0.004069126   0.03556  -0.11532  -0.11821  -0.09104
  42   38114.6    262.4   0.006954751   0.06007   0.08394  -0.22337  -0.05594
  43   38285.2    261.2   0.240996368   2.07231   0.35452   1.38911  -0.13042
  44   38349.0    260.8   0.093928344   0.80634   0.29223   0.77498   0.34690
  45   38402.6    260.4   0.043277454   0.37100  -0.28449   0.15078  -0.51704
  46   38467.8    260.0   0.264965680   2.26760   0.27525   1.47947  -0.05484
  47   38827.1    257.6   0.015773598   0.13374  -0.23753   0.02876  -0.27657
  48   39158.7    255.4   0.016715772   0.14053   0.17727  -0.31254   0.10689
  49   39403.5    253.8   0.022055805   0.18427   0.09898   0.06260   0.41299
  50   39626.7    252.4   0.023769401   0.19747  -0.16561  -0.41061  -0.03798
  51   39648.6    252.2   0.023275312   0.19326   0.01260   0.43746  -0.04161
  52   39677.7    252.0   0.081182613   0.67358  -0.47263  -0.63921  -0.20400
  53   39881.4    250.7   0.011440747   0.09444   0.01412  -0.29854   0.07151
  54   39947.6    250.3   0.002529240   0.02084  -0.02926   0.09255  -0.10687

FINAL SINGLE POINT ENERGY     -4985.283142917120

DIPOLE MOMENT
-------------
                                X             Y             Z
Electronic contribution:     -1.52439       3.79255       4.62725
Nuclear contribution   :      1.46779      -5.56796      -6.15740
                        -----------------------------------------
Total Dipole Moment    :     -0.05660      -1.77541      -1.53016
                        -----------------------------------------
Magnitude (a.u.)       :      2.34449
Magnitude (Debye)      :      5.95923

Rotational constants in cm-1:     0.001393     0.000191     0.000173
Rotational constants in MHz :    41.749958     5.718785     5.194171

                             ****ORCA TERMINATED NORMALLY****
TOTAL RUN TIME: 0 days 0 hours 11 minutes 10 seconds 805 msec
