                         Program Version 4.2.0 -  RELEASE  -
|  1> # ORCA input file
|  2> # SCF done       -191.785320953584          0.000557464121
|  3> ! CAM-B3LYP def2-SVP def2/J RIJCOSX Grid4 TightSCF
|  4> %maxcore 5000
|  5> %tddft
|  6>     Mode sTDDFT
|  7>     Ethresh 5.0
|  8>     maxcore 5000
|  9> end
| 10>
| 11> %pal
| 12>   nprocs 6
| 13>   end
| 14> * xyz 0 1
| 15>    C       -1.76800         0.46415        -2.65827
| 16>    C       -1.30645         1.73249        -2.97053
| 17>    C       -0.50173         2.39452        -2.04124
| 18>    C       -0.01849         3.69264        -2.34157
| 19>    N        0.36875         4.74046        -2.59145
| 20>    C       -0.15992         1.79837        -0.81189
| 21>    C        0.65637         2.49802         0.10949
| 22>    N        1.31765         3.04836         0.86506
| 23>    C       -0.62234         0.51839        -0.50384
| 24>    C       -1.41605        -0.12397        -1.43020
| 25>    C       -2.01426        -1.47431        -1.33018
| 26>    O       -1.86325        -2.24220        -0.40632
| 27>    C       -2.74447        -1.67897        -2.60194
| 28>    C       -2.62211        -0.46775        -3.39506
| 29>    C       -3.24856        -0.18700        -4.58032
| 30>    C       -3.09886         1.02692        -5.28687
| 31>    N       -3.01673         1.98740        -5.90875
| 32>    C       -4.15266        -1.03593        -5.25592
| 33>    N       -4.90980        -1.65714        -5.85511
| 34>    C       -3.32912        -2.83524        -3.05009
| 35>    C       -3.63431        -4.02674        -2.36793
| 36>    C       -3.65755        -4.34868        -1.01438
| 37>    C       -4.09940        -5.64310        -0.79238
| 38>    C       -4.41384        -6.33791        -1.98398
| 39>    S       -4.18612        -5.38166        -3.36792
| 40>    C       -4.83530        -7.64549        -1.64088
| 41>    C       -4.79708        -7.77799        -0.23960
| 42>    C       -4.34013        -6.52434         0.33960
| 43>    C       -4.18917        -6.23580         1.66259
| 44>    C       -4.44950        -7.18931         2.67163
| 45>    N       -4.65499        -7.95892         3.49564
| 46>    C       -3.78403        -4.96514         2.12902
| 47>    N       -3.47928        -3.93715         2.53303
| 48>    C       -5.21122        -9.03545         0.19361
| 49>    C       -5.55600        -9.85540        -0.86422
| 50>    S       -5.37137        -9.07067        -2.41610
| 51>    C       -6.02213       -11.20749        -0.74355
| 52>    C       -6.30031       -12.04214        -1.83912
| 53>    N       -6.71746       -13.27657        -1.68987
| 54>    C       -6.88302       -13.73627        -0.44050
| 55>    C       -6.60805       -12.89922         0.65548
| 56>    N       -6.18634       -11.66898         0.50645
| 57>    C       -7.33159       -15.09058        -0.28594
| 58>    C       -7.56015       -16.00407        -1.29701
| 59>    C       -7.96812       -17.23998        -0.79507
| 60>    C       -8.05543       -17.25268         0.60998
| 61>    S       -7.63256       -15.75534         1.30556
| 62>    C       -8.46904       -18.54035         1.03179
| 63>    C       -8.63314       -19.34878        -0.11224
| 64>    C       -8.34012       -18.55426        -1.29512
| 65>    C       -8.43565       -18.96428        -2.59173
| 66>    C       -8.84099       -20.27845        -2.91045
| 67>    N       -9.16901       -21.35232        -3.14205
| 68>    C       -8.14088       -18.11460        -3.67948
| 69>    N       -7.89511       -17.42886        -4.56407
| 70>    C       -9.04935       -20.63642         0.19247
| 71>    C       -9.21985       -20.82415         1.55928
| 72>    S       -8.81603       -19.37201         2.47161
| 73>    C       -9.59775       -21.98015         2.26908
| 74>    C      -10.16704       -23.13669         1.82162
| 75>    C      -10.06851       -24.34299         2.68909
| 76>    O       -9.72666       -24.37821         3.84643
| 77>    C      -10.42462       -25.48046         1.81140
| 78>    C      -10.37085       -26.82990         2.08840
| 79>    C      -10.71813       -27.72321         1.07343
| 80>    C      -11.10137       -27.24170        -0.19324
| 81>    C      -11.16385       -25.87217        -0.45931
| 82>    C      -10.83063       -24.99089         0.55437
| 83>    C      -10.82576       -23.52592         0.59396
| 84>    C      -11.55433       -22.72575        -0.24586
| 85>    C      -11.73726       -21.34349        -0.04335
| 86>    N      -11.92456       -20.22173         0.11112
| 87>    C      -12.28933       -23.20752        -1.35135
| 88>    N      -12.90381       -23.55379        -2.25532
| 89>    C      -11.42552       -28.16659        -1.21725
| 90>    N      -11.68431       -28.90983        -2.04840
| 91>    C      -10.67556       -29.11756         1.31679
| 92>    N      -10.63297       -30.24086         1.53429
| 93>    H       -1.54205         2.22207        -3.90179
| 94>    H       -0.37027         0.04330         0.43210
| 95>    H       -3.60602        -2.85826        -4.09764
| 96>    H       -3.35732        -3.65934        -0.24692
| 97>    H       -5.27097        -9.37143         1.21226
| 98>    H       -6.17717       -11.69813        -2.85794
| 99>    H       -6.73198       -13.24217         1.67459
|100>    H       -7.42314       -15.75207        -2.33257
|101>    H       -9.17521       -21.42334        -0.52815
|102>    H       -9.33868       -21.99221         3.32420
|103>    H      -10.06682       -27.18474         3.06141
|104>    H      -11.45383       -25.53705        -1.44271
|105> *
|106>
|107>                          ****END OF INPUT****

CARTESIAN COORDINATES (ANGSTROEM)
---------------------------------
  C     -1.768000    0.464150   -2.658270
  C     -1.306450    1.732490   -2.970530
  C     -0.501730    2.394520   -2.041240
  C     -0.018490    3.692640   -2.341570
  N      0.368750    4.740460   -2.591450
  C     -0.159920    1.798370   -0.811890
  C      0.656370    2.498020    0.109490
  N      1.317650    3.048360    0.865060
  C     -0.622340    0.518390   -0.503840
  C     -1.416050   -0.123970   -1.430200
  C     -2.014260   -1.474310   -1.330180
  O     -1.863250   -2.242200   -0.406320
  C     -2.744470   -1.678970   -2.601940
  C     -2.622110   -0.467750   -3.395060
  C     -3.248560   -0.187000   -4.580320
  C     -3.098860    1.026920   -5.286870
  N     -3.016730    1.987400   -5.908750
  C     -4.152660   -1.035930   -5.255920
  N     -4.909800   -1.657140   -5.855110
  C     -3.329120   -2.835240   -3.050090
  C     -3.634310   -4.026740   -2.367930
  C     -3.657550   -4.348680   -1.014380
  C     -4.099400   -5.643100   -0.792380
  C     -4.413840   -6.337910   -1.983980
  S     -4.186120   -5.381660   -3.367920
  C     -4.835300   -7.645490   -1.640880
  C     -4.797080   -7.777990   -0.239600
  C     -4.340130   -6.524340    0.339600
  C     -4.189170   -6.235800    1.662590
  C     -4.449500   -7.189310    2.671630
  N     -4.654990   -7.958920    3.495640
  C     -3.784030   -4.965140    2.129020
  N     -3.479280   -3.937150    2.533030
  C     -5.211220   -9.035450    0.193610
  C     -5.556000   -9.855400   -0.864220
  S     -5.371370   -9.070670   -2.416100
  C     -6.022130  -11.207490   -0.743550
  C     -6.300310  -12.042140   -1.839120
  N     -6.717460  -13.276570   -1.689870
  C     -6.883020  -13.736270   -0.440500
  C     -6.608050  -12.899220    0.655480
  N     -6.186340  -11.668980    0.506450
  C     -7.331590  -15.090580   -0.285940
  C     -7.560150  -16.004070   -1.297010
  C     -7.968120  -17.239980   -0.795070
  C     -8.055430  -17.252680    0.609980
  S     -7.632560  -15.755340    1.305560
  C     -8.469040  -18.540350    1.031790
  C     -8.633140  -19.348780   -0.112240
  C     -8.340120  -18.554260   -1.295120
  C     -8.435650  -18.964280   -2.591730
  C     -8.840990  -20.278450   -2.910450
  N     -9.169010  -21.352320   -3.142050
  C     -8.140880  -18.114600   -3.679480
  N     -7.895110  -17.428860   -4.564070
  C     -9.049350  -20.636420    0.192470
  C     -9.219850  -20.824150    1.559280
  S     -8.816030  -19.372010    2.471610
  C     -9.597750  -21.980150    2.269080
  C    -10.167040  -23.136690    1.821620
  C    -10.068510  -24.342990    2.689090
  O     -9.726660  -24.378210    3.846430
  C    -10.424620  -25.480460    1.811400
  C    -10.370850  -26.829900    2.088400
  C    -10.718130  -27.723210    1.073430
  C    -11.101370  -27.241700   -0.193240
  C    -11.163850  -25.872170   -0.459310
  C    -10.830630  -24.990890    0.554370
  C    -10.825760  -23.525920    0.593960
  C    -11.554330  -22.725750   -0.245860
  C    -11.737260  -21.343490   -0.043350
  N    -11.924560  -20.221730    0.111120
  C    -12.289330  -23.207520   -1.351350
  N    -12.903810  -23.553790   -2.255320
  C    -11.425520  -28.166590   -1.217250
  N    -11.684310  -28.909830   -2.048400
  C    -10.675560  -29.117560    1.316790
  N    -10.632970  -30.240860    1.534290
  H     -1.542050    2.222070   -3.901790
  H     -0.370270    0.043300    0.432100
  H     -3.606020   -2.858260   -4.097640
  H     -3.357320   -3.659340   -0.246920
  H     -5.270970   -9.371430    1.212260
  H     -6.177170  -11.698130   -2.857940
  H     -6.731980  -13.242170    1.674590
  H     -7.423140  -15.752070   -2.332570
  H     -9.175210  -21.423340   -0.528150
  H     -9.338680  -21.992210    3.324200
  H    -10.066820  -27.184740    3.061410
  H    -11.453830  -25.537050   -1.442710

 Total Charge           Charge          ....    0
 Multiplicity           Mult            ....    1
 Number of Electrons    NEL             ....  538
 Basis Dimension        Dim             .... 1168

ORBITAL ENERGIES
----------------

  NO   OCC          E(Eh)            E(eV)
   0   2.0000     -89.017038     -2422.2767
   1   2.0000     -89.016769     -2422.2694
   2   2.0000     -89.016221     -2422.2545
   3   2.0000     -89.016075     -2422.2506
   4   2.0000     -19.245580      -523.6989
   5   2.0000     -19.243743      -523.6489
   6   2.0000     -14.457299      -393.4031
   7   2.0000     -14.457163      -393.3994
   8   2.0000     -14.450366      -393.2145
   9   2.0000     -14.447313      -393.1314
  10   2.0000     -14.447252      -393.1297
  11   2.0000     -14.445738      -393.0885
  12   2.0000     -14.441830      -392.9822
  13   2.0000     -14.440112      -392.9354
  14   2.0000     -14.436071      -392.8255
  15   2.0000     -14.435978      -392.8229
  16   2.0000     -14.432197      -392.7201
  17   2.0000     -14.431413      -392.6987
  18   2.0000     -14.431230      -392.6937
  19   2.0000     -14.430347      -392.6697
  20   2.0000     -10.397087      -282.9191
  21   2.0000     -10.394794      -282.8567
  22   2.0000     -10.386418      -282.6288
  23   2.0000     -10.386342      -282.6267
  24   2.0000     -10.372922      -282.2615
  25   2.0000     -10.372126      -282.2399
  26   2.0000     -10.371727      -282.2290
  27   2.0000     -10.369639      -282.1722
  28   2.0000     -10.369181      -282.1598
  29   2.0000     -10.367872      -282.1241
  30   2.0000     -10.367017      -282.1009
  31   2.0000     -10.365111      -282.0490
  32   2.0000     -10.364895      -282.0431
  33   2.0000     -10.364020      -282.0193
  34   2.0000     -10.363618      -282.0084
  35   2.0000     -10.363115      -281.9947
  36   2.0000     -10.361747      -281.9575
  37   2.0000     -10.361416      -281.9485
  38   2.0000     -10.357818      -281.8506
  39   2.0000     -10.357673      -281.8466
  40   2.0000     -10.351666      -281.6831
  41   2.0000     -10.351610      -281.6816
  42   2.0000     -10.351147      -281.6690
  43   2.0000     -10.350207      -281.6435
  44   2.0000     -10.349417      -281.6219
  45   2.0000     -10.349313      -281.6191
  46   2.0000     -10.349066      -281.6124
  47   2.0000     -10.348590      -281.5994
  48   2.0000     -10.346991      -281.5559
  49   2.0000     -10.346616      -281.5457
  50   2.0000     -10.346576      -281.5446
  51   2.0000     -10.346035      -281.5299
  52   2.0000     -10.344440      -281.4865
  53   2.0000     -10.344134      -281.4782
  54   2.0000     -10.341922      -281.4180
  55   2.0000     -10.341763      -281.4137
  56   2.0000     -10.339500      -281.3521
  57   2.0000     -10.338983      -281.3380
  58   2.0000     -10.337755      -281.3046
  59   2.0000     -10.337732      -281.3040
  60   2.0000     -10.337488      -281.2973
  61   2.0000     -10.336976      -281.2834
  62   2.0000     -10.335268      -281.2369
  63   2.0000     -10.331796      -281.1425
  64   2.0000     -10.330939      -281.1191
  65   2.0000     -10.330461      -281.1061
  66   2.0000     -10.329017      -281.0669
  67   2.0000     -10.328911      -281.0640
  68   2.0000     -10.328886      -281.0633
  69   2.0000     -10.328706      -281.0584
  70   2.0000     -10.328383      -281.0496
  71   2.0000     -10.327791      -281.0335
  72   2.0000     -10.327347      -281.0214
  73   2.0000     -10.326563      -281.0001
  74   2.0000     -10.324660      -280.9483
  75   2.0000     -10.324209      -280.9360
  76   2.0000     -10.323511      -280.9170
  77   2.0000     -10.322384      -280.8863
  78   2.0000      -8.111538      -220.7262
  79   2.0000      -8.111490      -220.7249
  80   2.0000      -8.111028      -220.7123
  81   2.0000      -8.110564      -220.6997
  82   2.0000      -6.080721      -165.4648
  83   2.0000      -6.080676      -165.4636
  84   2.0000      -6.080144      -165.4491
  85   2.0000      -6.079770      -165.4389
  86   2.0000      -6.076528      -165.3507
  87   2.0000      -6.076521      -165.3506
  88   2.0000      -6.075992      -165.3362
  89   2.0000      -6.075576      -165.3248
  90   2.0000      -6.074021      -165.2825
  91   2.0000      -6.073930      -165.2800
  92   2.0000      -6.073536      -165.2693
  93   2.0000      -6.073066      -165.2565
  94   2.0000      -1.161754       -31.6129
  95   2.0000      -1.159812       -31.5601
  96   2.0000      -1.115781       -30.3619
  97   2.0000      -1.070679       -29.1347
  98   2.0000      -1.069725       -29.1087
  99   2.0000      -1.049476       -28.5577
 100   2.0000      -1.048183       -28.5225
 101   2.0000      -1.042179       -28.3591
 102   2.0000      -1.040296       -28.3079
 103   2.0000      -1.038698       -28.2644
 104   2.0000      -1.034731       -28.1565
 105   2.0000      -1.033998       -28.1365
 106   2.0000      -1.026288       -27.9267
 107   2.0000      -1.024066       -27.8663
 108   2.0000      -1.022554       -27.8251
 109   2.0000      -1.021154       -27.7870
 110   2.0000      -1.017950       -27.6998
 111   2.0000      -1.016941       -27.6724
 112   2.0000      -1.014872       -27.6161
 113   2.0000      -1.014629       -27.6095
 114   2.0000      -1.010918       -27.5085
 115   2.0000      -1.010093       -27.4860
 116   2.0000      -0.987220       -26.8636
 117   2.0000      -0.986213       -26.8362
 118   2.0000      -0.980977       -26.6937
 119   2.0000      -0.979756       -26.6605
 120   2.0000      -0.946935       -25.7674
 121   2.0000      -0.942569       -25.6486
 122   2.0000      -0.933284       -25.3959
 123   2.0000      -0.931983       -25.3605
 124   2.0000      -0.925646       -25.1881
 125   2.0000      -0.914828       -24.8937
 126   2.0000      -0.909670       -24.7534
 127   2.0000      -0.908205       -24.7135
 128   2.0000      -0.905472       -24.6391
 129   2.0000      -0.893875       -24.3236
 130   2.0000      -0.887473       -24.1494
 131   2.0000      -0.882194       -24.0057
 132   2.0000      -0.880855       -23.9693
 133   2.0000      -0.863328       -23.4924
 134   2.0000      -0.853088       -23.2137
 135   2.0000      -0.835921       -22.7466
 136   2.0000      -0.815654       -22.1951
 137   2.0000      -0.814792       -22.1716
 138   2.0000      -0.805264       -21.9124
 139   2.0000      -0.801218       -21.8022
 140   2.0000      -0.799348       -21.7514
 141   2.0000      -0.782237       -21.2857
 142   2.0000      -0.779607       -21.2142
 143   2.0000      -0.761831       -20.7305
 144   2.0000      -0.759109       -20.6564
 145   2.0000      -0.752038       -20.4640
 146   2.0000      -0.744519       -20.2594
 147   2.0000      -0.724524       -19.7153
 148   2.0000      -0.720398       -19.6030
 149   2.0000      -0.718805       -19.5597
 150   2.0000      -0.718347       -19.5472
 151   2.0000      -0.708029       -19.2665
 152   2.0000      -0.707339       -19.2477
 153   2.0000      -0.703872       -19.1533
 154   2.0000      -0.697930       -18.9916
 155   2.0000      -0.692324       -18.8391
 156   2.0000      -0.685992       -18.6668
 157   2.0000      -0.673314       -18.3218
 158   2.0000      -0.668570       -18.1927
 159   2.0000      -0.663405       -18.0522
 160   2.0000      -0.662562       -18.0292
 161   2.0000      -0.660848       -17.9826
 162   2.0000      -0.652665       -17.7599
 163   2.0000      -0.643839       -17.5197
 164   2.0000      -0.641229       -17.4487
 165   2.0000      -0.638774       -17.3819
 166   2.0000      -0.631770       -17.1913
 167   2.0000      -0.626151       -17.0384
 168   2.0000      -0.618848       -16.8397
 169   2.0000      -0.613511       -16.6945
 170   2.0000      -0.609276       -16.5793
 171   2.0000      -0.606526       -16.5044
 172   2.0000      -0.602254       -16.3882
 173   2.0000      -0.599345       -16.3090
 174   2.0000      -0.580135       -15.7863
 175   2.0000      -0.576078       -15.6759
 176   2.0000      -0.574684       -15.6380
 177   2.0000      -0.573952       -15.6180
 178   2.0000      -0.572872       -15.5886
 179   2.0000      -0.572195       -15.5702
 180   2.0000      -0.569091       -15.4858
 181   2.0000      -0.567082       -15.4311
 182   2.0000      -0.566839       -15.4245
 183   2.0000      -0.561976       -15.2921
 184   2.0000      -0.560064       -15.2401
 185   2.0000      -0.556809       -15.1515
 186   2.0000      -0.546686       -14.8761
 187   2.0000      -0.541836       -14.7441
 188   2.0000      -0.540467       -14.7069
 189   2.0000      -0.536674       -14.6036
 190   2.0000      -0.535723       -14.5778
 191   2.0000      -0.530929       -14.4473
 192   2.0000      -0.529355       -14.4045
 193   2.0000      -0.528110       -14.3706
 194   2.0000      -0.527257       -14.3474
 195   2.0000      -0.525722       -14.3056
 196   2.0000      -0.524052       -14.2602
 197   2.0000      -0.522267       -14.2116
 198   2.0000      -0.518778       -14.1167
 199   2.0000      -0.518506       -14.1093
 200   2.0000      -0.513202       -13.9649
 201   2.0000      -0.511969       -13.9314
 202   2.0000      -0.511598       -13.9213
 203   2.0000      -0.505357       -13.7515
 204   2.0000      -0.501123       -13.6362
 205   2.0000      -0.496351       -13.5064
 206   2.0000      -0.495539       -13.4843
 207   2.0000      -0.492730       -13.4079
 208   2.0000      -0.491381       -13.3712
 209   2.0000      -0.479665       -13.0524
 210   2.0000      -0.477043       -12.9810
 211   2.0000      -0.476702       -12.9717
 212   2.0000      -0.475395       -12.9361
 213   2.0000      -0.473411       -12.8822
 214   2.0000      -0.473166       -12.8755
 215   2.0000      -0.472313       -12.8523
 216   2.0000      -0.470156       -12.7936
 217   2.0000      -0.467305       -12.7160
 218   2.0000      -0.465795       -12.6749
 219   2.0000      -0.464774       -12.6471
 220   2.0000      -0.464562       -12.6414
 221   2.0000      -0.464294       -12.6341
 222   2.0000      -0.463063       -12.6006
 223   2.0000      -0.461709       -12.5638
 224   2.0000      -0.458633       -12.4800
 225   2.0000      -0.457542       -12.4504
 226   2.0000      -0.457298       -12.4437
 227   2.0000      -0.457193       -12.4408
 228   2.0000      -0.456957       -12.4344
 229   2.0000      -0.456788       -12.4298
 230   2.0000      -0.455592       -12.3973
 231   2.0000      -0.455259       -12.3882
 232   2.0000      -0.455112       -12.3842
 233   2.0000      -0.454434       -12.3658
 234   2.0000      -0.452434       -12.3113
 235   2.0000      -0.449781       -12.2392
 236   2.0000      -0.448587       -12.2067
 237   2.0000      -0.447901       -12.1880
 238   2.0000      -0.445253       -12.1160
 239   2.0000      -0.444899       -12.1063
 240   2.0000      -0.442011       -12.0277
 241   2.0000      -0.439495       -11.9593
 242   2.0000      -0.438280       -11.9262
 243   2.0000      -0.437779       -11.9126
 244   2.0000      -0.432237       -11.7618
 245   2.0000      -0.431491       -11.7415
 246   2.0000      -0.430716       -11.7204
 247   2.0000      -0.430365       -11.7108
 248   2.0000      -0.426290       -11.5999
 249   2.0000      -0.425713       -11.5842
 250   2.0000      -0.417761       -11.3679
 251   2.0000      -0.413141       -11.2421
 252   2.0000      -0.403661       -10.9842
 253   2.0000      -0.392688       -10.6856
 254   2.0000      -0.376088       -10.2339
 255   2.0000      -0.374710       -10.1964
 256   2.0000      -0.373231       -10.1561
 257   2.0000      -0.372056       -10.1242
 258   2.0000      -0.368919       -10.0388
 259   2.0000      -0.366673        -9.9777
 260   2.0000      -0.362993        -9.8775
 261   2.0000      -0.358856        -9.7650
 262   2.0000      -0.350238        -9.5305
 263   2.0000      -0.345362        -9.3978
 264   2.0000      -0.343677        -9.3519
 265   2.0000      -0.341139        -9.2829
 266   2.0000      -0.331696        -9.0259
 267   2.0000      -0.298755        -8.1295
 268   2.0000      -0.278021        -7.5653
 269   0.0000      -0.137713        -3.7474
 270   0.0000      -0.129807        -3.5322
 271   0.0000      -0.113173        -3.0796
 272   0.0000      -0.112367        -3.0577
 273   0.0000      -0.100054        -2.7226

MULLIKEN ATOMIC CHARGES
-----------------------
   0 C :    0.044933
   1 C :   -0.039471
   2 C :   -0.061918
   3 C :   -0.173875
   4 N :    0.206404
   5 C :   -0.067702
   6 C :   -0.173484
   7 N :    0.201040
   8 C :   -0.029244
   9 C :   -0.004186
  10 C :    0.156955
  11 O :   -0.135886
  12 C :   -0.097307
  13 C :    0.307031
  14 C :   -0.335326
  15 C :   -0.188243
  16 N :    0.170819
  17 C :   -0.197094
  18 N :    0.166184
  19 C :    0.043078
  20 C :   -0.114569
  21 C :    0.012937
  22 C :   -0.013308
  23 C :   -0.077357
  24 S :    0.217421
  25 C :   -0.101366
  26 C :    0.041589
  27 C :    0.304476
  28 C :   -0.288444
  29 C :   -0.193751
  30 N :    0.185832
  31 C :   -0.187445
  32 N :    0.195629
  33 C :   -0.044893
  34 C :   -0.038388
  35 S :    0.203932
  36 C :   -0.007866
  37 C :   -0.005621
  38 N :   -0.023641
  39 C :   -0.007358
  40 C :   -0.010099
  41 N :   -0.023872
  42 C :   -0.037772
  43 C :   -0.042855
  44 C :    0.037772
  45 C :   -0.099244
  46 S :    0.195041
  47 C :   -0.067656
  48 C :   -0.004652
  49 C :    0.295962
  50 C :   -0.278820
  51 C :   -0.180698
  52 N :    0.173240
  53 C :   -0.190111
  54 N :    0.188735
  55 C :    0.002561
  56 C :   -0.110190
  57 S :    0.222701
  58 C :    0.089374
  59 C :   -0.146366
  60 C :    0.140933
  61 O :   -0.126592
  62 C :    0.013075
  63 C :   -0.031862
  64 C :   -0.067992
  65 C :   -0.061876
  66 C :   -0.032379
  67 C :    0.027127
  68 C :    0.265643
  69 C :   -0.308772
  70 C :   -0.201386
  71 N :    0.177072
  72 C :   -0.170269
  73 N :    0.177588
  74 C :   -0.171837
  75 N :    0.202383
  76 C :   -0.173491
  77 N :    0.198182
  78 H :    0.021619
  79 H :    0.019542
  80 H :    0.016887
  81 H :    0.040613
  82 H :    0.024490
  83 H :    0.015434
  84 H :    0.018071
  85 H :    0.024160
  86 H :    0.026496
  87 H :    0.026817
  88 H :    0.018664
  89 H :    0.028092
Sum of atomic charges:   -0.0000000

LOEWDIN ATOMIC CHARGES
----------------------
   0 C :    0.001331
   1 C :    0.034475
   2 C :   -0.023222
   3 C :   -0.031859
   4 N :   -0.009544
   5 C :   -0.027421
   6 C :   -0.031924
   7 N :   -0.011616
   8 C :    0.050435
   9 C :   -0.028923
  10 C :    0.085264
  11 O :   -0.124501
  12 C :   -0.103823
  13 C :    0.069421
  14 C :   -0.126251
  15 C :   -0.022392
  16 N :   -0.033765
  17 C :   -0.023916
  18 N :   -0.038710
  19 C :    0.051304
  20 C :   -0.178223
  21 C :    0.025270
  22 C :   -0.071332
  23 C :   -0.153814
  24 S :    0.502553
  25 C :   -0.187182
  26 C :   -0.049647
  27 C :    0.071553
  28 C :   -0.085632
  29 C :   -0.017670
  30 N :   -0.019895
  31 C :   -0.021409
  32 N :   -0.011585
  33 C :   -0.004921
  34 C :   -0.166961
  35 S :    0.490761
  36 C :   -0.027996
  37 C :    0.009545
  38 N :   -0.035321
  39 C :   -0.026509
  40 C :    0.006861
  41 N :   -0.032808
  42 C :   -0.168963
  43 C :   -0.001935
  44 C :   -0.053985
  45 C :   -0.181605
  46 S :    0.492409
  47 C :   -0.156399
  48 C :   -0.063065
  49 C :    0.077966
  50 C :   -0.089151
  51 C :   -0.011299
  52 N :   -0.028158
  53 C :   -0.019352
  54 N :   -0.017658
  55 C :    0.015300
  56 C :   -0.181916
  57 S :    0.506589
  58 C :    0.049872
  59 C :   -0.098966
  60 C :    0.083617
  61 O :   -0.128006
  62 C :   -0.032310
  63 C :    0.049919
  64 C :   -0.028596
  65 C :   -0.021303
  66 C :    0.034267
  67 C :    0.005577
  68 C :    0.058519
  69 C :   -0.121431
  70 C :   -0.014539
  71 N :   -0.032633
  72 C :   -0.023124
  73 N :   -0.026677
  74 C :   -0.031457
  75 N :   -0.008289
  76 C :   -0.032300
  77 N :   -0.012258
  78 H :    0.052556
  79 H :    0.055511
  80 H :    0.044602
  81 H :    0.045049
  82 H :    0.047392
  83 H :    0.024290
  84 H :    0.022926
  85 H :    0.048439
  86 H :    0.043027
  87 H :    0.048447
  88 H :    0.054913
  89 H :    0.054190

  Mayer bond orders larger than 0.100000
B(  0-C ,  1-C ) :   1.3583 B(  0-C ,  9-C ) :   1.3361 B(  0-C , 13-C ) :   0.9543
B(  1-C ,  2-C ) :   1.3911 B(  1-C , 78-H ) :   0.9859 B(  2-C ,  3-C ) :   1.0887
B(  2-C ,  5-C ) :   1.4035 B(  3-C ,  4-N ) :   3.0440 B(  5-C ,  6-C ) :   1.0858
B(  5-C ,  8-C ) :   1.3600 B(  6-C ,  7-N ) :   3.0454 B(  8-C ,  9-C ) :   1.3646
B(  8-C , 79-H ) :   1.0158 B(  9-C , 10-C ) :   0.9303 B( 10-C , 11-O ) :   2.1955
B( 10-C , 12-C ) :   0.9515 B( 12-C , 13-C ) :   1.0893 B( 12-C , 19-C ) :   1.5666
B( 13-C , 14-C ) :   1.6451 B( 14-C , 15-C ) :   1.1471 B( 14-C , 17-C ) :   1.1396
B( 15-C , 16-N ) :   2.9627 B( 17-C , 18-N ) :   2.9795 B( 19-C , 20-C ) :   1.2313
B( 19-C , 80-H ) :   0.9166 B( 20-C , 21-C ) :   1.3815 B( 20-C , 24-S ) :   1.0729
B( 21-C , 22-C ) :   1.3409 B( 21-C , 81-H ) :   0.9705 B( 22-C , 23-C ) :   1.3734
B( 22-C , 27-C ) :   0.9958 B( 23-C , 24-S ) :   1.1728 B( 23-C , 25-C ) :   1.2086
B( 25-C , 26-C ) :   1.4237 B( 25-C , 35-S ) :   1.1215 B( 26-C , 27-C ) :   0.9929
B( 26-C , 33-C ) :   1.2547 B( 27-C , 28-C ) :   1.7244 B( 28-C , 29-C ) :   1.1366
B( 28-C , 31-C ) :   1.1339 B( 29-C , 30-N ) :   2.9946 B( 31-C , 32-N ) :   2.9926
B( 33-C , 34-C ) :   1.4635 B( 33-C , 82-H ) :   1.0091 B( 34-C , 35-S ) :   1.1236
B( 34-C , 36-C ) :   1.0626 B( 36-C , 37-C ) :   1.2950 B( 36-C , 41-N ) :   1.5422
B( 37-C , 38-N ) :   1.6030 B( 37-C , 83-H ) :   0.9775 B( 38-N , 39-C ) :   1.5508
B( 39-C , 40-C ) :   1.2861 B( 39-C , 42-C ) :   1.0677 B( 40-C , 41-N ) :   1.6143
B( 40-C , 84-H ) :   0.9748 B( 42-C , 43-C ) :   1.4648 B( 42-C , 46-S ) :   1.1205
B( 43-C , 44-C ) :   1.2580 B( 43-C , 85-H ) :   1.0111 B( 44-C , 45-C ) :   1.4287
B( 44-C , 49-C ) :   0.9897 B( 45-C , 46-S ) :   1.1295 B( 45-C , 47-C ) :   1.1969
B( 47-C , 48-C ) :   1.4057 B( 47-C , 57-S ) :   1.1613 B( 48-C , 49-C ) :   0.9976
B( 48-C , 55-C ) :   1.3713 B( 49-C , 50-C ) :   1.7279 B( 50-C , 51-C ) :   1.1327
B( 50-C , 53-C ) :   1.1319 B( 51-C , 52-N ) :   2.9812 B( 53-C , 54-N ) :   2.9995
B( 55-C , 56-C ) :   1.3735 B( 55-C , 86-H ) :   0.9773 B( 56-C , 57-S ) :   1.0879
B( 56-C , 58-C ) :   1.1618 B( 58-C , 59-C ) :   1.6454 B( 58-C , 87-H ) :   0.9250
B( 59-C , 60-C ) :   0.9539 B( 59-C , 68-C ) :   1.0463 B( 60-C , 61-O ) :   2.2744
B( 60-C , 62-C ) :   0.9008 B( 62-C , 63-C ) :   1.3706 B( 62-C , 67-C ) :   1.3345
B( 63-C , 64-C ) :   1.3672 B( 63-C , 88-H ) :   1.0140 B( 64-C , 65-C ) :   1.4013
B( 64-C , 76-C ) :   1.0864 B( 65-C , 66-C ) :   1.3873 B( 65-C , 74-C ) :   1.0870
B( 66-C , 67-C ) :   1.3659 B( 66-C , 89-H ) :   0.9896 B( 67-C , 68-C ) :   0.9713
B( 68-C , 69-C ) :   1.6664 B( 69-C , 70-C ) :   1.1724 B( 69-C , 72-C ) :   1.1231
B( 70-C , 71-N ) :   2.9906 B( 72-C , 73-N ) :   2.9887 B( 74-C , 75-N ) :   3.0419
B( 76-C , 77-N ) :   3.0455

-----------------------------------------------------------------------------
         ABSORPTION SPECTRUM VIA TRANSITION ELECTRIC DIPOLE MOMENTS
-----------------------------------------------------------------------------
State   Energy  Wavelength   fosc         T2         TX        TY        TZ
        (cm-1)    (nm)                  (au**2)     (au)      (au)      (au)
-----------------------------------------------------------------------------
   0   14397.9    694.5   1.001366342  22.89658  -1.61615  -4.43760   0.76966
   1   15451.2    647.2   0.062229221   1.32589  -0.25612  -1.07927   0.30899
   2   19933.9    501.7   1.330648633  21.97585   1.87208   4.25721  -0.58934
   3   21187.9    472.0   0.517508026   8.04088   0.32342   2.56184  -1.17186
   4   23376.9    427.8   0.004759495   0.06703  -0.10537  -0.06038  -0.22864
   5   24093.6    415.0   0.232212629   3.17292  -0.62296  -1.65582  -0.20762
   6   24808.6    403.1   0.030514788   0.40493  -0.51745  -0.31639  -0.19256
   7   25402.7    393.7   0.228479944   2.96104   0.47741   1.52828  -0.63047
   8   28288.6    353.5   0.024672670   0.28713  -0.08889  -0.51221  -0.12990
   9   28621.3    349.4   0.182915161   2.10395  -0.57429  -1.12672  -0.71038
  10   28912.0    345.9   0.143829966   1.63775   0.02310  -1.22502   0.36950
  11   29474.3    339.3   0.051898383   0.57968  -0.19167   0.08632  -0.73177
  12   29816.3    335.4   0.246388016   2.72045   0.23186   0.85086   1.39382
  13   29840.0    335.1   0.207327831   2.28736   0.00572  -0.83584  -1.26044
  14   30090.5    332.3   0.036835170   0.40300   0.19719   0.28466   0.53206
  15   30485.8    328.0   0.061586933   0.66507   0.51816   0.25659   0.57510
  16   30787.2    324.8   0.042398806   0.45338   0.39080   0.40337  -0.37141
  17   31029.2    322.3   0.198291988   2.10383  -0.17411  -0.97741   1.05744
  18   31711.9    315.3   0.022987432   0.23864  -0.12343  -0.34006   0.32828
  19   31897.6    313.5   0.062875650   0.64893   0.13324  -0.48353   0.63038
  20   31952.4    313.0   0.097513753   1.00470  -0.19756  -0.84963  -0.49377
  21   32069.1    311.8   0.048983050   0.50285  -0.26064   0.65193   0.09953
  22   32967.3    303.3   0.096322846   0.96188  -0.58412  -0.77829  -0.12225
  23   33278.2    300.5   0.267773654   2.64901  -0.16676  -1.42629  -0.76610
  24   33605.8    297.6   0.146872191   1.43880  -0.44120   0.41554  -1.03512
  25   33901.8    295.0   0.007208494   0.07000   0.17008   0.19524  -0.05433
  26   34010.3    294.0   0.247583375   2.39655   0.87552   1.24088  -0.30039
  27   34173.3    292.6   0.076935934   0.74117  -0.26471  -0.79962  -0.17806
  28   34602.3    289.0   0.174540635   1.66061  -0.23295  -0.61027   1.11081
  29   34828.2    287.1   0.367545467   3.47420   0.18373   0.78259   1.68167
  30   35134.7    284.6   0.260106965   2.43720  -0.79322  -0.67846  -1.16091
  31   35246.1    283.7   0.223575510   2.08828  -0.70468   0.03264  -1.26121
  32   35588.7    281.0   0.448539572   4.14919   0.54697  -1.68480   1.00572
  33   35897.0    278.6   0.132614271   1.21621   0.64819  -0.23762   0.86000
  34   36111.7    276.9   0.027458073   0.25032  -0.20482   0.31379  -0.33152
  35   36128.9    276.8   0.004786657   0.04362  -0.18351   0.09652   0.02499
  36   36314.5    275.4   0.131956766   1.19626   0.10636   0.01571   1.08844
  37   36619.4    273.1   0.007650673   0.06878  -0.08672  -0.09598  -0.22814
  38   36975.1    270.5   0.145864414   1.29872   0.22227   1.05353   0.37336
  39   37210.3    268.7   0.001415279   0.01252   0.07679   0.08017   0.01404
  40   37332.1    267.9   0.250860574   2.21220  -0.37249   0.62376  -1.29784
  41   37555.2    266.3   0.012644471   0.11084   0.10818   0.31420  -0.02039
  42   37887.1    263.9   0.038505680   0.33459   0.05549  -0.21195   0.53534
  43   38248.9    261.4   0.066251170   0.57023  -0.33755  -0.67431  -0.03992
  44   38505.6    259.7   0.008675858   0.07418  -0.01750   0.15888   0.22052
  45   38537.5    259.5   0.102792428   0.87812  -0.30900   0.06746  -0.88209
  46   38783.6    257.8   0.084911541   0.72077   0.35118   0.54654   0.54656
  47   38929.9    256.9   0.015832700   0.13389  -0.21346   0.29508  -0.03543
  48   39243.2    254.8   0.094350623   0.79151  -0.07790  -0.64577   0.60698
  49   39491.5    253.2   0.029371184   0.24485  -0.12693  -0.32066   0.35484
  50   39790.8    251.3   0.081277706   0.67246  -0.26793  -0.75813  -0.16095
  51   40133.3    249.2   0.005033807   0.04129   0.09280   0.17921   0.02376

FINAL SINGLE POINT ENERGY     -4722.403476024412

DIPOLE MOMENT
-------------
                                X             Y             Z
Electronic contribution:     -1.38474       0.76678      -1.30570
Nuclear contribution   :      1.96202      -1.65074       2.86268
                        -----------------------------------------
Total Dipole Moment    :      0.57728      -0.88396       1.55698
                        -----------------------------------------
Magnitude (a.u.)       :      1.88117
Magnitude (Debye)      :      4.78156

Rotational constants in cm-1:     0.003274     0.000140     0.000136
Rotational constants in MHz :    98.149153     4.211531     4.079021

                             ****ORCA TERMINATED NORMALLY****
TOTAL RUN TIME: 0 days 0 hours 9 minutes 9 seconds 852 msec
