                         Program Version 4.2.0 -  RELEASE  -
|  1> # ORCA input file
|  2> # SCF done       -181.647404443406          0.000343905407
|  3> ! CAM-B3LYP def2-SVP def2/J RIJCOSX Grid4 TightSCF
|  4> %maxcore 5000
|  5> %tddft
|  6>     Mode sTDDFT
|  7>     Ethresh 5.0
|  8>     maxcore 5000
|  9> end
| 10>
| 11> %pal
| 12>   nprocs 6
| 13>   end
| 14> * xyz 0 1
| 15>    C        1.77516        -1.93900        -1.04857
| 16>    C        2.75009        -1.00487        -0.74164
| 17>    C        3.67956        -1.31470         0.25388
| 18>    C        4.68518        -0.37169         0.58273
| 19>    N        5.49455         0.39428         0.84443
| 20>    C        3.63755        -2.54477         0.93736
| 21>    C        4.59375        -2.82975         1.94183
| 22>    N        5.35801        -3.08080         2.75665
| 23>    C        2.65386        -3.48452         0.62533
| 24>    C        1.74297        -3.16635        -0.35903
| 25>    C        0.62013        -3.98000        -0.86661
| 26>    O        0.31105        -5.09416        -0.48240
| 27>    C       -0.02313        -3.18052        -1.90984
| 28>    C        0.67783        -1.91493        -2.01920
| 29>    C        0.38542        -0.86369        -2.84646
| 30>    C        1.11696         0.34410        -2.88207
| 31>    N        1.67002         1.34631        -2.95797
| 32>    C       -0.67999        -0.81497        -3.77218
| 33>    N       -1.52397        -0.69468        -4.54091
| 34>    C       -1.10410        -3.57454        -2.66166
| 35>    C       -1.86658        -4.74779        -2.60960
| 36>    C       -2.96307        -4.94887        -3.46141
| 37>    C       -3.60710        -6.14453        -3.22169
| 38>    C       -2.99832        -6.88158        -2.17344
| 39>    S       -1.64188        -6.10442        -1.50142
| 40>    C       -3.74649        -8.06556        -1.98207
| 41>    C       -4.82493        -8.08057        -2.89092
| 42>    C       -4.76225        -6.88086        -3.71059
| 43>    C       -5.60855        -6.52900        -4.71979
| 44>    C       -6.70100        -7.34172        -5.09055
| 45>    N       -7.58676        -8.00816        -5.38340
| 46>    C       -5.44570        -5.33768        -5.45934
| 47>    N       -5.31387        -4.37284        -6.06352
| 48>    C       -5.64461        -9.19394        -2.74623
| 49>    C       -5.20446       -10.03750        -1.73468
| 50>    S       -3.74133        -9.43817        -0.96842
| 51>    C       -5.78742       -11.23507        -1.24966
| 52>    C       -6.99306       -11.71430        -1.64919
| 53>    C       -7.61402       -12.87591        -1.12709
| 54>    C       -7.12597       -13.80925        -0.22085
| 55>    C       -8.06841       -14.78485         0.08252
| 56>    C       -9.29133       -14.59754        -0.59288
| 57>    S       -9.26389       -13.23056        -1.61297
| 58>    C      -10.19042       -15.60564        -0.18168
| 59>    C       -9.53587       -16.44954         0.74231
| 60>    C       -8.18030       -15.96283         0.93263
| 61>    C       -7.21513       -16.48940         1.73847
| 62>    C       -7.43236       -17.64978         2.51263
| 63>    N       -7.60377       -18.59642         3.13537
| 64>    C       -5.93284       -15.90880         1.84126
| 65>    N       -4.89290       -15.43267         1.91847
| 66>    C      -10.35435       -17.46839         1.21230
| 67>    C      -11.64302       -17.38799         0.70149
| 68>    S      -11.80789       -16.05660        -0.44685
| 69>    C      -12.69946       -18.28044         0.97992
| 70>    C      -14.04077       -18.11029         0.80293
| 71>    C      -14.92606       -19.30079         0.70727
| 72>    O      -14.64600       -20.44326         0.97747
| 73>    C      -16.20037       -18.78546         0.15002
| 74>    C      -17.31529       -19.49299        -0.24614
| 75>    C      -18.39292       -18.78047        -0.77599
| 76>    C      -18.32414       -17.37954        -0.90111
| 77>    C      -17.19483       -16.67107        -0.48580
| 78>    C      -16.13353       -17.38172         0.04611
| 79>    C      -14.85469       -16.93249         0.59754
| 80>    C      -14.61611       -15.68089         1.10094
| 81>    C      -13.49432       -15.36908         1.89779
| 82>    N      -12.61530       -15.09552         2.58301
| 83>    C      -15.50392       -14.59404         0.96101
| 84>    N      -16.18605       -13.67785         0.85492
| 85>    C      -19.41910       -16.67548        -1.46152
| 86>    N      -20.29606       -16.09815        -1.91752
| 87>    C      -19.55733       -19.46855        -1.19537
| 88>    N      -20.49078       -20.04052        -1.53074
| 89>    H        2.81744        -0.05202        -1.24149
| 90>    H        2.60673        -4.43262         1.13917
| 91>    H       -1.45034        -2.88141        -3.41869
| 92>    H       -3.25048        -4.22507        -4.20365
| 93>    H       -6.51663        -9.39031        -3.34155
| 94>    H       -5.22921       -11.75822        -0.48639
| 95>    H       -7.56199       -11.17219        -2.39119
| 96>    H       -6.13390       -13.76989         0.18878
| 97>    H      -10.06300       -18.22026         1.92348
| 98>    H      -12.39970       -19.26854         1.31708
| 99>    H      -17.35390       -20.56734        -0.14935
|100>    H      -17.17091       -15.59847        -0.59855
|101> *
|102>
|103>                          ****END OF INPUT****

CARTESIAN COORDINATES (ANGSTROEM)
---------------------------------
  C      1.775160   -1.939000   -1.048570
  C      2.750090   -1.004870   -0.741640
  C      3.679560   -1.314700    0.253880
  C      4.685180   -0.371690    0.582730
  N      5.494550    0.394280    0.844430
  C      3.637550   -2.544770    0.937360
  C      4.593750   -2.829750    1.941830
  N      5.358010   -3.080800    2.756650
  C      2.653860   -3.484520    0.625330
  C      1.742970   -3.166350   -0.359030
  C      0.620130   -3.980000   -0.866610
  O      0.311050   -5.094160   -0.482400
  C     -0.023130   -3.180520   -1.909840
  C      0.677830   -1.914930   -2.019200
  C      0.385420   -0.863690   -2.846460
  C      1.116960    0.344100   -2.882070
  N      1.670020    1.346310   -2.957970
  C     -0.679990   -0.814970   -3.772180
  N     -1.523970   -0.694680   -4.540910
  C     -1.104100   -3.574540   -2.661660
  C     -1.866580   -4.747790   -2.609600
  C     -2.963070   -4.948870   -3.461410
  C     -3.607100   -6.144530   -3.221690
  C     -2.998320   -6.881580   -2.173440
  S     -1.641880   -6.104420   -1.501420
  C     -3.746490   -8.065560   -1.982070
  C     -4.824930   -8.080570   -2.890920
  C     -4.762250   -6.880860   -3.710590
  C     -5.608550   -6.529000   -4.719790
  C     -6.701000   -7.341720   -5.090550
  N     -7.586760   -8.008160   -5.383400
  C     -5.445700   -5.337680   -5.459340
  N     -5.313870   -4.372840   -6.063520
  C     -5.644610   -9.193940   -2.746230
  C     -5.204460  -10.037500   -1.734680
  S     -3.741330   -9.438170   -0.968420
  C     -5.787420  -11.235070   -1.249660
  C     -6.993060  -11.714300   -1.649190
  C     -7.614020  -12.875910   -1.127090
  C     -7.125970  -13.809250   -0.220850
  C     -8.068410  -14.784850    0.082520
  C     -9.291330  -14.597540   -0.592880
  S     -9.263890  -13.230560   -1.612970
  C    -10.190420  -15.605640   -0.181680
  C     -9.535870  -16.449540    0.742310
  C     -8.180300  -15.962830    0.932630
  C     -7.215130  -16.489400    1.738470
  C     -7.432360  -17.649780    2.512630
  N     -7.603770  -18.596420    3.135370
  C     -5.932840  -15.908800    1.841260
  N     -4.892900  -15.432670    1.918470
  C    -10.354350  -17.468390    1.212300
  C    -11.643020  -17.387990    0.701490
  S    -11.807890  -16.056600   -0.446850
  C    -12.699460  -18.280440    0.979920
  C    -14.040770  -18.110290    0.802930
  C    -14.926060  -19.300790    0.707270
  O    -14.646000  -20.443260    0.977470
  C    -16.200370  -18.785460    0.150020
  C    -17.315290  -19.492990   -0.246140
  C    -18.392920  -18.780470   -0.775990
  C    -18.324140  -17.379540   -0.901110
  C    -17.194830  -16.671070   -0.485800
  C    -16.133530  -17.381720    0.046110
  C    -14.854690  -16.932490    0.597540
  C    -14.616110  -15.680890    1.100940
  C    -13.494320  -15.369080    1.897790
  N    -12.615300  -15.095520    2.583010
  C    -15.503920  -14.594040    0.961010
  N    -16.186050  -13.677850    0.854920
  C    -19.419100  -16.675480   -1.461520
  N    -20.296060  -16.098150   -1.917520
  C    -19.557330  -19.468550   -1.195370
  N    -20.490780  -20.040520   -1.530740
  H      2.817440   -0.052020   -1.241490
  H      2.606730   -4.432620    1.139170
  H     -1.450340   -2.881410   -3.418690
  H     -3.250480   -4.225070   -4.203650
  H     -6.516630   -9.390310   -3.341550
  H     -5.229210  -11.758220   -0.486390
  H     -7.561990  -11.172190   -2.391190
  H     -6.133900  -13.769890    0.188780
  H    -10.063000  -18.220260    1.923480
  H    -12.399700  -19.268540    1.317080
  H    -17.353900  -20.567340   -0.149350
  H    -17.170910  -15.598470   -0.598550

 Total Charge           Charge          ....    0
 Multiplicity           Mult            ....    1
 Number of Electrons    NEL             ....  512
 Basis Dimension        Dim             .... 1112

ORBITAL ENERGIES
----------------

  NO   OCC          E(Eh)            E(eV)
   0   2.0000     -89.016913     -2422.2734
   1   2.0000     -89.014983     -2422.2208
   2   2.0000     -89.013487     -2422.1801
   3   2.0000     -89.010143     -2422.0891
   4   2.0000     -19.251960      -523.8725
   5   2.0000     -19.243998      -523.6558
   6   2.0000     -14.451568      -393.2472
   7   2.0000     -14.450013      -393.2048
   8   2.0000     -14.449966      -393.2036
   9   2.0000     -14.447397      -393.1337
  10   2.0000     -14.440940      -392.9580
  11   2.0000     -14.440753      -392.9529
  12   2.0000     -14.439896      -392.9295
  13   2.0000     -14.436189      -392.8287
  14   2.0000     -14.434214      -392.7749
  15   2.0000     -14.434017      -392.7696
  16   2.0000     -14.433870      -392.7656
  17   2.0000     -14.432152      -392.7188
  18   2.0000     -10.400024      -282.9990
  19   2.0000     -10.395863      -282.8858
  20   2.0000     -10.387991      -282.6716
  21   2.0000     -10.385590      -282.6063
  22   2.0000     -10.374865      -282.3144
  23   2.0000     -10.373968      -282.2900
  24   2.0000     -10.373168      -282.2683
  25   2.0000     -10.371249      -282.2160
  26   2.0000     -10.370068      -282.1839
  27   2.0000     -10.367587      -282.1164
  28   2.0000     -10.367569      -282.1159
  29   2.0000     -10.367431      -282.1121
  30   2.0000     -10.366392      -282.0839
  31   2.0000     -10.365776      -282.0671
  32   2.0000     -10.365302      -282.0542
  33   2.0000     -10.357180      -281.8332
  34   2.0000     -10.355394      -281.7846
  35   2.0000     -10.353706      -281.7387
  36   2.0000     -10.353222      -281.7255
  37   2.0000     -10.352876      -281.7161
  38   2.0000     -10.351483      -281.6782
  39   2.0000     -10.350348      -281.6473
  40   2.0000     -10.350155      -281.6420
  41   2.0000     -10.350035      -281.6388
  42   2.0000     -10.349477      -281.6236
  43   2.0000     -10.349461      -281.6232
  44   2.0000     -10.348416      -281.5947
  45   2.0000     -10.347571      -281.5717
  46   2.0000     -10.346664      -281.5471
  47   2.0000     -10.346261      -281.5361
  48   2.0000     -10.342102      -281.4229
  49   2.0000     -10.341901      -281.4174
  50   2.0000     -10.341870      -281.4166
  51   2.0000     -10.341419      -281.4043
  52   2.0000     -10.341129      -281.3964
  53   2.0000     -10.340716      -281.3852
  54   2.0000     -10.339297      -281.3466
  55   2.0000     -10.337845      -281.3071
  56   2.0000     -10.336134      -281.2605
  57   2.0000     -10.334728      -281.2222
  58   2.0000     -10.333770      -281.1962
  59   2.0000     -10.333276      -281.1827
  60   2.0000     -10.332924      -281.1732
  61   2.0000     -10.331842      -281.1437
  62   2.0000     -10.330592      -281.1097
  63   2.0000     -10.330331      -281.1026
  64   2.0000     -10.330191      -281.0988
  65   2.0000     -10.329068      -281.0682
  66   2.0000     -10.328890      -281.0634
  67   2.0000     -10.328286      -281.0470
  68   2.0000     -10.328222      -281.0452
  69   2.0000     -10.326379      -280.9951
  70   2.0000     -10.326346      -280.9942
  71   2.0000     -10.325097      -280.9602
  72   2.0000     -10.323668      -280.9213
  73   2.0000     -10.322402      -280.8868
  74   2.0000      -8.111139      -220.7153
  75   2.0000      -8.109678      -220.6755
  76   2.0000      -8.108238      -220.6364
  77   2.0000      -8.102623      -220.4836
  78   2.0000      -6.080414      -165.4565
  79   2.0000      -6.078835      -165.4135
  80   2.0000      -6.077362      -165.3734
  81   2.0000      -6.076188      -165.3415
  82   2.0000      -6.074697      -165.3009
  83   2.0000      -6.073500      -165.2683
  84   2.0000      -6.073243      -165.2614
  85   2.0000      -6.072163      -165.2320
  86   2.0000      -6.072059      -165.2291
  87   2.0000      -6.070744      -165.1933
  88   2.0000      -6.067291      -165.0994
  89   2.0000      -6.065099      -165.0397
  90   2.0000      -1.167639       -31.7731
  91   2.0000      -1.159957       -31.5640
  92   2.0000      -1.071117       -29.1466
  93   2.0000      -1.067646       -29.0521
  94   2.0000      -1.052039       -28.6274
  95   2.0000      -1.049610       -28.5613
  96   2.0000      -1.043256       -28.3884
  97   2.0000      -1.041000       -28.3271
  98   2.0000      -1.036843       -28.2139
  99   2.0000      -1.034772       -28.1576
 100   2.0000      -1.028578       -27.9890
 101   2.0000      -1.026465       -27.9315
 102   2.0000      -1.025456       -27.9041
 103   2.0000      -1.021663       -27.8009
 104   2.0000      -1.018931       -27.7265
 105   2.0000      -1.018110       -27.7042
 106   2.0000      -1.017784       -27.6953
 107   2.0000      -1.015622       -27.6365
 108   2.0000      -1.013347       -27.5746
 109   2.0000      -1.012174       -27.5427
 110   2.0000      -0.990106       -26.9421
 111   2.0000      -0.987518       -26.8717
 112   2.0000      -0.982782       -26.7429
 113   2.0000      -0.980097       -26.6698
 114   2.0000      -0.951902       -25.9026
 115   2.0000      -0.943279       -25.6679
 116   2.0000      -0.935422       -25.4541
 117   2.0000      -0.933796       -25.4099
 118   2.0000      -0.928686       -25.2708
 119   2.0000      -0.915241       -24.9050
 120   2.0000      -0.911831       -24.8122
 121   2.0000      -0.910164       -24.7668
 122   2.0000      -0.906059       -24.6551
 123   2.0000      -0.894402       -24.3379
 124   2.0000      -0.887972       -24.1630
 125   2.0000      -0.881713       -23.9926
 126   2.0000      -0.879472       -23.9317
 127   2.0000      -0.862749       -23.4766
 128   2.0000      -0.851594       -23.1730
 129   2.0000      -0.829567       -22.5737
 130   2.0000      -0.817380       -22.2420
 131   2.0000      -0.817130       -22.2352
 132   2.0000      -0.801875       -21.8201
 133   2.0000      -0.799809       -21.7639
 134   2.0000      -0.795004       -21.6332
 135   2.0000      -0.777687       -21.1619
 136   2.0000      -0.762341       -20.7443
 137   2.0000      -0.759728       -20.6733
 138   2.0000      -0.745282       -20.2801
 139   2.0000      -0.737593       -20.0709
 140   2.0000      -0.723726       -19.6936
 141   2.0000      -0.722195       -19.6519
 142   2.0000      -0.720196       -19.5975
 143   2.0000      -0.717732       -19.5305
 144   2.0000      -0.710773       -19.3411
 145   2.0000      -0.706221       -19.2172
 146   2.0000      -0.700974       -19.0745
 147   2.0000      -0.693891       -18.8817
 148   2.0000      -0.687767       -18.7151
 149   2.0000      -0.681274       -18.5384
 150   2.0000      -0.670221       -18.2376
 151   2.0000      -0.667081       -18.1522
 152   2.0000      -0.664550       -18.0833
 153   2.0000      -0.660426       -17.9711
 154   2.0000      -0.654029       -17.7970
 155   2.0000      -0.642420       -17.4811
 156   2.0000      -0.642127       -17.4732
 157   2.0000      -0.640196       -17.4206
 158   2.0000      -0.631973       -17.1969
 159   2.0000      -0.630785       -17.1645
 160   2.0000      -0.619951       -16.8697
 161   2.0000      -0.619148       -16.8479
 162   2.0000      -0.608661       -16.5625
 163   2.0000      -0.604651       -16.4534
 164   2.0000      -0.596484       -16.2312
 165   2.0000      -0.591353       -16.0915
 166   2.0000      -0.577546       -15.7158
 167   2.0000      -0.576344       -15.6831
 168   2.0000      -0.574518       -15.6334
 169   2.0000      -0.574120       -15.6226
 170   2.0000      -0.573521       -15.6063
 171   2.0000      -0.570655       -15.5283
 172   2.0000      -0.568472       -15.4689
 173   2.0000      -0.568209       -15.4618
 174   2.0000      -0.559368       -15.2212
 175   2.0000      -0.558001       -15.1840
 176   2.0000      -0.552577       -15.0364
 177   2.0000      -0.544349       -14.8125
 178   2.0000      -0.541623       -14.7383
 179   2.0000      -0.538507       -14.6535
 180   2.0000      -0.533807       -14.5256
 181   2.0000      -0.532557       -14.4916
 182   2.0000      -0.531996       -14.4763
 183   2.0000      -0.529541       -14.4095
 184   2.0000      -0.528206       -14.3732
 185   2.0000      -0.525720       -14.3056
 186   2.0000      -0.523608       -14.2481
 187   2.0000      -0.523110       -14.2346
 188   2.0000      -0.521251       -14.1840
 189   2.0000      -0.519871       -14.1464
 190   2.0000      -0.517116       -14.0715
 191   2.0000      -0.511760       -13.9257
 192   2.0000      -0.509930       -13.8759
 193   2.0000      -0.506239       -13.7755
 194   2.0000      -0.500831       -13.6283
 195   2.0000      -0.499861       -13.6019
 196   2.0000      -0.496832       -13.5195
 197   2.0000      -0.494683       -13.4610
 198   2.0000      -0.485589       -13.2135
 199   2.0000      -0.481089       -13.0911
 200   2.0000      -0.479182       -13.0392
 201   2.0000      -0.477987       -13.0067
 202   2.0000      -0.475741       -12.9456
 203   2.0000      -0.473996       -12.8981
 204   2.0000      -0.472707       -12.8630
 205   2.0000      -0.469881       -12.7861
 206   2.0000      -0.469237       -12.7686
 207   2.0000      -0.467911       -12.7325
 208   2.0000      -0.467066       -12.7095
 209   2.0000      -0.466771       -12.7015
 210   2.0000      -0.465861       -12.6767
 211   2.0000      -0.464278       -12.6336
 212   2.0000      -0.463419       -12.6103
 213   2.0000      -0.460585       -12.5332
 214   2.0000      -0.460448       -12.5294
 215   2.0000      -0.459986       -12.5168
 216   2.0000      -0.459586       -12.5060
 217   2.0000      -0.459462       -12.5026
 218   2.0000      -0.459260       -12.4971
 219   2.0000      -0.458407       -12.4739
 220   2.0000      -0.457743       -12.4558
 221   2.0000      -0.457160       -12.4400
 222   2.0000      -0.457002       -12.4357
 223   2.0000      -0.456059       -12.4100
 224   2.0000      -0.454975       -12.3805
 225   2.0000      -0.452587       -12.3155
 226   2.0000      -0.448626       -12.2077
 227   2.0000      -0.447233       -12.1698
 228   2.0000      -0.446966       -12.1626
 229   2.0000      -0.446597       -12.1525
 230   2.0000      -0.443231       -12.0609
 231   2.0000      -0.440557       -11.9882
 232   2.0000      -0.436735       -11.8842
 233   2.0000      -0.434099       -11.8124
 234   2.0000      -0.433572       -11.7981
 235   2.0000      -0.432639       -11.7727
 236   2.0000      -0.429401       -11.6846
 237   2.0000      -0.428667       -11.6646
 238   2.0000      -0.423894       -11.5347
 239   2.0000      -0.422430       -11.4949
 240   2.0000      -0.408784       -11.1236
 241   2.0000      -0.396790       -10.7972
 242   2.0000      -0.379141       -10.3170
 243   2.0000      -0.376196       -10.2368
 244   2.0000      -0.373483       -10.1630
 245   2.0000      -0.371633       -10.1127
 246   2.0000      -0.370657       -10.0861
 247   2.0000      -0.368026       -10.0145
 248   2.0000      -0.365585        -9.9481
 249   2.0000      -0.352842        -9.6013
 250   2.0000      -0.345757        -9.4085
 251   2.0000      -0.344222        -9.3668
 252   2.0000      -0.342754        -9.3268
 253   2.0000      -0.330597        -8.9960
 254   2.0000      -0.301360        -8.2004
 255   2.0000      -0.268882        -7.3166
 256   0.0000      -0.140441        -3.8216
 257   0.0000      -0.127947        -3.4816
 258   0.0000      -0.114092        -3.1046
 259   0.0000      -0.112710        -3.0670
 260   0.0000      -0.103376        -2.8130

MULLIKEN ATOMIC CHARGES
-----------------------
   0 C :    0.041252
   1 C :   -0.037448
   2 C :   -0.058536
   3 C :   -0.176083
   4 N :    0.203667
   5 C :   -0.066982
   6 C :   -0.173613
   7 N :    0.198423
   8 C :   -0.032285
   9 C :   -0.000540
  10 C :    0.168377
  11 O :   -0.177510
  12 C :   -0.096653
  13 C :    0.326764
  14 C :   -0.338754
  15 C :   -0.189036
  16 N :    0.172254
  17 C :   -0.190403
  18 N :    0.165893
  19 C :   -0.024767
  20 C :   -0.051787
  21 C :   -0.057120
  22 C :    0.045832
  23 C :   -0.062786
  24 S :    0.247322
  25 C :   -0.109398
  26 C :    0.012867
  27 C :    0.304991
  28 C :   -0.288597
  29 C :   -0.181663
  30 N :    0.169843
  31 C :   -0.193087
  32 N :    0.191186
  33 C :   -0.032690
  34 C :   -0.073001
  35 S :    0.216073
  36 C :    0.046517
  37 C :    0.047071
  38 C :   -0.073590
  39 C :   -0.029337
  40 C :    0.014239
  41 C :   -0.107210
  42 S :    0.216029
  43 C :   -0.074580
  44 C :    0.023870
  45 C :    0.300320
  46 C :   -0.281440
  47 C :   -0.190659
  48 N :    0.185334
  49 C :   -0.182420
  50 N :    0.172389
  51 C :    0.014264
  52 C :   -0.102870
  53 S :    0.208385
  54 C :    0.054358
  55 C :   -0.141730
  56 C :    0.144484
  57 O :   -0.121817
  58 C :    0.010766
  59 C :   -0.033851
  60 C :   -0.069688
  61 C :   -0.061675
  62 C :   -0.036930
  63 C :    0.034628
  64 C :    0.241623
  65 C :   -0.312185
  66 C :   -0.206743
  67 N :    0.181169
  68 C :   -0.174521
  69 N :    0.174379
  70 C :   -0.173799
  71 N :    0.204080
  72 C :   -0.171722
  73 N :    0.199773
  74 H :    0.021200
  75 H :    0.016013
  76 H :    0.019329
  77 H :    0.032639
  78 H :    0.010447
  79 H :    0.000197
  80 H :    0.000152
  81 H :    0.010690
  82 H :    0.023141
  83 H :    0.040804
  84 H :    0.020963
  85 H :    0.025510
Sum of atomic charges:   -0.0000000

LOEWDIN ATOMIC CHARGES
----------------------
   0 C :    0.004232
   1 C :    0.034825
   2 C :   -0.022508
   3 C :   -0.031878
   4 N :   -0.008669
   5 C :   -0.028378
   6 C :   -0.032285
   7 N :   -0.012329
   8 C :    0.047959
   9 C :   -0.029974
  10 C :    0.084532
  11 O :   -0.164609
  12 C :   -0.118971
  13 C :    0.069031
  14 C :   -0.124233
  15 C :   -0.022133
  16 N :   -0.033442
  17 C :   -0.022735
  18 N :   -0.032845
  19 C :    0.062592
  20 C :   -0.184355
  21 C :    0.019537
  22 C :   -0.076643
  23 C :   -0.157956
  24 S :    0.548341
  25 C :   -0.194014
  26 C :   -0.046967
  27 C :    0.075698
  28 C :   -0.094978
  29 C :   -0.014622
  30 N :   -0.029727
  31 C :   -0.020949
  32 N :   -0.017080
  33 C :   -0.027521
  34 C :   -0.149910
  35 S :    0.495456
  36 C :   -0.030852
  37 C :   -0.030140
  38 C :   -0.150929
  39 C :   -0.024960
  40 C :   -0.046609
  41 C :   -0.194110
  42 S :    0.496064
  43 C :   -0.143600
  44 C :   -0.072341
  45 C :    0.077909
  46 C :   -0.091506
  47 C :   -0.018198
  48 N :   -0.020063
  49 C :   -0.014822
  50 N :   -0.027462
  51 C :    0.022917
  52 C :   -0.182285
  53 S :    0.509608
  54 C :    0.060716
  55 C :   -0.109661
  56 C :    0.082759
  57 O :   -0.125344
  58 C :   -0.030765
  59 C :    0.049943
  60 C :   -0.028171
  61 C :   -0.022105
  62 C :    0.031369
  63 C :    0.004043
  64 C :    0.053657
  65 C :   -0.131060
  66 C :   -0.035791
  67 N :   -0.036976
  68 C :   -0.025074
  69 N :   -0.032265
  70 C :   -0.031946
  71 N :   -0.008623
  72 C :   -0.032565
  73 N :   -0.011101
  74 H :    0.052851
  75 H :    0.053882
  76 H :    0.054997
  77 H :    0.049968
  78 H :    0.040217
  79 H :    0.034692
  80 H :    0.034607
  81 H :    0.040699
  82 H :    0.049409
  83 H :    0.058025
  84 H :    0.055682
  85 H :    0.052818

  Mayer bond orders larger than 0.100000
B(  0-C ,  1-C ) :   1.3667 B(  0-C ,  9-C ) :   1.3332 B(  0-C , 13-C ) :   0.9539
B(  1-C ,  2-C ) :   1.3869 B(  1-C , 74-H ) :   0.9845 B(  2-C ,  3-C ) :   1.0885
B(  2-C ,  5-C ) :   1.4053 B(  3-C ,  4-N ) :   3.0420 B(  5-C ,  6-C ) :   1.0827
B(  5-C ,  8-C ) :   1.3616 B(  6-C ,  7-N ) :   3.0448 B(  8-C ,  9-C ) :   1.3636
B(  8-C , 75-H ) :   1.0148 B(  9-C , 10-C ) :   0.9438 B( 10-C , 11-O ) :   2.1260
B( 10-C , 12-C ) :   0.9959 B( 12-C , 13-C ) :   1.0867 B( 12-C , 19-C ) :   1.4592
B( 13-C , 14-C ) :   1.6447 B( 14-C , 15-C ) :   1.1488 B( 14-C , 17-C ) :   1.1426
B( 15-C , 16-N ) :   2.9596 B( 17-C , 18-N ) :   2.9604 B( 19-C , 20-C ) :   1.2974
B( 19-C , 76-H ) :   0.9395 B( 20-C , 21-C ) :   1.3082 B( 20-C , 24-S ) :   1.0594
B( 21-C , 22-C ) :   1.3456 B( 21-C , 77-H ) :   1.0083 B( 22-C , 23-C ) :   1.3427
B( 22-C , 27-C ) :   0.9888 B( 23-C , 24-S ) :   1.1360 B( 23-C , 25-C ) :   1.2181
B( 25-C , 26-C ) :   1.4119 B( 25-C , 35-S ) :   1.1153 B( 26-C , 27-C ) :   0.9992
B( 26-C , 33-C ) :   1.3234 B( 27-C , 28-C ) :   1.7188 B( 28-C , 29-C ) :   1.1340
B( 28-C , 31-C ) :   1.1329 B( 29-C , 30-N ) :   2.9829 B( 31-C , 32-N ) :   2.9947
B( 33-C , 34-C ) :   1.4299 B( 33-C , 78-H ) :   0.9892 B( 34-C , 35-S ) :   1.1233
B( 34-C , 36-C ) :   1.1345 B( 36-C , 37-C ) :   1.6965 B( 36-C , 79-H ) :   0.9592
B( 37-C , 38-C ) :   1.1354 B( 37-C , 80-H ) :   0.9573 B( 38-C , 39-C ) :   1.4293
B( 38-C , 42-S ) :   1.1242 B( 39-C , 40-C ) :   1.3287 B( 39-C , 81-H ) :   0.9883
B( 40-C , 41-C ) :   1.4142 B( 40-C , 45-C ) :   0.9968 B( 41-C , 42-S ) :   1.1146
B( 41-C , 43-C ) :   1.2253 B( 43-C , 44-C ) :   1.3858 B( 43-C , 53-S ) :   1.1624
B( 44-C , 45-C ) :   0.9930 B( 44-C , 51-C ) :   1.3178 B( 45-C , 46-C ) :   1.7219
B( 46-C , 47-C ) :   1.1310 B( 46-C , 49-C ) :   1.1333 B( 47-C , 48-N ) :   2.9943
B( 49-C , 50-N ) :   2.9843 B( 51-C , 52-C ) :   1.3792 B( 51-C , 82-H ) :   1.0011
B( 52-C , 53-S ) :   1.0765 B( 52-C , 54-C ) :   1.1673 B( 54-C , 55-C ) :   1.6057
B( 54-C , 83-H ) :   0.9472 B( 55-C , 56-C ) :   0.9496 B( 55-C , 64-C ) :   1.0473
B( 56-C , 57-O ) :   2.2880 B( 56-C , 58-C ) :   0.8995 B( 58-C , 59-C ) :   1.3694
B( 58-C , 63-C ) :   1.3346 B( 59-C , 60-C ) :   1.3641 B( 59-C , 84-H ) :   1.0151
B( 60-C , 61-C ) :   1.4044 B( 60-C , 72-C ) :   1.0871 B( 61-C , 62-C ) :   1.3846
B( 61-C , 70-C ) :   1.0863 B( 62-C , 63-C ) :   1.3632 B( 62-C , 85-H ) :   0.9908
B( 63-C , 64-C ) :   0.9792 B( 64-C , 65-C ) :   1.6658 B( 65-C , 66-C ) :   1.1567
B( 65-C , 68-C ) :   1.1316 B( 66-C , 67-N ) :   3.0178 B( 68-C , 69-N ) :   2.9877
B( 70-C , 71-N ) :   3.0447 B( 72-C , 73-N ) :   3.0444

-----------------------------------------------------------------------------
         ABSORPTION SPECTRUM VIA TRANSITION ELECTRIC DIPOLE MOMENTS
-----------------------------------------------------------------------------
State   Energy  Wavelength   fosc         T2         TX        TY        TZ
        (cm-1)    (nm)                  (au**2)     (au)      (au)      (au)
-----------------------------------------------------------------------------
   0   12209.9    819.0   0.906775997  24.44922   3.47654   3.42669  -0.78781
   1   14113.2    708.6   0.102612262   2.39358   0.77812   1.33618   0.05231
   2   18381.5    544.0   1.047356885  18.75814  -3.58890  -2.37421   0.49094
   3   20004.2    499.9   0.658634371  10.83926  -1.24543  -3.04374  -0.15426
   4   21673.1    461.4   0.019661134   0.29865  -0.02854  -0.52009  -0.16536
   5   22459.2    445.3   0.152212363   2.23116   1.13508   0.94946   0.20320
   6   23803.0    420.1   0.080988258   1.12013   0.52976   0.63211  -0.66327
   7   24297.7    411.6   0.081838818   1.10884   0.97372   0.39183   0.08469
   8   27535.6    363.2   0.156956095   1.87655   0.41321  -1.09263   0.71551
   9   27610.3    362.2   0.053089102   0.63301   0.22389   0.03864   0.76249
  10   28123.7    355.6   0.097649181   1.14307  -0.06205  -0.94828   0.48987
  11   28927.9    345.7   0.168462931   1.91718  -0.12887  -1.25586   0.56867
  12   29331.3    340.9   0.015075998   0.16921  -0.09360   0.19076  -0.35222
  13   29477.3    339.2   0.152017878   1.69778  -0.77851   0.28529  -1.00514
  14   29824.6    335.3   0.324045290   3.57690  -1.61349   0.62550  -0.76309
  15   30340.6    329.6   0.180304207   1.95640  -1.10674  -0.81306  -0.26542
  16   30583.4    327.0   0.057378226   0.61764   0.15965  -0.61101   0.46779
  17   30983.2    322.8   0.013125905   0.13947   0.02244  -0.37185   0.02636
  18   31207.5    320.4   0.086843103   0.91612  -0.79490  -0.28425  -0.45107
  19   31413.5    318.3   0.001192202   0.01249  -0.03677  -0.09717  -0.04123
  20   31578.6    316.7   0.106601206   1.11133  -0.44896   0.35407  -0.88567
  21   32469.0    308.0   0.358846454   3.63844  -0.77458   1.00928  -1.42121
  22   32603.6    306.7   0.007913735   0.07991  -0.25111  -0.12924   0.01225
  23   32846.3    304.4   0.649973207   6.51456  -2.22795  -0.97182  -0.77869
  24   33366.8    299.7   0.243198370   2.39950   1.11682   0.95236   0.49520
  25   34002.2    294.1   0.060806960   0.58874  -0.74593   0.11447  -0.13865
  26   34069.0    293.5   0.059505971   0.57501   0.66872   0.17086   0.31407
  27   34613.8    288.9   0.014323759   0.13623   0.25329   0.26505   0.04268
  28   34631.0    288.8   0.892577858   8.48509  -2.01630   0.69663  -1.98352
  29   34932.8    286.3   0.032641027   0.30761   0.47912  -0.04114   0.27635
  30   35103.2    284.9   0.050950820   0.47784  -0.08648   0.47673  -0.49304
  31   35209.1    284.0   0.371849130   3.47686   1.15614   1.18459   0.85846
  32   36063.2    277.3   0.076534677   0.69867  -0.35012   0.53552  -0.53786
  33   36636.0    273.0   0.126282698   1.13478  -0.12166   1.00690  -0.32576
  34   36717.9    272.3   0.004533547   0.04065   0.15341   0.11504  -0.06227
  35   36814.1    271.6   0.008679814   0.07762   0.14336  -0.00132  -0.23888
  36   37038.5    270.0   0.098594590   0.87635   0.58510   0.70426   0.19500
  37   37329.5    267.9   0.098670803   0.87019   0.46966   0.73094   0.33960
  38   37358.7    267.7   0.002376193   0.02094   0.12457   0.04819   0.05568
  39   37488.0    266.8   0.042721207   0.37517   0.52918  -0.24575   0.18640
  40   37869.4    264.1   0.046803394   0.40688  -0.40298  -0.40401   0.28507
  41   38001.2    263.1   0.011093765   0.09611  -0.14950  -0.25300  -0.09872
  42   38169.6    262.0   0.005918398   0.05105  -0.15271   0.12423  -0.11088
  43   38404.9    260.4   0.141623742   1.21402  -0.22830   0.90288  -0.58881
  44   38662.2    258.7   0.082745247   0.70458   0.69320   0.21729   0.42053
  45   39124.4    255.6   0.004138763   0.03483   0.11644  -0.04742  -0.13791
  46   39298.5    254.5   0.038656555   0.32383  -0.32541  -0.39878   0.24272
  47   39371.7    254.0   0.124248756   1.03892   0.30617   0.90227  -0.36206
  48   40129.2    249.2   0.015210203   0.12478  -0.00528  -0.28965   0.20212
  49   40217.0    248.7   0.020585358   0.16851   0.25561   0.32115   0.00605

FINAL SINGLE POINT ENERGY     -4536.894304311370

DIPOLE MOMENT
-------------
                                X             Y             Z
Electronic contribution:     -0.01849       2.05479       0.40645
Nuclear contribution   :      0.63880      -4.79229      -0.88607
                        -----------------------------------------
Total Dipole Moment    :      0.62031      -2.73750      -0.47962
                        -----------------------------------------
Magnitude (a.u.)       :      2.84759
Magnitude (Debye)      :      7.23799

Rotational constants in cm-1:     0.001941     0.000189     0.000177
Rotational constants in MHz :    58.182922     5.662174     5.306231

                             ****ORCA TERMINATED NORMALLY****
TOTAL RUN TIME: 0 days 0 hours 8 minutes 14 seconds 191 msec
