                         Program Version 4.2.0 -  RELEASE  -
|  1> # ORCA input file
|  2> # SCF done       -203.309353774975          0.000579880169
|  3> ! CAM-B3LYP def2-SVP def2/J RIJCOSX Grid4 TightSCF
|  4> %maxcore 5000
|  5> %tddft
|  6>     Mode sTDDFT
|  7>     Ethresh 5.0
|  8>     maxcore 5000
|  9> end
| 10>
| 11> %pal
| 12>   nprocs 6
| 13>   end
| 14> * xyz 0 1
| 15>    C       -0.85671        -9.75316         9.97673
| 16>    C       -0.26535        -9.63584        11.22394
| 17>    C        1.10131        -9.89716        11.33875
| 18>    C        1.72606        -9.77856        12.60550
| 19>    N        2.22289        -9.68004        13.63198
| 20>    C        1.87115       -10.27378        10.22118
| 21>    C        3.25482       -10.53369        10.37246
| 22>    N        4.37536       -10.74468        10.47629
| 23>    C        1.27231       -10.38605         8.96581
| 24>    C       -0.07743       -10.12290         8.86570
| 25>    C       -0.92242       -10.16444         7.65110
| 26>    O       -0.53605       -10.43492         6.53565
| 27>    C       -2.27503        -9.75960         8.09603
| 28>    C       -2.23840        -9.56244         9.53601
| 29>    C       -3.29998        -9.32412        10.36771
| 30>    C       -3.18966        -9.16621        11.76728
| 31>    N       -3.16713        -9.02463        12.90530
| 32>    C       -4.65389        -9.23637         9.97499
| 33>    N       -5.77611        -9.17138         9.74129
| 34>    C       -3.36940        -9.48684         7.31772
| 35>    C       -3.61186        -9.71388         5.95110
| 36>    C       -2.92188       -10.42645         4.97573
| 37>    C       -3.59142       -10.43305         3.76165
| 38>    C       -4.81183        -9.71573         3.79351
| 39>    S       -5.13115        -9.05174         5.32057
| 40>    C       -5.41242        -9.79180         2.51276
| 41>    C       -4.57137       -10.54030         1.67198
| 42>    C       -3.42678       -11.00764         2.43654
| 43>    C       -2.48164       -11.89745         2.01767
| 44>    C       -2.52524       -12.47785         0.73305
| 45>    N       -2.58044       -12.98058        -0.29714
| 46>    C       -1.43762       -12.36354         2.84780
| 47>    N       -0.59168       -12.77262         3.50312
| 48>    C       -5.07177       -10.66899         0.37882
| 49>    C       -6.31140       -10.07201         0.24169
| 50>    S       -6.83474        -9.28025         1.71474
| 51>    C       -7.14265       -10.08554        -0.91969
| 52>    C       -7.13102       -11.01918        -1.93546
| 53>    C       -8.04592       -10.68648        -2.98646
| 54>    C       -8.32270       -11.39220        -4.15620
| 55>    C       -9.27099       -10.89065        -5.03445
| 56>    C       -9.95464        -9.69289        -4.76197
| 57>    C       -9.70027        -8.99492        -3.60350
| 58>    C       -8.75170        -9.49538        -2.72132
| 59>    S       -8.28779        -8.79533        -1.20231
| 60>    C       -9.56698       -11.59865        -6.22459
| 61>    N       -9.81402       -12.17134        -7.18519
| 62>    C       -6.32680       -12.22136        -1.93115
| 63>    C       -5.47499       -12.65526        -2.91607
| 64>    C       -4.79707       -13.82459        -2.54471
| 65>    C       -5.16256       -14.28257        -1.27135
| 66>    S       -6.35374       -13.30182        -0.54226
| 67>    C       -4.38370       -15.42565        -0.95426
| 68>    C       -3.52877       -15.68941        -2.04189
| 69>    C       -3.77161       -14.70125        -3.08090
| 70>    C       -3.17191       -14.63826        -4.30344
| 71>    C       -2.20699       -15.59135        -4.69387
| 72>    N       -1.42876       -16.37938        -4.98999
| 73>    C       -3.48699       -13.62938        -5.23818
| 74>    N       -3.75116       -12.80047        -5.98452
| 75>    C       -2.71563       -16.79246        -1.83397
| 76>    C       -2.93456       -17.38070        -0.59405
| 77>    S       -4.15565       -16.51226         0.33021
| 78>    C       -2.28913       -18.49029        -0.01372
| 79>    C       -1.55198       -19.46488        -0.62102
| 80>    C       -0.61798       -20.27220         0.20988
| 81>    O       -0.57061       -20.31602         1.41549
| 82>    C        0.26369       -20.96198        -0.76002
| 83>    C        1.37669       -21.73702        -0.51228
| 84>    C        2.07274       -22.25624        -1.60546
| 85>    C        1.64211       -21.97787        -2.91709
| 86>    C        0.50839       -21.19877        -3.15667
| 87>    C       -0.18542       -20.69804        -2.06896
| 88>    C       -1.40542       -19.89061        -1.99610
| 89>    C       -2.34221       -19.81229        -2.99231
| 90>    C       -3.61777       -19.23608        -2.82870
| 91>    N       -4.67547       -18.80130        -2.73082
| 92>    C       -2.18310       -20.39008        -4.27097
| 93>    N       -2.10457       -20.84873        -5.31901
| 94>    C        2.37515       -22.49730        -4.01338
| 95>    N        2.96126       -22.91557        -4.90314
| 96>    C        3.21952       -23.05982        -1.39515
| 97>    N        4.14558       -23.70577        -1.20505
| 98>    H       -0.81883        -9.34678        12.10288
| 99>    H        1.84590       -10.67130         8.09699
|100>    H       -4.20393        -9.01326         7.82161
|101>    H       -1.97545       -10.89996         5.16507
|102>    H       -4.55021       -11.13833        -0.43391
|103>    H       -7.81005       -12.31684        -4.37339
|104>    H      -10.68520        -9.33105        -5.46889
|105>    H      -10.22451        -8.07970        -3.37877
|106>    H       -5.31657       -12.11802        -3.83395
|107>    H       -1.95965       -17.13284        -2.51785
|108>    H       -2.31789       -18.55231         1.07006
|109>    H        1.70097       -21.93550         0.49795
|110>    H        0.21051       -20.99638        -4.17341
|111> *
|112>
|113>                          ****END OF INPUT****

CARTESIAN COORDINATES (ANGSTROEM)
---------------------------------
  C     -0.856710   -9.753160    9.976730
  C     -0.265350   -9.635840   11.223940
  C      1.101310   -9.897160   11.338750
  C      1.726060   -9.778560   12.605500
  N      2.222890   -9.680040   13.631980
  C      1.871150  -10.273780   10.221180
  C      3.254820  -10.533690   10.372460
  N      4.375360  -10.744680   10.476290
  C      1.272310  -10.386050    8.965810
  C     -0.077430  -10.122900    8.865700
  C     -0.922420  -10.164440    7.651100
  O     -0.536050  -10.434920    6.535650
  C     -2.275030   -9.759600    8.096030
  C     -2.238400   -9.562440    9.536010
  C     -3.299980   -9.324120   10.367710
  C     -3.189660   -9.166210   11.767280
  N     -3.167130   -9.024630   12.905300
  C     -4.653890   -9.236370    9.974990
  N     -5.776110   -9.171380    9.741290
  C     -3.369400   -9.486840    7.317720
  C     -3.611860   -9.713880    5.951100
  C     -2.921880  -10.426450    4.975730
  C     -3.591420  -10.433050    3.761650
  C     -4.811830   -9.715730    3.793510
  S     -5.131150   -9.051740    5.320570
  C     -5.412420   -9.791800    2.512760
  C     -4.571370  -10.540300    1.671980
  C     -3.426780  -11.007640    2.436540
  C     -2.481640  -11.897450    2.017670
  C     -2.525240  -12.477850    0.733050
  N     -2.580440  -12.980580   -0.297140
  C     -1.437620  -12.363540    2.847800
  N     -0.591680  -12.772620    3.503120
  C     -5.071770  -10.668990    0.378820
  C     -6.311400  -10.072010    0.241690
  S     -6.834740   -9.280250    1.714740
  C     -7.142650  -10.085540   -0.919690
  C     -7.131020  -11.019180   -1.935460
  C     -8.045920  -10.686480   -2.986460
  C     -8.322700  -11.392200   -4.156200
  C     -9.270990  -10.890650   -5.034450
  C     -9.954640   -9.692890   -4.761970
  C     -9.700270   -8.994920   -3.603500
  C     -8.751700   -9.495380   -2.721320
  S     -8.287790   -8.795330   -1.202310
  C     -9.566980  -11.598650   -6.224590
  N     -9.814020  -12.171340   -7.185190
  C     -6.326800  -12.221360   -1.931150
  C     -5.474990  -12.655260   -2.916070
  C     -4.797070  -13.824590   -2.544710
  C     -5.162560  -14.282570   -1.271350
  S     -6.353740  -13.301820   -0.542260
  C     -4.383700  -15.425650   -0.954260
  C     -3.528770  -15.689410   -2.041890
  C     -3.771610  -14.701250   -3.080900
  C     -3.171910  -14.638260   -4.303440
  C     -2.206990  -15.591350   -4.693870
  N     -1.428760  -16.379380   -4.989990
  C     -3.486990  -13.629380   -5.238180
  N     -3.751160  -12.800470   -5.984520
  C     -2.715630  -16.792460   -1.833970
  C     -2.934560  -17.380700   -0.594050
  S     -4.155650  -16.512260    0.330210
  C     -2.289130  -18.490290   -0.013720
  C     -1.551980  -19.464880   -0.621020
  C     -0.617980  -20.272200    0.209880
  O     -0.570610  -20.316020    1.415490
  C      0.263690  -20.961980   -0.760020
  C      1.376690  -21.737020   -0.512280
  C      2.072740  -22.256240   -1.605460
  C      1.642110  -21.977870   -2.917090
  C      0.508390  -21.198770   -3.156670
  C     -0.185420  -20.698040   -2.068960
  C     -1.405420  -19.890610   -1.996100
  C     -2.342210  -19.812290   -2.992310
  C     -3.617770  -19.236080   -2.828700
  N     -4.675470  -18.801300   -2.730820
  C     -2.183100  -20.390080   -4.270970
  N     -2.104570  -20.848730   -5.319010
  C      2.375150  -22.497300   -4.013380
  N      2.961260  -22.915570   -4.903140
  C      3.219520  -23.059820   -1.395150
  N      4.145580  -23.705770   -1.205050
  H     -0.818830   -9.346780   12.102880
  H      1.845900  -10.671300    8.096990
  H     -4.203930   -9.013260    7.821610
  H     -1.975450  -10.899960    5.165070
  H     -4.550210  -11.138330   -0.433910
  H     -7.810050  -12.316840   -4.373390
  H    -10.685200   -9.331050   -5.468890
  H    -10.224510   -8.079700   -3.378770
  H     -5.316570  -12.118020   -3.833950
  H     -1.959650  -17.132840   -2.517850
  H     -2.317890  -18.552310    1.070060
  H      1.700970  -21.935500    0.497950
  H      0.210510  -20.996380   -4.173410

 Total Charge           Charge          ....    0
 Multiplicity           Mult            ....    1
 Number of Electrons    NEL             ....  578
 Basis Dimension        Dim             .... 1247

ORBITAL ENERGIES
----------------

  NO   OCC          E(Eh)            E(eV)
   0   2.0000     -89.025187     -2422.4985
   1   2.0000     -89.023343     -2422.4483
   2   2.0000     -89.012411     -2422.1508
   3   2.0000     -89.011348     -2422.1219
   4   2.0000     -88.997091     -2421.7340
   5   2.0000     -19.251663      -523.8644
   6   2.0000     -19.239849      -523.5429
   7   2.0000     -14.464140      -393.5892
   8   2.0000     -14.454737      -393.3334
   9   2.0000     -14.445418      -393.0798
  10   2.0000     -14.445398      -393.0793
  11   2.0000     -14.444354      -393.0509
  12   2.0000     -14.440575      -392.9480
  13   2.0000     -14.437828      -392.8733
  14   2.0000     -14.434909      -392.7938
  15   2.0000     -14.433937      -392.7674
  16   2.0000     -14.432501      -392.7283
  17   2.0000     -14.429094      -392.6356
  18   2.0000     -14.428061      -392.6075
  19   2.0000     -14.416030      -392.2801
  20   2.0000     -10.402852      -283.0760
  21   2.0000     -10.396198      -282.8949
  22   2.0000     -10.391151      -282.7576
  23   2.0000     -10.383088      -282.5382
  24   2.0000     -10.380987      -282.4810
  25   2.0000     -10.375763      -282.3389
  26   2.0000     -10.374907      -282.3156
  27   2.0000     -10.372022      -282.2371
  28   2.0000     -10.368119      -282.1308
  29   2.0000     -10.367802      -282.1222
  30   2.0000     -10.367489      -282.1137
  31   2.0000     -10.367293      -282.1084
  32   2.0000     -10.365327      -282.0549
  33   2.0000     -10.364928      -282.0440
  34   2.0000     -10.364839      -282.0416
  35   2.0000     -10.364571      -282.0343
  36   2.0000     -10.361669      -281.9553
  37   2.0000     -10.360645      -281.9275
  38   2.0000     -10.358843      -281.8784
  39   2.0000     -10.358637      -281.8729
  40   2.0000     -10.357143      -281.8322
  41   2.0000     -10.355937      -281.7994
  42   2.0000     -10.353561      -281.7347
  43   2.0000     -10.353065      -281.7212
  44   2.0000     -10.350241      -281.6444
  45   2.0000     -10.348638      -281.6008
  46   2.0000     -10.347154      -281.5604
  47   2.0000     -10.345707      -281.5210
  48   2.0000     -10.345524      -281.5160
  49   2.0000     -10.345478      -281.5148
  50   2.0000     -10.344216      -281.4804
  51   2.0000     -10.344155      -281.4788
  52   2.0000     -10.342371      -281.4302
  53   2.0000     -10.342092      -281.4226
  54   2.0000     -10.342002      -281.4202
  55   2.0000     -10.341831      -281.4155
  56   2.0000     -10.340262      -281.3728
  57   2.0000     -10.337980      -281.3107
  58   2.0000     -10.336498      -281.2704
  59   2.0000     -10.336098      -281.2595
  60   2.0000     -10.335872      -281.2534
  61   2.0000     -10.335754      -281.2502
  62   2.0000     -10.335432      -281.2414
  63   2.0000     -10.335097      -281.2323
  64   2.0000     -10.334278      -281.2100
  65   2.0000     -10.333650      -281.1929
  66   2.0000     -10.333581      -281.1910
  67   2.0000     -10.331172      -281.1255
  68   2.0000     -10.330547      -281.1085
  69   2.0000     -10.330028      -281.0943
  70   2.0000     -10.329340      -281.0756
  71   2.0000     -10.327485      -281.0252
  72   2.0000     -10.325662      -280.9755
  73   2.0000     -10.325620      -280.9744
  74   2.0000     -10.325007      -280.9577
  75   2.0000     -10.324334      -280.9394
  76   2.0000     -10.324229      -280.9366
  77   2.0000     -10.322309      -280.8843
  78   2.0000     -10.321896      -280.8731
  79   2.0000     -10.320082      -280.8237
  80   2.0000     -10.319237      -280.8007
  81   2.0000     -10.318418      -280.7784
  82   2.0000     -10.314743      -280.6784
  83   2.0000      -8.119764      -220.9500
  84   2.0000      -8.118110      -220.9050
  85   2.0000      -8.107109      -220.6057
  86   2.0000      -8.105445      -220.5604
  87   2.0000      -8.093058      -220.2233
  88   2.0000      -6.088997      -165.6900
  89   2.0000      -6.087173      -165.6404
  90   2.0000      -6.084778      -165.5752
  91   2.0000      -6.083062      -165.5285
  92   2.0000      -6.082167      -165.5042
  93   2.0000      -6.080692      -165.4640
  94   2.0000      -6.076249      -165.3431
  95   2.0000      -6.074787      -165.3034
  96   2.0000      -6.072124      -165.2309
  97   2.0000      -6.070522      -165.1873
  98   2.0000      -6.069608      -165.1624
  99   2.0000      -6.067776      -165.1126
 100   2.0000      -6.062593      -164.9715
 101   2.0000      -6.058528      -164.8609
 102   2.0000      -6.054453      -164.7500
 103   2.0000      -1.167477       -31.7687
 104   2.0000      -1.155806       -31.4511
 105   2.0000      -1.079451       -29.3734
 106   2.0000      -1.065918       -29.0051
 107   2.0000      -1.053374       -28.6638
 108   2.0000      -1.052803       -28.6482
 109   2.0000      -1.046773       -28.4841
 110   2.0000      -1.045447       -28.4480
 111   2.0000      -1.038539       -28.2601
 112   2.0000      -1.036962       -28.2172
 113   2.0000      -1.035183       -28.1688
 114   2.0000      -1.031355       -28.0646
 115   2.0000      -1.029075       -28.0026
 116   2.0000      -1.022739       -27.8301
 117   2.0000      -1.021663       -27.8009
 118   2.0000      -1.019358       -27.7381
 119   2.0000      -1.018753       -27.7217
 120   2.0000      -1.014335       -27.6015
 121   2.0000      -1.013579       -27.5809
 122   2.0000      -1.011134       -27.5144
 123   2.0000      -1.007795       -27.4235
 124   2.0000      -1.004373       -27.3304
 125   2.0000      -0.993684       -27.0395
 126   2.0000      -0.987019       -26.8582
 127   2.0000      -0.983538       -26.7634
 128   2.0000      -0.977168       -26.5901
 129   2.0000      -0.969585       -26.3838
 130   2.0000      -0.949469       -25.8364
 131   2.0000      -0.940402       -25.5896
 132   2.0000      -0.936777       -25.4910
 133   2.0000      -0.929589       -25.2954
 134   2.0000      -0.921279       -25.0693
 135   2.0000      -0.919279       -25.0149
 136   2.0000      -0.912186       -24.8219
 137   2.0000      -0.906820       -24.6758
 138   2.0000      -0.904147       -24.6031
 139   2.0000      -0.903104       -24.5747
 140   2.0000      -0.890444       -24.2302
 141   2.0000      -0.886974       -24.1358
 142   2.0000      -0.882683       -24.0190
 143   2.0000      -0.876351       -23.8467
 144   2.0000      -0.865255       -23.5448
 145   2.0000      -0.858093       -23.3499
 146   2.0000      -0.846818       -23.0431
 147   2.0000      -0.821550       -22.3555
 148   2.0000      -0.818843       -22.2819
 149   2.0000      -0.812323       -22.1044
 150   2.0000      -0.810096       -22.0438
 151   2.0000      -0.798018       -21.7152
 152   2.0000      -0.795396       -21.6438
 153   2.0000      -0.779696       -21.2166
 154   2.0000      -0.760729       -20.7005
 155   2.0000      -0.759473       -20.6663
 156   2.0000      -0.754638       -20.5347
 157   2.0000      -0.751276       -20.4433
 158   2.0000      -0.737257       -20.0618
 159   2.0000      -0.730669       -19.8825
 160   2.0000      -0.727046       -19.7839
 161   2.0000      -0.721502       -19.6331
 162   2.0000      -0.714667       -19.4471
 163   2.0000      -0.714541       -19.4436
 164   2.0000      -0.713535       -19.4163
 165   2.0000      -0.701436       -19.0871
 166   2.0000      -0.701105       -19.0780
 167   2.0000      -0.697272       -18.9737
 168   2.0000      -0.686855       -18.6903
 169   2.0000      -0.679948       -18.5023
 170   2.0000      -0.674193       -18.3457
 171   2.0000      -0.667864       -18.1735
 172   2.0000      -0.666209       -18.1285
 173   2.0000      -0.662786       -18.0353
 174   2.0000      -0.659580       -17.9481
 175   2.0000      -0.650680       -17.7059
 176   2.0000      -0.648553       -17.6480
 177   2.0000      -0.638375       -17.3711
 178   2.0000      -0.636365       -17.3164
 179   2.0000      -0.628170       -17.0934
 180   2.0000      -0.622838       -16.9483
 181   2.0000      -0.620509       -16.8849
 182   2.0000      -0.615397       -16.7458
 183   2.0000      -0.613824       -16.7030
 184   2.0000      -0.605222       -16.4689
 185   2.0000      -0.602268       -16.3885
 186   2.0000      -0.596942       -16.2436
 187   2.0000      -0.583689       -15.8830
 188   2.0000      -0.581674       -15.8282
 189   2.0000      -0.579466       -15.7681
 190   2.0000      -0.577264       -15.7081
 191   2.0000      -0.573980       -15.6188
 192   2.0000      -0.572844       -15.5879
 193   2.0000      -0.570786       -15.5319
 194   2.0000      -0.570528       -15.5249
 195   2.0000      -0.566322       -15.4104
 196   2.0000      -0.562505       -15.3066
 197   2.0000      -0.559595       -15.2274
 198   2.0000      -0.558877       -15.2078
 199   2.0000      -0.553778       -15.0691
 200   2.0000      -0.546724       -14.8771
 201   2.0000      -0.546144       -14.8613
 202   2.0000      -0.542339       -14.7578
 203   2.0000      -0.538540       -14.6544
 204   2.0000      -0.536813       -14.6074
 205   2.0000      -0.536325       -14.5942
 206   2.0000      -0.535001       -14.5581
 207   2.0000      -0.532586       -14.4924
 208   2.0000      -0.530261       -14.4291
 209   2.0000      -0.527615       -14.3571
 210   2.0000      -0.525063       -14.2877
 211   2.0000      -0.522829       -14.2269
 212   2.0000      -0.522366       -14.2143
 213   2.0000      -0.520617       -14.1667
 214   2.0000      -0.518699       -14.1145
 215   2.0000      -0.517252       -14.0751
 216   2.0000      -0.514560       -14.0019
 217   2.0000      -0.508201       -13.8289
 218   2.0000      -0.503280       -13.6949
 219   2.0000      -0.501582       -13.6488
 220   2.0000      -0.498929       -13.5766
 221   2.0000      -0.494772       -13.4634
 222   2.0000      -0.493920       -13.4403
 223   2.0000      -0.491122       -13.3641
 224   2.0000      -0.489075       -13.3084
 225   2.0000      -0.485623       -13.2145
 226   2.0000      -0.481783       -13.1100
 227   2.0000      -0.481315       -13.0972
 228   2.0000      -0.478614       -13.0237
 229   2.0000      -0.475535       -12.9400
 230   2.0000      -0.475271       -12.9328
 231   2.0000      -0.474390       -12.9088
 232   2.0000      -0.473431       -12.8827
 233   2.0000      -0.470025       -12.7900
 234   2.0000      -0.469032       -12.7630
 235   2.0000      -0.468867       -12.7585
 236   2.0000      -0.468614       -12.7516
 237   2.0000      -0.468364       -12.7448
 238   2.0000      -0.467734       -12.7277
 239   2.0000      -0.462755       -12.5922
 240   2.0000      -0.461686       -12.5631
 241   2.0000      -0.461596       -12.5607
 242   2.0000      -0.460034       -12.5182
 243   2.0000      -0.459708       -12.5093
 244   2.0000      -0.458278       -12.4704
 245   2.0000      -0.457723       -12.4553
 246   2.0000      -0.456701       -12.4275
 247   2.0000      -0.455003       -12.3813
 248   2.0000      -0.454512       -12.3679
 249   2.0000      -0.453719       -12.3463
 250   2.0000      -0.453678       -12.3452
 251   2.0000      -0.453405       -12.3378
 252   2.0000      -0.452963       -12.3257
 253   2.0000      -0.452038       -12.3006
 254   2.0000      -0.451783       -12.2937
 255   2.0000      -0.449159       -12.2222
 256   2.0000      -0.444920       -12.1069
 257   2.0000      -0.443279       -12.0622
 258   2.0000      -0.441824       -12.0227
 259   2.0000      -0.441664       -12.0183
 260   2.0000      -0.440460       -11.9855
 261   2.0000      -0.435943       -11.8626
 262   2.0000      -0.435182       -11.8419
 263   2.0000      -0.434136       -11.8134
 264   2.0000      -0.432596       -11.7715
 265   2.0000      -0.430019       -11.7014
 266   2.0000      -0.428338       -11.6557
 267   2.0000      -0.427452       -11.6316
 268   2.0000      -0.421762       -11.4767
 269   2.0000      -0.421162       -11.4604
 270   2.0000      -0.409266       -11.1367
 271   2.0000      -0.403976       -10.9927
 272   2.0000      -0.394194       -10.7266
 273   2.0000      -0.384446       -10.4613
 274   2.0000      -0.382003       -10.3948
 275   2.0000      -0.374731       -10.1969
 276   2.0000      -0.371309       -10.1038
 277   2.0000      -0.370939       -10.0938
 278   2.0000      -0.367810       -10.0086
 279   2.0000      -0.363438        -9.8896
 280   2.0000      -0.358584        -9.7576
 281   2.0000      -0.353039        -9.6067
 282   2.0000      -0.350158        -9.5283
 283   2.0000      -0.340865        -9.2754
 284   2.0000      -0.337302        -9.1785
 285   2.0000      -0.333438        -9.0733
 286   2.0000      -0.323750        -8.8097
 287   2.0000      -0.296774        -8.0756
 288   2.0000      -0.280549        -7.6341
 289   0.0000      -0.141725        -3.8565
 290   0.0000      -0.128413        -3.4943
 291   0.0000      -0.119354        -3.2478
 292   0.0000      -0.108632        -2.9560
 293   0.0000      -0.104764        -2.8508

MULLIKEN ATOMIC CHARGES
-----------------------
   0 C :    0.044805
   1 C :   -0.037857
   2 C :   -0.059227
   3 C :   -0.175142
   4 N :    0.206211
   5 C :   -0.066519
   6 C :   -0.171941
   7 N :    0.200496
   8 C :   -0.030168
   9 C :   -0.003758
  10 C :    0.161790
  11 O :   -0.135469
  12 C :   -0.093289
  13 C :    0.306387
  14 C :   -0.335292
  15 C :   -0.185613
  16 N :    0.171671
  17 C :   -0.196176
  18 N :    0.165910
  19 C :    0.041832
  20 C :   -0.114820
  21 C :    0.005111
  22 C :   -0.014015
  23 C :   -0.077698
  24 S :    0.220009
  25 C :   -0.095355
  26 C :    0.003913
  27 C :    0.317780
  28 C :   -0.299371
  29 C :   -0.179603
  30 N :    0.166964
  31 C :   -0.189536
  32 N :    0.198464
  33 C :   -0.018711
  34 C :   -0.111439
  35 S :    0.222288
  36 C :   -0.101885
  37 C :    0.141175
  38 C :    0.116446
  39 C :   -0.042731
  40 C :   -0.092040
  41 C :    0.043155
  42 C :    0.009751
  43 C :   -0.062678
  44 S :    0.158059
  45 C :   -0.142703
  46 N :    0.117474
  47 C :   -0.245345
  48 C :    0.020539
  49 C :    0.022981
  50 C :   -0.101702
  51 S :    0.205451
  52 C :   -0.058493
  53 C :    0.013957
  54 C :    0.309657
  55 C :   -0.277654
  56 C :   -0.180452
  57 N :    0.169309
  58 C :   -0.192123
  59 N :    0.180976
  60 C :   -0.005110
  61 C :   -0.111286
  62 S :    0.214814
  63 C :    0.088961
  64 C :   -0.140377
  65 C :    0.140174
  66 O :   -0.128345
  67 C :    0.013175
  68 C :   -0.033890
  69 C :   -0.069499
  70 C :   -0.061449
  71 C :   -0.033031
  72 C :    0.027093
  73 C :    0.268751
  74 C :   -0.317037
  75 C :   -0.197955
  76 N :    0.175736
  77 C :   -0.171785
  78 N :    0.178843
  79 C :   -0.173747
  80 N :    0.203676
  81 C :   -0.172163
  82 N :    0.197898
  83 H :    0.022272
  84 H :    0.020110
  85 H :    0.017179
  86 H :    0.039213
  87 H :    0.030547
  88 H :    0.001891
  89 H :    0.009384
  90 H :   -0.005949
  91 H :    0.016925
  92 H :    0.025856
  93 H :    0.028210
  94 H :    0.018272
  95 H :    0.028889
Sum of atomic charges:   -0.0000000

LOEWDIN ATOMIC CHARGES
----------------------
   0 C :    0.001296
   1 C :    0.034761
   2 C :   -0.022129
   3 C :   -0.032156
   4 N :   -0.007762
   5 C :   -0.026578
   6 C :   -0.032280
   7 N :   -0.009909
   8 C :    0.050581
   9 C :   -0.029493
  10 C :    0.086554
  11 O :   -0.124835
  12 C :   -0.101850
  13 C :    0.069665
  14 C :   -0.124941
  15 C :   -0.022507
  16 N :   -0.031680
  17 C :   -0.023945
  18 N :   -0.038068
  19 C :    0.049443
  20 C :   -0.177522
  21 C :    0.023981
  22 C :   -0.074918
  23 C :   -0.152905
  24 S :    0.507189
  25 C :   -0.191129
  26 C :   -0.053812
  27 C :    0.077639
  28 C :   -0.093728
  29 C :   -0.006835
  30 N :   -0.035143
  31 C :   -0.024446
  32 N :   -0.008769
  33 C :   -0.031141
  34 C :   -0.181153
  35 S :    0.492885
  36 C :   -0.176149
  37 C :   -0.066656
  38 C :   -0.036259
  39 C :    0.021027
  40 C :   -0.064205
  41 C :    0.014592
  42 C :   -0.027214
  43 C :   -0.140116
  44 S :    0.423632
  45 C :   -0.031493
  46 N :   -0.044358
  47 C :   -0.164282
  48 C :   -0.023911
  49 C :   -0.054520
  50 C :   -0.176100
  51 S :    0.494590
  52 C :   -0.152442
  53 C :   -0.055824
  54 C :    0.085783
  55 C :   -0.091451
  56 C :   -0.011764
  57 N :   -0.029584
  58 C :   -0.016969
  59 N :   -0.024531
  60 C :    0.015625
  61 C :   -0.183015
  62 S :    0.503257
  63 C :    0.052652
  64 C :   -0.099369
  65 C :    0.083338
  66 O :   -0.128759
  67 C :   -0.032015
  68 C :    0.049571
  69 C :   -0.028910
  70 C :   -0.021527
  71 C :    0.034605
  72 C :    0.005596
  73 C :    0.058760
  74 C :   -0.121733
  75 C :   -0.014812
  76 N :   -0.033418
  77 C :   -0.023361
  78 N :   -0.027832
  79 C :   -0.031417
  80 N :   -0.008835
  81 C :   -0.032096
  82 N :   -0.012988
  83 H :    0.052790
  84 H :    0.055631
  85 H :    0.044585
  86 H :    0.044614
  87 H :    0.041330
  88 H :    0.043002
  89 H :    0.044547
  90 H :    0.038312
  91 H :    0.044639
  92 H :    0.043126
  93 H :    0.048800
  94 H :    0.054760
  95 H :    0.054388

  Mayer bond orders larger than 0.100000
B(  0-C ,  1-C ) :   1.3596 B(  0-C ,  9-C ) :   1.3361 B(  0-C , 13-C ) :   0.9562
B(  1-C ,  2-C ) :   1.3945 B(  1-C , 83-H ) :   0.9848 B(  2-C ,  3-C ) :   1.0861
B(  2-C ,  5-C ) :   1.4040 B(  3-C ,  4-N ) :   3.0443 B(  5-C ,  6-C ) :   1.0851
B(  5-C ,  8-C ) :   1.3611 B(  6-C ,  7-N ) :   3.0440 B(  8-C ,  9-C ) :   1.3657
B(  8-C , 84-H ) :   1.0144 B(  9-C , 10-C ) :   0.9322 B( 10-C , 11-O ) :   2.1869
B( 10-C , 12-C ) :   0.9484 B( 12-C , 13-C ) :   1.0873 B( 12-C , 19-C ) :   1.5750
B( 13-C , 14-C ) :   1.6455 B( 14-C , 15-C ) :   1.1465 B( 14-C , 17-C ) :   1.1386
B( 15-C , 16-N ) :   2.9630 B( 17-C , 18-N ) :   2.9782 B( 19-C , 20-C ) :   1.2325
B( 19-C , 85-H ) :   0.9128 B( 20-C , 21-C ) :   1.3855 B( 20-C , 24-S ) :   1.0727
B( 21-C , 22-C ) :   1.3276 B( 21-C , 86-H ) :   0.9707 B( 22-C , 23-C ) :   1.3736
B( 22-C , 27-C ) :   0.9948 B( 23-C , 24-S ) :   1.1793 B( 23-C , 25-C ) :   1.2013
B( 25-C , 26-C ) :   1.4336 B( 25-C , 35-S ) :   1.1149 B( 26-C , 27-C ) :   0.9944
B( 26-C , 33-C ) :   1.2934 B( 27-C , 28-C ) :   1.7105 B( 28-C , 29-C ) :   1.1427
B( 28-C , 31-C ) :   1.1339 B( 29-C , 30-N ) :   2.9645 B( 31-C , 32-N ) :   2.9979
B( 33-C , 34-C ) :   1.4743 B( 33-C , 87-H ) :   0.9886 B( 34-C , 35-S ) :   1.1251
B( 34-C , 36-C ) :   1.0880 B( 36-C , 37-C ) :   1.5830 B( 36-C , 44-S ) :   1.0868
B( 37-C , 38-C ) :   1.1629 B( 37-C , 47-C ) :   0.9901 B( 38-C , 39-C ) :   1.2997
B( 38-C , 43-C ) :   1.3080 B( 39-C , 40-C ) :   1.4239 B( 39-C , 88-H ) :   0.9923
B( 40-C , 41-C ) :   1.3254 B( 40-C , 45-C ) :   1.0566 B( 41-C , 42-C ) :   1.4330
B( 41-C , 89-H ) :   0.9922 B( 42-C , 43-C ) :   1.3350 B( 42-C , 90-H ) :   0.9959
B( 43-C , 44-S ) :   1.0655 B( 45-C , 46-N ) :   3.0565 B( 47-C , 48-C ) :   1.5005
B( 47-C , 51-S ) :   1.1305 B( 48-C , 49-C ) :   1.2599 B( 48-C , 91-H ) :   0.9986
B( 49-C , 50-C ) :   1.4593 B( 49-C , 54-C ) :   0.9904 B( 50-C , 51-S ) :   1.1132
B( 50-C , 52-C ) :   1.1858 B( 52-C , 53-C ) :   1.4161 B( 52-C , 62-S ) :   1.1579
B( 53-C , 54-C ) :   0.9971 B( 53-C , 60-C ) :   1.3700 B( 54-C , 55-C ) :   1.7231
B( 55-C , 56-C ) :   1.1303 B( 55-C , 58-C ) :   1.1339 B( 56-C , 57-N ) :   2.9808
B( 58-C , 59-N ) :   2.9903 B( 60-C , 61-C ) :   1.3764 B( 60-C , 92-H ) :   0.9790
B( 61-C , 62-S ) :   1.0868 B( 61-C , 63-C ) :   1.1551 B( 63-C , 64-C ) :   1.6432
B( 63-C , 93-H ) :   0.9296 B( 64-C , 65-C ) :   0.9535 B( 64-C , 73-C ) :   1.0463
B( 65-C , 66-O ) :   2.2763 B( 65-C , 67-C ) :   0.9003 B( 67-C , 68-C ) :   1.3696
B( 67-C , 72-C ) :   1.3369 B( 68-C , 69-C ) :   1.3643 B( 68-C , 94-H ) :   1.0151
B( 69-C , 70-C ) :   1.4033 B( 69-C , 81-C ) :   1.0879 B( 70-C , 71-C ) :   1.3885
B( 70-C , 79-C ) :   1.0861 B( 71-C , 72-C ) :   1.3634 B( 71-C , 95-H ) :   0.9903
B( 72-C , 73-C ) :   0.9723 B( 73-C , 74-C ) :   1.6653 B( 74-C , 75-C ) :   1.1725
B( 74-C , 77-C ) :   1.1260 B( 75-C , 76-N ) :   2.9933 B( 77-C , 78-N ) :   2.9885
B( 79-C , 80-N ) :   3.0436 B( 81-C , 82-N ) :   3.0442

-----------------------------------------------------------------------------
         ABSORPTION SPECTRUM VIA TRANSITION ELECTRIC DIPOLE MOMENTS
-----------------------------------------------------------------------------
State   Energy  Wavelength   fosc         T2         TX        TY        TZ
        (cm-1)    (nm)                  (au**2)     (au)      (au)      (au)
-----------------------------------------------------------------------------
   0   13535.2    738.8   0.268392021   6.52800  -0.84397  -0.60402  -2.33471
   1   15177.4    658.9   0.192572167   4.17708   0.66706  -1.85562  -0.53739
   2   17885.4    559.1   0.042655705   0.78515   0.47612  -0.70761   0.24031
   3   20058.7    498.5   0.671500404  11.02097   0.05551   2.05078   2.61002
   4   20822.9    480.2   0.803937165  12.71032  -1.73303   1.02038  -2.94377
   5   22196.9    450.5   0.096045178   1.42449   0.24564  -0.57979  -1.01390
   6   24511.8    408.0   0.057147187   0.76753   0.62294   0.51733   0.33443
   7   25013.8    399.8   0.005233850   0.06888  -0.00330  -0.11382   0.23647
   8   25191.8    397.0   0.499161465   6.52316  -1.59036   1.27518  -1.53877
   9   25674.3    389.5   0.132247817   1.69577   0.50199  -1.07664  -0.53349
  10   27122.4    368.7   0.025397457   0.30827   0.48360  -0.25910  -0.08527
  11   27927.5    358.1   0.038876811   0.45828   0.56206  -0.24018   0.29100
  12   28280.7    353.6   0.009485828   0.11042   0.22315  -0.08516  -0.23103
  13   28535.4    350.4   0.013335425   0.15385  -0.15389  -0.08409   0.35085
  14   28860.9    346.5   0.130349783   1.48688  -0.44522   0.02250  -1.13497
  15   29124.5    343.4   0.030109597   0.34035   0.27768  -0.45514  -0.23683
  16   29398.9    340.1   0.019158849   0.21454   0.38982   0.01353   0.24979
  17   29918.1    334.2   0.153997161   1.69455  -0.64738   0.63862   0.93146
  18   29934.2    334.1   0.183324076   2.01617   0.37535   0.44474  -1.29518
  19   30459.0    328.3   0.023675536   0.25589   0.46818   0.05321   0.18404
  20   30699.2    325.7   0.251732472   2.69953  -1.13045   0.92369   0.75392
  21   30816.2    324.5   0.176254437   1.88294   1.24601  -0.06809   0.57076
  22   31378.4    318.7   0.054552119   0.57234   0.60248  -0.30279   0.34304
  23   31459.3    317.9   0.033706049   0.35272   0.03932   0.34613   0.48101
  24   31641.4    316.0   0.432193330   4.49674   1.70018  -1.25779  -0.15519
  25   31833.0    314.1   0.036775643   0.38033  -0.25654   0.42012   0.37150
  26   32361.0    309.0   0.222528167   2.26380  -0.87973  -0.15524  -1.21069
  27   32556.4    307.2   0.019519498   0.19738  -0.00177   0.12594  -0.42605
  28   32750.2    305.3   0.189553765   1.90544   1.21476  -0.65162   0.07202
  29   32984.2    303.2   0.018795277   0.18759   0.39014  -0.04466  -0.18272
  30   33154.6    301.6   0.118472652   1.17639   0.02970  -0.28932   1.04489
  31   33341.5    299.9   0.031517126   0.31120   0.25397   0.35437  -0.34802
  32   33639.8    297.3   0.040975834   0.40101   0.59904  -0.19945   0.04870
  33   34140.6    292.9   0.079501297   0.76662  -0.29913   0.27491   0.77560
  34   34275.6    291.8   0.192027506   1.84440  -0.95731   0.00072  -0.96331
  35   34413.6    290.6   0.377301004   3.60939   1.84640  -0.41119  -0.17639
  36   34750.5    287.8   0.244153682   2.31301   1.35007  -0.56049  -0.41974
  37   34809.7    287.3   0.301432506   2.85079  -1.43156   0.48717   0.75106
  38   35116.7    284.8   0.453527524   4.25173  -1.31176   0.82974  -1.35740
  39   35217.6    283.9   0.034774955   0.32507  -0.30135  -0.33339  -0.35087
  40   35723.4    279.9   0.066619007   0.61393   0.13083   0.38187  -0.67156
  41   35833.3    279.1   0.290669319   2.67047  -1.50534   0.61724  -0.15306
  42   36104.1    277.0   0.069642478   0.63503  -0.52428   0.35023  -0.48734
  43   36195.8    276.3   0.116670168   1.06115  -0.46402   0.00331   0.91969
  44   36272.5    275.7   0.016902728   0.15341   0.02495  -0.29104  -0.26093
  45   36844.4    271.4   0.034161559   0.30524  -0.42343   0.34175  -0.09567
  46   36941.2    270.7   0.040500569   0.36093  -0.39833   0.29712  -0.33762
  47   37044.5    269.9   0.184995941   1.64404  -0.00495   0.27882   1.25151
  48   37325.8    267.9   0.020061359   0.17694   0.15591  -0.39021  -0.01911
  49   37765.0    264.8   0.002256900   0.01967  -0.11330  -0.05329   0.06323
  50   37974.1    263.3   0.029751372   0.25793  -0.25846   0.04959   0.43436
  51   38079.1    262.6   0.396975322   3.43204   1.15847  -1.33452   0.55592
  52   38191.1    261.8   0.003081792   0.02657  -0.12791   0.07098   0.07188
  53   38574.8    259.2   0.034455487   0.29406  -0.25990   0.44612  -0.16580
  54   38989.7    256.5   0.087966191   0.74275  -0.30772   0.07573  -0.80145
  55   39096.8    255.8   0.076416133   0.64346   0.22534  -0.01684   0.76967
  56   39186.2    255.2   0.083128264   0.69838   0.35445  -0.49547  -0.57206
  57   39252.4    254.8   0.027152848   0.22773   0.37421  -0.29614  -0.00073
  58   39456.7    253.4   0.025804525   0.21530  -0.30731  -0.04928  -0.34415
  59   39651.5    252.2   0.006315983   0.05244   0.05732   0.08177   0.20607
  60   39695.2    251.9   0.001396787   0.01158   0.03263   0.07906   0.06534
  61   39825.7    251.1   0.010428959   0.08621   0.16980  -0.02568   0.23815
  62   39997.0    250.0   0.035060174   0.28858   0.49976  -0.17616   0.08825
  63   40252.1    248.4   0.027479288   0.22475   0.26220  -0.20923  -0.33499

FINAL SINGLE POINT ENERGY     -5256.668718659139

DIPOLE MOMENT
-------------
                                X             Y             Z
Electronic contribution:      0.05303       0.82204       8.04335
Nuclear contribution   :     -4.51629       3.78578      -7.11829
                        -----------------------------------------
Total Dipole Moment    :     -4.46327       4.60782       0.92506
                        -----------------------------------------
Magnitude (a.u.)       :      6.48140
Magnitude (Debye)      :     16.47440

Rotational constants in cm-1:     0.000633     0.000366     0.000244
Rotational constants in MHz :    18.981686    10.961894     7.314037

                             ****ORCA TERMINATED NORMALLY****
TOTAL RUN TIME: 0 days 0 hours 11 minutes 17 seconds 740 msec
