                         Program Version 4.2.0 -  RELEASE  -
|  1> # ORCA input file
|  2> # SCF done       -213.285335388388          0.000747658934
|  3> ! CAM-B3LYP def2-SVP def2/J RIJCOSX Grid4 TightSCF
|  4> %maxcore 5000
|  5> %tddft
|  6>     Mode sTDDFT
|  7>     Ethresh 5.0
|  8>     maxcore 5000
|  9> end
| 10>
| 11> %pal
| 12>   nprocs 6
| 13>   end
| 14> * xyz 0 1
| 15>    C       -6.04498         1.04579         2.28553
| 16>    C       -6.11859         2.36672         2.69561
| 17>    C       -6.24000         3.35880         1.72089
| 18>    C       -6.32487         4.71628         2.11942
| 19>    N       -6.39427         5.80985         2.45050
| 20>    C       -6.28374         3.03658         0.35056
| 21>    C       -6.40575         4.06731        -0.61246
| 22>    N       -6.50775         4.88836        -1.40400
| 23>    C       -6.21344         1.70384        -0.05753
| 24>    C       -6.09820         0.73326         0.91488
| 25>    C       -6.02645        -0.73487         0.73088
| 26>    O       -6.05382        -1.31458        -0.33146
| 27>    C       -5.97885        -1.29975         2.09835
| 28>    C       -5.91220        -0.19777         3.04302
| 29>    C       -5.67544        -0.27928         4.38914
| 30>    C       -5.59710         0.83949         5.24770
| 31>    N       -5.52802         1.70802         5.99384
| 32>    C       -5.43157        -1.47164         5.10629
| 33>    N       -5.20199        -2.39307         5.75125
| 34>    C       -6.13152        -2.61017         2.46617
| 35>    C       -6.12626        -3.78862         1.69771
| 36>    C       -5.74263        -4.05877         0.38732
| 37>    C       -5.85283        -5.40703         0.08016
| 38>    C       -6.33751        -6.18313         1.15879
| 39>    S       -6.62598        -5.25885         2.54970
| 40>    C       -6.42693        -7.53155         0.73993
| 41>    C       -5.98863        -7.61877        -0.59376
| 42>    C       -5.61029        -6.28929        -1.05187
| 43>    C       -5.11929        -5.95581        -2.27842
| 44>    C       -4.93837        -6.92410        -3.29028
| 45>    N       -4.79583        -7.71479        -4.10791
| 46>    C       -4.74082        -4.63960        -2.62488
| 47>    N       -4.40832        -3.58490        -2.92426
| 48>    C       -6.03013        -8.92173        -1.08441
| 49>    C       -6.50838        -9.81622        -0.13964
| 50>    S       -6.90657        -9.03817         1.38168
| 51>    C       -6.65915       -11.21925        -0.31992
| 52>    C       -7.27751       -12.13987         0.51661
| 53>    C       -7.89873       -11.77087         1.71991
| 54>    N       -8.40583       -11.44196         2.69470
| 55>    C       -7.21855       -13.46477         0.00446
| 56>    C       -6.54436       -13.50739        -1.21137
| 57>    S       -5.99441       -11.97110        -1.75592
| 58>    S       -6.39433       -15.08373        -1.91745
| 59>    C       -7.26161       -15.71372        -0.55519
| 60>    C       -7.64971       -14.76839         0.38854
| 61>    C       -8.36933       -15.36960         1.45679
| 62>    C       -8.90004       -14.67632         2.55549
| 63>    N       -9.34700       -14.13203         3.46084
| 64>    C       -8.50096       -16.74416         1.30174
| 65>    S       -7.73749       -17.32045        -0.16617
| 66>    C       -9.16177       -17.67436         2.15037
| 67>    C       -9.18117       -19.05175         1.99017
| 68>    C       -9.93390       -19.68022         2.97891
| 69>    C      -10.49381       -18.76753         3.89074
| 70>    S      -10.08711       -17.14764         3.54511
| 71>    C      -11.24615       -19.48999         4.84609
| 72>    C      -11.16709       -20.86486         4.54197
| 73>    C      -10.33311       -21.02783         3.36054
| 74>    C       -9.99589       -22.19245         2.73835
| 75>    C      -10.45003       -23.44879         3.19543
| 76>    N      -10.82967       -24.46537         3.56380
| 77>    C       -9.17305       -22.21223         1.59135
| 78>    N       -8.50693       -22.22402         0.65873
| 79>    C      -11.90629       -21.64939         5.41899
| 80>    C      -12.52354       -20.89524         6.40932
| 81>    S      -12.20585       -19.17117         6.20907
| 82>    C      -13.40747       -21.38829         7.39295
| 83>    C      -13.89325       -20.76826         8.50498
| 84>    C      -15.17560       -21.23172         9.10056
| 85>    O      -15.75122       -22.26894         8.88066
| 86>    C      -15.62072       -20.10917         9.96210
| 87>    C      -16.81818       -19.95724        10.62837
| 88>    C      -17.02681       -18.77751        11.34565
| 89>    C      -16.03350       -17.77960        11.37572
| 90>    C      -14.81826       -17.94906        10.70934
| 91>    C      -14.61589       -19.12202        10.00409
| 92>    C      -13.46467       -19.59465         9.23525
| 93>    C      -12.17212       -19.18369         9.42110
| 94>    C      -11.06653       -19.86248         8.86573
| 95>    N      -10.15111       -20.41718         8.45259
| 96>    C      -11.80340       -18.10941        10.25775
| 97>    N      -11.46577       -17.23614        10.92012
| 98>    C      -16.27553       -16.57863        12.08854
| 99>    N      -16.46726       -15.60332        12.65619
|100>    C      -18.24658       -18.57793        12.03684
|101>    N      -19.23993       -18.43292        12.58741
|102>    H       -6.09281         2.65236         3.73503
|103>    H       -6.24863         1.43773        -1.10307
|104>    H       -6.30522        -2.79190         3.52074
|105>    H       -5.40867        -3.29335        -0.28933
|106>    H       -5.73847        -9.22133        -2.07530
|107>    H       -8.66557       -19.55292         1.19031
|108>    H      -11.99009       -22.72037         5.37396
|109>    H      -13.83760       -22.36327         7.18308
|110>    H      -17.57446       -20.72660        10.59356
|111>    H      -14.07863       -17.16451        10.74565
|112> *
|113>
|114>                          ****END OF INPUT****

CARTESIAN COORDINATES (ANGSTROEM)
---------------------------------
  C     -6.044980    1.045790    2.285530
  C     -6.118590    2.366720    2.695610
  C     -6.240000    3.358800    1.720890
  C     -6.324870    4.716280    2.119420
  N     -6.394270    5.809850    2.450500
  C     -6.283740    3.036580    0.350560
  C     -6.405750    4.067310   -0.612460
  N     -6.507750    4.888360   -1.404000
  C     -6.213440    1.703840   -0.057530
  C     -6.098200    0.733260    0.914880
  C     -6.026450   -0.734870    0.730880
  O     -6.053820   -1.314580   -0.331460
  C     -5.978850   -1.299750    2.098350
  C     -5.912200   -0.197770    3.043020
  C     -5.675440   -0.279280    4.389140
  C     -5.597100    0.839490    5.247700
  N     -5.528020    1.708020    5.993840
  C     -5.431570   -1.471640    5.106290
  N     -5.201990   -2.393070    5.751250
  C     -6.131520   -2.610170    2.466170
  C     -6.126260   -3.788620    1.697710
  C     -5.742630   -4.058770    0.387320
  C     -5.852830   -5.407030    0.080160
  C     -6.337510   -6.183130    1.158790
  S     -6.625980   -5.258850    2.549700
  C     -6.426930   -7.531550    0.739930
  C     -5.988630   -7.618770   -0.593760
  C     -5.610290   -6.289290   -1.051870
  C     -5.119290   -5.955810   -2.278420
  C     -4.938370   -6.924100   -3.290280
  N     -4.795830   -7.714790   -4.107910
  C     -4.740820   -4.639600   -2.624880
  N     -4.408320   -3.584900   -2.924260
  C     -6.030130   -8.921730   -1.084410
  C     -6.508380   -9.816220   -0.139640
  S     -6.906570   -9.038170    1.381680
  C     -6.659150  -11.219250   -0.319920
  C     -7.277510  -12.139870    0.516610
  C     -7.898730  -11.770870    1.719910
  N     -8.405830  -11.441960    2.694700
  C     -7.218550  -13.464770    0.004460
  C     -6.544360  -13.507390   -1.211370
  S     -5.994410  -11.971100   -1.755920
  S     -6.394330  -15.083730   -1.917450
  C     -7.261610  -15.713720   -0.555190
  C     -7.649710  -14.768390    0.388540
  C     -8.369330  -15.369600    1.456790
  C     -8.900040  -14.676320    2.555490
  N     -9.347000  -14.132030    3.460840
  C     -8.500960  -16.744160    1.301740
  S     -7.737490  -17.320450   -0.166170
  C     -9.161770  -17.674360    2.150370
  C     -9.181170  -19.051750    1.990170
  C     -9.933900  -19.680220    2.978910
  C    -10.493810  -18.767530    3.890740
  S    -10.087110  -17.147640    3.545110
  C    -11.246150  -19.489990    4.846090
  C    -11.167090  -20.864860    4.541970
  C    -10.333110  -21.027830    3.360540
  C     -9.995890  -22.192450    2.738350
  C    -10.450030  -23.448790    3.195430
  N    -10.829670  -24.465370    3.563800
  C     -9.173050  -22.212230    1.591350
  N     -8.506930  -22.224020    0.658730
  C    -11.906290  -21.649390    5.418990
  C    -12.523540  -20.895240    6.409320
  S    -12.205850  -19.171170    6.209070
  C    -13.407470  -21.388290    7.392950
  C    -13.893250  -20.768260    8.504980
  C    -15.175600  -21.231720    9.100560
  O    -15.751220  -22.268940    8.880660
  C    -15.620720  -20.109170    9.962100
  C    -16.818180  -19.957240   10.628370
  C    -17.026810  -18.777510   11.345650
  C    -16.033500  -17.779600   11.375720
  C    -14.818260  -17.949060   10.709340
  C    -14.615890  -19.122020   10.004090
  C    -13.464670  -19.594650    9.235250
  C    -12.172120  -19.183690    9.421100
  C    -11.066530  -19.862480    8.865730
  N    -10.151110  -20.417180    8.452590
  C    -11.803400  -18.109410   10.257750
  N    -11.465770  -17.236140   10.920120
  C    -16.275530  -16.578630   12.088540
  N    -16.467260  -15.603320   12.656190
  C    -18.246580  -18.577930   12.036840
  N    -19.239930  -18.432920   12.587410
  H     -6.092810    2.652360    3.735030
  H     -6.248630    1.437730   -1.103070
  H     -6.305220   -2.791900    3.520740
  H     -5.408670   -3.293350   -0.289330
  H     -5.738470   -9.221330   -2.075300
  H     -8.665570  -19.552920    1.190310
  H    -11.990090  -22.720370    5.373960
  H    -13.837600  -22.363270    7.183080
  H    -17.574460  -20.726600   10.593560
  H    -14.078630  -17.164510   10.745650

 Total Charge           Charge          ....    0
 Multiplicity           Mult            ....    1
 Number of Electrons    NEL             ....  620
 Basis Dimension        Dim             .... 1296

ORBITAL ENERGIES
----------------

  NO   OCC          E(Eh)            E(eV)
   0   2.0000     -89.017105     -2422.2786
   1   2.0000     -89.016909     -2422.2732
   2   2.0000     -89.016538     -2422.2631
   3   2.0000     -89.015331     -2422.2303
   4   2.0000     -89.014798     -2422.2158
   5   2.0000     -89.014787     -2422.2155
   6   2.0000     -89.014495     -2422.2076
   7   2.0000     -19.245530      -523.6975
   8   2.0000     -19.243586      -523.6446
   9   2.0000     -14.451189      -393.2368
  10   2.0000     -14.450110      -393.2075
  11   2.0000     -14.449901      -393.2018
  12   2.0000     -14.445872      -393.0922
  13   2.0000     -14.440006      -392.9325
  14   2.0000     -14.439733      -392.9251
  15   2.0000     -14.438683      -392.8966
  16   2.0000     -14.435645      -392.8139
  17   2.0000     -14.435382      -392.8067
  18   2.0000     -14.435263      -392.8035
  19   2.0000     -14.433394      -392.7526
  20   2.0000     -14.433012      -392.7422
  21   2.0000     -14.430958      -392.6863
  22   2.0000     -14.429926      -392.6583
  23   2.0000     -10.396969      -282.9159
  24   2.0000     -10.395822      -282.8847
  25   2.0000     -10.387995      -282.6717
  26   2.0000     -10.386666      -282.6356
  27   2.0000     -10.375479      -282.3311
  28   2.0000     -10.373818      -282.2859
  29   2.0000     -10.373505      -282.2774
  30   2.0000     -10.370335      -282.1912
  31   2.0000     -10.370269      -282.1894
  32   2.0000     -10.370095      -282.1846
  33   2.0000     -10.369207      -282.1605
  34   2.0000     -10.366799      -282.0949
  35   2.0000     -10.366720      -282.0928
  36   2.0000     -10.366581      -282.0890
  37   2.0000     -10.366038      -282.0742
  38   2.0000     -10.366002      -282.0733
  39   2.0000     -10.365898      -282.0704
  40   2.0000     -10.365608      -282.0625
  41   2.0000     -10.363287      -281.9994
  42   2.0000     -10.362785      -281.9857
  43   2.0000     -10.361004      -281.9373
  44   2.0000     -10.360985      -281.9367
  45   2.0000     -10.355771      -281.7948
  46   2.0000     -10.355650      -281.7916
  47   2.0000     -10.353330      -281.7284
  48   2.0000     -10.353219      -281.7254
  49   2.0000     -10.350936      -281.6633
  50   2.0000     -10.350867      -281.6614
  51   2.0000     -10.350223      -281.6439
  52   2.0000     -10.349850      -281.6337
  53   2.0000     -10.349668      -281.6288
  54   2.0000     -10.349335      -281.6197
  55   2.0000     -10.348654      -281.6012
  56   2.0000     -10.347654      -281.5740
  57   2.0000     -10.344637      -281.4919
  58   2.0000     -10.343747      -281.4677
  59   2.0000     -10.341244      -281.3996
  60   2.0000     -10.340830      -281.3883
  61   2.0000     -10.340629      -281.3828
  62   2.0000     -10.340568      -281.3812
  63   2.0000     -10.340339      -281.3749
  64   2.0000     -10.338354      -281.3209
  65   2.0000     -10.338072      -281.3132
  66   2.0000     -10.337357      -281.2938
  67   2.0000     -10.337205      -281.2897
  68   2.0000     -10.336931      -281.2822
  69   2.0000     -10.336467      -281.2696
  70   2.0000     -10.333456      -281.1876
  71   2.0000     -10.333403      -281.1862
  72   2.0000     -10.333382      -281.1856
  73   2.0000     -10.333103      -281.1780
  74   2.0000     -10.332719      -281.1676
  75   2.0000     -10.331664      -281.1389
  76   2.0000     -10.331083      -281.1231
  77   2.0000     -10.330023      -281.0942
  78   2.0000     -10.329810      -281.0884
  79   2.0000     -10.329158      -281.0707
  80   2.0000     -10.329053      -281.0678
  81   2.0000     -10.328905      -281.0638
  82   2.0000     -10.328338      -281.0484
  83   2.0000     -10.327382      -281.0224
  84   2.0000     -10.326131      -280.9883
  85   2.0000     -10.324127      -280.9338
  86   2.0000     -10.323650      -280.9208
  87   2.0000      -8.111342      -220.7208
  88   2.0000      -8.110694      -220.7032
  89   2.0000      -8.110348      -220.6938
  90   2.0000      -8.110164      -220.6888
  91   2.0000      -8.109714      -220.6765
  92   2.0000      -8.109701      -220.6762
  93   2.0000      -8.109544      -220.6719
  94   2.0000      -6.080563      -165.4605
  95   2.0000      -6.080023      -165.4458
  96   2.0000      -6.079663      -165.4361
  97   2.0000      -6.079565      -165.4334
  98   2.0000      -6.079367      -165.4280
  99   2.0000      -6.079355      -165.4277
 100   2.0000      -6.079242      -165.4246
 101   2.0000      -6.076332      -165.3454
 102   2.0000      -6.075583      -165.3250
 103   2.0000      -6.075247      -165.3159
 104   2.0000      -6.075246      -165.3158
 105   2.0000      -6.075120      -165.3124
 106   2.0000      -6.075099      -165.3119
 107   2.0000      -6.075078      -165.3113
 108   2.0000      -6.073784      -165.2761
 109   2.0000      -6.073078      -165.2569
 110   2.0000      -6.072753      -165.2480
 111   2.0000      -6.072731      -165.2474
 112   2.0000      -6.071199      -165.2057
 113   2.0000      -6.071176      -165.2051
 114   2.0000      -6.070316      -165.1817
 115   2.0000      -1.161457       -31.6048
 116   2.0000      -1.159849       -31.5611
 117   2.0000      -1.074303       -29.2333
 118   2.0000      -1.071954       -29.1694
 119   2.0000      -1.068218       -29.0677
 120   2.0000      -1.051479       -28.6122
 121   2.0000      -1.047763       -28.5111
 122   2.0000      -1.045371       -28.4460
 123   2.0000      -1.042549       -28.3692
 124   2.0000      -1.040530       -28.3143
 125   2.0000      -1.035715       -28.1832
 126   2.0000      -1.033150       -28.1134
 127   2.0000      -1.028943       -27.9990
 128   2.0000      -1.027417       -27.9574
 129   2.0000      -1.024689       -27.8832
 130   2.0000      -1.021621       -27.7997
 131   2.0000      -1.020647       -27.7732
 132   2.0000      -1.018108       -27.7041
 133   2.0000      -1.016813       -27.6689
 134   2.0000      -1.015982       -27.6463
 135   2.0000      -1.014345       -27.6017
 136   2.0000      -1.012425       -27.5495
 137   2.0000      -1.011260       -27.5178
 138   2.0000      -1.009633       -27.4735
 139   2.0000      -0.991046       -26.9677
 140   2.0000      -0.986991       -26.8574
 141   2.0000      -0.983150       -26.7529
 142   2.0000      -0.980240       -26.6737
 143   2.0000      -0.970222       -26.4011
 144   2.0000      -0.944397       -25.6984
 145   2.0000      -0.941800       -25.6277
 146   2.0000      -0.934713       -25.4348
 147   2.0000      -0.931378       -25.3441
 148   2.0000      -0.925501       -25.1842
 149   2.0000      -0.917004       -24.9530
 150   2.0000      -0.913738       -24.8641
 151   2.0000      -0.910905       -24.7870
 152   2.0000      -0.907381       -24.6911
 153   2.0000      -0.901281       -24.5251
 154   2.0000      -0.898274       -24.4433
 155   2.0000      -0.893706       -24.3190
 156   2.0000      -0.883468       -24.0404
 157   2.0000      -0.881353       -23.9828
 158   2.0000      -0.870655       -23.6917
 159   2.0000      -0.866831       -23.5877
 160   2.0000      -0.851594       -23.1731
 161   2.0000      -0.845209       -22.9993
 162   2.0000      -0.819414       -22.2974
 163   2.0000      -0.815706       -22.1965
 164   2.0000      -0.813981       -22.1495
 165   2.0000      -0.802004       -21.8236
 166   2.0000      -0.801448       -21.8085
 167   2.0000      -0.795529       -21.6475
 168   2.0000      -0.777102       -21.1460
 169   2.0000      -0.763030       -20.7631
 170   2.0000      -0.759956       -20.6794
 171   2.0000      -0.753575       -20.5058
 172   2.0000      -0.742102       -20.1936
 173   2.0000      -0.737233       -20.0611
 174   2.0000      -0.727724       -19.8024
 175   2.0000      -0.721917       -19.6444
 176   2.0000      -0.720453       -19.6045
 177   2.0000      -0.719393       -19.5757
 178   2.0000      -0.715272       -19.4635
 179   2.0000      -0.712002       -19.3746
 180   2.0000      -0.706995       -19.2383
 181   2.0000      -0.705112       -19.1871
 182   2.0000      -0.696050       -18.9405
 183   2.0000      -0.692042       -18.8314
 184   2.0000      -0.680127       -18.5072
 185   2.0000      -0.675827       -18.3902
 186   2.0000      -0.673939       -18.3388
 187   2.0000      -0.664569       -18.0838
 188   2.0000      -0.663692       -18.0600
 189   2.0000      -0.660755       -17.9801
 190   2.0000      -0.656520       -17.8648
 191   2.0000      -0.651155       -17.7188
 192   2.0000      -0.647858       -17.6291
 193   2.0000      -0.642884       -17.4938
 194   2.0000      -0.639180       -17.3930
 195   2.0000      -0.629535       -17.1305
 196   2.0000      -0.624327       -16.9888
 197   2.0000      -0.621557       -16.9134
 198   2.0000      -0.615698       -16.7540
 199   2.0000      -0.609005       -16.5719
 200   2.0000      -0.604436       -16.4475
 201   2.0000      -0.597941       -16.2708
 202   2.0000      -0.585452       -15.9310
 203   2.0000      -0.582855       -15.8603
 204   2.0000      -0.576242       -15.6804
 205   2.0000      -0.575978       -15.6732
 206   2.0000      -0.575023       -15.6472
 207   2.0000      -0.573747       -15.6124
 208   2.0000      -0.571223       -15.5438
 209   2.0000      -0.568890       -15.4803
 210   2.0000      -0.568502       -15.4697
 211   2.0000      -0.566313       -15.4102
 212   2.0000      -0.563943       -15.3457
 213   2.0000      -0.560869       -15.2620
 214   2.0000      -0.553770       -15.0688
 215   2.0000      -0.552299       -15.0288
 216   2.0000      -0.547065       -14.8864
 217   2.0000      -0.543554       -14.7908
 218   2.0000      -0.542118       -14.7518
 219   2.0000      -0.540914       -14.7190
 220   2.0000      -0.536522       -14.5995
 221   2.0000      -0.533334       -14.5128
 222   2.0000      -0.531446       -14.4614
 223   2.0000      -0.529622       -14.4117
 224   2.0000      -0.528995       -14.3947
 225   2.0000      -0.528192       -14.3728
 226   2.0000      -0.526352       -14.3228
 227   2.0000      -0.524832       -14.2814
 228   2.0000      -0.521942       -14.2028
 229   2.0000      -0.520530       -14.1643
 230   2.0000      -0.517951       -14.0942
 231   2.0000      -0.514727       -14.0064
 232   2.0000      -0.513447       -13.9716
 233   2.0000      -0.512841       -13.9551
 234   2.0000      -0.510216       -13.8837
 235   2.0000      -0.503753       -13.7078
 236   2.0000      -0.501104       -13.6357
 237   2.0000      -0.498960       -13.5774
 238   2.0000      -0.496756       -13.5174
 239   2.0000      -0.494535       -13.4570
 240   2.0000      -0.492831       -13.4106
 241   2.0000      -0.486327       -13.2336
 242   2.0000      -0.485070       -13.1994
 243   2.0000      -0.481609       -13.1053
 244   2.0000      -0.480683       -13.0801
 245   2.0000      -0.479515       -13.0483
 246   2.0000      -0.479042       -13.0354
 247   2.0000      -0.476158       -12.9569
 248   2.0000      -0.473838       -12.8938
 249   2.0000      -0.472022       -12.8444
 250   2.0000      -0.471697       -12.8355
 251   2.0000      -0.468656       -12.7528
 252   2.0000      -0.467860       -12.7311
 253   2.0000      -0.467459       -12.7202
 254   2.0000      -0.467022       -12.7083
 255   2.0000      -0.466164       -12.6850
 256   2.0000      -0.465379       -12.6636
 257   2.0000      -0.464042       -12.6272
 258   2.0000      -0.462330       -12.5806
 259   2.0000      -0.461588       -12.5604
 260   2.0000      -0.460707       -12.5365
 261   2.0000      -0.459905       -12.5147
 262   2.0000      -0.459515       -12.5040
 263   2.0000      -0.458638       -12.4802
 264   2.0000      -0.458499       -12.4764
 265   2.0000      -0.457456       -12.4480
 266   2.0000      -0.457065       -12.4374
 267   2.0000      -0.456790       -12.4299
 268   2.0000      -0.456716       -12.4279
 269   2.0000      -0.456131       -12.4119
 270   2.0000      -0.454045       -12.3552
 271   2.0000      -0.453378       -12.3370
 272   2.0000      -0.452614       -12.3162
 273   2.0000      -0.451336       -12.2815
 274   2.0000      -0.448785       -12.2121
 275   2.0000      -0.447634       -12.1807
 276   2.0000      -0.447171       -12.1682
 277   2.0000      -0.446300       -12.1444
 278   2.0000      -0.444012       -12.0822
 279   2.0000      -0.439932       -11.9711
 280   2.0000      -0.437540       -11.9061
 281   2.0000      -0.436284       -11.8719
 282   2.0000      -0.434923       -11.8349
 283   2.0000      -0.433017       -11.7830
 284   2.0000      -0.430973       -11.7274
 285   2.0000      -0.430256       -11.7079
 286   2.0000      -0.428968       -11.6728
 287   2.0000      -0.425554       -11.5799
 288   2.0000      -0.422500       -11.4968
 289   2.0000      -0.411261       -11.1910
 290   2.0000      -0.408812       -11.1243
 291   2.0000      -0.405511       -11.0345
 292   2.0000      -0.400523       -10.8988
 293   2.0000      -0.385574       -10.4920
 294   2.0000      -0.376191       -10.2367
 295   2.0000      -0.375065       -10.2060
 296   2.0000      -0.373305       -10.1581
 297   2.0000      -0.372878       -10.1465
 298   2.0000      -0.369419       -10.0524
 299   2.0000      -0.366368        -9.9694
 300   2.0000      -0.363946        -9.9035
 301   2.0000      -0.354345        -9.6422
 302   2.0000      -0.345735        -9.4079
 303   2.0000      -0.344660        -9.3787
 304   2.0000      -0.343890        -9.3577
 305   2.0000      -0.342706        -9.3255
 306   2.0000      -0.324069        -8.8184
 307   2.0000      -0.322302        -8.7703
 308   2.0000      -0.282835        -7.6963
 309   2.0000      -0.282798        -7.6953
 310   0.0000      -0.136009        -3.7010
 311   0.0000      -0.133668        -3.6373
 312   0.0000      -0.113156        -3.0791
 313   0.0000      -0.112805        -3.0696
 314   0.0000      -0.100008        -2.7214

MULLIKEN ATOMIC CHARGES
-----------------------
   0 C :    0.046609
   1 C :   -0.037915
   2 C :   -0.059409
   3 C :   -0.174876
   4 N :    0.203546
   5 C :   -0.067198
   6 C :   -0.175075
   7 N :    0.200718
   8 C :   -0.027253
   9 C :   -0.006608
  10 C :    0.160138
  11 O :   -0.135077
  12 C :   -0.093953
  13 C :    0.296861
  14 C :   -0.329574
  15 C :   -0.186319
  16 N :    0.171648
  17 C :   -0.201221
  18 N :    0.168778
  19 C :    0.040608
  20 C :   -0.116421
  21 C :    0.011385
  22 C :   -0.009768
  23 C :   -0.077121
  24 S :    0.224989
  25 C :   -0.097957
  26 C :    0.040767
  27 C :    0.304022
  28 C :   -0.290998
  29 C :   -0.189129
  30 N :    0.176863
  31 C :   -0.189761
  32 N :    0.200425
  33 C :   -0.064793
  34 C :   -0.094020
  35 S :    0.239800
  36 C :   -0.071616
  37 C :    0.011944
  38 C :   -0.368857
  39 N :    0.230957
  40 C :    0.136228
  41 C :   -0.226149
  42 S :    0.192638
  43 S :    0.213864
  44 C :   -0.226680
  45 C :    0.139769
  46 C :    0.010152
  47 C :   -0.367326
  48 N :    0.228136
  49 C :   -0.070002
  50 S :    0.190326
  51 C :   -0.090714
  52 C :   -0.068524
  53 C :    0.043765
  54 C :   -0.094493
  55 S :    0.238169
  56 C :   -0.073984
  57 C :    0.024837
  58 C :    0.294794
  59 C :   -0.285630
  60 C :   -0.190452
  61 N :    0.189662
  62 C :   -0.186063
  63 N :    0.177344
  64 C :    0.005920
  65 C :   -0.090132
  66 S :    0.213239
  67 C :    0.056905
  68 C :   -0.141886
  69 C :    0.147691
  70 O :   -0.121231
  71 C :    0.009541
  72 C :   -0.037565
  73 C :   -0.067278
  74 C :   -0.060872
  75 C :   -0.038372
  76 C :    0.036652
  77 C :    0.231062
  78 C :   -0.301444
  79 C :   -0.208494
  80 N :    0.188433
  81 C :   -0.178814
  82 N :    0.176283
  83 C :   -0.172219
  84 N :    0.203853
  85 C :   -0.171610
  86 N :    0.199002
  87 H :    0.023026
  88 H :    0.020138
  89 H :    0.021847
  90 H :    0.039516
  91 H :    0.020165
  92 H :    0.020711
  93 H :    0.024957
  94 H :    0.038741
  95 H :    0.020848
  96 H :    0.026578
Sum of atomic charges:   -0.0000000

LOEWDIN ATOMIC CHARGES
----------------------
   0 C :    0.001727
   1 C :    0.034472
   2 C :   -0.022919
   3 C :   -0.031786
   4 N :   -0.009408
   5 C :   -0.027464
   6 C :   -0.032165
   7 N :   -0.011675
   8 C :    0.050110
   9 C :   -0.028918
  10 C :    0.085645
  11 O :   -0.124139
  12 C :   -0.102109
  13 C :    0.068865
  14 C :   -0.124804
  15 C :   -0.022480
  16 N :   -0.032829
  17 C :   -0.025088
  18 N :   -0.036565
  19 C :    0.050145
  20 C :   -0.177219
  21 C :    0.024310
  22 C :   -0.071639
  23 C :   -0.154292
  24 S :    0.510318
  25 C :   -0.188450
  26 C :   -0.051400
  27 C :    0.073890
  28 C :   -0.089378
  29 C :   -0.015044
  30 N :   -0.026867
  31 C :   -0.022634
  32 N :   -0.010362
  33 C :   -0.030489
  34 C :   -0.177273
  35 S :    0.535194
  36 C :   -0.143407
  37 C :   -0.101562
  38 C :   -0.060649
  39 N :   -0.020125
  40 C :   -0.061264
  41 C :   -0.328960
  42 S :    0.471620
  43 S :    0.442210
  44 C :   -0.328976
  45 C :   -0.061202
  46 C :   -0.102058
  47 C :   -0.060706
  48 N :   -0.020073
  49 C :   -0.142849
  50 S :    0.470714
  51 C :   -0.177568
  52 C :   -0.029694
  53 C :   -0.052051
  54 C :   -0.187010
  55 S :    0.536843
  56 C :   -0.146991
  57 C :   -0.070940
  58 C :    0.077426
  59 C :   -0.091798
  60 C :   -0.018324
  61 N :   -0.019863
  62 C :   -0.016095
  63 N :   -0.025511
  64 C :    0.020991
  65 C :   -0.179334
  66 S :    0.518301
  67 C :    0.059846
  68 C :   -0.107408
  69 C :    0.083567
  70 O :   -0.124909
  71 C :   -0.030800
  72 C :    0.049941
  73 C :   -0.028022
  74 C :   -0.021682
  75 C :    0.032173
  76 C :    0.004248
  77 C :    0.051863
  78 C :   -0.128929
  79 C :   -0.037488
  80 N :   -0.032604
  81 C :   -0.025385
  82 N :   -0.028809
  83 C :   -0.031901
  84 N :   -0.008146
  85 C :   -0.032544
  86 N :   -0.011199
  87 H :    0.052825
  88 H :    0.055472
  89 H :    0.045099
  90 H :    0.045169
  91 H :    0.037427
  92 H :    0.037470
  93 H :    0.049577
  94 H :    0.058083
  95 H :    0.055503
  96 H :    0.053186

  Mayer bond orders larger than 0.100000
B(  0-C ,  1-C ) :   1.3606 B(  0-C ,  9-C ) :   1.3365 B(  0-C , 13-C ) :   0.9573
B(  1-C ,  2-C ) :   1.3904 B(  1-C , 87-H ) :   0.9868 B(  2-C ,  3-C ) :   1.0869
B(  2-C ,  5-C ) :   1.4041 B(  3-C ,  4-N ) :   3.0442 B(  5-C ,  6-C ) :   1.0859
B(  5-C ,  8-C ) :   1.3624 B(  6-C ,  7-N ) :   3.0453 B(  8-C ,  9-C ) :   1.3634
B(  8-C , 88-H ) :   1.0155 B(  9-C , 10-C ) :   0.9318 B( 10-C , 11-O ) :   2.1952
B( 10-C , 12-C ) :   0.9503 B( 12-C , 13-C ) :   1.0853 B( 12-C , 19-C ) :   1.5755
B( 13-C , 14-C ) :   1.6500 B( 14-C , 15-C ) :   1.1457 B( 14-C , 17-C ) :   1.1379
B( 15-C , 16-N ) :   2.9660 B( 17-C , 18-N ) :   2.9878 B( 19-C , 20-C ) :   1.2280
B( 19-C , 89-H ) :   0.9183 B( 20-C , 21-C ) :   1.3847 B( 20-C , 24-S ) :   1.0741
B( 21-C , 22-C ) :   1.3361 B( 21-C , 90-H ) :   0.9721 B( 22-C , 23-C ) :   1.3733
B( 22-C , 27-C ) :   0.9936 B( 23-C , 24-S ) :   1.1788 B( 23-C , 25-C ) :   1.2009
B( 25-C , 26-C ) :   1.4211 B( 25-C , 35-S ) :   1.1217 B( 26-C , 27-C ) :   0.9891
B( 26-C , 33-C ) :   1.3197 B( 27-C , 28-C ) :   1.7243 B( 28-C , 29-C ) :   1.1368
B( 28-C , 31-C ) :   1.1342 B( 29-C , 30-N ) :   2.9869 B( 31-C , 32-N ) :   2.9968
B( 33-C , 34-C ) :   1.4307 B( 33-C , 91-H ) :   0.9844 B( 34-C , 35-S ) :   1.1258
B( 34-C , 36-C ) :   1.1850 B( 36-C , 37-C ) :   1.4925 B( 36-C , 42-S ) :   1.1468
B( 37-C , 38-C ) :   1.1479 B( 37-C , 40-C ) :   1.2578 B( 38-C , 39-N ) :   2.9675
B( 40-C , 41-C ) :   1.4185 B( 40-C , 45-C ) :   1.0709 B( 41-C , 42-S ) :   1.0888
B( 41-C , 43-S ) :   1.0890 B( 43-S , 44-C ) :   1.0898 B( 44-C , 45-C ) :   1.4185
B( 44-C , 50-S ) :   1.0880 B( 45-C , 46-C ) :   1.2581 B( 46-C , 47-C ) :   1.1473
B( 46-C , 49-C ) :   1.4919 B( 47-C , 48-N ) :   2.9630 B( 49-C , 50-S ) :   1.1456
B( 49-C , 51-C ) :   1.1917 B( 51-C , 52-C ) :   1.4279 B( 51-C , 55-S ) :   1.1241
B( 52-C , 53-C ) :   1.3216 B( 52-C , 92-H ) :   0.9850 B( 53-C , 54-C ) :   1.4190
B( 53-C , 58-C ) :   0.9910 B( 54-C , 55-S ) :   1.1212 B( 54-C , 56-C ) :   1.2080
B( 56-C , 57-C ) :   1.3905 B( 56-C , 66-S ) :   1.1688 B( 57-C , 58-C ) :   0.9907
B( 57-C , 64-C ) :   1.3143 B( 58-C , 59-C ) :   1.7260 B( 59-C , 60-C ) :   1.1316
B( 59-C , 62-C ) :   1.1351 B( 60-C , 61-N ) :   2.9965 B( 62-C , 63-N ) :   2.9873
B( 64-C , 65-C ) :   1.3841 B( 64-C , 93-H ) :   1.0015 B( 65-C , 66-S ) :   1.0781
B( 65-C , 67-C ) :   1.1692 B( 67-C , 68-C ) :   1.6100 B( 67-C , 94-H ) :   0.9480
B( 68-C , 69-C ) :   0.9477 B( 68-C , 77-C ) :   1.0459 B( 69-C , 70-O ) :   2.2872
B( 69-C , 71-C ) :   0.8991 B( 71-C , 72-C ) :   1.3716 B( 71-C , 76-C ) :   1.3348
B( 72-C , 73-C ) :   1.3657 B( 72-C , 95-H ) :   1.0142 B( 73-C , 74-C ) :   1.4033
B( 73-C , 85-C ) :   1.0876 B( 74-C , 75-C ) :   1.3863 B( 74-C , 83-C ) :   1.0854
B( 75-C , 76-C ) :   1.3653 B( 75-C , 96-H ) :   0.9910 B( 76-C , 77-C ) :   0.9786
B( 77-C , 78-C ) :   1.6716 B( 78-C , 79-C ) :   1.1520 B( 78-C , 81-C ) :   1.1325
B( 79-C , 80-N ) :   3.0239 B( 81-C , 82-N ) :   2.9902 B( 83-C , 84-N ) :   3.0433
B( 85-C , 86-N ) :   3.0438

-----------------------------------------------------------------------------
         ABSORPTION SPECTRUM VIA TRANSITION ELECTRIC DIPOLE MOMENTS
-----------------------------------------------------------------------------
State   Energy  Wavelength   fosc         T2         TX        TY        TZ
        (cm-1)    (nm)                  (au**2)     (au)      (au)      (au)
-----------------------------------------------------------------------------
   0   13995.8    714.5   0.385284605   9.06272  -1.37419  -1.93748   1.84946
   1   14860.1    672.9   0.348665314   7.72436  -0.03765  -2.58648  -1.01639
   2   19910.3    502.3   0.502739858   8.31269  -1.24306  -1.04193   2.38367
   3   20967.8    476.9   1.309877576  20.56618   0.21532   4.13020   1.86046
   4   22804.1    438.5   0.001265498   0.01827  -0.01013   0.11423   0.07154
   5   23211.3    430.8   0.004882071   0.06924  -0.13524  -0.00725   0.22561
   6   24458.5    408.9   0.465052711   6.25961   0.81282   2.06813  -1.14969
   7   24703.9    404.8   0.315301037   4.20181   1.45873   0.09636  -1.43688
   8   25345.5    394.5   0.027837950   0.36159  -0.40210  -0.43904  -0.08450
   9   25886.0    386.3   0.012917289   0.16428  -0.07221   0.16473  -0.36322
  10   28861.4    346.5   0.589198454   6.72079  -1.28409  -2.02555   0.98440
  11   29064.8    344.1   0.195811179   2.21792   0.28525  -1.45765   0.10860
  12   29280.1    341.5   0.193369339   2.17416  -0.45821   1.33298   0.43285
  13   29395.1    340.2   0.005987297   0.06706  -0.16235   0.04238   0.19724
  14   29520.6    338.7   0.159597464   1.77982   0.15415   1.32277  -0.07960
  15   29779.7    335.8   0.035519167   0.39266  -0.15782  -0.59614   0.11121
  16   30208.2    331.0   0.168680353   1.83829   0.68475   0.46764  -1.07272
  17   30398.6    329.0   0.006992279   0.07573  -0.04639  -0.13252   0.23667
  18   30786.8    324.8   0.106263757   1.13631   0.04133   0.54953  -0.91248
  19   30821.4    324.4   0.042015121   0.44878  -0.00891   0.66985   0.00030
  20   31183.6    320.7   0.056551117   0.59702   0.75920   0.13573   0.04709
  21   31215.0    320.4   0.049682448   0.52398  -0.19994  -0.58637  -0.37439
  22   31286.9    319.6   0.029947693   0.31512   0.33164   0.06064  -0.44884
  23   31582.5    316.6   0.038957621   0.40609   0.00198   0.07907   0.63232
  24   32086.5    311.7   0.061204742   0.62797  -0.30972   0.50324   0.52800
  25   32233.5    310.2   0.442028614   4.51459   0.72429  -1.38727  -1.43717
  26   32649.2    306.3   0.158975474   1.60300  -0.87723  -0.43887   0.80054
  27   32712.6    305.7   0.302249160   3.04176   0.30230  -0.28798  -1.69335
  28   32752.8    305.3   0.019439822   0.19540  -0.13390  -0.41295  -0.08334
  29   33037.2    302.7   0.156466831   1.55917  -0.03256  -1.24528  -0.08600
  30   34030.3    293.9   0.114679635   1.10942  -0.26797  -0.93845   0.39612
  31   34437.4    290.4   0.323763897   3.09510   0.07186  -1.48756   0.93654
  32   34441.0    290.4   0.114558495   1.09503  -0.47165   0.86635  -0.34930
  33   34769.8    287.6   0.589646664   5.58298   2.00836  -0.68507  -1.03930
  34   34794.0    287.4   0.029250902   0.27676   0.17651  -0.26991  -0.41564
  35   35022.6    285.5   0.045840020   0.43090  -0.53343  -0.27255   0.26845
  36   35110.3    284.8   0.005152958   0.04832  -0.03454  -0.20132  -0.08121
  37   35512.0    281.6   0.084560952   0.78392  -0.04787  -0.10752  -0.87753
  38   35707.4    280.1   0.110173629   1.01577  -0.01406   0.19872  -0.98797
  39   35817.4    279.2   0.028620744   0.26306  -0.48415  -0.10007   0.13655
  40   36242.0    275.9   0.166304827   1.51066   1.16929   0.35955  -0.11893
  41   36347.3    275.1   0.131172222   1.18808  -0.15647   0.69040  -0.82882
  42   36620.4    273.1   0.289473043   2.60232  -0.12763  -0.48073   1.53458
  43   37249.0    268.5   0.058936314   0.52089   0.49985   0.32945  -0.40311
  44   37431.1    267.2   0.071880807   0.63220  -0.57622  -0.50676  -0.20824
  45   37756.2    264.9   0.110519927   0.96367   0.03242  -0.21636  -0.95698
  46   37806.7    264.5   0.030943747   0.26945   0.09203  -0.34881  -0.37325
  47   37910.0    263.8   0.000416789   0.00362   0.04922  -0.02371  -0.02518
  48   38245.6    261.5   0.012524254   0.10781  -0.21088   0.17204   0.18369
  49   38375.8    260.6   0.014510601   0.12448  -0.20283  -0.15932   0.24074
  50   38454.0    260.1   0.062090644   0.53157   0.15750   0.70545   0.09541
  51   38869.9    257.3   0.013388061   0.11339   0.13369   0.21391  -0.22307
  52   38921.3    256.9   0.048510474   0.41032   0.10605   0.08431  -0.62607
  53   38979.6    256.5   0.002079337   0.01756   0.03112  -0.00137   0.12881
  54   39356.8    254.1   0.129334792   1.08186   0.03429   0.62070   0.83391
  55   39453.5    253.5   0.023501395   0.19610   0.25164   0.10301  -0.34952
  56   39683.1    252.0   0.006841625   0.05676  -0.11782   0.09769   0.18257
  57   39991.1    250.1   0.134708782   1.10894   0.10195   1.04753   0.03508
  58   40066.4    249.6   0.096124784   0.78982  -0.06186  -0.88162  -0.09355
  59   40112.2    249.3   0.010559885   0.08667   0.01280   0.15123   0.25226

FINAL SINGLE POINT ENERGY     -6143.716140016722

DIPOLE MOMENT
-------------
                                X             Y             Z
Electronic contribution:      6.90846      -8.10004      -9.83390
Nuclear contribution   :     -6.34736       3.68230       6.10543
                        -----------------------------------------
Total Dipole Moment    :      0.56110      -4.41774      -3.72847
                        -----------------------------------------
Magnitude (a.u.)       :      5.80799
Magnitude (Debye)      :     14.76274

Rotational constants in cm-1:     0.000762     0.000161     0.000136
Rotational constants in MHz :    22.837271     4.826711     4.073846

                             ****ORCA TERMINATED NORMALLY****
TOTAL RUN TIME: 0 days 0 hours 12 minutes 1 seconds 500 msec
