                         Program Version 4.2.0 -  RELEASE  -
|  1> # ORCA input file
|  2> # SCF done       -207.743842627982          0.000782621139
|  3> ! CAM-B3LYP def2-SVP def2/J RIJCOSX Grid4 TightSCF
|  4> %maxcore 5000
|  5> %tddft
|  6>     Mode sTDDFT
|  7>     Ethresh 5.0
|  8>     maxcore 5000
|  9> end
| 10>
| 11> %pal
| 12>   nprocs 6
| 13>   end
| 14> * xyz 0 1
| 15>    C        2.18567        -2.40714         1.78397
| 16>    C        3.15817        -1.60027         2.34978
| 17>    C        3.64267        -1.93051         3.61760
| 18>    C        4.64201        -1.12060         4.21234
| 19>    N        5.44897        -0.46344         4.68916
| 20>    C        3.16001        -3.05368         4.31579
| 21>    C        3.67231        -3.36399         5.59854
| 22>    N        4.07413        -3.63336         6.63640
| 23>    C        2.17868        -3.86434         3.74291
| 24>    C        1.71131        -3.52894         2.49047
| 25>    C        0.69491        -4.22380         1.67405
| 26>    O        0.07546        -5.22146         1.99934
| 27>    C        0.60308        -3.47835         0.41909
| 28>    C        1.49177        -2.33512         0.49546
| 29>    C        1.65681        -1.33904        -0.42995
| 30>    C        2.54080        -0.24921        -0.27160
| 31>    N        3.24196         0.65630        -0.20313
| 32>    C        0.96827        -1.23537        -1.65840
| 33>    N        0.44313        -1.07380        -2.66632
| 34>    C       -0.15650        -3.83970        -0.66908
| 35>    C       -1.02954        -4.91815        -0.84726
| 36>    C       -1.66743        -5.15532        -2.07476
| 37>    C       -2.47944        -6.26873        -2.04282
| 38>    C       -2.48523        -6.89318        -0.76839
| 39>    S       -1.47686        -6.12393         0.36415
| 40>    C       -3.33578        -8.02110        -0.84044
| 41>    C       -3.85710        -8.12003        -2.14449
| 42>    C       -3.33690        -7.02505        -2.94347
| 43>    C       -3.58758        -6.77876        -4.26137
| 44>    C       -4.41504        -7.62137        -5.03274
| 45>    N       -5.07887        -8.31279        -5.66239
| 46>    C       -3.02653        -5.67683        -4.94175
| 47>    N       -2.57270        -4.78369        -5.49848
| 48>    C       -4.70402        -9.21232        -2.31199
| 49>    C       -4.84327        -9.95152        -1.15270
| 50>    S       -3.90317        -9.27049         0.17347
| 51>    C       -5.62271       -11.13757        -0.94174
| 52>    C       -5.83714       -11.62426         0.34188
| 53>    C       -6.58871       -12.76035         0.58287
| 54>    C       -7.15696       -13.50483        -0.44375
| 55>    C       -6.94092       -13.05255        -1.78200
| 56>    C       -6.19791       -11.86758        -2.02695
| 57>    N       -6.02961       -11.44130        -3.29284
| 58>    C       -6.53784       -12.11688        -4.28924
| 59>    C       -7.26320       -13.32150        -4.04486
| 60>    N       -7.44728       -13.74263        -2.82140
| 61>    C       -7.82929       -14.13560        -5.15454
| 62>    C       -6.33111       -11.58890        -5.66520
| 63>    C       -7.93619       -14.67332        -0.15187
| 64>    C       -8.41321       -15.62814        -1.03103
| 65>    C       -9.14216       -16.62374        -0.38775
| 66>    C       -9.23008       -16.42930         1.00344
| 67>    S       -8.40390       -15.02445         1.50993
| 68>    C       -9.98519       -17.48743         1.55736
| 69>    C      -10.37518       -18.35970         0.51505
| 70>    C       -9.86069       -17.83733        -0.74038
| 71>    C      -10.03206       -18.35553        -1.99023
| 72>    C      -10.76212       -19.54171        -2.21852
| 73>    N      -11.35808       -20.50246        -2.40710
| 74>    C       -9.50615       -17.72543        -3.13757
| 75>    N       -9.08894       -17.21388        -4.07517
| 76>    C      -11.13882       -19.42534         0.96511
| 77>    C      -11.32333       -19.40378         2.34476
| 78>    S      -10.55723       -17.99006         3.07617
| 79>    C      -12.12218       -20.31212         3.06225
| 80>    C      -12.29225       -20.47751         4.40725
| 81>    C      -13.53902       -21.11884         4.89828
| 82>    O      -14.34514       -21.74352         4.25181
| 83>    C      -13.60884       -20.76594         6.33741
| 84>    C      -14.62993       -21.00169         7.23272
| 85>    C      -14.48179       -20.52973         8.53860
| 86>    C      -13.31737       -19.83172         8.91227
| 87>    C      -12.28202       -19.61148         8.00113
| 88>    C      -12.43237       -20.08620         6.71053
| 89>    C      -11.53211       -20.04580         5.55667
| 90>    C      -10.16947       -19.91902         5.62932
| 91>    C       -9.31641       -20.21524         4.54575
| 92>    N       -8.59895       -20.49299         3.69418
| 93>    C       -9.47299       -19.58623         6.80890
| 94>    N       -8.87084       -19.29654         7.74156
| 95>    C      -13.19618       -19.33862        10.23528
| 96>    N      -13.09501       -18.92979        11.29983
| 97>    C      -15.50995       -20.74611         9.48771
| 98>    N      -16.35279       -20.92987        10.24058
| 99>    H        3.55539        -0.73287         1.84753
|100>    H        1.79807        -4.72991         4.26361
|101>    H       -0.07075        -3.21661        -1.55116
|102>    H       -1.51473        -4.52042        -2.92979
|103>    H       -5.20752        -9.48979        -3.21870
|104>    H       -5.41343       -11.09341         1.18220
|105>    H       -6.73027       -13.08215         1.60467
|106>    H       -8.58063       -13.56114        -5.69490
|107>    H       -8.28556       -15.04050        -4.76280
|108>    H       -7.04597       -14.40422        -5.86127
|109>    H       -5.72267       -12.28279        -6.24402
|110>    H       -5.83212       -10.62445        -5.62646
|111>    H       -7.28636       -11.48006        -6.17552
|112>    H       -8.21942       -15.56406        -2.08523
|113>    H      -11.53962       -20.20655         0.34444
|114>    H      -12.78639       -20.91431         2.44819
|115>    H      -15.51950       -21.53409         6.93217
|116>    H      -11.40373       -19.07053         8.31712
|117> *
|118>
|119>                          ****END OF INPUT****

CARTESIAN COORDINATES (ANGSTROEM)
---------------------------------
  C      2.185670   -2.407140    1.783970
  C      3.158170   -1.600270    2.349780
  C      3.642670   -1.930510    3.617600
  C      4.642010   -1.120600    4.212340
  N      5.448970   -0.463440    4.689160
  C      3.160010   -3.053680    4.315790
  C      3.672310   -3.363990    5.598540
  N      4.074130   -3.633360    6.636400
  C      2.178680   -3.864340    3.742910
  C      1.711310   -3.528940    2.490470
  C      0.694910   -4.223800    1.674050
  O      0.075460   -5.221460    1.999340
  C      0.603080   -3.478350    0.419090
  C      1.491770   -2.335120    0.495460
  C      1.656810   -1.339040   -0.429950
  C      2.540800   -0.249210   -0.271600
  N      3.241960    0.656300   -0.203130
  C      0.968270   -1.235370   -1.658400
  N      0.443130   -1.073800   -2.666320
  C     -0.156500   -3.839700   -0.669080
  C     -1.029540   -4.918150   -0.847260
  C     -1.667430   -5.155320   -2.074760
  C     -2.479440   -6.268730   -2.042820
  C     -2.485230   -6.893180   -0.768390
  S     -1.476860   -6.123930    0.364150
  C     -3.335780   -8.021100   -0.840440
  C     -3.857100   -8.120030   -2.144490
  C     -3.336900   -7.025050   -2.943470
  C     -3.587580   -6.778760   -4.261370
  C     -4.415040   -7.621370   -5.032740
  N     -5.078870   -8.312790   -5.662390
  C     -3.026530   -5.676830   -4.941750
  N     -2.572700   -4.783690   -5.498480
  C     -4.704020   -9.212320   -2.311990
  C     -4.843270   -9.951520   -1.152700
  S     -3.903170   -9.270490    0.173470
  C     -5.622710  -11.137570   -0.941740
  C     -5.837140  -11.624260    0.341880
  C     -6.588710  -12.760350    0.582870
  C     -7.156960  -13.504830   -0.443750
  C     -6.940920  -13.052550   -1.782000
  C     -6.197910  -11.867580   -2.026950
  N     -6.029610  -11.441300   -3.292840
  C     -6.537840  -12.116880   -4.289240
  C     -7.263200  -13.321500   -4.044860
  N     -7.447280  -13.742630   -2.821400
  C     -7.829290  -14.135600   -5.154540
  C     -6.331110  -11.588900   -5.665200
  C     -7.936190  -14.673320   -0.151870
  C     -8.413210  -15.628140   -1.031030
  C     -9.142160  -16.623740   -0.387750
  C     -9.230080  -16.429300    1.003440
  S     -8.403900  -15.024450    1.509930
  C     -9.985190  -17.487430    1.557360
  C    -10.375180  -18.359700    0.515050
  C     -9.860690  -17.837330   -0.740380
  C    -10.032060  -18.355530   -1.990230
  C    -10.762120  -19.541710   -2.218520
  N    -11.358080  -20.502460   -2.407100
  C     -9.506150  -17.725430   -3.137570
  N     -9.088940  -17.213880   -4.075170
  C    -11.138820  -19.425340    0.965110
  C    -11.323330  -19.403780    2.344760
  S    -10.557230  -17.990060    3.076170
  C    -12.122180  -20.312120    3.062250
  C    -12.292250  -20.477510    4.407250
  C    -13.539020  -21.118840    4.898280
  O    -14.345140  -21.743520    4.251810
  C    -13.608840  -20.765940    6.337410
  C    -14.629930  -21.001690    7.232720
  C    -14.481790  -20.529730    8.538600
  C    -13.317370  -19.831720    8.912270
  C    -12.282020  -19.611480    8.001130
  C    -12.432370  -20.086200    6.710530
  C    -11.532110  -20.045800    5.556670
  C    -10.169470  -19.919020    5.629320
  C     -9.316410  -20.215240    4.545750
  N     -8.598950  -20.492990    3.694180
  C     -9.472990  -19.586230    6.808900
  N     -8.870840  -19.296540    7.741560
  C    -13.196180  -19.338620   10.235280
  N    -13.095010  -18.929790   11.299830
  C    -15.509950  -20.746110    9.487710
  N    -16.352790  -20.929870   10.240580
  H      3.555390   -0.732870    1.847530
  H      1.798070   -4.729910    4.263610
  H     -0.070750   -3.216610   -1.551160
  H     -1.514730   -4.520420   -2.929790
  H     -5.207520   -9.489790   -3.218700
  H     -5.413430  -11.093410    1.182200
  H     -6.730270  -13.082150    1.604670
  H     -8.580630  -13.561140   -5.694900
  H     -8.285560  -15.040500   -4.762800
  H     -7.045970  -14.404220   -5.861270
  H     -5.722670  -12.282790   -6.244020
  H     -5.832120  -10.624450   -5.626460
  H     -7.286360  -11.480060   -6.175520
  H     -8.219420  -15.564060   -2.085230
  H    -11.539620  -20.206550    0.344440
  H    -12.786390  -20.914310    2.448190
  H    -15.519500  -21.534090    6.932170
  H    -11.403730  -19.070530    8.317120

 Total Charge           Charge          ....    0
 Multiplicity           Mult            ....    1
 Number of Electrons    NEL             ....  580
 Basis Dimension        Dim             .... 1282

ORBITAL ENERGIES
----------------

  NO   OCC          E(Eh)            E(eV)
   0   2.0000     -89.014577     -2422.2098
   1   2.0000     -89.007715     -2422.0230
   2   2.0000     -89.007453     -2422.0159
   3   2.0000     -89.005661     -2421.9672
   4   2.0000     -19.249231      -523.7982
   5   2.0000     -19.240011      -523.5473
   6   2.0000     -14.449759      -393.1979
   7   2.0000     -14.447807      -393.1448
   8   2.0000     -14.446832      -393.1183
   9   2.0000     -14.443888      -393.0382
  10   2.0000     -14.438844      -392.9009
  11   2.0000     -14.438576      -392.8936
  12   2.0000     -14.438166      -392.8825
  13   2.0000     -14.437585      -392.8667
  14   2.0000     -14.437329      -392.8597
  15   2.0000     -14.434079      -392.7713
  16   2.0000     -14.432496      -392.7282
  17   2.0000     -14.432109      -392.7176
  18   2.0000     -14.432045      -392.7159
  19   2.0000     -14.430759      -392.6809
  20   2.0000     -10.397512      -282.9307
  21   2.0000     -10.392064      -282.7824
  22   2.0000     -10.383570      -282.5513
  23   2.0000     -10.380790      -282.4757
  24   2.0000     -10.371001      -282.2093
  25   2.0000     -10.370312      -282.1905
  26   2.0000     -10.368896      -282.1520
  27   2.0000     -10.367854      -282.1237
  28   2.0000     -10.367496      -282.1139
  29   2.0000     -10.365713      -282.0654
  30   2.0000     -10.365259      -282.0530
  31   2.0000     -10.364969      -282.0452
  32   2.0000     -10.364067      -282.0206
  33   2.0000     -10.363744      -282.0118
  34   2.0000     -10.363605      -282.0080
  35   2.0000     -10.354429      -281.7583
  36   2.0000     -10.350453      -281.6502
  37   2.0000     -10.349598      -281.6269
  38   2.0000     -10.348633      -281.6006
  39   2.0000     -10.348051      -281.5848
  40   2.0000     -10.347551      -281.5712
  41   2.0000     -10.346671      -281.5472
  42   2.0000     -10.346582      -281.5448
  43   2.0000     -10.346200      -281.5344
  44   2.0000     -10.345492      -281.5151
  45   2.0000     -10.344497      -281.4881
  46   2.0000     -10.344398      -281.4854
  47   2.0000     -10.344325      -281.4834
  48   2.0000     -10.343723      -281.4670
  49   2.0000     -10.343530      -281.4618
  50   2.0000     -10.343491      -281.4607
  51   2.0000     -10.343338      -281.4565
  52   2.0000     -10.342491      -281.4335
  53   2.0000     -10.342094      -281.4227
  54   2.0000     -10.339509      -281.3523
  55   2.0000     -10.339242      -281.3451
  56   2.0000     -10.338963      -281.3375
  57   2.0000     -10.338926      -281.3365
  58   2.0000     -10.338601      -281.3276
  59   2.0000     -10.338180      -281.3162
  60   2.0000     -10.337580      -281.2999
  61   2.0000     -10.335863      -281.2531
  62   2.0000     -10.334210      -281.2081
  63   2.0000     -10.332092      -281.1505
  64   2.0000     -10.330257      -281.1006
  65   2.0000     -10.329951      -281.0923
  66   2.0000     -10.329023      -281.0670
  67   2.0000     -10.328575      -281.0548
  68   2.0000     -10.328355      -281.0488
  69   2.0000     -10.326944      -281.0104
  70   2.0000     -10.325745      -280.9778
  71   2.0000     -10.325357      -280.9672
  72   2.0000     -10.325123      -280.9609
  73   2.0000     -10.324186      -280.9354
  74   2.0000     -10.322800      -280.8977
  75   2.0000     -10.322765      -280.8967
  76   2.0000     -10.319521      -280.8084
  77   2.0000     -10.318749      -280.7874
  78   2.0000     -10.314002      -280.6583
  79   2.0000     -10.313543      -280.6458
  80   2.0000     -10.307727      -280.4875
  81   2.0000     -10.306711      -280.4599
  82   2.0000     -10.277883      -279.6754
  83   2.0000     -10.277792      -279.6729
  84   2.0000      -8.108736      -220.6499
  85   2.0000      -8.102043      -220.4678
  86   2.0000      -8.100142      -220.4161
  87   2.0000      -8.099896      -220.4094
  88   2.0000      -6.077959      -165.3897
  89   2.0000      -6.073743      -165.2750
  90   2.0000      -6.071295      -165.2083
  91   2.0000      -6.071199      -165.2057
  92   2.0000      -6.069351      -165.1554
  93   2.0000      -6.069318      -165.1545
  94   2.0000      -6.067076      -165.0935
  95   2.0000      -6.065160      -165.0414
  96   2.0000      -6.064561      -165.0251
  97   2.0000      -6.064494      -165.0233
  98   2.0000      -6.062593      -164.9715
  99   2.0000      -6.062439      -164.9674
 100   2.0000      -1.164930       -31.6994
 101   2.0000      -1.156027       -31.4571
 102   2.0000      -1.102512       -30.0009
 103   2.0000      -1.066479       -29.0204
 104   2.0000      -1.062532       -28.9130
 105   2.0000      -1.048919       -28.5425
 106   2.0000      -1.047705       -28.5095
 107   2.0000      -1.040560       -28.3151
 108   2.0000      -1.037979       -28.2448
 109   2.0000      -1.033850       -28.1325
 110   2.0000      -1.032838       -28.1050
 111   2.0000      -1.027849       -27.9692
 112   2.0000      -1.025474       -27.9046
 113   2.0000      -1.023168       -27.8418
 114   2.0000      -1.020330       -27.7646
 115   2.0000      -1.016842       -27.6697
 116   2.0000      -1.016089       -27.6492
 117   2.0000      -1.015622       -27.6365
 118   2.0000      -1.014025       -27.5930
 119   2.0000      -1.013003       -27.5652
 120   2.0000      -1.011363       -27.5206
 121   2.0000      -1.010802       -27.5053
 122   2.0000      -0.991713       -26.9859
 123   2.0000      -0.985311       -26.8117
 124   2.0000      -0.983129       -26.7523
 125   2.0000      -0.977270       -26.5929
 126   2.0000      -0.970218       -26.4010
 127   2.0000      -0.942200       -25.6386
 128   2.0000      -0.937315       -25.5056
 129   2.0000      -0.932203       -25.3665
 130   2.0000      -0.931578       -25.3495
 131   2.0000      -0.917780       -24.9741
 132   2.0000      -0.911637       -24.8069
 133   2.0000      -0.909144       -24.7391
 134   2.0000      -0.908489       -24.7212
 135   2.0000      -0.905539       -24.6410
 136   2.0000      -0.897521       -24.4228
 137   2.0000      -0.889368       -24.2009
 138   2.0000      -0.883258       -24.0347
 139   2.0000      -0.874082       -23.7850
 140   2.0000      -0.871828       -23.7237
 141   2.0000      -0.856991       -23.3199
 142   2.0000      -0.849151       -23.1066
 143   2.0000      -0.832092       -22.6424
 144   2.0000      -0.828637       -22.5483
 145   2.0000      -0.816322       -22.2133
 146   2.0000      -0.815141       -22.1811
 147   2.0000      -0.812614       -22.1123
 148   2.0000      -0.796896       -21.6846
 149   2.0000      -0.794240       -21.6124
 150   2.0000      -0.793217       -21.5845
 151   2.0000      -0.771939       -21.0055
 152   2.0000      -0.759530       -20.6679
 153   2.0000      -0.757318       -20.6077
 154   2.0000      -0.746306       -20.3080
 155   2.0000      -0.742843       -20.2138
 156   2.0000      -0.738748       -20.1023
 157   2.0000      -0.729490       -19.8504
 158   2.0000      -0.720229       -19.5984
 159   2.0000      -0.718687       -19.5565
 160   2.0000      -0.716975       -19.5099
 161   2.0000      -0.713169       -19.4063
 162   2.0000      -0.705138       -19.1878
 163   2.0000      -0.702134       -19.1060
 164   2.0000      -0.698569       -19.0090
 165   2.0000      -0.691562       -18.8184
 166   2.0000      -0.687466       -18.7069
 167   2.0000      -0.681070       -18.5328
 168   2.0000      -0.669540       -18.2191
 169   2.0000      -0.667051       -18.1514
 170   2.0000      -0.661951       -18.0126
 171   2.0000      -0.660425       -17.9711
 172   2.0000      -0.652208       -17.7475
 173   2.0000      -0.647250       -17.6126
 174   2.0000      -0.642138       -17.4735
 175   2.0000      -0.637698       -17.3526
 176   2.0000      -0.635843       -17.3022
 177   2.0000      -0.628730       -17.1086
 178   2.0000      -0.627049       -17.0629
 179   2.0000      -0.623750       -16.9731
 180   2.0000      -0.617299       -16.7976
 181   2.0000      -0.612737       -16.6734
 182   2.0000      -0.606572       -16.5057
 183   2.0000      -0.603097       -16.4111
 184   2.0000      -0.597942       -16.2708
 185   2.0000      -0.581446       -15.8219
 186   2.0000      -0.578983       -15.7549
 187   2.0000      -0.575514       -15.6605
 188   2.0000      -0.573551       -15.6071
 189   2.0000      -0.572564       -15.5803
 190   2.0000      -0.571636       -15.5550
 191   2.0000      -0.570631       -15.5277
 192   2.0000      -0.568843       -15.4790
 193   2.0000      -0.567112       -15.4319
 194   2.0000      -0.565538       -15.3891
 195   2.0000      -0.563176       -15.3248
 196   2.0000      -0.556649       -15.1472
 197   2.0000      -0.554285       -15.0829
 198   2.0000      -0.547620       -14.9015
 199   2.0000      -0.544058       -14.8046
 200   2.0000      -0.539043       -14.6681
 201   2.0000      -0.537528       -14.6269
 202   2.0000      -0.531085       -14.4516
 203   2.0000      -0.530706       -14.4412
 204   2.0000      -0.529886       -14.4189
 205   2.0000      -0.527522       -14.3546
 206   2.0000      -0.526511       -14.3271
 207   2.0000      -0.524982       -14.2855
 208   2.0000      -0.522736       -14.2244
 209   2.0000      -0.521622       -14.1940
 210   2.0000      -0.520478       -14.1629
 211   2.0000      -0.518934       -14.1209
 212   2.0000      -0.516345       -14.0505
 213   2.0000      -0.515968       -14.0402
 214   2.0000      -0.512765       -13.9530
 215   2.0000      -0.509590       -13.8667
 216   2.0000      -0.508566       -13.8388
 217   2.0000      -0.506071       -13.7709
 218   2.0000      -0.502890       -13.6843
 219   2.0000      -0.498162       -13.5557
 220   2.0000      -0.497833       -13.5467
 221   2.0000      -0.497521       -13.5382
 222   2.0000      -0.495853       -13.4929
 223   2.0000      -0.495080       -13.4718
 224   2.0000      -0.491486       -13.3740
 225   2.0000      -0.491401       -13.3717
 226   2.0000      -0.487807       -13.2739
 227   2.0000      -0.476957       -12.9787
 228   2.0000      -0.475716       -12.9449
 229   2.0000      -0.472751       -12.8642
 230   2.0000      -0.470598       -12.8056
 231   2.0000      -0.468363       -12.7448
 232   2.0000      -0.467659       -12.7256
 233   2.0000      -0.467611       -12.7243
 234   2.0000      -0.465448       -12.6655
 235   2.0000      -0.464942       -12.6517
 236   2.0000      -0.464554       -12.6412
 237   2.0000      -0.463069       -12.6007
 238   2.0000      -0.461515       -12.5585
 239   2.0000      -0.460671       -12.5355
 240   2.0000      -0.459611       -12.5066
 241   2.0000      -0.459016       -12.4905
 242   2.0000      -0.458112       -12.4659
 243   2.0000      -0.458045       -12.4641
 244   2.0000      -0.457689       -12.4544
 245   2.0000      -0.457475       -12.4485
 246   2.0000      -0.456569       -12.4239
 247   2.0000      -0.455828       -12.4037
 248   2.0000      -0.455758       -12.4018
 249   2.0000      -0.455147       -12.3852
 250   2.0000      -0.454974       -12.3805
 251   2.0000      -0.454492       -12.3673
 252   2.0000      -0.452688       -12.3183
 253   2.0000      -0.449803       -12.2398
 254   2.0000      -0.448145       -12.1946
 255   2.0000      -0.447574       -12.1791
 256   2.0000      -0.446132       -12.1399
 257   2.0000      -0.444329       -12.0908
 258   2.0000      -0.442529       -12.0418
 259   2.0000      -0.440411       -11.9842
 260   2.0000      -0.439510       -11.9597
 261   2.0000      -0.437314       -11.8999
 262   2.0000      -0.434699       -11.8288
 263   2.0000      -0.433773       -11.8036
 264   2.0000      -0.431976       -11.7547
 265   2.0000      -0.431324       -11.7369
 266   2.0000      -0.428619       -11.6633
 267   2.0000      -0.426849       -11.6152
 268   2.0000      -0.422643       -11.5007
 269   2.0000      -0.418539       -11.3890
 270   2.0000      -0.405269       -11.0279
 271   2.0000      -0.402884       -10.9630
 272   2.0000      -0.392357       -10.6766
 273   2.0000      -0.381242       -10.3741
 274   2.0000      -0.374656       -10.1949
 275   2.0000      -0.372769       -10.1435
 276   2.0000      -0.366977        -9.9859
 277   2.0000      -0.366811        -9.9814
 278   2.0000      -0.364712        -9.9243
 279   2.0000      -0.363633        -9.8949
 280   2.0000      -0.359795        -9.7905
 281   2.0000      -0.347134        -9.4460
 282   2.0000      -0.343476        -9.3464
 283   2.0000      -0.340412        -9.2631
 284   2.0000      -0.339494        -9.2381
 285   2.0000      -0.338028        -9.1982
 286   2.0000      -0.335850        -9.1389
 287   2.0000      -0.322367        -8.7721
 288   2.0000      -0.292029        -7.9465
 289   2.0000      -0.266793        -7.2598
 290   0.0000      -0.135746        -3.6938
 291   0.0000      -0.126676        -3.4470
 292   0.0000      -0.110745        -3.0135
 293   0.0000      -0.109917        -2.9910
 294   0.0000      -0.100479        -2.7342

MULLIKEN ATOMIC CHARGES
-----------------------
   0 C :    0.044119
   1 C :   -0.038202
   2 C :   -0.062504
   3 C :   -0.174182
   4 N :    0.204680
   5 C :   -0.069559
   6 C :   -0.174543
   7 N :    0.201574
   8 C :   -0.033039
   9 C :   -0.002940
  10 C :    0.170866
  11 O :   -0.179032
  12 C :   -0.100090
  13 C :    0.323394
  14 C :   -0.337560
  15 C :   -0.185145
  16 N :    0.168251
  17 C :   -0.192835
  18 N :    0.163540
  19 C :   -0.023945
  20 C :   -0.054096
  21 C :   -0.057291
  22 C :    0.047345
  23 C :   -0.063557
  24 S :    0.246753
  25 C :   -0.097659
  26 C :    0.039399
  27 C :    0.308073
  28 C :   -0.298876
  29 C :   -0.172805
  30 N :    0.182948
  31 C :   -0.197050
  32 N :    0.189963
  33 C :   -0.040759
  34 C :   -0.106629
  35 S :    0.177156
  36 C :    0.150618
  37 C :   -0.066218
  38 C :   -0.071263
  39 C :    0.157691
  40 C :   -0.037523
  41 C :   -0.035995
  42 N :   -0.014691
  43 C :   -0.161197
  44 C :   -0.158215
  45 N :   -0.013632
  46 C :    0.127871
  47 C :    0.131337
  48 C :   -0.108772
  49 C :   -0.045364
  50 C :    0.041735
  51 C :   -0.095285
  52 S :    0.176894
  53 C :   -0.071332
  54 C :    0.024261
  55 C :    0.304995
  56 C :   -0.295523
  57 C :   -0.193295
  58 N :    0.183213
  59 C :   -0.174414
  60 N :    0.189846
  61 C :   -0.003381
  62 C :   -0.078869
  63 S :    0.208325
  64 C :    0.048257
  65 C :   -0.148848
  66 C :    0.147109
  67 O :   -0.125264
  68 C :    0.009652
  69 C :   -0.033614
  70 C :   -0.070124
  71 C :   -0.062698
  72 C :   -0.036249
  73 C :    0.033408
  74 C :    0.245840
  75 C :   -0.311896
  76 C :   -0.212249
  77 N :    0.181938
  78 C :   -0.173798
  79 N :    0.170157
  80 C :   -0.173729
  81 N :    0.203282
  82 C :   -0.171845
  83 N :    0.197739
  84 H :    0.021068
  85 H :    0.014721
  86 H :    0.020237
  87 H :    0.031785
  88 H :    0.020054
  89 H :   -0.005886
  90 H :   -0.005092
  91 H :    0.030506
  92 H :    0.033688
  93 H :    0.027984
  94 H :    0.031380
  95 H :    0.033542
  96 H :    0.026937
  97 H :    0.021055
  98 H :    0.024212
  99 H :    0.037687
 100 H :    0.019030
 101 H :    0.022445
Sum of atomic charges:   -0.0000000

LOEWDIN ATOMIC CHARGES
----------------------
   0 C :    0.004345
   1 C :    0.034554
   2 C :   -0.023167
   3 C :   -0.031767
   4 N :   -0.009506
   5 C :   -0.028864
   6 C :   -0.032329
   7 N :   -0.013083
   8 C :    0.047381
   9 C :   -0.029572
  10 C :    0.084019
  11 O :   -0.165862
  12 C :   -0.121069
  13 C :    0.069252
  14 C :   -0.125947
  15 C :   -0.022047
  16 N :   -0.035170
  17 C :   -0.023023
  18 N :   -0.034115
  19 C :    0.062747
  20 C :   -0.185909
  21 C :    0.020163
  22 C :   -0.077187
  23 C :   -0.155579
  24 S :    0.548020
  25 C :   -0.191163
  26 C :   -0.053480
  27 C :    0.079198
  28 C :   -0.099268
  29 C :   -0.003819
  30 N :   -0.027650
  31 C :   -0.021229
  32 N :   -0.020977
  33 C :   -0.021425
  34 C :   -0.138804
  35 S :    0.482971
  36 C :   -0.036406
  37 C :   -0.018689
  38 C :   -0.018649
  39 C :   -0.037050
  40 C :   -0.000047
  41 C :   -0.000291
  42 N :   -0.038386
  43 C :    0.014887
  44 C :    0.015267
  45 N :   -0.038931
  46 C :   -0.054318
  47 C :   -0.053957
  48 C :   -0.138182
  49 C :   -0.020984
  50 C :   -0.052555
  51 C :   -0.192662
  52 S :    0.483610
  53 C :   -0.140104
  54 C :   -0.076096
  55 C :    0.080715
  56 C :   -0.096254
  57 C :   -0.018700
  58 N :   -0.023465
  59 C :   -0.003910
  60 N :   -0.024778
  61 C :    0.023509
  62 C :   -0.183312
  63 S :    0.515561
  64 C :    0.060784
  65 C :   -0.114627
  66 C :    0.082789
  67 O :   -0.128598
  68 C :   -0.029872
  69 C :    0.049319
  70 C :   -0.028984
  71 C :   -0.023061
  72 C :    0.030647
  73 C :    0.004565
  74 C :    0.054875
  75 C :   -0.135185
  76 C :   -0.039841
  77 N :   -0.035800
  78 C :   -0.024901
  79 N :   -0.034988
  80 C :   -0.031751
  81 N :   -0.010446
  82 C :   -0.032315
  83 N :   -0.012752
  84 H :    0.052767
  85 H :    0.053441
  86 H :    0.054954
  87 H :    0.049688
  88 H :    0.037399
  89 H :    0.025086
  90 H :    0.025011
  91 H :    0.042367
  92 H :    0.037595
  93 H :    0.041428
  94 H :    0.042801
  95 H :    0.038050
  96 H :    0.040915
  97 H :    0.037542
  98 H :    0.049258
  99 H :    0.058022
 100 H :    0.055167
 101 H :    0.052193

  Mayer bond orders larger than 0.100000
B(  0-C ,  1-C ) :   1.3639 B(  0-C ,  9-C ) :   1.3367 B(  0-C , 13-C ) :   0.9516
B(  1-C ,  2-C ) :   1.3863 B(  1-C , 84-H ) :   0.9861 B(  2-C ,  3-C ) :   1.0877
B(  2-C ,  5-C ) :   1.4087 B(  3-C ,  4-N ) :   3.0432 B(  5-C ,  6-C ) :   1.0855
B(  5-C ,  8-C ) :   1.3587 B(  6-C ,  7-N ) :   3.0457 B(  8-C ,  9-C ) :   1.3636
B(  8-C , 85-H ) :   1.0159 B(  9-C , 10-C ) :   0.9430 B( 10-C , 11-O ) :   2.1254
B( 10-C , 12-C ) :   0.9944 B( 12-C , 13-C ) :   1.0926 B( 12-C , 19-C ) :   1.4520
B( 13-C , 14-C ) :   1.6423 B( 14-C , 15-C ) :   1.1475 B( 14-C , 17-C ) :   1.1430
B( 15-C , 16-N ) :   2.9594 B( 17-C , 18-N ) :   2.9636 B( 19-C , 20-C ) :   1.3065
B( 19-C , 86-H ) :   0.9396 B( 20-C , 21-C ) :   1.3036 B( 20-C , 24-S ) :   1.0566
B( 21-C , 22-C ) :   1.3528 B( 21-C , 87-H ) :   1.0075 B( 22-C , 23-C ) :   1.3364
B( 22-C , 27-C ) :   0.9811 B( 23-C , 24-S ) :   1.1403 B( 23-C , 25-C ) :   1.2095
B( 25-C , 26-C ) :   1.4151 B( 25-C , 35-S ) :   1.1166 B( 26-C , 27-C ) :   1.0041
B( 26-C , 33-C ) :   1.2336 B( 27-C , 28-C ) :   1.7152 B( 28-C , 29-C ) :   1.1421
B( 28-C , 31-C ) :   1.1317 B( 29-C , 30-N ) :   2.9697 B( 31-C , 32-N ) :   2.9970
B( 33-C , 34-C ) :   1.4758 B( 33-C , 88-H ) :   0.9824 B( 34-C , 35-S ) :   1.1084
B( 34-C , 36-C ) :   1.1050 B( 36-C , 37-C ) :   1.3804 B( 36-C , 39-C ) :   0.1211
B( 36-C , 41-C ) :   1.2199 B( 37-C , 38-C ) :   1.3163 B( 37-C , 89-H ) :   0.9875
B( 38-C , 39-C ) :   1.3753 B( 38-C , 90-H ) :   0.9882 B( 39-C , 40-C ) :   1.2193
B( 39-C , 48-C ) :   1.1094 B( 40-C , 41-C ) :   1.2678 B( 40-C , 45-N ) :   1.4373
B( 41-C , 42-N ) :   1.4384 B( 42-N , 43-C ) :   1.6673 B( 43-C , 44-C ) :   1.1557
B( 43-C , 47-C ) :   1.1000 B( 44-C , 45-N ) :   1.6671 B( 44-C , 46-C ) :   1.0991
B( 46-C , 91-H ) :   0.9319 B( 46-C , 92-H ) :   0.9301 B( 46-C , 93-H ) :   0.9336
B( 47-C , 94-H ) :   0.9315 B( 47-C , 95-H ) :   0.9297 B( 47-C , 96-H ) :   0.9339
B( 48-C , 49-C ) :   1.4715 B( 48-C , 52-S ) :   1.1099 B( 49-C , 50-C ) :   1.2374
B( 49-C , 97-H ) :   0.9812 B( 50-C , 51-C ) :   1.4166 B( 50-C , 55-C ) :   1.0003
B( 51-C , 52-S ) :   1.1136 B( 51-C , 53-C ) :   1.2182 B( 53-C , 54-C ) :   1.3715
B( 53-C , 63-S ) :   1.1754 B( 54-C , 55-C ) :   0.9871 B( 54-C , 61-C ) :   1.3279
B( 55-C , 56-C ) :   1.7182 B( 56-C , 57-C ) :   1.1302 B( 56-C , 59-C ) :   1.1425
B( 57-C , 58-N ) :   2.9947 B( 59-C , 60-N ) :   2.9740 B( 61-C , 62-C ) :   1.3628
B( 61-C , 98-H ) :   1.0016 B( 62-C , 63-S ) :   1.0656 B( 62-C , 64-C ) :   1.2032
B( 64-C , 65-C ) :   1.5761 B( 64-C , 99-H ) :   0.9454 B( 65-C , 66-C ) :   0.9562
B( 65-C , 74-C ) :   1.0534 B( 66-C , 67-O ) :   2.2787 B( 66-C , 68-C ) :   0.8989
B( 68-C , 69-C ) :   1.3747 B( 68-C , 73-C ) :   1.3370 B( 69-C , 70-C ) :   1.3633
B( 69-C ,100-H ) :   1.0137 B( 70-C , 71-C ) :   1.4065 B( 70-C , 82-C ) :   1.0867
B( 71-C , 72-C ) :   1.3841 B( 71-C , 80-C ) :   1.0862 B( 72-C , 73-C ) :   1.3665
B( 72-C ,101-H ) :   0.9903 B( 73-C , 74-C ) :   0.9787 B( 74-C , 75-C ) :   1.6579
B( 75-C , 76-C ) :   1.1544 B( 75-C , 78-C ) :   1.1319 B( 76-C , 77-N ) :   3.0216
B( 78-C , 79-N ) :   2.9864 B( 80-C , 81-N ) :   3.0442 B( 82-C , 83-N ) :   3.0447

-----------------------------------------------------------------------------
         ABSORPTION SPECTRUM VIA TRANSITION ELECTRIC DIPOLE MOMENTS
-----------------------------------------------------------------------------
State   Energy  Wavelength   fosc         T2         TX        TY        TZ
        (cm-1)    (nm)                  (au**2)     (au)      (au)      (au)
-----------------------------------------------------------------------------
   0   12683.4    788.4   0.794762092  20.62898   2.51778   3.53089  -1.35004
   1   14220.1    703.2   0.192591451   4.45872   1.27788   1.46000   0.83315
   2   18839.5    530.8   0.961102960  16.79484  -2.04202  -3.07554   1.77934
   3   20084.6    497.9   0.854414934  14.00492  -2.24744  -2.33767  -1.86795
   4   21554.9    463.9   0.016931632   0.25860  -0.29290  -0.13069  -0.39463
   5   22321.8    448.0   0.116433060   1.71721  -0.97599  -0.80392  -0.34405
   6   23409.3    427.2   0.159492412   2.24299  -0.30903  -0.04784  -1.46465
   7   24061.7    415.6   0.276826814   3.78755   0.95427   1.07357  -1.31315
   8   26042.8    384.0   0.047658565   0.60246   0.03862   0.77496   0.02031
   9   26652.2    375.2   0.001003735   0.01240   0.10912  -0.02066  -0.00806
  10   27539.2    363.1   0.013886709   0.16601  -0.12256  -0.32771   0.20878
  11   27721.1    360.7   0.054581299   0.64820  -0.76849  -0.23989   0.00927
  12   28456.5    351.4   0.070620261   0.81700   0.38575   0.79955  -0.17003
  13   29055.0    344.2   0.026367981   0.29877  -0.37415  -0.20871  -0.33944
  14   29357.9    340.6   0.160174386   1.79615   0.29343   0.46141   1.22358
  15   29496.6    339.0   0.025524604   0.28488  -0.18530   0.28295   0.41289
  16   29737.5    336.3   0.075202004   0.83253   0.00514   0.12131   0.90432
  17   29960.8    333.8   0.002182108   0.02398   0.04828   0.13333   0.06220
  18   30165.5    331.5   0.034293547   0.37426  -0.16655  -0.56638   0.16044
  19   30312.0    329.9   0.353274789   3.83684   0.14745  -0.03893   1.95284
  20   30607.3    326.7   0.005904210   0.06351   0.02950  -0.15193   0.19888
  21   31091.2    321.6   0.045785237   0.48480  -0.67675   0.16278   0.01781
  22   31263.1    319.9   0.110304536   1.16155  -0.32091  -1.02660   0.06817
  23   31411.2    318.4   0.006221139   0.06520   0.18181   0.11980  -0.13340
  24   31715.0    315.3   0.085292227   0.88536   0.52260   0.47205  -0.62404
  25   31856.7    313.9   0.019311278   0.19957  -0.10754   0.37192  -0.22289
  26   31996.3    312.5   0.100428729   1.03332  -0.32081  -0.70671   0.65647
  27   32522.1    307.5   0.070936561   0.71807  -0.79424  -0.03851   0.29288
  28   32572.8    307.0   0.147800960   1.49382   1.05001   0.51295  -0.35802
  29   32897.6    304.0   0.348388854   3.48639   0.18382   0.01792   1.85803
  30   33281.6    300.5   0.178562799   1.76629   0.94405   0.82587   0.43933
  31   33752.5    296.3   0.296920844   2.89608  -0.26565   0.32046   1.65010
  32   34036.9    293.8   0.066283186   0.64110   0.38362   0.54683   0.44149
  33   34337.8    291.2   0.028696957   0.27513   0.18292   0.47882  -0.11139
  34   34795.8    287.4   0.623741356   5.90138   0.80680  -0.31797   2.26922
  35   34930.3    286.3   0.313660953   2.95620  -0.97075   0.13894  -1.41228
  36   35043.1    285.4   0.429083558   4.03102   1.52428   0.28021  -1.27635
  37   35211.6    284.0   0.045848923   0.42867   0.34255   0.30642   0.46629
  38   35498.7    281.7   0.023229937   0.21543   0.13320   0.12286  -0.42731
  39   35789.7    279.4   0.304392101   2.79996  -0.92482  -1.30033   0.50378
  40   36164.9    276.5   0.118176486   1.07577   0.63069   0.71242  -0.41286
  41   36247.9    275.9   0.007105678   0.06454  -0.09443  -0.22496   0.07081
  42   36700.6    272.5   0.051057449   0.45800   0.61844  -0.16875  -0.21690
  43   36788.1    271.8   0.155681821   1.39318   0.26521   0.96376  -0.62770
  44   36955.7    270.6   0.006648053   0.05922  -0.11277  -0.08542   0.19801
  45   36981.9    270.4   0.228701212   2.03589  -1.02074  -0.89419  -0.44092
  46   37048.9    269.9   0.031481803   0.27974  -0.14265  -0.34557   0.37414
  47   37318.9    268.0   0.039119652   0.34510   0.41135  -0.07881   0.41192
  48   37548.9    266.3   0.008060779   0.07067   0.20312  -0.17144   0.00472
  49   37865.8    264.1   0.038991337   0.33900  -0.04416  -0.57643  -0.06914
  50   38108.5    262.4   0.053930144   0.46589  -0.35565  -0.13434  -0.56688
  51   38239.8    261.5   0.021678325   0.18663  -0.16908  -0.05543  -0.39366
  52   38393.9    260.5   0.009724529   0.08338   0.26324  -0.01806   0.11732
  53   38460.7    260.0   0.150045111   1.28434  -0.48475  -0.92869   0.43231
  54   38868.9    257.3   0.057573489   0.48764   0.56786   0.40637   0.00530
  55   39078.4    255.9   0.026616470   0.22423  -0.01127  -0.39788   0.25649
  56   39284.6    254.6   0.004513186   0.03782   0.19073  -0.00583   0.03752
  57   39398.1    253.8   0.053184378   0.44441  -0.09713  -0.18686   0.63250
  58   39505.7    253.1   0.035684160   0.29737   0.10383   0.08638   0.52832
  59   39571.9    252.7   0.014869342   0.12370   0.02648   0.08674  -0.33982
  60   39801.4    251.2   0.029707785   0.24572  -0.01373   0.01378   0.49532
  61   39929.3    250.4   0.033891508   0.27943   0.22375   0.11692   0.46443
  62   40301.7    248.1   0.020416819   0.16678  -0.24310  -0.15296   0.29032

FINAL SINGLE POINT ENERGY     -4954.384688905381

DIPOLE MOMENT
-------------
                                X             Y             Z
Electronic contribution:      7.45195       5.44960      33.37072
Nuclear contribution   :     -9.25658      -6.65432     -36.16926
                        -----------------------------------------
Total Dipole Moment    :     -1.80463      -1.20472      -2.79855
                        -----------------------------------------
Magnitude (a.u.)       :      3.54117
Magnitude (Debye)      :      9.00094

Rotational constants in cm-1:     0.000958     0.000178     0.000153
Rotational constants in MHz :    28.718358     5.332390     4.599130

                             ****ORCA TERMINATED NORMALLY****
TOTAL RUN TIME: 0 days 0 hours 12 minutes 5 seconds 104 msec
