                         Program Version 4.2.0 -  RELEASE  -
|  1> # ORCA input file
|  2> # SCF done       -189.192354541319          0.000359049035
|  3> ! CAM-B3LYP def2-SVP def2/J RIJCOSX Grid4 TightSCF
|  4> %maxcore 5000
|  5> %tddft
|  6>     Mode sTDDFT
|  7>     Ethresh 5.0
|  8>     maxcore 5000
|  9> end
| 10>
| 11> %pal
| 12>   nprocs 6
| 13>   end
| 14> * xyz 0 1
| 15>    C       -1.80935         0.60120        -1.65335
| 16>    C       -1.31468         1.86790        -1.91691
| 17>    C       -0.95212         2.67754        -0.83861
| 18>    C       -0.44155         3.97605        -1.08688
| 19>    N       -0.02886         5.02323        -1.29548
| 20>    C       -1.08236         2.22933         0.49004
| 21>    C       -0.70762         3.07640         1.56078
| 22>    N       -0.40732         3.74722         2.43878
| 23>    C       -1.57634         0.95044         0.75067
| 24>    C       -1.92924         0.16121        -0.32306
| 25>    C       -2.46293        -1.21986        -0.29772
| 26>    O       -2.65264        -1.87971         0.70006
| 27>    C       -2.63834        -1.60226        -1.71572
| 28>    C       -2.27881        -0.46303        -2.54119
| 29>    C       -2.42062        -0.34352        -3.89889
| 30>    C       -2.06877         0.81036        -4.63318
| 31>    N       -1.79829         1.71333        -5.28722
| 32>    C       -2.96383        -1.32020        -4.76190
| 33>    N       -3.41012        -2.05062        -5.52733
| 34>    C       -2.96139        -2.83816        -2.21700
| 35>    C       -3.44401        -3.99186        -1.57785
| 36>    C       -3.92276        -4.22559        -0.29143
| 37>    C       -4.37893        -5.52330        -0.13015
| 38>    C       -4.24461        -6.31202        -1.29921
| 39>    S       -3.57397        -5.44134        -2.59254
| 40>    C       -4.73773        -7.60693        -1.02450
| 41>    C       -5.19274        -7.64495         0.30684
| 42>    C       -4.98284        -6.33724         0.91212
| 43>    C       -5.30583        -5.96147         2.18132
| 44>    C       -5.88871        -6.86500         3.09708
| 45>    N       -6.35942        -7.60187         3.83803
| 46>    C       -5.10527        -4.65161         2.67121
| 47>    N       -4.97108        -3.59279         3.08778
| 48>    C       -5.72592        -8.88089         0.66213
| 49>    C       -5.67695        -9.78658        -0.38488
| 50>    S       -4.95706        -9.10008        -1.83039
| 51>    C       -6.15211       -11.12192        -0.38242
| 52>    C       -6.07242       -12.06141        -1.39318
| 53>    C       -6.66665       -13.27526        -1.06454
| 54>    C       -7.21854       -13.28884         0.20273
| 55>    S       -6.98172       -11.76396         1.00587
| 56>    C       -7.92042       -14.34064         0.84337
| 57>    C       -8.51317       -14.30946         2.09463
| 58>    C       -9.14625       -15.51125         2.40011
| 59>    C       -9.02994       -16.47003         1.37607
| 60>    S       -8.14168       -15.88468         0.03810
| 61>    C       -9.70489       -17.64794         1.77574
| 62>    C      -10.25785       -17.42711         3.05657
| 63>    C       -9.91335       -16.08610         3.49418
| 64>    C      -10.22157       -15.51462         4.69300
| 65>    C      -10.95516       -16.22252         5.66917
| 66>    N      -11.55467       -16.81956         6.44286
| 67>    C       -9.82974       -14.19960         5.02248
| 68>    N       -9.51512       -13.12780         5.27844
| 69>    C      -10.93337       -18.53032         3.55223
| 70>    C      -10.90147       -19.60732         2.67385
| 71>    S      -10.03779       -19.20884         1.18928
| 72>    C      -11.49338       -20.87664         2.80921
| 73>    C      -11.98608       -21.47792         3.93245
| 74>    C      -12.95473       -22.59506         3.77026
| 75>    O      -13.21027       -23.19436         2.75341
| 76>    C      -13.57187       -22.76775         5.10584
| 77>    C      -14.62343       -23.58128         5.47036
| 78>    C      -15.06304       -23.53344         6.79472
| 79>    C      -14.44402       -22.66705         7.71627
| 80>    C      -13.37145       -21.85607         7.33941
| 81>    C      -12.93239       -21.91689         6.02858
| 82>    C      -11.83800       -21.22039         5.34788
| 83>    C      -10.75299       -20.67667         5.98378
| 84>    C       -9.59908       -20.22325         5.31434
| 85>    N       -8.63482       -19.86396         4.80590
| 86>    C      -10.62072       -20.59756         7.38729
| 87>    N      -10.46453       -20.51993         8.52064
| 88>    C      -14.92299       -22.61523         9.04923
| 89>    N      -15.30957       -22.56788        10.12554
| 90>    C      -16.14178       -24.35156         7.20938
| 91>    N      -17.01663       -25.02003         7.52369
| 92>    H       -1.19628         2.24698        -2.91924
| 93>    H       -1.68186         0.58741         1.76175
| 94>    H       -2.82925        -2.96726        -3.28493
| 95>    H       -3.92245        -3.46971         0.47269
| 96>    H       -6.13466        -9.13056         1.62474
| 97>    H       -5.59533       -11.85932        -2.33574
| 98>    H       -6.70561       -14.12522        -1.72248
| 99>    H       -8.47844       -13.44447         2.73253
|100>    H      -11.47129       -18.54850         4.48213
|101>    H      -11.65353       -21.43373         1.89098
|102>    H      -15.09519       -24.23410         4.75179
|103>    H      -12.92476       -21.19682         8.06698
|104> *
|105>
|106>                          ****END OF INPUT****

CARTESIAN COORDINATES (ANGSTROEM)
---------------------------------
  C     -1.809350    0.601200   -1.653350
  C     -1.314680    1.867900   -1.916910
  C     -0.952120    2.677540   -0.838610
  C     -0.441550    3.976050   -1.086880
  N     -0.028860    5.023230   -1.295480
  C     -1.082360    2.229330    0.490040
  C     -0.707620    3.076400    1.560780
  N     -0.407320    3.747220    2.438780
  C     -1.576340    0.950440    0.750670
  C     -1.929240    0.161210   -0.323060
  C     -2.462930   -1.219860   -0.297720
  O     -2.652640   -1.879710    0.700060
  C     -2.638340   -1.602260   -1.715720
  C     -2.278810   -0.463030   -2.541190
  C     -2.420620   -0.343520   -3.898890
  C     -2.068770    0.810360   -4.633180
  N     -1.798290    1.713330   -5.287220
  C     -2.963830   -1.320200   -4.761900
  N     -3.410120   -2.050620   -5.527330
  C     -2.961390   -2.838160   -2.217000
  C     -3.444010   -3.991860   -1.577850
  C     -3.922760   -4.225590   -0.291430
  C     -4.378930   -5.523300   -0.130150
  C     -4.244610   -6.312020   -1.299210
  S     -3.573970   -5.441340   -2.592540
  C     -4.737730   -7.606930   -1.024500
  C     -5.192740   -7.644950    0.306840
  C     -4.982840   -6.337240    0.912120
  C     -5.305830   -5.961470    2.181320
  C     -5.888710   -6.865000    3.097080
  N     -6.359420   -7.601870    3.838030
  C     -5.105270   -4.651610    2.671210
  N     -4.971080   -3.592790    3.087780
  C     -5.725920   -8.880890    0.662130
  C     -5.676950   -9.786580   -0.384880
  S     -4.957060   -9.100080   -1.830390
  C     -6.152110  -11.121920   -0.382420
  C     -6.072420  -12.061410   -1.393180
  C     -6.666650  -13.275260   -1.064540
  C     -7.218540  -13.288840    0.202730
  S     -6.981720  -11.763960    1.005870
  C     -7.920420  -14.340640    0.843370
  C     -8.513170  -14.309460    2.094630
  C     -9.146250  -15.511250    2.400110
  C     -9.029940  -16.470030    1.376070
  S     -8.141680  -15.884680    0.038100
  C     -9.704890  -17.647940    1.775740
  C    -10.257850  -17.427110    3.056570
  C     -9.913350  -16.086100    3.494180
  C    -10.221570  -15.514620    4.693000
  C    -10.955160  -16.222520    5.669170
  N    -11.554670  -16.819560    6.442860
  C     -9.829740  -14.199600    5.022480
  N     -9.515120  -13.127800    5.278440
  C    -10.933370  -18.530320    3.552230
  C    -10.901470  -19.607320    2.673850
  S    -10.037790  -19.208840    1.189280
  C    -11.493380  -20.876640    2.809210
  C    -11.986080  -21.477920    3.932450
  C    -12.954730  -22.595060    3.770260
  O    -13.210270  -23.194360    2.753410
  C    -13.571870  -22.767750    5.105840
  C    -14.623430  -23.581280    5.470360
  C    -15.063040  -23.533440    6.794720
  C    -14.444020  -22.667050    7.716270
  C    -13.371450  -21.856070    7.339410
  C    -12.932390  -21.916890    6.028580
  C    -11.838000  -21.220390    5.347880
  C    -10.752990  -20.676670    5.983780
  C     -9.599080  -20.223250    5.314340
  N     -8.634820  -19.863960    4.805900
  C    -10.620720  -20.597560    7.387290
  N    -10.464530  -20.519930    8.520640
  C    -14.922990  -22.615230    9.049230
  N    -15.309570  -22.567880   10.125540
  C    -16.141780  -24.351560    7.209380
  N    -17.016630  -25.020030    7.523690
  H     -1.196280    2.246980   -2.919240
  H     -1.681860    0.587410    1.761750
  H     -2.829250   -2.967260   -3.284930
  H     -3.922450   -3.469710    0.472690
  H     -6.134660   -9.130560    1.624740
  H     -5.595330  -11.859320   -2.335740
  H     -6.705610  -14.125220   -1.722480
  H     -8.478440  -13.444470    2.732530
  H    -11.471290  -18.548500    4.482130
  H    -11.653530  -21.433730    1.890980
  H    -15.095190  -24.234100    4.751790
  H    -12.924760  -21.196820    8.066980

 Total Charge           Charge          ....    0
 Multiplicity           Mult            ....    1
 Number of Electrons    NEL             ....  540
 Basis Dimension        Dim             .... 1158

ORBITAL ENERGIES
----------------

  NO   OCC          E(Eh)            E(eV)
   0   2.0000     -89.015363     -2422.2312
   1   2.0000     -89.014856     -2422.2174
   2   2.0000     -89.014575     -2422.2097
   3   2.0000     -89.014031     -2422.1949
   4   2.0000     -88.996106     -2421.7072
   5   2.0000     -19.243135      -523.6323
   6   2.0000     -19.241248      -523.5810
   7   2.0000     -14.450021      -393.2051
   8   2.0000     -14.447517      -393.1369
   9   2.0000     -14.447246      -393.1296
  10   2.0000     -14.444544      -393.0560
  11   2.0000     -14.439688      -392.9239
  12   2.0000     -14.438293      -392.8859
  13   2.0000     -14.433897      -392.7663
  14   2.0000     -14.433610      -392.7585
  15   2.0000     -14.430691      -392.6791
  16   2.0000     -14.429692      -392.6519
  17   2.0000     -14.429549      -392.6480
  18   2.0000     -14.428687      -392.6245
  19   2.0000     -10.394507      -282.8489
  20   2.0000     -10.392643      -282.7982
  21   2.0000     -10.386028      -282.6182
  22   2.0000     -10.385646      -282.6078
  23   2.0000     -10.372186      -282.2415
  24   2.0000     -10.370995      -282.2091
  25   2.0000     -10.369403      -282.1658
  26   2.0000     -10.366942      -282.0988
  27   2.0000     -10.366864      -282.0967
  28   2.0000     -10.366780      -282.0944
  29   2.0000     -10.364756      -282.0394
  30   2.0000     -10.364670      -282.0370
  31   2.0000     -10.363214      -281.9974
  32   2.0000     -10.362210      -281.9701
  33   2.0000     -10.361676      -281.9555
  34   2.0000     -10.361185      -281.9422
  35   2.0000     -10.357708      -281.8476
  36   2.0000     -10.355898      -281.7983
  37   2.0000     -10.354905      -281.7713
  38   2.0000     -10.354352      -281.7563
  39   2.0000     -10.349834      -281.6333
  40   2.0000     -10.349066      -281.6124
  41   2.0000     -10.347387      -281.5667
  42   2.0000     -10.347111      -281.5592
  43   2.0000     -10.346914      -281.5538
  44   2.0000     -10.346776      -281.5501
  45   2.0000     -10.346625      -281.5460
  46   2.0000     -10.346571      -281.5445
  47   2.0000     -10.346555      -281.5441
  48   2.0000     -10.343930      -281.4726
  49   2.0000     -10.343080      -281.4495
  50   2.0000     -10.341920      -281.4180
  51   2.0000     -10.340297      -281.3738
  52   2.0000     -10.339839      -281.3613
  53   2.0000     -10.337622      -281.3010
  54   2.0000     -10.336965      -281.2831
  55   2.0000     -10.335777      -281.2508
  56   2.0000     -10.335752      -281.2501
  57   2.0000     -10.335380      -281.2400
  58   2.0000     -10.334805      -281.2244
  59   2.0000     -10.333144      -281.1791
  60   2.0000     -10.332974      -281.1745
  61   2.0000     -10.331137      -281.1245
  62   2.0000     -10.329002      -281.0664
  63   2.0000     -10.327230      -281.0182
  64   2.0000     -10.326847      -281.0078
  65   2.0000     -10.326818      -281.0070
  66   2.0000     -10.326519      -280.9989
  67   2.0000     -10.326345      -280.9941
  68   2.0000     -10.326116      -280.9879
  69   2.0000     -10.325738      -280.9776
  70   2.0000     -10.324983      -280.9571
  71   2.0000     -10.324900      -280.9548
  72   2.0000     -10.324742      -280.9505
  73   2.0000     -10.321481      -280.8618
  74   2.0000     -10.321357      -280.8584
  75   2.0000     -10.315870      -280.7091
  76   2.0000     -10.315245      -280.6921
  77   2.0000      -8.110028      -220.6851
  78   2.0000      -8.109398      -220.6679
  79   2.0000      -8.109103      -220.6599
  80   2.0000      -8.108841      -220.6528
  81   2.0000      -8.091344      -220.1767
  82   2.0000      -6.079215      -165.4238
  83   2.0000      -6.078716      -165.4103
  84   2.0000      -6.078425      -165.4023
  85   2.0000      -6.077923      -165.3887
  86   2.0000      -6.075024      -165.3098
  87   2.0000      -6.074538      -165.2966
  88   2.0000      -6.074231      -165.2882
  89   2.0000      -6.073827      -165.2772
  90   2.0000      -6.072495      -165.2410
  91   2.0000      -6.071599      -165.2166
  92   2.0000      -6.071353      -165.2099
  93   2.0000      -6.071327      -165.2092
  94   2.0000      -6.060744      -164.9212
  95   2.0000      -6.056605      -164.8086
  96   2.0000      -6.053227      -164.7167
  97   2.0000      -1.159108       -31.5409
  98   2.0000      -1.157105       -31.4864
  99   2.0000      -1.069689       -29.1077
 100   2.0000      -1.068997       -29.0889
 101   2.0000      -1.047527       -28.5047
 102   2.0000      -1.046112       -28.4662
 103   2.0000      -1.041500       -28.3407
 104   2.0000      -1.039164       -28.2771
 105   2.0000      -1.035464       -28.1764
 106   2.0000      -1.032509       -28.0960
 107   2.0000      -1.032016       -28.0826
 108   2.0000      -1.026415       -27.9302
 109   2.0000      -1.024155       -27.8687
 110   2.0000      -1.022188       -27.8152
 111   2.0000      -1.016048       -27.6481
 112   2.0000      -1.015189       -27.6247
 113   2.0000      -1.014065       -27.5941
 114   2.0000      -1.012883       -27.5620
 115   2.0000      -1.010485       -27.4967
 116   2.0000      -1.009330       -27.4653
 117   2.0000      -1.008425       -27.4406
 118   2.0000      -0.986117       -26.8336
 119   2.0000      -0.983486       -26.7620
 120   2.0000      -0.979607       -26.6565
 121   2.0000      -0.976870       -26.5820
 122   2.0000      -0.944667       -25.7057
 123   2.0000      -0.940096       -25.5813
 124   2.0000      -0.931042       -25.3350
 125   2.0000      -0.929749       -25.2998
 126   2.0000      -0.917600       -24.9692
 127   2.0000      -0.911916       -24.8145
 128   2.0000      -0.907267       -24.6880
 129   2.0000      -0.905734       -24.6463
 130   2.0000      -0.898657       -24.4537
 131   2.0000      -0.894176       -24.3318
 132   2.0000      -0.883682       -24.0462
 133   2.0000      -0.881783       -23.9945
 134   2.0000      -0.877527       -23.8787
 135   2.0000      -0.868182       -23.6244
 136   2.0000      -0.853897       -23.2357
 137   2.0000      -0.847987       -23.0749
 138   2.0000      -0.819018       -22.2866
 139   2.0000      -0.813231       -22.1291
 140   2.0000      -0.812368       -22.1057
 141   2.0000      -0.800970       -21.7955
 142   2.0000      -0.799235       -21.7483
 143   2.0000      -0.790766       -21.5178
 144   2.0000      -0.768951       -20.9242
 145   2.0000      -0.759617       -20.6702
 146   2.0000      -0.755305       -20.5529
 147   2.0000      -0.750010       -20.4088
 148   2.0000      -0.735313       -20.0089
 149   2.0000      -0.721862       -19.6429
 150   2.0000      -0.718869       -19.5614
 151   2.0000      -0.716672       -19.5016
 152   2.0000      -0.714648       -19.4466
 153   2.0000      -0.709998       -19.3200
 154   2.0000      -0.704951       -19.1827
 155   2.0000      -0.702458       -19.1148
 156   2.0000      -0.691618       -18.8199
 157   2.0000      -0.689672       -18.7669
 158   2.0000      -0.675957       -18.3937
 159   2.0000      -0.669874       -18.2282
 160   2.0000      -0.662570       -18.0295
 161   2.0000      -0.661243       -17.9933
 162   2.0000      -0.657398       -17.8887
 163   2.0000      -0.655418       -17.8348
 164   2.0000      -0.651654       -17.7324
 165   2.0000      -0.646236       -17.5850
 166   2.0000      -0.641691       -17.4613
 167   2.0000      -0.638301       -17.3691
 168   2.0000      -0.629543       -17.1307
 169   2.0000      -0.623118       -16.9559
 170   2.0000      -0.616080       -16.7644
 171   2.0000      -0.613771       -16.7015
 172   2.0000      -0.609612       -16.5884
 173   2.0000      -0.603309       -16.4169
 174   2.0000      -0.599457       -16.3121
 175   2.0000      -0.582617       -15.8538
 176   2.0000      -0.575658       -15.6645
 177   2.0000      -0.572430       -15.5766
 178   2.0000      -0.571749       -15.5581
 179   2.0000      -0.571189       -15.5428
 180   2.0000      -0.570390       -15.5211
 181   2.0000      -0.566898       -15.4261
 182   2.0000      -0.566600       -15.4180
 183   2.0000      -0.565165       -15.3789
 184   2.0000      -0.563848       -15.3431
 185   2.0000      -0.552350       -15.0302
 186   2.0000      -0.546545       -14.8722
 187   2.0000      -0.542499       -14.7621
 188   2.0000      -0.538615       -14.6565
 189   2.0000      -0.537177       -14.6173
 190   2.0000      -0.535582       -14.5739
 191   2.0000      -0.534302       -14.5391
 192   2.0000      -0.531369       -14.4593
 193   2.0000      -0.528574       -14.3832
 194   2.0000      -0.526783       -14.3345
 195   2.0000      -0.525443       -14.2980
 196   2.0000      -0.523373       -14.2417
 197   2.0000      -0.522891       -14.2286
 198   2.0000      -0.519045       -14.1239
 199   2.0000      -0.516125       -14.0445
 200   2.0000      -0.515704       -14.0330
 201   2.0000      -0.514065       -13.9884
 202   2.0000      -0.511442       -13.9170
 203   2.0000      -0.508895       -13.8477
 204   2.0000      -0.506788       -13.7904
 205   2.0000      -0.502322       -13.6689
 206   2.0000      -0.500647       -13.6233
 207   2.0000      -0.493877       -13.4391
 208   2.0000      -0.492614       -13.4047
 209   2.0000      -0.491762       -13.3815
 210   2.0000      -0.488532       -13.2936
 211   2.0000      -0.479329       -13.0432
 212   2.0000      -0.477739       -12.9999
 213   2.0000      -0.476079       -12.9548
 214   2.0000      -0.475882       -12.9494
 215   2.0000      -0.471685       -12.8352
 216   2.0000      -0.470732       -12.8093
 217   2.0000      -0.468729       -12.7548
 218   2.0000      -0.468486       -12.7482
 219   2.0000      -0.465009       -12.6535
 220   2.0000      -0.463405       -12.6099
 221   2.0000      -0.462739       -12.5918
 222   2.0000      -0.462237       -12.5781
 223   2.0000      -0.461342       -12.5538
 224   2.0000      -0.460755       -12.5378
 225   2.0000      -0.458401       -12.4737
 226   2.0000      -0.457840       -12.4585
 227   2.0000      -0.457353       -12.4452
 228   2.0000      -0.455981       -12.4079
 229   2.0000      -0.455684       -12.3998
 230   2.0000      -0.455388       -12.3917
 231   2.0000      -0.455317       -12.3898
 232   2.0000      -0.454861       -12.3774
 233   2.0000      -0.454665       -12.3721
 234   2.0000      -0.453541       -12.3415
 235   2.0000      -0.452887       -12.3237
 236   2.0000      -0.450127       -12.2486
 237   2.0000      -0.449258       -12.2249
 238   2.0000      -0.447083       -12.1657
 239   2.0000      -0.446445       -12.1484
 240   2.0000      -0.445797       -12.1307
 241   2.0000      -0.444303       -12.0901
 242   2.0000      -0.441750       -12.0206
 243   2.0000      -0.440780       -11.9942
 244   2.0000      -0.437163       -11.8958
 245   2.0000      -0.436132       -11.8678
 246   2.0000      -0.430359       -11.7107
 247   2.0000      -0.429851       -11.6968
 248   2.0000      -0.429051       -11.6751
 249   2.0000      -0.428370       -11.6566
 250   2.0000      -0.424660       -11.5556
 251   2.0000      -0.424124       -11.5410
 252   2.0000      -0.413441       -11.2503
 253   2.0000      -0.401575       -10.9274
 254   2.0000      -0.387883       -10.5548
 255   2.0000      -0.375205       -10.2099
 256   2.0000      -0.373945       -10.1756
 257   2.0000      -0.371669       -10.1136
 258   2.0000      -0.371181       -10.1004
 259   2.0000      -0.366663        -9.9774
 260   2.0000      -0.364258        -9.9120
 261   2.0000      -0.362361        -9.8604
 262   2.0000      -0.359079        -9.7710
 263   2.0000      -0.346182        -9.4201
 264   2.0000      -0.344245        -9.3674
 265   2.0000      -0.342704        -9.3254
 266   2.0000      -0.339066        -9.2265
 267   2.0000      -0.323771        -8.8102
 268   2.0000      -0.294746        -8.0204
 269   2.0000      -0.265972        -7.2375
 270   0.0000      -0.136433        -3.7125
 271   0.0000      -0.128445        -3.4952
 272   0.0000      -0.111570        -3.0360
 273   0.0000      -0.111250        -3.0273
 274   0.0000      -0.097975        -2.6660

MULLIKEN ATOMIC CHARGES
-----------------------
   0 C :    0.049237
   1 C :   -0.044934
   2 C :   -0.061608
   3 C :   -0.174485
   4 N :    0.206027
   5 C :   -0.062563
   6 C :   -0.171798
   7 N :    0.197958
   8 C :   -0.038266
   9 C :   -0.002021
  10 C :    0.160056
  11 O :   -0.137426
  12 C :   -0.097876
  13 C :    0.309355
  14 C :   -0.340337
  15 C :   -0.185167
  16 N :    0.166391
  17 C :   -0.195747
  18 N :    0.164419
  19 C :    0.043156
  20 C :   -0.115452
  21 C :   -0.000122
  22 C :   -0.009592
  23 C :   -0.074375
  24 S :    0.212442
  25 C :   -0.109262
  26 C :    0.030451
  27 C :    0.307063
  28 C :   -0.288703
  29 C :   -0.190345
  30 N :    0.182550
  31 C :   -0.187143
  32 N :    0.198145
  33 C :   -0.064848
  34 C :   -0.022100
  35 S :    0.202114
  36 C :   -0.054337
  37 C :   -0.000788
  38 C :   -0.005470
  39 C :   -0.052367
  40 S :    0.154631
  41 C :   -0.024726
  42 C :   -0.067151
  43 C :    0.030756
  44 C :   -0.110996
  45 S :    0.201900
  46 C :   -0.065478
  47 C :   -0.006553
  48 C :    0.303092
  49 C :   -0.280002
  50 C :   -0.180165
  51 N :    0.171987
  52 C :   -0.190660
  53 N :    0.190456
  54 C :    0.000171
  55 C :   -0.113060
  56 S :    0.221441
  57 C :    0.088893
  58 C :   -0.144952
  59 C :    0.139957
  60 O :   -0.129412
  61 C :    0.014692
  62 C :   -0.033669
  63 C :   -0.066914
  64 C :   -0.064360
  65 C :   -0.030191
  66 C :    0.024426
  67 C :    0.266570
  68 C :   -0.313284
  69 C :   -0.202882
  70 N :    0.177648
  71 C :   -0.171499
  72 N :    0.177181
  73 C :   -0.174933
  74 N :    0.204741
  75 C :   -0.174478
  76 N :    0.196948
  77 H :    0.020784
  78 H :    0.019694
  79 H :    0.015927
  80 H :    0.041038
  81 H :    0.020442
  82 H :   -0.002306
  83 H :   -0.001084
  84 H :    0.022002
  85 H :    0.027307
  86 H :    0.025695
  87 H :    0.018595
  88 H :    0.029547
Sum of atomic charges:   -0.0000000

LOEWDIN ATOMIC CHARGES
----------------------
   0 C :    0.001397
   1 C :    0.033945
   2 C :   -0.023801
   3 C :   -0.031806
   4 N :   -0.010499
   5 C :   -0.027542
   6 C :   -0.031827
   7 N :   -0.012282
   8 C :    0.049645
   9 C :   -0.028378
  10 C :    0.085296
  11 O :   -0.125921
  12 C :   -0.106607
  13 C :    0.070215
  14 C :   -0.128982
  15 C :   -0.022275
  16 N :   -0.036017
  17 C :   -0.023762
  18 N :   -0.041243
  19 C :    0.049874
  20 C :   -0.179353
  21 C :    0.025243
  22 C :   -0.074483
  23 C :   -0.150867
  24 S :    0.499287
  25 C :   -0.194770
  26 C :   -0.043975
  27 C :    0.071943
  28 C :   -0.085521
  29 C :   -0.016988
  30 N :   -0.020388
  31 C :   -0.022271
  32 N :   -0.009158
  33 C :   -0.037359
  34 C :   -0.160537
  35 S :    0.485322
  36 C :   -0.184044
  37 C :   -0.049276
  38 C :   -0.052178
  39 C :   -0.180633
  40 S :    0.466948
  41 C :   -0.165228
  42 C :   -0.034217
  43 C :   -0.049007
  44 C :   -0.188443
  45 S :    0.486717
  46 C :   -0.152023
  47 C :   -0.066662
  48 C :    0.078763
  49 C :   -0.089787
  50 C :   -0.011348
  51 N :   -0.027471
  52 C :   -0.018873
  53 N :   -0.018266
  54 C :    0.015281
  55 C :   -0.184663
  56 S :    0.503077
  57 C :    0.051215
  58 C :   -0.101061
  59 C :    0.083109
  60 O :   -0.130246
  61 C :   -0.031979
  62 C :    0.049047
  63 C :   -0.029015
  64 C :   -0.021775
  65 C :    0.034324
  66 C :    0.005548
  67 C :    0.058336
  68 C :   -0.123407
  69 C :   -0.014993
  70 N :   -0.034296
  71 C :   -0.023436
  72 N :   -0.028381
  73 C :   -0.031554
  74 N :   -0.008757
  75 C :   -0.032190
  76 N :   -0.013175
  77 H :    0.052341
  78 H :    0.055485
  79 H :    0.044179
  80 H :    0.044733
  81 H :    0.039232
  82 H :    0.031092
  83 H :    0.030991
  84 H :    0.039719
  85 H :    0.043047
  86 H :    0.048336
  87 H :    0.054752
  88 H :    0.054559

  Mayer bond orders larger than 0.100000
B(  0-C ,  1-C ) :   1.3562 B(  0-C ,  9-C ) :   1.3372 B(  0-C , 13-C ) :   0.9537
B(  1-C ,  2-C ) :   1.3897 B(  1-C , 77-H ) :   0.9876 B(  2-C ,  3-C ) :   1.0872
B(  2-C ,  5-C ) :   1.4050 B(  3-C ,  4-N ) :   3.0446 B(  5-C ,  6-C ) :   1.0856
B(  5-C ,  8-C ) :   1.3562 B(  6-C ,  7-N ) :   3.0433 B(  8-C ,  9-C ) :   1.3632
B(  8-C , 78-H ) :   1.0174 B(  9-C , 10-C ) :   0.9289 B( 10-C , 11-O ) :   2.1870
B( 10-C , 12-C ) :   0.9529 B( 12-C , 13-C ) :   1.0956 B( 12-C , 19-C ) :   1.5536
B( 13-C , 14-C ) :   1.6391 B( 14-C , 15-C ) :   1.1463 B( 14-C , 17-C ) :   1.1410
B( 15-C , 16-N ) :   2.9611 B( 17-C , 18-N ) :   2.9782 B( 19-C , 20-C ) :   1.2470
B( 19-C , 79-H ) :   0.9146 B( 20-C , 21-C ) :   1.3736 B( 20-C , 24-S ) :   1.0671
B( 21-C , 22-C ) :   1.3412 B( 21-C , 80-H ) :   0.9710 B( 22-C , 23-C ) :   1.3623
B( 22-C , 27-C ) :   0.9954 B( 23-C , 24-S ) :   1.1740 B( 23-C , 25-C ) :   1.2189
B( 25-C , 26-C ) :   1.4292 B( 25-C , 35-S ) :   1.1032 B( 26-C , 27-C ) :   0.9919
B( 26-C , 33-C ) :   1.3149 B( 27-C , 28-C ) :   1.7246 B( 28-C , 29-C ) :   1.1337
B( 28-C , 31-C ) :   1.1344 B( 29-C , 30-N ) :   2.9886 B( 31-C , 32-N ) :   2.9935
B( 33-C , 34-C ) :   1.4392 B( 33-C , 81-H ) :   0.9872 B( 34-C , 35-S ) :   1.1214
B( 34-C , 36-C ) :   1.1662 B( 36-C , 37-C ) :   1.4829 B( 36-C , 39-C ) :   0.1020
B( 36-C , 40-S ) :   1.1287 B( 37-C , 38-C ) :   1.2886 B( 37-C , 82-H ) :   0.9922
B( 38-C , 39-C ) :   1.4836 B( 38-C , 83-H ) :   0.9924 B( 39-C , 40-S ) :   1.1319
B( 39-C , 41-C ) :   1.1642 B( 41-C , 42-C ) :   1.4435 B( 41-C , 45-S ) :   1.1183
B( 42-C , 43-C ) :   1.3133 B( 42-C , 84-H ) :   0.9877 B( 43-C , 44-C ) :   1.4337
B( 43-C , 48-C ) :   0.9912 B( 44-C , 45-S ) :   1.1100 B( 44-C , 46-C ) :   1.2073
B( 46-C , 47-C ) :   1.3972 B( 46-C , 56-S ) :   1.1618 B( 47-C , 48-C ) :   1.0001
B( 47-C , 54-C ) :   1.3774 B( 48-C , 49-C ) :   1.7234 B( 49-C , 50-C ) :   1.1325
B( 49-C , 52-C ) :   1.1340 B( 50-C , 51-N ) :   2.9800 B( 52-C , 53-N ) :   2.9945
B( 54-C , 55-C ) :   1.3704 B( 54-C , 85-H ) :   0.9767 B( 55-C , 56-S ) :   1.0805
B( 55-C , 57-C ) :   1.1699 B( 57-C , 58-C ) :   1.6317 B( 57-C , 86-H ) :   0.9295
B( 58-C , 59-C ) :   0.9569 B( 58-C , 67-C ) :   1.0497 B( 59-C , 60-O ) :   2.2745
B( 59-C , 61-C ) :   0.8991 B( 61-C , 62-C ) :   1.3679 B( 61-C , 66-C ) :   1.3359
B( 62-C , 63-C ) :   1.3655 B( 62-C , 87-H ) :   1.0147 B( 63-C , 64-C ) :   1.4036
B( 63-C , 75-C ) :   1.0868 B( 64-C , 65-C ) :   1.3843 B( 64-C , 73-C ) :   1.0880
B( 65-C , 66-C ) :   1.3669 B( 65-C , 88-H ) :   0.9900 B( 66-C , 67-C ) :   0.9726
B( 67-C , 68-C ) :   1.6625 B( 68-C , 69-C ) :   1.1731 B( 68-C , 71-C ) :   1.1253
B( 69-C , 70-N ) :   2.9944 B( 71-C , 72-N ) :   2.9895 B( 73-C , 74-N ) :   3.0435
B( 75-C , 76-N ) :   3.0448

-----------------------------------------------------------------------------
         ABSORPTION SPECTRUM VIA TRANSITION ELECTRIC DIPOLE MOMENTS
-----------------------------------------------------------------------------
State   Energy  Wavelength   fosc         T2         TX        TY        TZ
        (cm-1)    (nm)                  (au**2)     (au)      (au)      (au)
-----------------------------------------------------------------------------
   0   12358.3    809.2   0.951655913  25.35102  -2.02826  -4.35201   1.51565
   1   13633.0    733.5   0.057086204   1.37853  -0.33807  -1.12387   0.03397
   2   18496.5    540.6   1.277529111  22.73818  -1.71373  -4.00871   1.93172
   3   19978.1    500.5   0.433861898   7.14946  -1.03192  -2.43717   0.38057
   4   21473.6    465.7   0.016529722   0.25342  -0.12907  -0.46014  -0.15821
   5   22594.2    442.6   0.043936764   0.64019   0.47423   0.27329   0.58361
   6   23678.6    422.3   0.306288485   4.25844   0.92072   1.84654   0.03181
   7   24113.7    414.7   0.157136946   2.14531  -0.76079  -1.07638   0.63869
   8   27250.7    367.0   0.032822994   0.39653   0.38479   0.49570   0.05244
   9   27734.9    360.6   0.002383685   0.02829   0.00319   0.15993   0.05202
  10   27883.9    358.6   0.071224100   0.84091  -0.41965  -0.18737  -0.79353
  11   28461.8    351.3   0.028446269   0.32903  -0.47826  -0.04518   0.31347
  12   28786.9    347.4   0.250674662   2.86676  -0.59335  -1.49363   0.53269
  13   29656.1    337.2   0.120384235   1.33639   0.11366  -0.71596  -0.90049
  14   29947.1    333.9   0.023891031   0.26264   0.02613  -0.07725  -0.50595
  15   30293.9    330.1   0.265191751   2.88191  -0.62104   0.08297   1.57776
  16   30573.6    327.1   0.175548625   1.89028   0.18648  -0.82175  -1.08639
  17   31006.4    322.5   0.061369614   0.65159   0.25689  -0.07751  -0.76131
  18   31524.3    317.2   0.031374644   0.32765   0.51490   0.24988  -0.00936
  19   31719.0    315.3   0.060788497   0.63093  -0.23101  -0.54729  -0.52728
  20   31765.1    314.8   0.073379247   0.76050  -0.78198  -0.24504   0.29827
  21   32349.1    309.1   0.063873363   0.65003   0.34811   0.28707  -0.66816
  22   32456.4    308.1   0.163284215   1.65623   0.00326   0.79515   1.01191
  23   33026.3    302.8   0.029519795   0.29426  -0.52538  -0.10314   0.08717
  24   33192.7    301.3   0.435148740   4.31589  -1.43097  -1.42971   0.47344
  25   33377.2    299.6   0.194249708   1.91596   0.35769   1.32789   0.15721
  26   33962.5    294.4   0.115978128   1.12422   0.21589  -0.59057  -0.85373
  27   34155.9    292.8   0.238798657   2.30166  -0.24543  -0.04221   1.49655
  28   34347.9    291.1   0.053401754   0.51184  -0.14586   0.51948   0.46979
  29   34865.6    286.8   0.069063268   0.65212   0.73033   0.20479  -0.27713
  30   34981.8    285.9   0.660672067   6.21755  -0.07419  -1.20345  -2.18260
  31   35205.6    284.0   0.035529186   0.33224   0.43213   0.17014   0.34140
  32   35467.2    282.0   0.249861398   2.31925   1.23211   0.89300  -0.06102
  33   35600.2    280.9   0.121484037   1.12342  -0.70510  -0.58661  -0.53117
  34   35720.3    280.0   0.049034328   0.45192  -0.26716  -0.48939   0.37555
  35   36000.9    277.8   0.095226903   0.87081   0.56005   0.59232   0.45421
  36   36153.9    276.6   0.030001312   0.27319  -0.20001   0.04617   0.48068
  37   36519.3    273.8   0.133734091   1.20558  -0.92895  -0.57780  -0.09367
  38   36912.7    270.9   0.078188217   0.69733  -0.37485  -0.08162   0.74173
  39   37179.6    269.0   0.285083321   2.52431   0.22093   0.27012   1.55001
  40   37307.2    268.0   0.066674839   0.58836  -0.41438  -0.64509  -0.02264
  41   37418.8    267.2   0.030561484   0.26888  -0.28689  -0.29753   0.31314
  42   37677.9    265.4   0.122571731   1.07098  -0.10795  -0.79178  -0.65758
  43   37970.2    263.4   0.018107423   0.15700  -0.19730  -0.33912   0.05537
  44   38188.1    261.9   0.132948795   1.14612  -0.23552  -0.69531   0.77923
  45   38698.1    258.4   0.051724540   0.44003  -0.05707  -0.04299   0.65949
  46   38862.6    257.3   0.003934968   0.03333   0.06532   0.13508  -0.10402
  47   38947.7    256.8   0.031476604   0.26606   0.37799  -0.02540  -0.35005
  48   39501.0    253.2   0.016415152   0.13681  -0.00103  -0.21575  -0.30043
  49   39645.8    252.2   0.100680708   0.83603  -0.30412  -0.37627   0.77587
  50   39871.2    250.8   0.035880968   0.29627  -0.06414  -0.51916   0.15041
  51   40219.4    248.6   0.012991463   0.10634   0.22619   0.18947  -0.13885
  52   40259.2    248.4   0.104444974   0.85408   0.44270   0.80592  -0.09264

FINAL SINGLE POINT ENERGY     -5011.096840774799

DIPOLE MOMENT
-------------
                                X             Y             Z
Electronic contribution:      1.12937      -0.22627      -0.71162
Nuclear contribution   :     -0.57834      -2.98375      -4.24013
                        -----------------------------------------
Total Dipole Moment    :      0.55103      -3.21002      -4.95175
                        -----------------------------------------
Magnitude (a.u.)       :      5.92686
Magnitude (Debye)      :     15.06488

Rotational constants in cm-1:     0.002741     0.000152     0.000146
Rotational constants in MHz :    82.165893     4.567393     4.379354

                             ****ORCA TERMINATED NORMALLY****
TOTAL RUN TIME: 0 days 0 hours 9 minutes 10 seconds 529 msec
