                         Program Version 4.2.0 -  RELEASE  -
|  1> # ORCA input file
|  2> # SCF done       -215.550225816302          0.000793039977
|  3> ! CAM-B3LYP def2-SVP def2/J RIJCOSX Grid4 TightSCF
|  4> %maxcore 5000
|  5> %tddft
|  6>     Mode sTDDFT
|  7>     Ethresh 5.0
|  8>     maxcore 5000
|  9> end
| 10>
| 11> %pal
| 12>   nprocs 6
| 13>   end
| 14> * xyz 0 1
| 15>    C        0.95972        -3.02697        -0.44924
| 16>    C        1.88492        -1.99932        -0.54622
| 17>    C        2.14065        -1.45050        -1.80342
| 18>    C        3.07965        -0.39557        -1.92483
| 19>    N        3.83672         0.45842        -2.01370
| 20>    C        1.48256        -1.92434        -2.95535
| 21>    C        1.75914        -1.34216        -4.21598
| 22>    N        1.96800        -0.88048        -5.24278
| 23>    C        0.56093        -2.96704        -2.85494
| 24>    C        0.31235        -3.49901        -1.60694
| 25>    C       -0.60839        -4.60523        -1.25505
| 26>    O       -1.25227        -5.27165        -2.02890
| 27>    C       -0.47073        -4.77362         0.21748
| 28>    C        0.47088        -3.77680         0.70581
| 29>    C        0.77600        -3.51817         2.01205
| 30>    C        1.67738        -2.51453         2.43257
| 31>    N        2.40155        -1.71749         2.82712
| 32>    C        0.21144        -4.18632         3.12290
| 33>    N       -0.21541        -4.66050         4.07606
| 34>    C       -1.00186        -5.79636         0.92829
| 35>    C       -2.02413        -6.70713         0.46869
| 36>    C       -1.92020        -8.05411         0.80982
| 37>    F       -0.84522        -8.44316         1.51508
| 38>    C       -2.84641        -9.02717         0.43331
| 39>    O       -2.59912       -10.28143         0.87453
| 40>    C       -3.66573       -11.16766         1.13370
| 41>    C       -3.93093        -8.59900        -0.34267
| 42>    C       -4.07513        -7.24124        -0.63710
| 43>    C       -3.17107        -6.26153        -0.23393
| 44>    O       -3.29711        -4.93271        -0.37472
| 45>    C       -4.43663        -4.37035        -0.99711
| 46>    F       -5.13551        -6.90751        -1.40922
| 47>    C       -4.92580        -9.51630        -0.92245
| 48>    C       -6.28745        -9.40577        -0.62590
| 49>    C       -7.27089       -10.23060        -1.27194
| 50>    N       -8.58722       -10.04083        -0.99864
| 51>    C       -8.91521        -9.14799        -0.13310
| 52>    C       -7.93108        -8.37245         0.55875
| 53>    N       -6.67463        -8.50566         0.31577
| 54>    F       -8.29749        -7.50103         1.49196
| 55>    F      -10.20700        -8.97448         0.12484
| 56>    C       -6.90905       -11.20852        -2.20363
| 57>    C       -5.54839       -11.33258        -2.49640
| 58>    C       -4.56107       -10.47938        -1.86733
| 59>    N       -3.32495       -10.74743        -2.30929
| 60>    S       -3.40336       -11.93623        -3.37133
| 61>    N       -4.97688       -12.19814        -3.34411
| 62>    C       -7.92891       -12.02025        -2.87471
| 63>    C       -8.01471       -12.03971        -4.25108
| 64>    F       -7.14025       -11.32397        -4.97111
| 65>    C       -9.01708       -12.72513        -4.95905
| 66>    O       -8.96896       -12.53707        -6.28738
| 67>    C       -9.99542       -12.94331        -7.16220
| 68>    C       -9.97019       -13.43158        -4.20789
| 69>    C       -9.85186       -13.42486        -2.80380
| 70>    C       -8.86377       -12.74981        -2.10844
| 71>    O       -8.65708       -12.75938        -0.77368
| 72>    C       -9.72567       -13.05524         0.10667
| 73>    F      -10.74168       -14.19218        -2.11974
| 74>    C      -11.03940       -14.21584        -4.79930
| 75>    C      -12.32450       -14.31770        -4.39106
| 76>    C      -13.15982       -15.44639        -4.89102
| 77>    O      -12.91475       -16.16925        -5.82546
| 78>    C      -14.31524       -15.50433        -3.96871
| 79>    C      -15.32367       -16.44379        -3.91555
| 80>    C      -16.29602       -16.31030        -2.92351
| 81>    C      -16.23103       -15.24186        -2.00766
| 82>    C      -15.21190       -14.29092        -2.07556
| 83>    C      -14.25231       -14.42334        -3.06559
| 84>    C      -13.10208       -13.58720        -3.40291
| 85>    C      -12.90480       -12.29774        -2.99824
| 86>    C      -11.92602       -11.44892        -3.55903
| 87>    N      -11.18962       -10.71797        -4.04779
| 88>    C      -13.70667       -11.64070        -2.03894
| 89>    N      -14.31906       -11.07845        -1.24941
| 90>    C      -17.21840       -15.13278        -0.99630
| 91>    N      -18.01003       -15.03854        -0.17503
| 92>    C      -17.34721       -17.25485        -2.83274
| 93>    N      -18.18888       -18.02885        -2.77514
| 94>    H        2.41266        -1.61463         0.31189
| 95>    H        0.05283        -3.34616        -3.72867
| 96>    H       -0.61514        -6.00843         1.91794
| 97>    H       -4.55335       -10.63778         1.48599
| 98>    H       -3.30677       -11.83456         1.91822
| 99>    H       -3.92155       -11.76289         0.25336
|100>    H       -4.30290        -3.29300        -0.91077
|101>    H       -5.35811        -4.66368        -0.48961
|102>    H       -4.49204        -4.64599        -2.05190
|103>    H      -10.98438       -12.78578        -6.72401
|104>    H       -9.87942       -13.98847        -7.45972
|105>    H       -9.88679       -12.31269        -8.04503
|106>    H       -9.96467       -14.12098         0.11645
|107>    H      -10.61830       -12.47776        -0.14500
|108>    H       -9.37378       -12.75955         1.09385
|109>    H      -10.76187       -14.90204        -5.59109
|110>    H      -15.35767       -17.26066        -4.62037
|111>    H      -15.18888       -13.48853        -1.35515
|112> *
|113>
|114>                          ****END OF INPUT****

CARTESIAN COORDINATES (ANGSTROEM)
---------------------------------
  C      0.959720   -3.026970   -0.449240
  C      1.884920   -1.999320   -0.546220
  C      2.140650   -1.450500   -1.803420
  C      3.079650   -0.395570   -1.924830
  N      3.836720    0.458420   -2.013700
  C      1.482560   -1.924340   -2.955350
  C      1.759140   -1.342160   -4.215980
  N      1.968000   -0.880480   -5.242780
  C      0.560930   -2.967040   -2.854940
  C      0.312350   -3.499010   -1.606940
  C     -0.608390   -4.605230   -1.255050
  O     -1.252270   -5.271650   -2.028900
  C     -0.470730   -4.773620    0.217480
  C      0.470880   -3.776800    0.705810
  C      0.776000   -3.518170    2.012050
  C      1.677380   -2.514530    2.432570
  N      2.401550   -1.717490    2.827120
  C      0.211440   -4.186320    3.122900
  N     -0.215410   -4.660500    4.076060
  C     -1.001860   -5.796360    0.928290
  C     -2.024130   -6.707130    0.468690
  C     -1.920200   -8.054110    0.809820
  F     -0.845220   -8.443160    1.515080
  C     -2.846410   -9.027170    0.433310
  O     -2.599120  -10.281430    0.874530
  C     -3.665730  -11.167660    1.133700
  C     -3.930930   -8.599000   -0.342670
  C     -4.075130   -7.241240   -0.637100
  C     -3.171070   -6.261530   -0.233930
  O     -3.297110   -4.932710   -0.374720
  C     -4.436630   -4.370350   -0.997110
  F     -5.135510   -6.907510   -1.409220
  C     -4.925800   -9.516300   -0.922450
  C     -6.287450   -9.405770   -0.625900
  C     -7.270890  -10.230600   -1.271940
  N     -8.587220  -10.040830   -0.998640
  C     -8.915210   -9.147990   -0.133100
  C     -7.931080   -8.372450    0.558750
  N     -6.674630   -8.505660    0.315770
  F     -8.297490   -7.501030    1.491960
  F    -10.207000   -8.974480    0.124840
  C     -6.909050  -11.208520   -2.203630
  C     -5.548390  -11.332580   -2.496400
  C     -4.561070  -10.479380   -1.867330
  N     -3.324950  -10.747430   -2.309290
  S     -3.403360  -11.936230   -3.371330
  N     -4.976880  -12.198140   -3.344110
  C     -7.928910  -12.020250   -2.874710
  C     -8.014710  -12.039710   -4.251080
  F     -7.140250  -11.323970   -4.971110
  C     -9.017080  -12.725130   -4.959050
  O     -8.968960  -12.537070   -6.287380
  C     -9.995420  -12.943310   -7.162200
  C     -9.970190  -13.431580   -4.207890
  C     -9.851860  -13.424860   -2.803800
  C     -8.863770  -12.749810   -2.108440
  O     -8.657080  -12.759380   -0.773680
  C     -9.725670  -13.055240    0.106670
  F    -10.741680  -14.192180   -2.119740
  C    -11.039400  -14.215840   -4.799300
  C    -12.324500  -14.317700   -4.391060
  C    -13.159820  -15.446390   -4.891020
  O    -12.914750  -16.169250   -5.825460
  C    -14.315240  -15.504330   -3.968710
  C    -15.323670  -16.443790   -3.915550
  C    -16.296020  -16.310300   -2.923510
  C    -16.231030  -15.241860   -2.007660
  C    -15.211900  -14.290920   -2.075560
  C    -14.252310  -14.423340   -3.065590
  C    -13.102080  -13.587200   -3.402910
  C    -12.904800  -12.297740   -2.998240
  C    -11.926020  -11.448920   -3.559030
  N    -11.189620  -10.717970   -4.047790
  C    -13.706670  -11.640700   -2.038940
  N    -14.319060  -11.078450   -1.249410
  C    -17.218400  -15.132780   -0.996300
  N    -18.010030  -15.038540   -0.175030
  C    -17.347210  -17.254850   -2.832740
  N    -18.188880  -18.028850   -2.775140
  H      2.412660   -1.614630    0.311890
  H      0.052830   -3.346160   -3.728670
  H     -0.615140   -6.008430    1.917940
  H     -4.553350  -10.637780    1.485990
  H     -3.306770  -11.834560    1.918220
  H     -3.921550  -11.762890    0.253360
  H     -4.302900   -3.293000   -0.910770
  H     -5.358110   -4.663680   -0.489610
  H     -4.492040   -4.645990   -2.051900
  H    -10.984380  -12.785780   -6.724010
  H     -9.879420  -13.988470   -7.459720
  H     -9.886790  -12.312690   -8.045030
  H     -9.964670  -14.120980    0.116450
  H    -10.618300  -12.477760   -0.145000
  H     -9.373780  -12.759550    1.093850
  H    -10.761870  -14.902040   -5.591090
  H    -15.357670  -17.260660   -4.620370
  H    -15.188880  -13.488530   -1.355150

 Total Charge           Charge          ....    0
 Multiplicity           Mult            ....    1
 Number of Electrons    NEL             ....  544
 Basis Dimension        Dim             .... 1200

ORBITAL ENERGIES
----------------

  NO   OCC          E(Eh)            E(eV)
   0   2.0000     -89.051717     -2423.2204
   1   2.0000     -24.824144      -675.4993
   2   2.0000     -24.823302      -675.4764
   3   2.0000     -24.815153      -675.2546
   4   2.0000     -24.800526      -674.8566
   5   2.0000     -24.797846      -674.7837
   6   2.0000     -24.795896      -674.7306
   7   2.0000     -19.275954      -524.5254
   8   2.0000     -19.269094      -524.3387
   9   2.0000     -19.267478      -524.2947
  10   2.0000     -19.258728      -524.0566
  11   2.0000     -19.249926      -523.8171
  12   2.0000     -19.238261      -523.4997
  13   2.0000     -14.461899      -393.5283
  14   2.0000     -14.461364      -393.5137
  15   2.0000     -14.455801      -393.3623
  16   2.0000     -14.455709      -393.3598
  17   2.0000     -14.443872      -393.0377
  18   2.0000     -14.440256      -392.9394
  19   2.0000     -14.436768      -392.8444
  20   2.0000     -14.436498      -392.8371
  21   2.0000     -14.434253      -392.7760
  22   2.0000     -14.433064      -392.7436
  23   2.0000     -14.430625      -392.6773
  24   2.0000     -14.428905      -392.6305
  25   2.0000     -10.440413      -284.0981
  26   2.0000     -10.439472      -284.0725
  27   2.0000     -10.400007      -282.9986
  28   2.0000     -10.388374      -282.6820
  29   2.0000     -10.383973      -282.5623
  30   2.0000     -10.378308      -282.4081
  31   2.0000     -10.376650      -282.3630
  32   2.0000     -10.375469      -282.3309
  33   2.0000     -10.374160      -282.2952
  34   2.0000     -10.374044      -282.2921
  35   2.0000     -10.371163      -282.2137
  36   2.0000     -10.370635      -282.1993
  37   2.0000     -10.369333      -282.1639
  38   2.0000     -10.367485      -282.1136
  39   2.0000     -10.366394      -282.0839
  40   2.0000     -10.365953      -282.0719
  41   2.0000     -10.361950      -281.9630
  42   2.0000     -10.361677      -281.9556
  43   2.0000     -10.361531      -281.9516
  44   2.0000     -10.357647      -281.8459
  45   2.0000     -10.354480      -281.7597
  46   2.0000     -10.354220      -281.7527
  47   2.0000     -10.351424      -281.6766
  48   2.0000     -10.347724      -281.5759
  49   2.0000     -10.346818      -281.5512
  50   2.0000     -10.346609      -281.5456
  51   2.0000     -10.346371      -281.5391
  52   2.0000     -10.344809      -281.4966
  53   2.0000     -10.344585      -281.4905
  54   2.0000     -10.344324      -281.4834
  55   2.0000     -10.341725      -281.4126
  56   2.0000     -10.341261      -281.4000
  57   2.0000     -10.337806      -281.3060
  58   2.0000     -10.336417      -281.2682
  59   2.0000     -10.335904      -281.2542
  60   2.0000     -10.335762      -281.2504
  61   2.0000     -10.335333      -281.2387
  62   2.0000     -10.335298      -281.2378
  63   2.0000     -10.334083      -281.2047
  64   2.0000     -10.334053      -281.2039
  65   2.0000     -10.333130      -281.1788
  66   2.0000     -10.332562      -281.1633
  67   2.0000     -10.332053      -281.1495
  68   2.0000     -10.327155      -281.0162
  69   2.0000     -10.326538      -280.9994
  70   2.0000     -10.326514      -280.9987
  71   2.0000     -10.326371      -280.9949
  72   2.0000     -10.326196      -280.9901
  73   2.0000     -10.326170      -280.9894
  74   2.0000     -10.325227      -280.9637
  75   2.0000     -10.318931      -280.7924
  76   2.0000     -10.318807      -280.7890
  77   2.0000     -10.316681      -280.7312
  78   2.0000     -10.311350      -280.5861
  79   2.0000      -8.142912      -221.5799
  80   2.0000      -6.113722      -166.3628
  81   2.0000      -6.106228      -166.1589
  82   2.0000      -6.105997      -166.1526
  83   2.0000      -1.352888       -36.8140
  84   2.0000      -1.338543       -36.4236
  85   2.0000      -1.327227       -36.1157
  86   2.0000      -1.314291       -35.7637
  87   2.0000      -1.312876       -35.7252
  88   2.0000      -1.312366       -35.7113
  89   2.0000      -1.182195       -32.1692
  90   2.0000      -1.174589       -31.9622
  91   2.0000      -1.173662       -31.9370
  92   2.0000      -1.165569       -31.7167
  93   2.0000      -1.164393       -31.6848
  94   2.0000      -1.152308       -31.3559
  95   2.0000      -1.147158       -31.2157
  96   2.0000      -1.120437       -30.4886
  97   2.0000      -1.053669       -28.6718
  98   2.0000      -1.046852       -28.4863
  99   2.0000      -1.044508       -28.4225
 100   2.0000      -1.038380       -28.2557
 101   2.0000      -1.030282       -28.0354
 102   2.0000      -1.021714       -27.8022
 103   2.0000      -1.020018       -27.7561
 104   2.0000      -1.015876       -27.6434
 105   2.0000      -1.012994       -27.5650
 106   2.0000      -1.011627       -27.5278
 107   2.0000      -1.008936       -27.4545
 108   2.0000      -1.001879       -27.2625
 109   2.0000      -0.996981       -27.1292
 110   2.0000      -0.990382       -26.9497
 111   2.0000      -0.985264       -26.8104
 112   2.0000      -0.980652       -26.6849
 113   2.0000      -0.973299       -26.4848
 114   2.0000      -0.938172       -25.5290
 115   2.0000      -0.935390       -25.4533
 116   2.0000      -0.928435       -25.2640
 117   2.0000      -0.924281       -25.1510
 118   2.0000      -0.914813       -24.8933
 119   2.0000      -0.906811       -24.6756
 120   2.0000      -0.902667       -24.5628
 121   2.0000      -0.890315       -24.2267
 122   2.0000      -0.883623       -24.0446
 123   2.0000      -0.875724       -23.8296
 124   2.0000      -0.870522       -23.6881
 125   2.0000      -0.858649       -23.3650
 126   2.0000      -0.838655       -22.8210
 127   2.0000      -0.827170       -22.5085
 128   2.0000      -0.823784       -22.4163
 129   2.0000      -0.819740       -22.3063
 130   2.0000      -0.817975       -22.2582
 131   2.0000      -0.815311       -22.1857
 132   2.0000      -0.810026       -22.0419
 133   2.0000      -0.790552       -21.5120
 134   2.0000      -0.787784       -21.4367
 135   2.0000      -0.775913       -21.1137
 136   2.0000      -0.766923       -20.8690
 137   2.0000      -0.764929       -20.8148
 138   2.0000      -0.756232       -20.5781
 139   2.0000      -0.750631       -20.4257
 140   2.0000      -0.744027       -20.2460
 141   2.0000      -0.726323       -19.7642
 142   2.0000      -0.723360       -19.6836
 143   2.0000      -0.719570       -19.5805
 144   2.0000      -0.718965       -19.5640
 145   2.0000      -0.716659       -19.5013
 146   2.0000      -0.703245       -19.1363
 147   2.0000      -0.694016       -18.8851
 148   2.0000      -0.691541       -18.8178
 149   2.0000      -0.690060       -18.7775
 150   2.0000      -0.687518       -18.7083
 151   2.0000      -0.683020       -18.5859
 152   2.0000      -0.671668       -18.2770
 153   2.0000      -0.669209       -18.2101
 154   2.0000      -0.664610       -18.0849
 155   2.0000      -0.660966       -17.9858
 156   2.0000      -0.656844       -17.8736
 157   2.0000      -0.655510       -17.8373
 158   2.0000      -0.648884       -17.6570
 159   2.0000      -0.644262       -17.5313
 160   2.0000      -0.638864       -17.3844
 161   2.0000      -0.633859       -17.2482
 162   2.0000      -0.628079       -17.0909
 163   2.0000      -0.626295       -17.0423
 164   2.0000      -0.623325       -16.9615
 165   2.0000      -0.622454       -16.9378
 166   2.0000      -0.617776       -16.8105
 167   2.0000      -0.614579       -16.7236
 168   2.0000      -0.610782       -16.6202
 169   2.0000      -0.607335       -16.5264
 170   2.0000      -0.606485       -16.5033
 171   2.0000      -0.600552       -16.3419
 172   2.0000      -0.599270       -16.3070
 173   2.0000      -0.590626       -16.0718
 174   2.0000      -0.587440       -15.9851
 175   2.0000      -0.586441       -15.9579
 176   2.0000      -0.581259       -15.8169
 177   2.0000      -0.579244       -15.7620
 178   2.0000      -0.578485       -15.7414
 179   2.0000      -0.576898       -15.6982
 180   2.0000      -0.572097       -15.5675
 181   2.0000      -0.570702       -15.5296
 182   2.0000      -0.570227       -15.5167
 183   2.0000      -0.567395       -15.4396
 184   2.0000      -0.566177       -15.4065
 185   2.0000      -0.563761       -15.3407
 186   2.0000      -0.562552       -15.3078
 187   2.0000      -0.560308       -15.2468
 188   2.0000      -0.558614       -15.2006
 189   2.0000      -0.554362       -15.0850
 190   2.0000      -0.554075       -15.0771
 191   2.0000      -0.551123       -14.9968
 192   2.0000      -0.549367       -14.9490
 193   2.0000      -0.546778       -14.8786
 194   2.0000      -0.545189       -14.8353
 195   2.0000      -0.537737       -14.6326
 196   2.0000      -0.536991       -14.6123
 197   2.0000      -0.535847       -14.5812
 198   2.0000      -0.532226       -14.4826
 199   2.0000      -0.526795       -14.3348
 200   2.0000      -0.526234       -14.3196
 201   2.0000      -0.524853       -14.2820
 202   2.0000      -0.524583       -14.2746
 203   2.0000      -0.522459       -14.2168
 204   2.0000      -0.521252       -14.1840
 205   2.0000      -0.519198       -14.1281
 206   2.0000      -0.517734       -14.0882
 207   2.0000      -0.515216       -14.0197
 208   2.0000      -0.511640       -13.9224
 209   2.0000      -0.506101       -13.7717
 210   2.0000      -0.504202       -13.7200
 211   2.0000      -0.499206       -13.5841
 212   2.0000      -0.497736       -13.5441
 213   2.0000      -0.489942       -13.3320
 214   2.0000      -0.489787       -13.3278
 215   2.0000      -0.486165       -13.2292
 216   2.0000      -0.476179       -12.9575
 217   2.0000      -0.475010       -12.9257
 218   2.0000      -0.474024       -12.8988
 219   2.0000      -0.471773       -12.8376
 220   2.0000      -0.469645       -12.7797
 221   2.0000      -0.467279       -12.7153
 222   2.0000      -0.464479       -12.6391
 223   2.0000      -0.462809       -12.5937
 224   2.0000      -0.462260       -12.5787
 225   2.0000      -0.461811       -12.5665
 226   2.0000      -0.460191       -12.5224
 227   2.0000      -0.459893       -12.5143
 228   2.0000      -0.459330       -12.4990
 229   2.0000      -0.457264       -12.4428
 230   2.0000      -0.455996       -12.4083
 231   2.0000      -0.454769       -12.3749
 232   2.0000      -0.453956       -12.3528
 233   2.0000      -0.453165       -12.3312
 234   2.0000      -0.450662       -12.2631
 235   2.0000      -0.448249       -12.1975
 236   2.0000      -0.447289       -12.1713
 237   2.0000      -0.445338       -12.1183
 238   2.0000      -0.443122       -12.0580
 239   2.0000      -0.442873       -12.0512
 240   2.0000      -0.436499       -11.8777
 241   2.0000      -0.436382       -11.8746
 242   2.0000      -0.435733       -11.8569
 243   2.0000      -0.435152       -11.8411
 244   2.0000      -0.431869       -11.7518
 245   2.0000      -0.429543       -11.6885
 246   2.0000      -0.428572       -11.6620
 247   2.0000      -0.427477       -11.6322
 248   2.0000      -0.424702       -11.5567
 249   2.0000      -0.422790       -11.5047
 250   2.0000      -0.422169       -11.4878
 251   2.0000      -0.417176       -11.3519
 252   2.0000      -0.416464       -11.3325
 253   2.0000      -0.410792       -11.1782
 254   2.0000      -0.391753       -10.6601
 255   2.0000      -0.387479       -10.5438
 256   2.0000      -0.386132       -10.5072
 257   2.0000      -0.382926       -10.4199
 258   2.0000      -0.378680       -10.3044
 259   2.0000      -0.375570       -10.2198
 260   2.0000      -0.374278       -10.1846
 261   2.0000      -0.368772       -10.0348
 262   2.0000      -0.365709        -9.9514
 263   2.0000      -0.359373        -9.7790
 264   2.0000      -0.347264        -9.4495
 265   2.0000      -0.346188        -9.4203
 266   2.0000      -0.341893        -9.3034
 267   2.0000      -0.334481        -9.1017
 268   2.0000      -0.317126        -8.6294
 269   2.0000      -0.300787        -8.1848
 270   2.0000      -0.291646        -7.9361
 271   2.0000      -0.285373        -7.7654
 272   0.0000      -0.118598        -3.2272
 273   0.0000      -0.112815        -3.0698
 274   0.0000      -0.107687        -2.9303
 275   0.0000      -0.098758        -2.6873
 276   0.0000      -0.091103        -2.4790

MULLIKEN ATOMIC CHARGES
-----------------------
   0 C :    0.046001
   1 C :   -0.035448
   2 C :   -0.058612
   3 C :   -0.177209
   4 N :    0.203127
   5 C :   -0.068213
   6 C :   -0.173776
   7 N :    0.199447
   8 C :   -0.029376
   9 C :   -0.013031
  10 C :    0.158154
  11 O :   -0.121739
  12 C :   -0.059982
  13 C :    0.297306
  14 C :   -0.315412
  15 C :   -0.190645
  16 N :    0.168633
  17 C :   -0.203979
  18 N :    0.183333
  19 C :   -0.019401
  20 C :   -0.047105
  21 C :    0.168645
  22 F :   -0.167367
  23 C :    0.172171
  24 O :   -0.301097
  25 C :    0.219749
  26 C :   -0.131008
  27 C :    0.175332
  28 C :    0.166461
  29 O :   -0.300998
  30 C :    0.180809
  31 F :   -0.191449
  32 C :   -0.036687
  33 C :   -0.046755
  34 C :   -0.021537
  35 N :    0.034497
  36 C :    0.128282
  37 C :    0.129081
  38 N :    0.026649
  39 F :   -0.135343
  40 F :   -0.136437
  41 C :    0.042846
  42 C :    0.021624
  43 C :   -0.007181
  44 N :   -0.253928
  45 S :    0.553379
  46 N :   -0.260234
  47 C :   -0.120972
  48 C :    0.212204
  49 F :   -0.163365
  50 C :    0.163080
  51 O :   -0.284710
  52 C :    0.173731
  53 C :   -0.083063
  54 C :    0.119469
  55 C :    0.189990
  56 O :   -0.304110
  57 C :    0.183615
  58 F :   -0.197403
  59 C :   -0.025706
  60 C :   -0.100136
  61 C :    0.142121
  62 O :   -0.120265
  63 C :    0.000817
  64 C :   -0.029304
  65 C :   -0.064090
  66 C :   -0.058702
  67 C :   -0.037953
  68 C :    0.039549
  69 C :    0.290275
  70 C :   -0.323061
  71 C :   -0.187708
  72 N :    0.184026
  73 C :   -0.188685
  74 N :    0.177408
  75 C :   -0.177232
  76 N :    0.207080
  77 C :   -0.178157
  78 N :    0.202321
  79 H :    0.020442
  80 H :    0.014546
  81 H :    0.048806
  82 H :    0.021453
  83 H :    0.041328
  84 H :    0.019201
  85 H :    0.034927
  86 H :    0.033474
  87 H :    0.038540
  88 H :    0.048232
  89 H :    0.037479
  90 H :    0.048790
  91 H :    0.034160
  92 H :    0.027310
  93 H :    0.032652
  94 H :    0.040551
  95 H :    0.021048
  96 H :    0.024420
Sum of atomic charges:   -0.0000000

LOEWDIN ATOMIC CHARGES
----------------------
   0 C :    0.001429
   1 C :    0.035254
   2 C :   -0.023994
   3 C :   -0.031727
   4 N :   -0.010505
   5 C :   -0.028412
   6 C :   -0.032050
   7 N :   -0.013465
   8 C :    0.048201
   9 C :   -0.028238
  10 C :    0.083229
  11 O :   -0.115624
  12 C :   -0.082755
  13 C :    0.068455
  14 C :   -0.114739
  15 C :   -0.021113
  16 N :   -0.031837
  17 C :   -0.023903
  18 N :   -0.027902
  19 C :    0.099873
  20 C :   -0.078295
  21 C :    0.088778
  22 F :   -0.048124
  23 C :    0.026100
  24 O :   -0.094771
  25 C :    0.083084
  26 C :   -0.049541
  27 C :    0.057443
  28 C :    0.046812
  29 O :   -0.081312
  30 C :    0.080225
  31 F :   -0.059999
  32 C :   -0.020657
  33 C :   -0.007008
  34 C :    0.000847
  35 N :   -0.030608
  36 C :    0.056863
  37 C :    0.058487
  38 N :   -0.040154
  39 F :   -0.025199
  40 F :   -0.025666
  41 C :   -0.006679
  42 C :   -0.044154
  43 C :   -0.048254
  44 N :   -0.286814
  45 S :    0.696442
  46 N :   -0.285225
  47 C :   -0.039311
  48 C :    0.088632
  49 F :   -0.042137
  50 C :    0.049643
  51 O :   -0.074359
  52 C :    0.085906
  53 C :   -0.099354
  54 C :    0.051496
  55 C :    0.034120
  56 O :   -0.094939
  57 C :    0.078551
  58 F :   -0.063512
  59 C :    0.079608
  60 C :   -0.088406
  61 C :    0.085516
  62 O :   -0.123217
  63 C :   -0.032600
  64 C :    0.051490
  65 C :   -0.027655
  66 C :   -0.020722
  67 C :    0.033238
  68 C :    0.006925
  69 C :    0.063704
  70 C :   -0.114577
  71 C :   -0.019735
  72 N :   -0.029918
  73 C :   -0.023049
  74 N :   -0.028906
  75 C :   -0.032070
  76 N :   -0.007015
  77 C :   -0.032904
  78 N :   -0.009831
  79 H :    0.052463
  80 H :    0.053459
  81 H :    0.049222
  82 H :    0.018684
  83 H :    0.029955
  84 H :    0.013313
  85 H :    0.026469
  86 H :    0.019592
  87 H :    0.021254
  88 H :    0.023953
  89 H :    0.020283
  90 H :    0.035855
  91 H :    0.016894
  92 H :    0.017747
  93 H :    0.025734
  94 H :    0.049111
  95 H :    0.055671
  96 H :    0.052928

  Mayer bond orders larger than 0.100000
B(  0-C ,  1-C ) :   1.3521 B(  0-C ,  9-C ) :   1.3351 B(  0-C , 13-C ) :   0.9663
B(  1-C ,  2-C ) :   1.3978 B(  1-C , 79-H ) :   0.9864 B(  2-C ,  3-C ) :   1.0865
B(  2-C ,  5-C ) :   1.3993 B(  3-C ,  4-N ) :   3.0452 B(  5-C ,  6-C ) :   1.0852
B(  5-C ,  8-C ) :   1.3654 B(  6-C ,  7-N ) :   3.0454 B(  8-C ,  9-C ) :   1.3649
B(  8-C , 80-H ) :   1.0152 B(  9-C , 10-C ) :   0.9237 B( 10-C , 11-O ) :   2.2478
B( 10-C , 12-C ) :   0.9344 B( 12-C , 13-C ) :   1.0544 B( 12-C , 19-C ) :   1.6849
B( 13-C , 14-C ) :   1.6779 B( 14-C , 15-C ) :   1.1410 B( 14-C , 17-C ) :   1.1372
B( 15-C , 16-N ) :   2.9646 B( 17-C , 18-N ) :   2.9939 B( 19-C , 20-C ) :   1.0651
B( 19-C , 81-H ) :   0.9388 B( 20-C , 21-C ) :   1.3424 B( 20-C , 26-C ) :   0.1244
B( 20-C , 28-C ) :   1.3035 B( 21-C , 22-F ) :   1.1828 B( 21-C , 23-C ) :   1.2856
B( 23-C , 24-O ) :   1.2154 B( 23-C , 26-C ) :   1.3394 B( 24-O , 25-C ) :   0.9434
B( 25-C , 82-H ) :   0.9593 B( 25-C , 83-H ) :   0.9768 B( 25-C , 84-H ) :   0.9677
B( 26-C , 27-C ) :   1.3324 B( 26-C , 32-C ) :   0.9306 B( 27-C , 28-C ) :   1.2777
B( 27-C , 31-F ) :   1.1168 B( 28-C , 29-O ) :   1.2086 B( 29-O , 30-C ) :   0.9241
B( 30-C , 85-H ) :   0.9788 B( 30-C , 86-H ) :   0.9756 B( 30-C , 87-H ) :   0.9756
B( 32-C , 33-C ) :   1.3880 B( 32-C , 41-C ) :   0.1486 B( 32-C , 43-C ) :   1.2922
B( 33-C , 34-C ) :   1.1138 B( 33-C , 38-N ) :   1.3920 B( 34-C , 35-N ) :   1.3929
B( 34-C , 41-C ) :   1.4156 B( 35-N , 36-C ) :   1.7187 B( 36-C , 37-C ) :   1.0688
B( 36-C , 40-F ) :   1.1756 B( 37-C , 38-N ) :   1.7230 B( 37-C , 39-F ) :   1.1823
B( 41-C , 42-C ) :   1.2903 B( 41-C , 47-C ) :   0.9105 B( 42-C , 43-C ) :   1.1130
B( 42-C , 46-N ) :   1.4953 B( 43-C , 44-N ) :   1.4943 B( 44-N , 45-S ) :   1.3035
B( 44-N , 46-N ) :   0.1626 B( 45-S , 46-N ) :   1.3109 B( 47-C , 48-C ) :   1.4363
B( 47-C , 53-C ) :   0.1252 B( 47-C , 55-C ) :   1.3343 B( 48-C , 49-F ) :   1.1952
B( 48-C , 50-C ) :   1.2423 B( 50-C , 51-O ) :   1.2395 B( 50-C , 53-C ) :   1.3207
B( 51-O , 52-C ) :   0.9324 B( 52-C , 88-H ) :   0.9515 B( 52-C , 89-H ) :   0.9750
B( 52-C , 90-H ) :   0.9722 B( 53-C , 54-C ) :   1.2510 B( 53-C , 59-C ) :   1.0165
B( 54-C , 55-C ) :   1.3140 B( 54-C , 58-F ) :   1.0830 B( 55-C , 56-O ) :   1.2141
B( 56-O , 57-C ) :   0.9271 B( 57-C , 91-H ) :   0.9756 B( 57-C , 92-H ) :   0.9719
B( 57-C , 93-H ) :   0.9795 B( 59-C , 60-C ) :   1.7487 B( 59-C , 94-H ) :   0.9282
B( 60-C , 61-C ) :   0.9370 B( 60-C , 69-C ) :   1.0130 B( 61-C , 62-O ) :   2.2881
B( 61-C , 63-C ) :   0.9019 B( 63-C , 64-C ) :   1.3670 B( 63-C , 68-C ) :   1.3297
B( 64-C , 65-C ) :   1.3702 B( 64-C , 95-H ) :   1.0139 B( 65-C , 66-C ) :   1.3985
B( 65-C , 77-C ) :   1.0891 B( 66-C , 67-C ) :   1.3935 B( 66-C , 75-C ) :   1.0863
B( 67-C , 68-C ) :   1.3583 B( 67-C , 96-H ) :   0.9888 B( 68-C , 69-C ) :   0.9874
B( 69-C , 70-C ) :   1.6908 B( 70-C , 71-C ) :   1.1707 B( 70-C , 73-C ) :   1.1286
B( 71-C , 72-N ) :   2.9775 B( 73-C , 74-N ) :   2.9793 B( 75-C , 76-N ) :   3.0463
B( 77-C , 78-N ) :   3.0460

-----------------------------------------------------------------------------
         ABSORPTION SPECTRUM VIA TRANSITION ELECTRIC DIPOLE MOMENTS
-----------------------------------------------------------------------------
State   Energy  Wavelength   fosc         T2         TX        TY        TZ
        (cm-1)    (nm)                  (au**2)     (au)      (au)      (au)
-----------------------------------------------------------------------------
   0   18688.7    535.1   0.223121584   3.93040   1.85538   0.69583   0.06152
   1   18908.5    528.9   0.012632861   0.21995   0.04939  -0.07244  -0.46072
   2   20865.2    479.3   0.060654214   0.95701  -0.80918  -0.46702  -0.29005
   3   21137.5    473.1   0.023369631   0.36398  -0.24379  -0.52579  -0.16759
   4   23009.4    434.6   0.483355806   6.91572   1.99306   1.50302   0.82726
   5   23643.4    423.0   0.010432882   0.14527   0.29711   0.03256  -0.23650
   6   24428.1    409.4   0.098934618   1.33332  -0.37286  -1.04781  -0.31046
   7   24930.9    401.1   0.033233831   0.43885   0.61044   0.11841  -0.22845
   8   26088.5    383.3   0.164023786   2.06982  -0.84632  -1.14955  -0.17912
   9   27633.2    361.9   0.026942032   0.32098  -0.28918   0.03795  -0.48571
  10   27851.9    359.0   0.017021671   0.20120   0.17099   0.05383  -0.41117
  11   28117.9    355.6   0.010091414   0.11815   0.13105   0.30867  -0.07553
  12   29524.8    338.7   0.023498351   0.26201   0.01134  -0.39559  -0.32464
  13   30012.5    333.2   0.036396122   0.39924  -0.45749  -0.00663  -0.43577
  14   30067.8    332.6   0.010698579   0.11714   0.21273   0.13091  -0.23398
  15   30224.2    330.9   0.076298177   0.83106   0.85571   0.22451  -0.22006
  16   30623.9    326.5   0.027401170   0.29457   0.19125   0.50313  -0.06965
  17   31617.9    316.3   0.164786842   1.71580  -0.95662  -0.89469   0.01435
  18   31690.0    315.6   0.004281306   0.04448  -0.01578   0.12642   0.16806
  19   31817.8    314.3   0.123513337   1.27797  -0.27647  -1.03379  -0.36444
  20   32275.4    309.8   0.027575477   0.28127  -0.40166  -0.07534  -0.33803
  21   32520.9    307.5   0.023495406   0.23785  -0.38833  -0.25334   0.15120
  22   32559.0    307.1   0.079099382   0.79979   0.20780   0.68297  -0.53866
  23   32846.6    304.4   0.169920847   1.70307   1.17679  -0.05024  -0.56188
  24   32863.6    304.3   0.349032529   3.49644  -1.30818   0.88310   1.00261
  25   34109.7    293.2   0.266217163   2.56941   0.25328   0.57423  -1.47497
  26   34258.2    291.9   0.002418344   0.02324  -0.01376   0.13083  -0.07702
  27   34645.0    288.6   0.042315838   0.40210   0.30988   0.55017  -0.05821
  28   34856.7    286.9   0.581580479   5.49286  -1.32401  -1.91257  -0.28627
  29   35328.7    283.1   0.120535457   1.12321   0.19169   0.80004  -0.66814
  30   35347.0    282.9   0.373337192   3.47716  -0.05077   0.01981   1.86392
  31   35453.9    282.1   0.082743620   0.76833   0.42472   0.70409  -0.30365
  32   35875.6    278.7   0.041191650   0.37799   0.09498   0.10773  -0.59780
  33   36327.9    275.3   0.017487596   0.15848  -0.07804  -0.12179  -0.37088
  34   36969.8    270.5   0.004553217   0.04055   0.01933  -0.12259   0.15857
  35   37032.1    270.0   0.055306980   0.49167   0.01423   0.53476   0.45333
  36   37130.5    269.3   0.057243520   0.50754   0.41452   0.56045   0.14699
  37   37812.6    264.5   0.074678284   0.65018   0.52758   0.60588   0.06890
  38   38070.0    262.7   0.072856609   0.63003   0.66511  -0.09074  -0.42359
  39   38296.5    261.1   0.127329228   1.09457   0.65723   0.71061   0.39706
  40   38461.7    260.0   0.009273082   0.07937  -0.22088  -0.09817   0.14473
  41   38590.5    259.1   0.108667264   0.92703  -0.73450   0.01903  -0.62223
  42   38771.1    257.9   0.116031930   0.98525   0.55094   0.54581  -0.61952
  43   39324.4    254.3   0.015465183   0.12947  -0.30660  -0.11037   0.15260
  44   39768.6    251.5   0.009731389   0.08056  -0.11985  -0.05316   0.25173
  45   39860.9    250.9   0.016013743   0.13226   0.33005   0.14975   0.03002
  46   40116.2    249.3   0.009467620   0.07770  -0.22783  -0.07677   0.14105

FINAL SINGLE POINT ENERGY     -4169.254795260074

DIPOLE MOMENT
-------------
                                X             Y             Z
Electronic contribution:      4.86913       7.22932       6.48014
Nuclear contribution   :     -5.84813     -10.39785      -8.03075
                        -----------------------------------------
Total Dipole Moment    :     -0.97900      -3.16853      -1.55061
                        -----------------------------------------
Magnitude (a.u.)       :      3.66093
Magnitude (Debye)      :      9.30535

Rotational constants in cm-1:     0.002250     0.000278     0.000270
Rotational constants in MHz :    67.451266     8.343913     8.089965

                             ****ORCA TERMINATED NORMALLY****
TOTAL RUN TIME: 0 days 0 hours 21 minutes 52 seconds 545 msec
