                         Program Version 4.2.0 -  RELEASE  -
|  1> # ORCA input file
|  2> # SCF done       -197.862187522770          0.000678746631
|  3> ! CAM-B3LYP def2-SVP def2/J RIJCOSX Grid4 TightSCF
|  4> %maxcore 5000
|  5> %tddft
|  6>     Mode sTDDFT
|  7>     Ethresh 5.0
|  8>     maxcore 5000
|  9> end
| 10>
| 11> %pal
| 12>   nprocs 6
| 13>   end
| 14> * xyz 0 1
| 15>    C       -6.06385        -4.24848        -7.60861
| 16>    C       -6.52654        -3.36997        -8.57306
| 17>    C       -6.52173        -2.00256        -8.28659
| 18>    C       -6.99537        -1.08749        -9.25887
| 19>    N       -7.38008        -0.35274       -10.04818
| 20>    C       -6.05750        -1.51616        -7.05006
| 21>    C       -6.06511        -0.12568        -6.78730
| 22>    N       -6.06313         0.99525        -6.55218
| 23>    C       -5.59091        -2.40529        -6.07997
| 24>    C       -5.60333        -3.75115        -6.37444
| 25>    C       -5.17579        -4.88372        -5.52493
| 26>    O       -4.72661        -4.79913        -4.39335
| 27>    C       -5.41008        -6.08986        -6.31140
| 28>    C       -5.94535        -5.70985        -7.59954
| 29>    C       -6.28160        -6.53031        -8.64500
| 30>    C       -6.79743        -6.07054        -9.87553
| 31>    N       -7.22041        -5.76024       -10.89648
| 32>    C       -6.16286        -7.93722        -8.66641
| 33>    N       -6.10045        -9.07728        -8.78511
| 34>    C       -5.17783        -7.37589        -5.87117
| 35>    C       -4.67748        -7.82008        -4.65218
| 36>    S       -4.11155        -6.89415        -3.28927
| 37>    C       -3.70775        -8.29982        -2.37388
| 38>    C       -4.04413        -9.47865        -3.06821
| 39>    C       -4.56507        -9.20378        -4.36665
| 40>    N       -4.93088       -10.17291        -5.21264
| 41>    C       -4.80442       -11.39627        -4.77041
| 42>    N       -4.43942       -11.76705        -3.53833
| 43>    C       -4.08344       -10.83356        -2.69237
| 44>    C       -3.10680        -8.18736        -1.07894
| 45>    C       -2.31273        -9.19742        -0.56885
| 46>    C       -1.77411        -9.08307         0.72216
| 47>    C       -1.00120        -9.97356         1.46597
| 48>    C       -0.53653       -11.31068         1.01966
| 49>    C        0.98474       -11.35241         0.71678
| 50>    N        1.78428       -10.97862         1.86944
| 51>    C       -0.88445       -12.44675         2.00196
| 52>    N       -0.85711       -13.70722         1.28393
| 53>    C       -0.77439        -9.34323         2.74533
| 54>    C       -0.11035        -9.77018         3.83528
| 55>    C        0.00307        -8.92366         5.06008
| 56>    C       -0.67933        -7.59846         4.97304
| 57>    C       -1.35581        -7.19886         3.88003
| 58>    C       -1.43217        -8.03102         2.73653
| 59>    C       -2.03818        -7.88332         1.50327
| 60>    C       -2.80336        -6.84008         0.93244
| 61>    C       -3.31438        -6.98992        -0.31522
| 62>    C        1.46290        -8.86294         5.41424
| 63>    C        2.17896        -7.76280         5.67960
| 64>    C        3.58243        -7.79528         5.91402
| 65>    S        4.52998        -9.21802         5.72201
| 66>    C        6.03829        -8.40324         6.05323
| 67>    C        5.78365        -7.05800         6.36581
| 68>    C        4.40227        -6.70915         6.26129
| 69>    N        3.95966        -5.46088         6.48731
| 70>    C        4.87174        -4.58721         6.80992
| 71>    N        6.19077        -4.80054         6.93641
| 72>    C        6.64916        -6.00169         6.71467
| 73>    C        7.27458        -9.06243         6.05275
| 74>    C        7.58651       -10.27649         5.49401
| 75>    C        8.73097       -11.06241         6.01049
| 76>    O        9.61017       -10.68605         6.74901
| 77>    C        8.52433       -12.43318         5.47478
| 78>    C        9.24111       -13.58016         5.73714
| 79>    C        8.82942       -14.76841         5.12775
| 80>    C        7.71271       -14.77656         4.27048
| 81>    C        7.00173       -13.60548         3.99949
| 82>    C        7.41294       -12.43341         4.60802
| 83>    C        6.90948       -11.06606         4.49724
| 84>    C        6.15282       -10.58749         3.45431
| 85>    C        6.00026        -9.21051         3.19067
| 86>    N        5.89424        -8.10006         2.91909
| 87>    C        5.46614       -11.38597         2.52564
| 88>    N        4.81520       -11.96818         1.77824
| 89>    C        7.29786       -15.99312         3.67431
| 90>    N        6.94728       -16.96908         3.18959
| 91>    C        9.53387       -15.97066         5.37693
| 92>    N       10.11366       -16.93448         5.59170
| 93>    H       -6.89050        -3.70212        -9.53199
| 94>    H       -5.23183        -2.04935        -5.12627
| 95>    H       -5.41858        -8.19761        -6.53630
| 96>    H       -5.05745       -12.19373        -5.45529
| 97>    H       -3.86339       -11.15862        -1.68352
| 98>    H       -2.06959       -10.05553        -1.17574
| 99>    H       -1.03553       -11.54509         0.07360
|100>    H        1.17678       -10.71823        -0.16028
|101>    H        1.21028       -12.38792         0.45696
|102>    H        1.92035        -9.97382         1.90169
|103>    H        2.69806       -11.41740         1.81886
|104>    H       -1.85605       -12.23047         2.47841
|105>    H       -0.11959       -12.49611         2.77722
|106>    H       -1.63906       -13.77644         0.64142
|107>    H       -0.90638       -14.49130         1.92305
|108>    H        0.40482       -10.71790         3.84286
|109>    H       -0.47973        -9.49163         5.87674
|110>    H       -0.62605        -6.97585         5.85259
|111>    H       -1.84816        -6.23780         3.86013
|112>    H       -2.97929        -5.93663         1.49653
|113>    H       -3.91103        -6.20861        -0.76158
|114>    H        1.96096        -9.82547         5.41251
|115>    H        1.73902        -6.77691         5.71255
|116>    H        4.53792        -3.57611         6.99937
|117>    H        7.71690        -6.14631         6.81673
|118>    H        8.06738        -8.59802         6.63051
|119>    H       10.09665       -13.56245         6.39498
|120>    H        6.14946       -13.64178         3.33864
|121> *
|122>
|123>                          ****END OF INPUT****

CARTESIAN COORDINATES (ANGSTROEM)
---------------------------------
  C     -6.063850   -4.248480   -7.608610
  C     -6.526540   -3.369970   -8.573060
  C     -6.521730   -2.002560   -8.286590
  C     -6.995370   -1.087490   -9.258870
  N     -7.380080   -0.352740  -10.048180
  C     -6.057500   -1.516160   -7.050060
  C     -6.065110   -0.125680   -6.787300
  N     -6.063130    0.995250   -6.552180
  C     -5.590910   -2.405290   -6.079970
  C     -5.603330   -3.751150   -6.374440
  C     -5.175790   -4.883720   -5.524930
  O     -4.726610   -4.799130   -4.393350
  C     -5.410080   -6.089860   -6.311400
  C     -5.945350   -5.709850   -7.599540
  C     -6.281600   -6.530310   -8.645000
  C     -6.797430   -6.070540   -9.875530
  N     -7.220410   -5.760240  -10.896480
  C     -6.162860   -7.937220   -8.666410
  N     -6.100450   -9.077280   -8.785110
  C     -5.177830   -7.375890   -5.871170
  C     -4.677480   -7.820080   -4.652180
  S     -4.111550   -6.894150   -3.289270
  C     -3.707750   -8.299820   -2.373880
  C     -4.044130   -9.478650   -3.068210
  C     -4.565070   -9.203780   -4.366650
  N     -4.930880  -10.172910   -5.212640
  C     -4.804420  -11.396270   -4.770410
  N     -4.439420  -11.767050   -3.538330
  C     -4.083440  -10.833560   -2.692370
  C     -3.106800   -8.187360   -1.078940
  C     -2.312730   -9.197420   -0.568850
  C     -1.774110   -9.083070    0.722160
  C     -1.001200   -9.973560    1.465970
  C     -0.536530  -11.310680    1.019660
  C      0.984740  -11.352410    0.716780
  N      1.784280  -10.978620    1.869440
  C     -0.884450  -12.446750    2.001960
  N     -0.857110  -13.707220    1.283930
  C     -0.774390   -9.343230    2.745330
  C     -0.110350   -9.770180    3.835280
  C      0.003070   -8.923660    5.060080
  C     -0.679330   -7.598460    4.973040
  C     -1.355810   -7.198860    3.880030
  C     -1.432170   -8.031020    2.736530
  C     -2.038180   -7.883320    1.503270
  C     -2.803360   -6.840080    0.932440
  C     -3.314380   -6.989920   -0.315220
  C      1.462900   -8.862940    5.414240
  C      2.178960   -7.762800    5.679600
  C      3.582430   -7.795280    5.914020
  S      4.529980   -9.218020    5.722010
  C      6.038290   -8.403240    6.053230
  C      5.783650   -7.058000    6.365810
  C      4.402270   -6.709150    6.261290
  N      3.959660   -5.460880    6.487310
  C      4.871740   -4.587210    6.809920
  N      6.190770   -4.800540    6.936410
  C      6.649160   -6.001690    6.714670
  C      7.274580   -9.062430    6.052750
  C      7.586510  -10.276490    5.494010
  C      8.730970  -11.062410    6.010490
  O      9.610170  -10.686050    6.749010
  C      8.524330  -12.433180    5.474780
  C      9.241110  -13.580160    5.737140
  C      8.829420  -14.768410    5.127750
  C      7.712710  -14.776560    4.270480
  C      7.001730  -13.605480    3.999490
  C      7.412940  -12.433410    4.608020
  C      6.909480  -11.066060    4.497240
  C      6.152820  -10.587490    3.454310
  C      6.000260   -9.210510    3.190670
  N      5.894240   -8.100060    2.919090
  C      5.466140  -11.385970    2.525640
  N      4.815200  -11.968180    1.778240
  C      7.297860  -15.993120    3.674310
  N      6.947280  -16.969080    3.189590
  C      9.533870  -15.970660    5.376930
  N     10.113660  -16.934480    5.591700
  H     -6.890500   -3.702120   -9.531990
  H     -5.231830   -2.049350   -5.126270
  H     -5.418580   -8.197610   -6.536300
  H     -5.057450  -12.193730   -5.455290
  H     -3.863390  -11.158620   -1.683520
  H     -2.069590  -10.055530   -1.175740
  H     -1.035530  -11.545090    0.073600
  H      1.176780  -10.718230   -0.160280
  H      1.210280  -12.387920    0.456960
  H      1.920350   -9.973820    1.901690
  H      2.698060  -11.417400    1.818860
  H     -1.856050  -12.230470    2.478410
  H     -0.119590  -12.496110    2.777220
  H     -1.639060  -13.776440    0.641420
  H     -0.906380  -14.491300    1.923050
  H      0.404820  -10.717900    3.842860
  H     -0.479730   -9.491630    5.876740
  H     -0.626050   -6.975850    5.852590
  H     -1.848160   -6.237800    3.860130
  H     -2.979290   -5.936630    1.496530
  H     -3.911030   -6.208610   -0.761580
  H      1.960960   -9.825470    5.412510
  H      1.739020   -6.776910    5.712550
  H      4.537920   -3.576110    6.999370
  H      7.716900   -6.146310    6.816730
  H      8.067380   -8.598020    6.630510
  H     10.096650  -13.562450    6.394980
  H      6.149460  -13.641780    3.338640

 Total Charge           Charge          ....    0
 Multiplicity           Mult            ....    1
 Number of Electrons    NEL             ....  534
 Basis Dimension        Dim             .... 1240

ORBITAL ENERGIES
----------------

  NO   OCC          E(Eh)            E(eV)
   0   2.0000     -89.018166     -2422.3074
   1   2.0000     -88.992434     -2421.6073
   2   2.0000     -19.246115      -523.7134
   3   2.0000     -19.232066      -523.3311
   4   2.0000     -14.451816      -393.2539
   5   2.0000     -14.444072      -393.0432
   6   2.0000     -14.443662      -393.0320
   7   2.0000     -14.442731      -393.0067
   8   2.0000     -14.437756      -392.8713
   9   2.0000     -14.437437      -392.8626
  10   2.0000     -14.424539      -392.5117
  11   2.0000     -14.422443      -392.4546
  12   2.0000     -14.422187      -392.4477
  13   2.0000     -14.420406      -392.3992
  14   2.0000     -14.419012      -392.3613
  15   2.0000     -14.418606      -392.3502
  16   2.0000     -14.390380      -391.5821
  17   2.0000     -14.390004      -391.5719
  18   2.0000     -10.398361      -282.9538
  19   2.0000     -10.380206      -282.4598
  20   2.0000     -10.375364      -282.3280
  21   2.0000     -10.374767      -282.3118
  22   2.0000     -10.371075      -282.2113
  23   2.0000     -10.369839      -282.1777
  24   2.0000     -10.362798      -281.9861
  25   2.0000     -10.361697      -281.9561
  26   2.0000     -10.360713      -281.9293
  27   2.0000     -10.355462      -281.7865
  28   2.0000     -10.355225      -281.7800
  29   2.0000     -10.353962      -281.7456
  30   2.0000     -10.353201      -281.7249
  31   2.0000     -10.351586      -281.6810
  32   2.0000     -10.351564      -281.6804
  33   2.0000     -10.351178      -281.6699
  34   2.0000     -10.350144      -281.6417
  35   2.0000     -10.349585      -281.6265
  36   2.0000     -10.347953      -281.5821
  37   2.0000     -10.346350      -281.5385
  38   2.0000     -10.346040      -281.5300
  39   2.0000     -10.345017      -281.5022
  40   2.0000     -10.344556      -281.4897
  41   2.0000     -10.344014      -281.4749
  42   2.0000     -10.341235      -281.3993
  43   2.0000     -10.336599      -281.2731
  44   2.0000     -10.335391      -281.2403
  45   2.0000     -10.333961      -281.2014
  46   2.0000     -10.333755      -281.1958
  47   2.0000     -10.330331      -281.1026
  48   2.0000     -10.330226      -281.0997
  49   2.0000     -10.326218      -280.9907
  50   2.0000     -10.325657      -280.9754
  51   2.0000     -10.325498      -280.9711
  52   2.0000     -10.324574      -280.9459
  53   2.0000     -10.323425      -280.9147
  54   2.0000     -10.322171      -280.8806
  55   2.0000     -10.321471      -280.8615
  56   2.0000     -10.320712      -280.8409
  57   2.0000     -10.319861      -280.8177
  58   2.0000     -10.319406      -280.8053
  59   2.0000     -10.318565      -280.7824
  60   2.0000     -10.316991      -280.7396
  61   2.0000     -10.315930      -280.7107
  62   2.0000     -10.309251      -280.5290
  63   2.0000     -10.309034      -280.5231
  64   2.0000     -10.302616      -280.3484
  65   2.0000     -10.299042      -280.2512
  66   2.0000     -10.292981      -280.0862
  67   2.0000     -10.292648      -280.0772
  68   2.0000     -10.292294      -280.0676
  69   2.0000     -10.290263      -280.0123
  70   2.0000     -10.289437      -279.9898
  71   2.0000     -10.288786      -279.9721
  72   2.0000     -10.287862      -279.9470
  73   2.0000     -10.286147      -279.9003
  74   2.0000     -10.284568      -279.8573
  75   2.0000     -10.282524      -279.8017
  76   2.0000     -10.280644      -279.7505
  77   2.0000     -10.277826      -279.6739
  78   2.0000      -8.112384      -220.7492
  79   2.0000      -8.085091      -220.0065
  80   2.0000      -6.081259      -165.4795
  81   2.0000      -6.077210      -165.3693
  82   2.0000      -6.075377      -165.3194
  83   2.0000      -6.054190      -164.7429
  84   2.0000      -6.049532      -164.6161
  85   2.0000      -6.048164      -164.5789
  86   2.0000      -1.161548       -31.6073
  87   2.0000      -1.146865       -31.2078
  88   2.0000      -1.114504       -30.3272
  89   2.0000      -1.098634       -29.8953
  90   2.0000      -1.056972       -28.7617
  91   2.0000      -1.043069       -28.3833
  92   2.0000      -1.037168       -28.2228
  93   2.0000      -1.033432       -28.1211
  94   2.0000      -1.025672       -27.9100
  95   2.0000      -1.022204       -27.8156
  96   2.0000      -1.018224       -27.7073
  97   2.0000      -1.016859       -27.6701
  98   2.0000      -1.014997       -27.6195
  99   2.0000      -1.008171       -27.4337
 100   2.0000      -1.004370       -27.3303
 101   2.0000      -1.002689       -27.2846
 102   2.0000      -1.000564       -27.2267
 103   2.0000      -0.996932       -27.1279
 104   2.0000      -0.991314       -26.9750
 105   2.0000      -0.990270       -26.9466
 106   2.0000      -0.978552       -26.6277
 107   2.0000      -0.970774       -26.4161
 108   2.0000      -0.968605       -26.3571
 109   2.0000      -0.960183       -26.1279
 110   2.0000      -0.946457       -25.7544
 111   2.0000      -0.939629       -25.5686
 112   2.0000      -0.932019       -25.3615
 113   2.0000      -0.917014       -24.9532
 114   2.0000      -0.915896       -24.9228
 115   2.0000      -0.914005       -24.8714
 116   2.0000      -0.908558       -24.7231
 117   2.0000      -0.895565       -24.3696
 118   2.0000      -0.894501       -24.3406
 119   2.0000      -0.886915       -24.1342
 120   2.0000      -0.879346       -23.9282
 121   2.0000      -0.872074       -23.7303
 122   2.0000      -0.860247       -23.4085
 123   2.0000      -0.855727       -23.2855
 124   2.0000      -0.845995       -23.0207
 125   2.0000      -0.837834       -22.7986
 126   2.0000      -0.822110       -22.3707
 127   2.0000      -0.816639       -22.2219
 128   2.0000      -0.801612       -21.8130
 129   2.0000      -0.797664       -21.7055
 130   2.0000      -0.788772       -21.4636
 131   2.0000      -0.777597       -21.1595
 132   2.0000      -0.771117       -20.9831
 133   2.0000      -0.769311       -20.9340
 134   2.0000      -0.766287       -20.8517
 135   2.0000      -0.758844       -20.6492
 136   2.0000      -0.746536       -20.3143
 137   2.0000      -0.734722       -19.9928
 138   2.0000      -0.733820       -19.9683
 139   2.0000      -0.731252       -19.8984
 140   2.0000      -0.723676       -19.6922
 141   2.0000      -0.715578       -19.4719
 142   2.0000      -0.709792       -19.3144
 143   2.0000      -0.706098       -19.2139
 144   2.0000      -0.703717       -19.1491
 145   2.0000      -0.689644       -18.7662
 146   2.0000      -0.687979       -18.7209
 147   2.0000      -0.677788       -18.4436
 148   2.0000      -0.675337       -18.3769
 149   2.0000      -0.671073       -18.2608
 150   2.0000      -0.668611       -18.1938
 151   2.0000      -0.666680       -18.1413
 152   2.0000      -0.657515       -17.8919
 153   2.0000      -0.649717       -17.6797
 154   2.0000      -0.645628       -17.5684
 155   2.0000      -0.640229       -17.4215
 156   2.0000      -0.634333       -17.2611
 157   2.0000      -0.631994       -17.1974
 158   2.0000      -0.619736       -16.8639
 159   2.0000      -0.617322       -16.7982
 160   2.0000      -0.615389       -16.7456
 161   2.0000      -0.610372       -16.6091
 162   2.0000      -0.609932       -16.5971
 163   2.0000      -0.601817       -16.3763
 164   2.0000      -0.596778       -16.2392
 165   2.0000      -0.592465       -16.1218
 166   2.0000      -0.588817       -16.0225
 167   2.0000      -0.585150       -15.9227
 168   2.0000      -0.580202       -15.7881
 169   2.0000      -0.576777       -15.6949
 170   2.0000      -0.573733       -15.6121
 171   2.0000      -0.569698       -15.5023
 172   2.0000      -0.569421       -15.4947
 173   2.0000      -0.567015       -15.4292
 174   2.0000      -0.561425       -15.2771
 175   2.0000      -0.560447       -15.2505
 176   2.0000      -0.556803       -15.1514
 177   2.0000      -0.555833       -15.1250
 178   2.0000      -0.553374       -15.0581
 179   2.0000      -0.549943       -14.9647
 180   2.0000      -0.549674       -14.9574
 181   2.0000      -0.546406       -14.8685
 182   2.0000      -0.544882       -14.8270
 183   2.0000      -0.542497       -14.7621
 184   2.0000      -0.540125       -14.6975
 185   2.0000      -0.539718       -14.6865
 186   2.0000      -0.536220       -14.5913
 187   2.0000      -0.535333       -14.5672
 188   2.0000      -0.533643       -14.5212
 189   2.0000      -0.529977       -14.4214
 190   2.0000      -0.526848       -14.3363
 191   2.0000      -0.525420       -14.2974
 192   2.0000      -0.518588       -14.1115
 193   2.0000      -0.518121       -14.0988
 194   2.0000      -0.516450       -14.0533
 195   2.0000      -0.513559       -13.9746
 196   2.0000      -0.509372       -13.8607
 197   2.0000      -0.507639       -13.8136
 198   2.0000      -0.503173       -13.6920
 199   2.0000      -0.502512       -13.6741
 200   2.0000      -0.501008       -13.6331
 201   2.0000      -0.499066       -13.5803
 202   2.0000      -0.496082       -13.4991
 203   2.0000      -0.492287       -13.3958
 204   2.0000      -0.487297       -13.2600
 205   2.0000      -0.484529       -13.1847
 206   2.0000      -0.483048       -13.1444
 207   2.0000      -0.475768       -12.9463
 208   2.0000      -0.475050       -12.9268
 209   2.0000      -0.473569       -12.8865
 210   2.0000      -0.470703       -12.8085
 211   2.0000      -0.468842       -12.7578
 212   2.0000      -0.467633       -12.7249
 213   2.0000      -0.464509       -12.6399
 214   2.0000      -0.462964       -12.5979
 215   2.0000      -0.462398       -12.5825
 216   2.0000      -0.461359       -12.5542
 217   2.0000      -0.460803       -12.5391
 218   2.0000      -0.457087       -12.4380
 219   2.0000      -0.455747       -12.4015
 220   2.0000      -0.454094       -12.3565
 221   2.0000      -0.451283       -12.2800
 222   2.0000      -0.450563       -12.2604
 223   2.0000      -0.448680       -12.2092
 224   2.0000      -0.446015       -12.1367
 225   2.0000      -0.445823       -12.1314
 226   2.0000      -0.444999       -12.1090
 227   2.0000      -0.444766       -12.1027
 228   2.0000      -0.444100       -12.0846
 229   2.0000      -0.439052       -11.9472
 230   2.0000      -0.438604       -11.9350
 231   2.0000      -0.437785       -11.9127
 232   2.0000      -0.437508       -11.9052
 233   2.0000      -0.431336       -11.7372
 234   2.0000      -0.429524       -11.6880
 235   2.0000      -0.426379       -11.6024
 236   2.0000      -0.423749       -11.5308
 237   2.0000      -0.421314       -11.4645
 238   2.0000      -0.420213       -11.4346
 239   2.0000      -0.415712       -11.3121
 240   2.0000      -0.411219       -11.1898
 241   2.0000      -0.409833       -11.1521
 242   2.0000      -0.409517       -11.1435
 243   2.0000      -0.406059       -11.0494
 244   2.0000      -0.402121       -10.9423
 245   2.0000      -0.401373       -10.9219
 246   2.0000      -0.385793       -10.4980
 247   2.0000      -0.385735       -10.4964
 248   2.0000      -0.381747       -10.3879
 249   2.0000      -0.376540       -10.2462
 250   2.0000      -0.375337       -10.2134
 251   2.0000      -0.369957       -10.0670
 252   2.0000      -0.367579       -10.0023
 253   2.0000      -0.362912        -9.8753
 254   2.0000      -0.356706        -9.7065
 255   2.0000      -0.354219        -9.6388
 256   2.0000      -0.351113        -9.5543
 257   2.0000      -0.349131        -9.5003
 258   2.0000      -0.345753        -9.4084
 259   2.0000      -0.338047        -9.1987
 260   2.0000      -0.337858        -9.1936
 261   2.0000      -0.325909        -8.8684
 262   2.0000      -0.316044        -8.6000
 263   2.0000      -0.310755        -8.4561
 264   2.0000      -0.292643        -7.9632
 265   2.0000      -0.277312        -7.5460
 266   2.0000      -0.241432        -6.5697
 267   0.0000      -0.139972        -3.8088
 268   0.0000      -0.112335        -3.0568
 269   0.0000      -0.107852        -2.9348
 270   0.0000      -0.091540        -2.4909
 271   0.0000      -0.079511        -2.1636

MULLIKEN ATOMIC CHARGES
-----------------------
   0 C :    0.043638
   1 C :   -0.044555
   2 C :   -0.060443
   3 C :   -0.174627
   4 N :    0.197138
   5 C :   -0.067803
   6 C :   -0.175153
   7 N :    0.192293
   8 C :   -0.040764
   9 C :    0.000117
  10 C :    0.167437
  11 O :   -0.185501
  12 C :   -0.103703
  13 C :    0.332681
  14 C :   -0.346241
  15 C :   -0.192029
  16 N :    0.164075
  17 C :   -0.201848
  18 N :    0.169547
  19 C :   -0.051017
  20 C :   -0.113867
  21 S :    0.238891
  22 C :   -0.076872
  23 C :    0.056673
  24 C :    0.037028
  25 N :   -0.048419
  26 C :    0.090027
  27 N :   -0.103171
  28 C :    0.028530
  29 C :    0.095424
  30 C :   -0.097260
  31 C :    0.034530
  32 C :   -0.011641
  33 C :   -0.008475
  34 C :    0.133425
  35 N :   -0.254694
  36 C :    0.116103
  37 N :   -0.216806
  38 C :    0.055518
  39 C :   -0.130247
  40 C :    0.208295
  41 C :   -0.069739
  42 C :    0.029711
  43 C :    0.010077
  44 C :    0.041547
  45 C :    0.002026
  46 C :   -0.021636
  47 C :   -0.095359
  48 C :    0.041196
  49 C :   -0.071546
  50 S :    0.181393
  51 C :   -0.151877
  52 C :    0.123346
  53 C :    0.021345
  54 N :   -0.050834
  55 C :    0.081251
  56 N :   -0.086673
  57 C :    0.038438
  58 C :    0.048535
  59 C :   -0.152817
  60 C :    0.150570
  61 O :   -0.126707
  62 C :    0.005716
  63 C :   -0.032876
  64 C :   -0.067909
  65 C :   -0.059178
  66 C :   -0.044392
  67 C :    0.040074
  68 C :    0.254786
  69 C :   -0.334763
  70 C :   -0.221137
  71 N :    0.185062
  72 C :   -0.106902
  73 N :    0.119844
  74 C :   -0.175393
  75 N :    0.204656
  76 C :   -0.173097
  77 N :    0.199753
  78 H :    0.018424
  79 H :    0.011143
  80 H :    0.030754
  81 H :    0.030440
  82 H :    0.009325
  83 H :   -0.020471
  84 H :   -0.036338
  85 H :   -0.007734
  86 H :    0.015784
  87 H :    0.101658
  88 H :    0.100317
  89 H :   -0.008915
  90 H :    0.001266
  91 H :    0.093270
  92 H :    0.094616
  93 H :    0.020287
  94 H :    0.057900
  95 H :    0.001065
  96 H :   -0.031014
  97 H :   -0.028569
  98 H :   -0.005677
  99 H :    0.017078
 100 H :    0.021804
 101 H :    0.027957
 102 H :    0.018109
 103 H :    0.032127
 104 H :    0.020593
 105 H :    0.022077
Sum of atomic charges:   -0.0000000

LOEWDIN ATOMIC CHARGES
----------------------
   0 C :    0.005857
   1 C :    0.032508
   2 C :   -0.026447
   3 C :   -0.030929
   4 N :   -0.015582
   5 C :   -0.032299
   6 C :   -0.031354
   7 N :   -0.019877
   8 C :    0.044015
   9 C :   -0.028165
  10 C :    0.081641
  11 O :   -0.174293
  12 C :   -0.128740
  13 C :    0.067509
  14 C :   -0.130936
  15 C :   -0.021471
  16 N :   -0.045379
  17 C :   -0.026360
  18 N :   -0.032891
  19 C :    0.071325
  20 C :   -0.216992
  21 S :    0.571881
  22 C :   -0.117503
  23 C :   -0.101337
  24 C :    0.016097
  25 N :   -0.076709
  26 C :    0.065951
  27 N :   -0.095501
  28 C :    0.071635
  29 C :   -0.057170
  30 C :    0.015878
  31 C :   -0.030428
  32 C :   -0.007269
  33 C :   -0.044121
  34 C :    0.035074
  35 N :   -0.112105
  36 C :    0.024448
  37 N :   -0.112080
  38 C :   -0.023831
  39 C :    0.086798
  40 C :   -0.031158
  41 C :   -0.042483
  42 C :   -0.005329
  43 C :   -0.040738
  44 C :   -0.028658
  45 C :   -0.000175
  46 C :   -0.033276
  47 C :    0.029586
  48 C :   -0.042733
  49 C :   -0.121184
  50 S :    0.538497
  51 C :   -0.190826
  52 C :   -0.050519
  53 C :   -0.026853
  54 N :   -0.069632
  55 C :    0.050631
  56 N :   -0.068644
  57 C :    0.070873
  58 C :    0.060428
  59 C :   -0.114862
  60 C :    0.081706
  61 O :   -0.129616
  62 C :   -0.028783
  63 C :    0.049599
  64 C :   -0.027621
  65 C :   -0.022838
  66 C :    0.028762
  67 C :    0.003254
  68 C :    0.057413
  69 C :   -0.147548
  70 C :   -0.039532
  71 N :   -0.037635
  72 C :   -0.005545
  73 N :   -0.048121
  74 C :   -0.032461
  75 N :   -0.008893
  76 C :   -0.032790
  77 N :   -0.010335
  78 H :    0.051814
  79 H :    0.051758
  80 H :    0.055207
  81 H :    0.026183
  82 H :    0.026193
  83 H :    0.028417
  84 H :    0.023235
  85 H :    0.004374
  86 H :    0.024484
  87 H :    0.052335
  88 H :    0.047094
  89 H :   -0.001455
  90 H :    0.016340
  91 H :    0.053063
  92 H :    0.056566
  93 H :    0.029351
  94 H :    0.072581
  95 H :    0.026369
  96 H :    0.032849
  97 H :    0.031343
  98 H :    0.023911
  99 H :    0.022262
 100 H :    0.046484
 101 H :    0.024494
 102 H :    0.031069
 103 H :    0.053594
 104 H :    0.055645
 105 H :    0.051634

  Mayer bond orders larger than 0.100000
B(  0-C ,  1-C ) :   1.3690 B(  0-C ,  9-C ) :   1.3342 B(  0-C , 13-C ) :   0.9458
B(  1-C ,  2-C ) :   1.3830 B(  1-C , 78-H ) :   0.9847 B(  2-C ,  3-C ) :   1.0874
B(  2-C ,  5-C ) :   1.4070 B(  3-C ,  4-N ) :   3.0419 B(  5-C ,  6-C ) :   1.0837
B(  5-C ,  8-C ) :   1.3579 B(  6-C ,  7-N ) :   3.0455 B(  8-C ,  9-C ) :   1.3677
B(  8-C , 79-H ) :   1.0148 B(  9-C , 10-C ) :   0.9365 B( 10-C , 11-O ) :   2.1212
B( 10-C , 12-C ) :   1.0117 B( 12-C , 13-C ) :   1.1054 B( 12-C , 19-C ) :   1.3869
B( 13-C , 14-C ) :   1.6299 B( 14-C , 15-C ) :   1.1535 B( 14-C , 17-C ) :   1.1451
B( 15-C , 16-N ) :   2.9571 B( 17-C , 18-N ) :   2.9682 B( 19-C , 20-C ) :   1.3742
B( 19-C , 80-H ) :   0.9347 B( 20-C , 21-S ) :   1.0739 B( 20-C , 24-C ) :   1.2350
B( 21-S , 22-C ) :   1.2308 B( 22-C , 23-C ) :   1.2315 B( 22-C , 29-C ) :   1.1043
B( 23-C , 24-C ) :   1.2250 B( 23-C , 28-C ) :   1.2167 B( 24-C , 25-N ) :   1.4627
B( 25-N , 26-C ) :   1.6037 B( 26-C , 27-N ) :   1.3783 B( 26-C , 81-H ) :   0.9747
B( 27-N , 28-C ) :   1.6757 B( 28-C , 82-H ) :   0.9811 B( 29-C , 30-C ) :   1.4823
B( 29-C , 46-C ) :   1.1089 B( 30-C , 31-C ) :   1.1688 B( 30-C , 83-H ) :   0.9883
B( 31-C , 32-C ) :   1.4667 B( 31-C , 44-C ) :   1.1153 B( 32-C , 33-C ) :   1.0216
B( 32-C , 38-C ) :   1.1037 B( 33-C , 34-C ) :   1.0085 B( 33-C , 36-C ) :   1.0233
B( 33-C , 84-H ) :   0.8869 B( 34-C , 35-N ) :   1.1113 B( 34-C , 85-H ) :   0.9469
B( 34-C , 86-H ) :   0.9340 B( 35-N , 87-H ) :   0.9583 B( 35-N , 88-H ) :   0.9545
B( 36-C , 37-N ) :   1.0993 B( 36-C , 89-H ) :   0.9542 B( 36-C , 90-H ) :   0.9251
B( 37-N , 91-H ) :   0.9709 B( 37-N , 92-H ) :   0.9679 B( 38-C , 39-C ) :   1.6931
B( 38-C , 43-C ) :   1.0560 B( 39-C , 40-C ) :   0.9361 B( 39-C , 93-H ) :   0.9443
B( 40-C , 41-C ) :   1.0177 B( 40-C , 47-C ) :   0.9461 B( 40-C , 94-H ) :   0.8285
B( 41-C , 42-C ) :   1.7335 B( 41-C , 95-H ) :   0.9606 B( 42-C , 43-C ) :   1.1270
B( 42-C , 96-H ) :   0.9898 B( 43-C , 44-C ) :   1.4363 B( 44-C , 45-C ) :   1.1413
B( 45-C , 46-C ) :   1.6210 B( 45-C , 97-H ) :   0.9924 B( 46-C , 98-H ) :   0.9812
B( 47-C , 48-C ) :   1.7605 B( 47-C , 99-H ) :   0.9695 B( 48-C , 49-C ) :   1.1570
B( 48-C ,100-H ) :   0.9606 B( 49-C , 50-S ) :   1.2140 B( 49-C , 53-C ) :   1.2871
B( 50-S , 51-C ) :   1.1196 B( 51-C , 52-C ) :   1.2456 B( 51-C , 58-C ) :   1.2349
B( 52-C , 53-C ) :   1.2325 B( 52-C , 57-C ) :   1.1934 B( 53-C , 54-N ) :   1.4315
B( 54-N , 55-C ) :   1.6387 B( 55-C , 56-N ) :   1.3530 B( 55-C ,101-H ) :   0.9744
B( 56-N , 57-C ) :   1.7147 B( 57-C ,102-H ) :   0.9822 B( 58-C , 59-C ) :   1.5527
B( 58-C ,103-H ) :   0.9442 B( 59-C , 60-C ) :   0.9590 B( 59-C , 68-C ) :   1.0740
B( 60-C , 61-O ) :   2.2805 B( 60-C , 62-C ) :   0.8959 B( 62-C , 63-C ) :   1.3759
B( 62-C , 67-C ) :   1.3311 B( 63-C , 64-C ) :   1.3588 B( 63-C ,104-H ) :   1.0145
B( 64-C , 65-C ) :   1.4075 B( 64-C , 76-C ) :   1.0896 B( 65-C , 66-C ) :   1.3864
B( 65-C , 74-C ) :   1.0847 B( 66-C , 67-C ) :   1.3640 B( 66-C ,105-H ) :   0.9908
B( 67-C , 68-C ) :   0.9904 B( 68-C , 69-C ) :   1.6213 B( 69-C , 70-C ) :   1.1601
B( 69-C , 72-C ) :   1.1515 B( 70-C , 71-N ) :   3.0245 B( 72-C , 73-N ) :   2.8458
B( 74-C , 75-N ) :   3.0459 B( 76-C , 77-N ) :   3.0425

-----------------------------------------------------------------------------
         ABSORPTION SPECTRUM VIA TRANSITION ELECTRIC DIPOLE MOMENTS
-----------------------------------------------------------------------------
State   Energy  Wavelength   fosc         T2         TX        TY        TZ
        (cm-1)    (nm)                  (au**2)     (au)      (au)      (au)
-----------------------------------------------------------------------------
   0    9132.0   1095.1   0.013587334   0.48983   0.56359  -0.30890   0.27707
   1   12679.5    788.7   0.208657787   5.41763   1.15455  -1.19389   1.63073
   2   15403.0    649.2   0.437230432   9.34506  -2.44974   1.82703  -0.07629
   3   17581.7    568.8   0.749833578  14.04038  -1.03007   0.38354  -3.58221
   4   18792.7    532.1   0.083710685   1.46645  -0.52441   0.16098  -1.07960
   5   20013.5    499.7   0.228819695   3.76398   0.84292  -0.97036   1.45322
   6   20524.0    487.2   0.134322076   2.15457  -0.56868   0.92588  -0.98688
   7   20910.9    478.2   0.215399581   3.39116  -0.76331   1.09147  -1.27169
   8   22043.8    453.6   0.002876299   0.04296   0.02325  -0.20592  -0.00367
   9   22929.4    436.1   0.101882562   1.46279   1.15506  -0.31311   0.17492
  10   24885.0    401.8   0.005864045   0.07758   0.15271  -0.11108   0.20474
  11   25325.4    394.9   0.058293561   0.75777   0.25365  -0.83224   0.02867
  12   25343.0    394.6   0.004152191   0.05394   0.00252   0.15110   0.17636
  13   25459.8    392.8   0.009574356   0.12380   0.03991   0.32120   0.13799
  14   25619.6    390.3   0.046117461   0.59261  -0.37487  -0.58542  -0.33070
  15   26457.8    378.0   0.123414389   1.53563   1.13340  -0.26639   0.42437
  16   26622.4    375.6   0.140453626   1.73685  -0.91593   0.84721  -0.42444
  17   27485.5    363.8   0.002852763   0.03417  -0.10324  -0.07294   0.13488
  18   27882.2    358.7   0.018181034   0.21467  -0.25315  -0.30832  -0.23563
  19   28010.0    357.0   0.083643104   0.98309  -0.19614  -0.77242  -0.58990
  20   28166.9    355.0   0.020593537   0.24070   0.30442   0.29840   0.24286
  21   29216.8    342.3   0.029308090   0.33024  -0.30034   0.46362  -0.15840
  22   29225.3    342.2   0.112404297   1.26619  -0.47415   1.00720  -0.16406
  23   29263.5    341.7   0.006355179   0.07150   0.08320  -0.25228  -0.03048
  24   29571.4    338.2   0.036370721   0.40491   0.43222  -0.06081   0.46303
  25   29811.3    335.4   0.081574106   0.90084   0.68140   0.10106   0.65293
  26   29995.9    333.4   0.026907362   0.29531   0.49237  -0.09655   0.20873
  27   30679.4    326.0   0.012266560   0.13163   0.13724  -0.24562   0.22905
  28   30919.9    323.4   0.011023954   0.11737   0.08222  -0.28420  -0.17277
  29   31044.4    322.1   0.093209449   0.98844   0.20233  -0.97024   0.07839
  30   31070.0    321.9   0.027644330   0.29291  -0.17448  -0.11521  -0.49920
  31   31318.2    319.3   0.001714319   0.01802  -0.00375  -0.06411  -0.11789
  32   32769.1    305.2   0.014640908   0.14709  -0.07807  -0.37235  -0.04845
  33   33011.3    302.9   0.190402930   1.89883  -0.74672  -0.67775  -0.93909
  34   33432.6    299.1   0.007618446   0.07502  -0.25995   0.06130   0.06072
  35   33538.9    298.2   0.001415111   0.01389  -0.08684   0.06930  -0.03933
  36   33775.6    296.1   0.094052016   0.91673  -0.07053   0.93535  -0.19202
  37   33825.9    295.6   0.191267874   1.86152   0.07071  -1.33434  -0.27577
  38   34139.9    292.9   0.269142597   2.59535   0.26270   1.28621   0.93382
  39   34422.9    290.5   0.040294509   0.38537   0.33654  -0.41980   0.30963
  40   34558.6    289.4   0.417141177   3.97377  -0.33314   1.96508   0.03536
  41   34679.7    288.4   0.118395037   1.12392  -0.26958  -0.86225  -0.55477
  42   35117.7    284.8   0.125560149   1.17707   0.23231   0.82873   0.66053
  43   35134.7    284.6   0.249967912   2.34220  -0.91685   0.36137  -1.17090
  44   35289.7    283.4   0.071777779   0.66960  -0.65114  -0.09616  -0.48618
  45   35381.4    282.6   0.029394280   0.27350  -0.12548  -0.01704  -0.50741
  46   35430.1    282.2   0.181280277   1.68443  -0.60044  -0.50120  -1.03571
  47   35782.1    279.5   0.029577616   0.27213   0.28147   0.12292   0.42166
  48   35841.3    279.0   0.005367723   0.04930   0.18205  -0.00291  -0.12709
  49   35888.0    278.6   0.092049058   0.84439  -0.47035  -0.08678  -0.78462
  50   36201.6    276.2   0.061962480   0.56348   0.19687   0.31505   0.65228
  51   36253.0    275.8   0.023054350   0.20936   0.12163   0.13093   0.42121
  52   36812.7    271.6   0.050324903   0.45005  -0.10715  -0.63626  -0.18368
  53   37191.3    268.9   0.006903084   0.06111   0.03899  -0.19760  -0.14332
  54   37346.4    267.8   0.000925343   0.00816  -0.00649   0.03024  -0.08486
  55   37512.5    266.6   0.017517272   0.15373   0.08404  -0.06591   0.37726
  56   37912.3    263.8   0.001619288   0.01406   0.07138  -0.00489   0.09456
  57   38025.0    263.0   0.021143754   0.18306  -0.02076   0.36789   0.21745
  58   38142.6    262.2   0.007939655   0.06853  -0.04932  -0.17923  -0.18431
  59   38272.5    261.3   0.016679197   0.14347  -0.04406   0.15767   0.34157
  60   38364.5    260.7   0.008390781   0.07200   0.02577  -0.00234   0.26708
  61   38418.5    260.3   0.000725144   0.00621   0.07433   0.00726   0.02523
  62   38460.1    260.0   0.023514792   0.20128   0.01262   0.42253   0.15031
  63   39015.2    256.3   0.088721828   0.74864  -0.36404  -0.53835  -0.57122
  64   39130.2    255.6   0.022159024   0.18643   0.16047   0.34625   0.20197
  65   39206.5    255.1   0.005491546   0.04611   0.11589  -0.16477   0.07437
  66   39369.1    254.0   0.004777326   0.03995   0.01725  -0.17085   0.10228
  67   39569.4    252.7   0.001287064   0.01071  -0.08350  -0.02141  -0.05724
  68   39878.3    250.8   0.383274112   3.16409   0.45443   1.19282   1.23885
  69   40059.6    249.6   0.007335740   0.06029   0.16861  -0.09808   0.14912
  70   40089.0    249.4   0.031838229   0.26146  -0.02801   0.45092   0.23947
  71   40238.5    248.5   0.044122866   0.36099   0.28822  -0.46361   0.25098

FINAL SINGLE POINT ENERGY     -4012.033887428683

DIPOLE MOMENT
-------------
                                X             Y             Z
Electronic contribution:      5.06073      22.77455     -31.04371
Nuclear contribution   :     -3.19661     -23.74750      38.08444
                        -----------------------------------------
Total Dipole Moment    :      1.86411      -0.97295       7.04072
                        -----------------------------------------
Magnitude (a.u.)       :      7.34801
Magnitude (Debye)      :     18.67717

Rotational constants in cm-1:     0.001384     0.000246     0.000226
Rotational constants in MHz :    41.495511     7.365347     6.779381

                             ****ORCA TERMINATED NORMALLY****
TOTAL RUN TIME: 0 days 0 hours 26 minutes 1 seconds 428 msec
