                         Program Version 4.2.0 -  RELEASE  -
|  1> # ORCA input file
|  2> # SCF done       -199.971729131480          0.000584889721
|  3> ! CAM-B3LYP def2-SVP def2/J RIJCOSX Grid4 TightSCF
|  4> %maxcore 5000
|  5> %tddft
|  6>     Mode sTDDFT
|  7>     Ethresh 5.0
|  8>     maxcore 5000
|  9> end
| 10>
| 11> %pal
| 12>   nprocs 6
| 13>   end
| 14> * xyz 0 1
| 15>    C       -4.35456         0.71358         0.55097
| 16>    C       -4.48901         2.09127         0.49513
| 17>    C       -5.43781         2.70031         1.31811
| 18>    C       -5.60002         4.10738         1.26880
| 19>    N       -5.72461         5.24438         1.22299
| 20>    C       -6.23861         1.94258         2.19453
| 21>    C       -7.19280         2.59031         3.01575
| 22>    N       -7.96888         3.09737         3.68790
| 23>    C       -6.09388         0.55553         2.25358
| 24>    C       -5.16357        -0.03644         1.42689
| 25>    C       -4.82893        -1.47336         1.29677
| 26>    O       -5.14364        -2.36598         2.04779
| 27>    C       -3.87343        -1.54603         0.16019
| 28>    C       -3.47896        -0.19647        -0.18948
| 29>    C       -2.48451         0.17579        -1.05336
| 30>    C       -2.15239         1.51416        -1.35629
| 31>    N       -1.83718         2.58074        -1.63679
| 32>    C       -1.63487        -0.72989        -1.72389
| 33>    N       -0.91249        -1.42441        -2.28387
| 34>    C       -3.44839        -2.72110        -0.38211
| 35>    C       -4.13858        -3.94280        -0.18090
| 36>    C       -3.69678        -5.23432        -0.18640
| 37>    C       -4.82738        -6.13154         0.03218
| 38>    N       -5.95700        -5.37924         0.09998
| 39>    C       -5.63348        -4.03251        -0.05954
| 40>    O       -6.44670        -3.15308        -0.19108
| 41>    C       -7.30991        -5.84993         0.21840
| 42>    C       -4.37989        -7.41317         0.02024
| 43>    C       -2.89628        -7.33117        -0.15223
| 44>    O       -2.07417        -8.20701        -0.12632
| 45>    N       -2.56754        -5.96553        -0.27858
| 46>    C       -1.22568        -5.48601        -0.47220
| 47>    C       -5.03814        -8.68793         0.16845
| 48>    C       -4.71310        -9.74242        -0.70878
| 49>    C       -5.23238       -11.06926        -0.53162
| 50>    N       -4.89348       -12.04549        -1.40869
| 51>    C       -4.11528       -11.73595        -2.40504
| 52>    C       -3.65085       -10.41497        -2.60757
| 53>    N       -3.94790        -9.45369        -1.78611
| 54>    C       -6.13870       -11.36356         0.50418
| 55>    C       -6.48413       -10.30772         1.35999
| 56>    C       -5.94496        -8.97703         1.19544
| 57>    N       -6.37927        -8.14950         2.15682
| 58>    S       -7.34047        -8.96636         3.14661
| 59>    N       -7.27035       -10.39232         2.43920
| 60>    C       -6.80494       -12.63519         0.64855
| 61>    C       -6.39118       -13.92899         0.63788
| 62>    C       -7.55185       -14.79729         0.82801
| 63>    N       -8.66764       -14.03466         0.87701
| 64>    C       -8.28795       -12.67526         0.76578
| 65>    O       -9.08690       -11.77906         0.71354
| 66>    C      -10.04006       -14.44832         0.76073
| 67>    C       -7.13966       -16.09944         0.84697
| 68>    C       -5.65743       -16.05363         0.60257
| 69>    O       -4.89736       -16.97905         0.49073
| 70>    N       -5.28667       -14.71151         0.54984
| 71>    C       -3.91448       -14.28513         0.52540
| 72>    C       -7.80665       -17.32411         1.07893
| 73>    C       -8.86089       -17.58070         1.90294
| 74>    C       -9.62151       -18.84880         1.73725
| 75>    O       -9.33594       -19.78321         1.02960
| 76>    C      -10.82966       -18.68970         2.58074
| 77>    C      -11.91076       -19.53676         2.69900
| 78>    C      -12.95745       -19.15455         3.53998
| 79>    C      -12.89569       -17.93069         4.23305
| 80>    C      -11.79098       -17.08499         4.11289
| 81>    C      -10.75014       -17.47383         3.28708
| 82>    C       -9.46914       -16.82791         2.97902
| 83>    C       -8.88402       -15.86051         3.75640
| 84>    C       -7.56787       -15.38299         3.60912
| 85>    N       -6.50149       -14.96017         3.56342
| 86>    C       -9.51955       -15.25129         4.86064
| 87>    N       -9.99858       -14.71347         5.75343
| 88>    C      -13.97711       -17.54604         5.06469
| 89>    N      -14.84723       -17.22483         5.73539
| 90>    C      -14.08798       -19.99411         3.68942
| 91>    N      -14.99437       -20.68518         3.79698
| 92>    H       -3.89357         2.70407        -0.16299
| 93>    H       -6.70002        -0.03956         2.91934
| 94>    H       -2.58382        -2.74386        -1.03161
| 95>    H       -7.42640        -6.39684         1.15437
| 96>    H       -7.56244        -6.50535        -0.61739
| 97>    H       -7.96109        -4.97708         0.21068
| 98>    H       -0.55395        -6.33413        -0.34433
| 99>    H       -0.99015        -4.71465         0.26222
|100>    H       -1.09916        -5.07613        -1.47603
|101>    H       -3.85594       -12.53603        -3.08548
|102>    H       -3.04843       -10.15549        -3.46684
|103>    H      -10.16779       -15.10931        -0.09871
|104>    H      -10.63377       -13.54472         0.62064
|105>    H      -10.38440       -14.96356         1.65801
|106>    H       -3.29795       -15.17154         0.38390
|107>    H       -3.65225       -13.80372         1.46919
|108>    H       -3.76392       -13.58432        -0.29481
|109>    H       -7.42127       -18.17929         0.53011
|110>    H      -11.94606       -20.46865         2.15551
|111>    H      -11.78193       -16.15274         4.65526
|112> *
|113>
|114>                          ****END OF INPUT****

CARTESIAN COORDINATES (ANGSTROEM)
---------------------------------
  C     -4.354560    0.713580    0.550970
  C     -4.489010    2.091270    0.495130
  C     -5.437810    2.700310    1.318110
  C     -5.600020    4.107380    1.268800
  N     -5.724610    5.244380    1.222990
  C     -6.238610    1.942580    2.194530
  C     -7.192800    2.590310    3.015750
  N     -7.968880    3.097370    3.687900
  C     -6.093880    0.555530    2.253580
  C     -5.163570   -0.036440    1.426890
  C     -4.828930   -1.473360    1.296770
  O     -5.143640   -2.365980    2.047790
  C     -3.873430   -1.546030    0.160190
  C     -3.478960   -0.196470   -0.189480
  C     -2.484510    0.175790   -1.053360
  C     -2.152390    1.514160   -1.356290
  N     -1.837180    2.580740   -1.636790
  C     -1.634870   -0.729890   -1.723890
  N     -0.912490   -1.424410   -2.283870
  C     -3.448390   -2.721100   -0.382110
  C     -4.138580   -3.942800   -0.180900
  C     -3.696780   -5.234320   -0.186400
  C     -4.827380   -6.131540    0.032180
  N     -5.957000   -5.379240    0.099980
  C     -5.633480   -4.032510   -0.059540
  O     -6.446700   -3.153080   -0.191080
  C     -7.309910   -5.849930    0.218400
  C     -4.379890   -7.413170    0.020240
  C     -2.896280   -7.331170   -0.152230
  O     -2.074170   -8.207010   -0.126320
  N     -2.567540   -5.965530   -0.278580
  C     -1.225680   -5.486010   -0.472200
  C     -5.038140   -8.687930    0.168450
  C     -4.713100   -9.742420   -0.708780
  C     -5.232380  -11.069260   -0.531620
  N     -4.893480  -12.045490   -1.408690
  C     -4.115280  -11.735950   -2.405040
  C     -3.650850  -10.414970   -2.607570
  N     -3.947900   -9.453690   -1.786110
  C     -6.138700  -11.363560    0.504180
  C     -6.484130  -10.307720    1.359990
  C     -5.944960   -8.977030    1.195440
  N     -6.379270   -8.149500    2.156820
  S     -7.340470   -8.966360    3.146610
  N     -7.270350  -10.392320    2.439200
  C     -6.804940  -12.635190    0.648550
  C     -6.391180  -13.928990    0.637880
  C     -7.551850  -14.797290    0.828010
  N     -8.667640  -14.034660    0.877010
  C     -8.287950  -12.675260    0.765780
  O     -9.086900  -11.779060    0.713540
  C    -10.040060  -14.448320    0.760730
  C     -7.139660  -16.099440    0.846970
  C     -5.657430  -16.053630    0.602570
  O     -4.897360  -16.979050    0.490730
  N     -5.286670  -14.711510    0.549840
  C     -3.914480  -14.285130    0.525400
  C     -7.806650  -17.324110    1.078930
  C     -8.860890  -17.580700    1.902940
  C     -9.621510  -18.848800    1.737250
  O     -9.335940  -19.783210    1.029600
  C    -10.829660  -18.689700    2.580740
  C    -11.910760  -19.536760    2.699000
  C    -12.957450  -19.154550    3.539980
  C    -12.895690  -17.930690    4.233050
  C    -11.790980  -17.084990    4.112890
  C    -10.750140  -17.473830    3.287080
  C     -9.469140  -16.827910    2.979020
  C     -8.884020  -15.860510    3.756400
  C     -7.567870  -15.382990    3.609120
  N     -6.501490  -14.960170    3.563420
  C     -9.519550  -15.251290    4.860640
  N     -9.998580  -14.713470    5.753430
  C    -13.977110  -17.546040    5.064690
  N    -14.847230  -17.224830    5.735390
  C    -14.087980  -19.994110    3.689420
  N    -14.994370  -20.685180    3.796980
  H     -3.893570    2.704070   -0.162990
  H     -6.700020   -0.039560    2.919340
  H     -2.583820   -2.743860   -1.031610
  H     -7.426400   -6.396840    1.154370
  H     -7.562440   -6.505350   -0.617390
  H     -7.961090   -4.977080    0.210680
  H     -0.553950   -6.334130   -0.344330
  H     -0.990150   -4.714650    0.262220
  H     -1.099160   -5.076130   -1.476030
  H     -3.855940  -12.536030   -3.085480
  H     -3.048430  -10.155490   -3.466840
  H    -10.167790  -15.109310   -0.098710
  H    -10.633770  -13.544720    0.620640
  H    -10.384400  -14.963560    1.658010
  H     -3.297950  -15.171540    0.383900
  H     -3.652250  -13.803720    1.469190
  H     -3.763920  -13.584320   -0.294810
  H     -7.421270  -18.179290    0.530110
  H    -11.946060  -20.468650    2.155510
  H    -11.781930  -16.152740    4.655260

 Total Charge           Charge          ....    0
 Multiplicity           Mult            ....    1
 Number of Electrons    NEL             ....  520
 Basis Dimension        Dim             .... 1182

ORBITAL ENERGIES
----------------

  NO   OCC          E(Eh)            E(eV)
   0   2.0000     -89.053623     -2423.2723
   1   2.0000     -19.245027      -523.6838
   2   2.0000     -19.236917      -523.4631
   3   2.0000     -19.235514      -523.4250
   4   2.0000     -19.232527      -523.3437
   5   2.0000     -19.228528      -523.2348
   6   2.0000     -19.225024      -523.1395
   7   2.0000     -14.497097      -394.4861
   8   2.0000     -14.490201      -394.2984
   9   2.0000     -14.483625      -394.1195
  10   2.0000     -14.482702      -394.0944
  11   2.0000     -14.459053      -393.4508
  12   2.0000     -14.457960      -393.4211
  13   2.0000     -14.451673      -393.2500
  14   2.0000     -14.447296      -393.1309
  15   2.0000     -14.442633      -393.0040
  16   2.0000     -14.440644      -392.9499
  17   2.0000     -14.439075      -392.9072
  18   2.0000     -14.434958      -392.7952
  19   2.0000     -14.434693      -392.7880
  20   2.0000     -14.434091      -392.7716
  21   2.0000     -14.429039      -392.6341
  22   2.0000     -14.427610      -392.5952
  23   2.0000     -10.414511      -283.3933
  24   2.0000     -10.411542      -283.3125
  25   2.0000     -10.409202      -283.2488
  26   2.0000     -10.407227      -283.1951
  27   2.0000     -10.395491      -282.8757
  28   2.0000     -10.387175      -282.6494
  29   2.0000     -10.377550      -282.3875
  30   2.0000     -10.374131      -282.2945
  31   2.0000     -10.372482      -282.2496
  32   2.0000     -10.371075      -282.2113
  33   2.0000     -10.368388      -282.1382
  34   2.0000     -10.367229      -282.1066
  35   2.0000     -10.366936      -282.0987
  36   2.0000     -10.365041      -282.0471
  37   2.0000     -10.364076      -282.0208
  38   2.0000     -10.362620      -281.9812
  39   2.0000     -10.360312      -281.9184
  40   2.0000     -10.359958      -281.9088
  41   2.0000     -10.349520      -281.6247
  42   2.0000     -10.348836      -281.6061
  43   2.0000     -10.347450      -281.5684
  44   2.0000     -10.346526      -281.5433
  45   2.0000     -10.346440      -281.5409
  46   2.0000     -10.345181      -281.5067
  47   2.0000     -10.345089      -281.5042
  48   2.0000     -10.344667      -281.4927
  49   2.0000     -10.342690      -281.4389
  50   2.0000     -10.342511      -281.4340
  51   2.0000     -10.342171      -281.4248
  52   2.0000     -10.342145      -281.4241
  53   2.0000     -10.340853      -281.3889
  54   2.0000     -10.340651      -281.3834
  55   2.0000     -10.338874      -281.3351
  56   2.0000     -10.337022      -281.2847
  57   2.0000     -10.335591      -281.2457
  58   2.0000     -10.334788      -281.2239
  59   2.0000     -10.333843      -281.1982
  60   2.0000     -10.333365      -281.1851
  61   2.0000     -10.331326      -281.1297
  62   2.0000     -10.331226      -281.1270
  63   2.0000     -10.330811      -281.1156
  64   2.0000     -10.326221      -280.9908
  65   2.0000     -10.325519      -280.9717
  66   2.0000     -10.325123      -280.9609
  67   2.0000     -10.325046      -280.9588
  68   2.0000     -10.324251      -280.9372
  69   2.0000     -10.324014      -280.9307
  70   2.0000     -10.320955      -280.8475
  71   2.0000     -10.316823      -280.7350
  72   2.0000     -10.316724      -280.7323
  73   2.0000     -10.316464      -280.7253
  74   2.0000     -10.316451      -280.7249
  75   2.0000     -10.316427      -280.7243
  76   2.0000     -10.315161      -280.6898
  77   2.0000      -8.144680      -221.6280
  78   2.0000      -6.115534      -166.4121
  79   2.0000      -6.107929      -166.2052
  80   2.0000      -6.107786      -166.2013
  81   2.0000      -1.178258       -32.0620
  82   2.0000      -1.174291       -31.9541
  83   2.0000      -1.167470       -31.7685
  84   2.0000      -1.166018       -31.7290
  85   2.0000      -1.160824       -31.5876
  86   2.0000      -1.149745       -31.2862
  87   2.0000      -1.148476       -31.2516
  88   2.0000      -1.112855       -30.2823
  89   2.0000      -1.109340       -30.1867
  90   2.0000      -1.105561       -30.0838
  91   2.0000      -1.078618       -29.3507
  92   2.0000      -1.075795       -29.2739
  93   2.0000      -1.051961       -28.6253
  94   2.0000      -1.044410       -28.4198
  95   2.0000      -1.037590       -28.2343
  96   2.0000      -1.031514       -28.0689
  97   2.0000      -1.030724       -28.0474
  98   2.0000      -1.020516       -27.7696
  99   2.0000      -1.019087       -27.7308
 100   2.0000      -1.015106       -27.6224
 101   2.0000      -1.014096       -27.5949
 102   2.0000      -1.012262       -27.5451
 103   2.0000      -1.007541       -27.4166
 104   2.0000      -1.001514       -27.2526
 105   2.0000      -0.988346       -26.8943
 106   2.0000      -0.984476       -26.7889
 107   2.0000      -0.981334       -26.7034
 108   2.0000      -0.953696       -25.9514
 109   2.0000      -0.950111       -25.8538
 110   2.0000      -0.945065       -25.7165
 111   2.0000      -0.935712       -25.4620
 112   2.0000      -0.932554       -25.3761
 113   2.0000      -0.928493       -25.2656
 114   2.0000      -0.913111       -24.8470
 115   2.0000      -0.906081       -24.6557
 116   2.0000      -0.903798       -24.5936
 117   2.0000      -0.896981       -24.4081
 118   2.0000      -0.889234       -24.1973
 119   2.0000      -0.877439       -23.8763
 120   2.0000      -0.849153       -23.1066
 121   2.0000      -0.844221       -22.9724
 122   2.0000      -0.837159       -22.7803
 123   2.0000      -0.822889       -22.3920
 124   2.0000      -0.818547       -22.2738
 125   2.0000      -0.810807       -22.0632
 126   2.0000      -0.808462       -21.9994
 127   2.0000      -0.799992       -21.7689
 128   2.0000      -0.796785       -21.6816
 129   2.0000      -0.787110       -21.4184
 130   2.0000      -0.776124       -21.1194
 131   2.0000      -0.766657       -20.8618
 132   2.0000      -0.762679       -20.7535
 133   2.0000      -0.755698       -20.5636
 134   2.0000      -0.746400       -20.3106
 135   2.0000      -0.736068       -20.0294
 136   2.0000      -0.731633       -19.9088
 137   2.0000      -0.721299       -19.6275
 138   2.0000      -0.719687       -19.5837
 139   2.0000      -0.716453       -19.4957
 140   2.0000      -0.711728       -19.3671
 141   2.0000      -0.704942       -19.1824
 142   2.0000      -0.695624       -18.9289
 143   2.0000      -0.690122       -18.7792
 144   2.0000      -0.683581       -18.6012
 145   2.0000      -0.668188       -18.1823
 146   2.0000      -0.665433       -18.1073
 147   2.0000      -0.664179       -18.0732
 148   2.0000      -0.661646       -18.0043
 149   2.0000      -0.659850       -17.9554
 150   2.0000      -0.652725       -17.7616
 151   2.0000      -0.646970       -17.6049
 152   2.0000      -0.636671       -17.3247
 153   2.0000      -0.631214       -17.1762
 154   2.0000      -0.630364       -17.1531
 155   2.0000      -0.627908       -17.0863
 156   2.0000      -0.617924       -16.8146
 157   2.0000      -0.614304       -16.7161
 158   2.0000      -0.614055       -16.7093
 159   2.0000      -0.612059       -16.6550
 160   2.0000      -0.609526       -16.5860
 161   2.0000      -0.606391       -16.5007
 162   2.0000      -0.597861       -16.2686
 163   2.0000      -0.593356       -16.1460
 164   2.0000      -0.591460       -16.0945
 165   2.0000      -0.582502       -15.8507
 166   2.0000      -0.578107       -15.7311
 167   2.0000      -0.577702       -15.7201
 168   2.0000      -0.577229       -15.7072
 169   2.0000      -0.574780       -15.6405
 170   2.0000      -0.572807       -15.5869
 171   2.0000      -0.569628       -15.5004
 172   2.0000      -0.569205       -15.4888
 173   2.0000      -0.565817       -15.3967
 174   2.0000      -0.564659       -15.3651
 175   2.0000      -0.562804       -15.3147
 176   2.0000      -0.558352       -15.1935
 177   2.0000      -0.550277       -14.9738
 178   2.0000      -0.549565       -14.9544
 179   2.0000      -0.546585       -14.8733
 180   2.0000      -0.545108       -14.8331
 181   2.0000      -0.541860       -14.7448
 182   2.0000      -0.540961       -14.7203
 183   2.0000      -0.538531       -14.6542
 184   2.0000      -0.535754       -14.5786
 185   2.0000      -0.533562       -14.5190
 186   2.0000      -0.528987       -14.3945
 187   2.0000      -0.528709       -14.3869
 188   2.0000      -0.526012       -14.3135
 189   2.0000      -0.524552       -14.2738
 190   2.0000      -0.522372       -14.2145
 191   2.0000      -0.520300       -14.1581
 192   2.0000      -0.516987       -14.0679
 193   2.0000      -0.514977       -14.0132
 194   2.0000      -0.513733       -13.9794
 195   2.0000      -0.512070       -13.9341
 196   2.0000      -0.511921       -13.9301
 197   2.0000      -0.502194       -13.6654
 198   2.0000      -0.501457       -13.6453
 199   2.0000      -0.500943       -13.6313
 200   2.0000      -0.498324       -13.5601
 201   2.0000      -0.496986       -13.5237
 202   2.0000      -0.494044       -13.4436
 203   2.0000      -0.492093       -13.3905
 204   2.0000      -0.488592       -13.2953
 205   2.0000      -0.481995       -13.1158
 206   2.0000      -0.480622       -13.0784
 207   2.0000      -0.475976       -12.9520
 208   2.0000      -0.473242       -12.8776
 209   2.0000      -0.469712       -12.7815
 210   2.0000      -0.468008       -12.7351
 211   2.0000      -0.465456       -12.6657
 212   2.0000      -0.464108       -12.6290
 213   2.0000      -0.462191       -12.5769
 214   2.0000      -0.460457       -12.5297
 215   2.0000      -0.460191       -12.5224
 216   2.0000      -0.459587       -12.5060
 217   2.0000      -0.458328       -12.4717
 218   2.0000      -0.455862       -12.4046
 219   2.0000      -0.454581       -12.3698
 220   2.0000      -0.453577       -12.3425
 221   2.0000      -0.451998       -12.2995
 222   2.0000      -0.448788       -12.2121
 223   2.0000      -0.447682       -12.1820
 224   2.0000      -0.446969       -12.1626
 225   2.0000      -0.445693       -12.1279
 226   2.0000      -0.444594       -12.0980
 227   2.0000      -0.441264       -12.0074
 228   2.0000      -0.436178       -11.8690
 229   2.0000      -0.435848       -11.8600
 230   2.0000      -0.434630       -11.8269
 231   2.0000      -0.430937       -11.7264
 232   2.0000      -0.430054       -11.7024
 233   2.0000      -0.428959       -11.6726
 234   2.0000      -0.427954       -11.6452
 235   2.0000      -0.425534       -11.5794
 236   2.0000      -0.422420       -11.4946
 237   2.0000      -0.412165       -11.2156
 238   2.0000      -0.409669       -11.1476
 239   2.0000      -0.406183       -11.0528
 240   2.0000      -0.394610       -10.7379
 241   2.0000      -0.388381       -10.5684
 242   2.0000      -0.387539       -10.5455
 243   2.0000      -0.383388       -10.4325
 244   2.0000      -0.380339       -10.3495
 245   2.0000      -0.376112       -10.2345
 246   2.0000      -0.372322       -10.1314
 247   2.0000      -0.369590       -10.0571
 248   2.0000      -0.367460        -9.9991
 249   2.0000      -0.363708        -9.8970
 250   2.0000      -0.356374        -9.6974
 251   2.0000      -0.353029        -9.6064
 252   2.0000      -0.348050        -9.4709
 253   2.0000      -0.346878        -9.4390
 254   2.0000      -0.345721        -9.4075
 255   2.0000      -0.340052        -9.2533
 256   2.0000      -0.326024        -8.8716
 257   2.0000      -0.311555        -8.4778
 258   2.0000      -0.303312        -8.2535
 259   2.0000      -0.280293        -7.6272
 260   0.0000      -0.122596        -3.3360
 261   0.0000      -0.117446        -3.1959
 262   0.0000      -0.111488        -3.0337
 263   0.0000      -0.102304        -2.7838
 264   0.0000      -0.092961        -2.5296

MULLIKEN ATOMIC CHARGES
-----------------------
   0 C :    0.047604
   1 C :   -0.040980
   2 C :   -0.056774
   3 C :   -0.177395
   4 N :    0.199838
   5 C :   -0.066118
   6 C :   -0.173468
   7 N :    0.196171
   8 C :   -0.029116
   9 C :    0.006943
  10 C :    0.154287
  11 O :   -0.132531
  12 C :   -0.082439
  13 C :    0.304427
  14 C :   -0.333246
  15 C :   -0.186394
  16 N :    0.171159
  17 C :   -0.182715
  18 N :    0.153755
  19 C :   -0.048116
  20 C :   -0.127987
  21 C :    0.165993
  22 C :    0.211207
  23 N :   -0.222382
  24 C :    0.178874
  25 O :   -0.168877
  26 C :    0.129175
  27 C :   -0.240649
  28 C :    0.176436
  29 O :   -0.135567
  30 N :   -0.228897
  31 C :    0.114352
  32 C :    0.076642
  33 C :   -0.052364
  34 C :   -0.087788
  35 N :   -0.047119
  36 C :    0.045335
  37 C :    0.032069
  38 N :    0.004795
  39 C :    0.094017
  40 C :   -0.002617
  41 C :   -0.001099
  42 N :   -0.295379
  43 S :    0.558692
  44 N :   -0.254658
  45 C :   -0.241148
  46 C :    0.244067
  47 C :    0.125054
  48 N :   -0.234735
  49 C :    0.170545
  50 O :   -0.135149
  51 C :    0.124489
  52 C :   -0.156515
  53 C :    0.164241
  54 O :   -0.143751
  55 N :   -0.207178
  56 C :    0.128765
  57 C :    0.032661
  58 C :   -0.140859
  59 C :    0.139387
  60 O :   -0.117341
  61 C :    0.016398
  62 C :   -0.032702
  63 C :   -0.064510
  64 C :   -0.063712
  65 C :   -0.038966
  66 C :    0.033797
  67 C :    0.241080
  68 C :   -0.331955
  69 C :   -0.168804
  70 N :    0.167671
  71 C :   -0.183326
  72 N :    0.176917
  73 C :   -0.171969
  74 N :    0.203896
  75 C :   -0.175820
  76 N :    0.200824
  77 H :    0.021864
  78 H :    0.017434
  79 H :    0.022272
  80 H :    0.042433
  81 H :    0.035586
  82 H :    0.056004
  83 H :    0.063221
  84 H :    0.046514
  85 H :    0.058089
  86 H :    0.023441
  87 H :    0.020159
  88 H :    0.043694
  89 H :    0.065812
  90 H :    0.044445
  91 H :    0.054260
  92 H :    0.046446
  93 H :    0.039077
  94 H :    0.049639
  95 H :    0.019287
  96 H :    0.021876
Sum of atomic charges:   -0.0000000

LOEWDIN ATOMIC CHARGES
----------------------
   0 C :    0.001876
   1 C :    0.034904
   2 C :   -0.024551
   3 C :   -0.031611
   4 N :   -0.011625
   5 C :   -0.026810
   6 C :   -0.031553
   7 N :   -0.013649
   8 C :    0.049841
   9 C :   -0.021795
  10 C :    0.087360
  11 O :   -0.122405
  12 C :   -0.086035
  13 C :    0.072571
  14 C :   -0.125200
  15 C :   -0.023093
  16 N :   -0.033915
  17 C :   -0.014491
  18 N :   -0.044865
  19 C :    0.074108
  20 C :   -0.121329
  21 C :    0.085601
  22 C :    0.068440
  23 N :   -0.001862
  24 C :    0.105682
  25 O :   -0.156164
  26 C :    0.032740
  27 C :   -0.095483
  28 C :    0.110376
  29 O :   -0.138256
  30 N :   -0.008628
  31 C :    0.037288
  32 C :   -0.022318
  33 C :   -0.002131
  34 C :   -0.008934
  35 N :   -0.041071
  36 C :    0.016377
  37 C :    0.013776
  38 N :   -0.020895
  39 C :   -0.018169
  40 C :   -0.040231
  41 C :   -0.042445
  42 N :   -0.293986
  43 S :    0.696048
  44 N :   -0.272432
  45 C :   -0.097473
  46 C :    0.075695
  47 C :    0.084181
  48 N :   -0.007774
  49 C :    0.112273
  50 O :   -0.135252
  51 C :    0.035617
  52 C :   -0.129819
  53 C :    0.102347
  54 O :   -0.148081
  55 N :    0.004665
  56 C :    0.034670
  57 C :    0.094941
  58 C :   -0.100833
  59 C :    0.082858
  60 O :   -0.119723
  61 C :   -0.032106
  62 C :    0.050949
  63 C :   -0.028016
  64 C :   -0.022040
  65 C :    0.029911
  66 C :    0.000796
  67 C :    0.053306
  68 C :   -0.128418
  69 C :   -0.010473
  70 N :   -0.041526
  71 C :   -0.024106
  72 N :   -0.032602
  73 C :   -0.031970
  74 N :   -0.008146
  75 C :   -0.032697
  76 N :   -0.010526
  77 H :    0.052346
  78 H :    0.054634
  79 H :    0.044041
  80 H :    0.024040
  81 H :    0.028763
  82 H :    0.040534
  83 H :    0.044591
  84 H :    0.034088
  85 H :    0.034897
  86 H :    0.030027
  87 H :    0.030661
  88 H :    0.032321
  89 H :    0.045252
  90 H :    0.026279
  91 H :    0.040237
  92 H :    0.033849
  93 H :    0.026101
  94 H :    0.058040
  95 H :    0.055509
  96 H :    0.052100

  Mayer bond orders larger than 0.100000
B(  0-C ,  1-C ) :   1.3565 B(  0-C ,  9-C ) :   1.3363 B(  0-C , 13-C ) :   0.9695
B(  1-C ,  2-C ) :   1.3977 B(  1-C , 77-H ) :   0.9855 B(  2-C ,  3-C ) :   1.0852
B(  2-C ,  5-C ) :   1.4018 B(  3-C ,  4-N ) :   3.0439 B(  5-C ,  6-C ) :   1.0853
B(  5-C ,  8-C ) :   1.3666 B(  6-C ,  7-N ) :   3.0441 B(  8-C ,  9-C ) :   1.3699
B(  8-C , 78-H ) :   1.0137 B(  9-C , 10-C ) :   0.9122 B( 10-C , 11-O ) :   2.2409
B( 10-C , 12-C ) :   0.9407 B( 12-C , 13-C ) :   1.0642 B( 12-C , 19-C ) :   1.6270
B( 13-C , 14-C ) :   1.6571 B( 14-C , 15-C ) :   1.1395 B( 14-C , 17-C ) :   1.1497
B( 15-C , 16-N ) :   2.9669 B( 17-C , 18-N ) :   2.9644 B( 19-C , 20-C ) :   1.1545
B( 19-C , 79-H ) :   0.9476 B( 20-C , 21-C ) :   1.5013 B( 20-C , 24-C ) :   0.9020
B( 21-C , 22-C ) :   1.0299 B( 21-C , 30-N ) :   1.2208 B( 22-C , 23-N ) :   1.1859
B( 22-C , 27-C ) :   1.6511 B( 23-N , 24-C ) :   1.0371 B( 23-N , 26-C ) :   0.9444
B( 24-C , 25-O ) :   2.1565 B( 26-C , 80-H ) :   0.9568 B( 26-C , 81-H ) :   0.9737
B( 26-C , 82-H ) :   0.9554 B( 27-C , 28-C ) :   0.9348 B( 27-C , 32-C ) :   0.9687
B( 28-C , 29-O ) :   2.2165 B( 28-C , 30-N ) :   0.9863 B( 30-N , 31-C ) :   0.9447
B( 31-C , 83-H ) :   0.9564 B( 31-C , 84-H ) :   0.9718 B( 31-C , 85-H ) :   0.9732
B( 32-C , 33-C ) :   1.3576 B( 32-C , 39-C ) :   0.1552 B( 32-C , 41-C ) :   1.2954
B( 33-C , 34-C ) :   1.1050 B( 33-C , 38-N ) :   1.4325 B( 34-C , 35-N ) :   1.4044
B( 34-C , 39-C ) :   1.3692 B( 35-N , 36-C ) :   1.6788 B( 36-C , 37-C ) :   1.1638
B( 36-C , 86-H ) :   0.9718 B( 37-C , 38-N ) :   1.7174 B( 37-C , 87-H ) :   0.9749
B( 39-C , 40-C ) :   1.2720 B( 39-C , 45-C ) :   0.9647 B( 40-C , 41-C ) :   1.0945
B( 40-C , 44-N ) :   1.4881 B( 41-C , 42-N ) :   1.4546 B( 42-N , 43-S ) :   1.2823
B( 42-N , 44-N ) :   0.1602 B( 43-S , 44-N ) :   1.3200 B( 45-C , 46-C ) :   1.6327
B( 45-C , 49-C ) :   0.9484 B( 46-C , 47-C ) :   1.0368 B( 46-C , 55-N ) :   1.1973
B( 47-C , 48-N ) :   1.2312 B( 47-C , 52-C ) :   1.4915 B( 48-N , 49-C ) :   0.9628
B( 48-N , 51-C ) :   0.9541 B( 49-C , 50-O ) :   2.2096 B( 51-C , 88-H ) :   0.9735
B( 51-C , 89-H ) :   0.9518 B( 51-C , 90-H ) :   0.9650 B( 52-C , 53-C ) :   0.8973
B( 52-C , 57-C ) :   1.1241 B( 53-C , 54-O ) :   2.2285 B( 53-C , 55-N ) :   1.0289
B( 55-N , 56-C ) :   0.9420 B( 56-C , 91-H ) :   0.9560 B( 56-C , 92-H ) :   0.9721
B( 56-C , 93-H ) :   0.9614 B( 57-C , 58-C ) :   1.6411 B( 57-C , 94-H ) :   0.9366
B( 58-C , 59-C ) :   0.9477 B( 58-C , 67-C ) :   1.0614 B( 59-C , 60-O ) :   2.2930
B( 59-C , 61-C ) :   0.8936 B( 61-C , 62-C ) :   1.3679 B( 61-C , 66-C ) :   1.3429
B( 62-C , 63-C ) :   1.3631 B( 62-C , 95-H ) :   1.0144 B( 63-C , 64-C ) :   1.4055
B( 63-C , 75-C ) :   1.0863 B( 64-C , 65-C ) :   1.3881 B( 64-C , 73-C ) :   1.0848
B( 65-C , 66-C ) :   1.3600 B( 65-C , 96-H ) :   0.9892 B( 66-C , 67-C ) :   0.9636
B( 67-C , 68-C ) :   1.6453 B( 68-C , 69-C ) :   1.1894 B( 68-C , 71-C ) :   1.1270
B( 69-C , 70-N ) :   2.9682 B( 71-C , 72-N ) :   2.9841 B( 73-C , 74-N ) :   3.0438
B( 75-C , 76-N ) :   3.0456

-----------------------------------------------------------------------------
         ABSORPTION SPECTRUM VIA TRANSITION ELECTRIC DIPOLE MOMENTS
-----------------------------------------------------------------------------
State   Energy  Wavelength   fosc         T2         TX        TY        TZ
        (cm-1)    (nm)                  (au**2)     (au)      (au)      (au)
-----------------------------------------------------------------------------
   0   17477.0    572.2   0.592746682  11.16551   0.60955   3.25999  -0.40794
   1   19714.3    507.2   0.025483511   0.42555   0.32571   0.51355  -0.23607
   2   20518.6    487.4   0.115367101   1.85102   0.37724   1.28894  -0.21758
   3   22518.8    444.1   0.502989279   7.35341  -0.68276  -2.28102   1.29777
   4   22691.7    440.7   0.235836495   3.42152   0.26566  -1.70541  -0.66523
   5   24410.3    409.7   0.015560882   0.20986   0.02067  -0.31527  -0.33172
   6   24771.6    403.7   0.062795332   0.83454   0.31816   0.85573  -0.03231
   7   25609.9    390.5   0.072711411   0.93470  -0.11724  -0.94997   0.13607
   8   25785.2    387.8   0.009661895   0.12336  -0.02084   0.17963   0.30109
   9   26551.0    376.6   0.043702889   0.54188   0.55761   0.11797  -0.46587
  10   26868.7    372.2   0.062865687   0.77027  -0.04017   0.87068   0.10279
  11   27687.5    361.2   0.026835415   0.31908   0.01297  -0.56309  -0.04290
  12   27766.7    360.1   0.045038242   0.53399  -0.47430  -0.47103   0.29523
  13   28713.9    348.3   0.018371731   0.21064  -0.28100  -0.36073  -0.03937
  14   29104.9    343.6   0.006876234   0.07778   0.01638   0.27259  -0.05660
  15   29119.9    343.4   0.054791601   0.61944   0.05713  -0.74206   0.25597
  16   30137.5    331.8   0.012191374   0.13317   0.12424  -0.34303   0.00828
  17   30348.0    329.5   0.018447592   0.20012   0.30280   0.16538  -0.28475
  18   30570.8    327.1   0.062652021   0.67469   0.05019   0.72609  -0.38074
  19   30798.4    324.7   0.061281940   0.65506  -0.36691  -0.72118   0.01840
  20   30850.4    324.1   0.077139238   0.82317   0.30603   0.76057   0.38865
  21   31393.8    318.5   0.042211239   0.44265  -0.51881  -0.15798   0.38540
  22   31678.2    315.7   0.084655590   0.87977  -0.52528  -0.02571   0.77666
  23   31786.2    314.6   0.105871847   1.09652   0.46997  -0.78536  -0.50878
  24   32014.9    312.4   0.146192868   1.50331  -1.00711   0.51977   0.46786
  25   32275.4    309.8   0.064919236   0.66218   0.08874   0.60578   0.53604
  26   32323.8    309.4   0.055517047   0.56543   0.52826  -0.11722  -0.52214
  27   32592.2    306.8   0.098794203   0.99792  -0.49320   0.36350   0.78901
  28   33190.5    301.3   0.041399594   0.41064  -0.36551   0.49641   0.17498
  29   33479.0    298.7   0.008739396   0.08594   0.08393  -0.21087   0.18555
  30   33544.9    298.1   0.005094874   0.05000  -0.12292   0.05648  -0.17805
  31   34070.1    293.5   0.111450709   1.07693   0.16165  -1.02133   0.08762
  32   34704.7    288.1   0.011042391   0.10475   0.12994   0.25656  -0.14846
  33   34935.3    286.2   0.012913635   0.12169  -0.12907  -0.29659   0.13065
  34   35096.9    284.9   0.101798593   0.95488   0.31238  -0.90238  -0.20739
  35   35233.8    283.8   0.421997034   3.94299   1.05426  -1.17349  -1.20600
  36   35307.3    283.2   0.640239527   5.96971   1.98165   1.42784   0.06351
  37   35352.6    282.9   0.123988236   1.15461   0.52308   0.93817  -0.02893
  38   35628.1    280.7   0.075835752   0.70074   0.44041  -0.64110  -0.30947
  39   35858.6    278.9   0.034718766   0.31875   0.03835   0.54748   0.13247
  40   36205.0    276.2   0.036563328   0.33247  -0.15326  -0.53007  -0.16734
  41   36475.5    274.2   0.138489372   1.24995  -0.57038  -0.59948   0.75182
  42   36546.1    273.6   0.014616861   0.13167  -0.23275  -0.02157   0.27755
  43   36892.2    271.1   0.043608929   0.38915  -0.61733   0.03030   0.08446
  44   36961.7    270.6   0.066695349   0.59404  -0.15520  -0.57149   0.49331
  45   37094.8    269.6   0.017298115   0.15352   0.03107   0.23147  -0.31460
  46   37605.0    265.9   0.129607966   1.13465  -0.35740   0.98289   0.20210
  47   37679.2    265.4   0.031556014   0.27571   0.12971  -0.50733  -0.03882
  48   37718.3    265.1   0.010647237   0.09293  -0.23535  -0.14325   0.13046
  49   38004.1    263.1   0.042437841   0.36762  -0.01271  -0.58782   0.14806
  50   38392.0    260.5   0.044315815   0.38001   0.44383   0.16934  -0.39288
  51   38617.9    258.9   0.023497803   0.20032   0.21790  -0.38389  -0.07391
  52   38775.9    257.9   0.011252833   0.09554   0.07705   0.25910   0.14990
  53   38800.2    257.7   0.003001323   0.02547   0.10426   0.06721   0.10039
  54   39478.0    253.3   0.000865879   0.00722  -0.03116   0.04721   0.06341
  55   39748.7    251.6   0.023523805   0.19483   0.09708  -0.42960  -0.02914
  56   40012.5    249.9   0.036707699   0.30202  -0.12308  -0.52146  -0.12226
  57   40130.2    249.2   0.037104019   0.30439  -0.46297  -0.17868   0.24107
  58   40323.3    248.0   0.001695273   0.01384  -0.05940   0.09773   0.02759

FINAL SINGLE POINT ENERGY     -3790.883089174185

DIPOLE MOMENT
-------------
                                X             Y             Z
Electronic contribution:    -11.14539      10.13218      14.71068
Nuclear contribution   :     12.97168     -12.93950     -17.18196
                        -----------------------------------------
Total Dipole Moment    :      1.82629      -2.80733      -2.47129
                        -----------------------------------------
Magnitude (a.u.)       :      4.16217
Magnitude (Debye)      :     10.57940

Rotational constants in cm-1:     0.002018     0.000280     0.000252
Rotational constants in MHz :    60.497198     8.389624     7.569111

                             ****ORCA TERMINATED NORMALLY****
TOTAL RUN TIME: 0 days 0 hours 10 minutes 26 seconds 536 msec
