                         Program Version 4.2.0 -  RELEASE  -
|  1> # ORCA input file
|  2> # SCF done       -223.850905056521          0.000541178382
|  3> ! CAM-B3LYP def2-SVP def2/J RIJCOSX Grid4 TightSCF
|  4> %maxcore 5000
|  5> %tddft
|  6>     Mode sTDDFT
|  7>     Ethresh 5.0
|  8>     maxcore 5000
|  9> end
| 10>
| 11> %pal
| 12>   nprocs 6
| 13>   end
| 14> * xyz 0 1
| 15>    C       -6.13470        -8.17354        -0.88954
| 16>    C       -7.36275        -8.78743        -1.07310
| 17>    C       -7.47174        -9.76835        -2.05896
| 18>    C       -8.71897       -10.40890        -2.27021
| 19>    N       -9.72803       -10.92366        -2.43388
| 20>    C       -6.36475       -10.13487        -2.85022
| 21>    C       -6.50545       -11.14408        -3.83408
| 22>    N       -6.59922       -11.96075        -4.63095
| 23>    C       -5.13309        -9.50382        -2.67128
| 24>    C       -5.03582        -8.53060        -1.69819
| 25>    C       -3.86499        -7.69599        -1.34977
| 26>    O       -2.74712        -7.75620        -1.78859
| 27>    C       -4.39811        -6.69469        -0.37109
| 28>    C       -5.71513        -7.14719         0.05808
| 29>    C       -6.35414        -6.81117         1.21579
| 30>    C       -7.61832        -7.31890         1.59354
| 31>    N       -8.64758        -7.69327         1.93130
| 32>    C       -5.79582        -5.96947         2.20091
| 33>    N       -5.36264        -5.31938         3.04132
| 34>    C       -3.75479        -5.52941        -0.18656
| 35>    C       -4.25090        -4.33199         0.46644
| 36>    C       -3.47949        -3.69969         1.44151
| 37>    C       -2.16122        -4.11261         1.98144
| 38>    O       -1.46573        -5.02861         1.62395
| 39>    N       -1.87984        -3.20989         3.00547
| 40>    C       -2.89288        -2.24973         3.16615
| 41>    O       -2.87480        -1.36455         3.97515
| 42>    C       -3.91896        -2.58084         2.14770
| 43>    C       -5.13796        -1.98532         1.88326
| 44>    C       -5.89639        -2.57151         0.87653
| 45>    C       -5.48783        -3.71712         0.18818
| 46>    C       -6.44748        -4.16659        -0.83796
| 47>    O       -6.36129        -5.11107        -1.57336
| 48>    S       -7.86520        -3.07482        -0.85006
| 49>    C       -7.20969        -2.03551         0.46527
| 50>    O       -7.77643        -1.08107         0.89603
| 51>    C       -0.77661        -3.21835         3.85035
| 52>    C        0.32809        -3.95841         3.67070
| 53>    C        1.42955        -3.97512         4.57834
| 54>    N        2.60268        -4.60740         4.23494
| 55>    C        3.47642        -4.49135         5.27048
| 56>    C        4.75623        -4.80163         5.70340
| 57>    C        4.86264        -4.28407         7.00663
| 58>    N        3.67485        -3.67194         7.35261
| 59>    C        2.81783        -3.77493         6.30853
| 60>    C        1.53961        -3.44473         5.86759
| 61>    C        5.98962        -4.36725         7.85282
| 62>    C        6.00552        -4.00502         9.16233
| 63>    C        7.10918        -4.13318        10.05692
| 64>    C        6.86321        -4.41343        11.41903
| 65>    C        5.57586        -4.56873        12.10760
| 66>    O        4.44579        -4.43642        11.70877
| 67>    N        5.88747        -4.93528        13.43572
| 68>    C        7.27250        -5.00546        13.65032
| 69>    O        7.81036        -5.27214        14.68765
| 70>    C        7.87957        -4.66913        12.33965
| 71>    C        9.21507        -4.63174        11.98759
| 72>    C        9.48283        -4.27611        10.66945
| 73>    C        8.48755        -4.01561         9.72894
| 74>    C        9.01433        -3.48389         8.45920
| 75>    O        8.42541        -3.02178         7.52821
| 76>    S       10.82141        -3.52658         8.49713
| 77>    C       10.87150        -4.12346        10.17969
| 78>    O       11.87717        -4.34399        10.78220
| 79>    C        4.88440        -5.31990        14.29321
| 80>    C        5.04265        -5.83880        15.52451
| 81>    C        3.96123        -6.29434        16.32890
| 82>    C        2.71987        -6.72971        15.97950
| 83>    C        1.69496        -6.83772        17.05747
| 84>    O        1.88537        -6.77935        18.24753
| 85>    C        0.39976        -6.97995        16.35501
| 86>    C       -0.87139        -6.99887        16.88928
| 87>    C       -1.95211        -7.09917        16.01183
| 88>    C       -1.73061        -7.16447        14.62261
| 89>    C       -0.43868        -7.15544        14.09399
| 90>    C        0.63119        -7.07437        14.96937
| 91>    C        2.07696        -7.07777        14.72541
| 92>    C        2.65118        -7.56401        13.58217
| 93>    C        4.03166        -7.76777        13.38144
| 94>    N        5.13458        -7.97305        13.13937
| 95>    C        1.92166        -7.98202        12.44680
| 96>    N        1.38845        -8.32494        11.49075
| 97>    C       -2.83888        -7.23526        13.74189
| 98>    N       -3.72616        -7.28611        13.02046
| 99>    C       -3.27476        -7.12573        16.51695
|100>    N       -4.33762        -7.14610        16.94215
|101>    H       -8.23152        -8.52147        -0.49172
|102>    H       -4.28068        -9.76802        -3.27866
|103>    H       -2.74242        -5.47246        -0.57417
|104>    H       -5.49282        -1.12144         2.42211
|105>    H       -0.89293        -2.53685         4.68091
|106>    H        0.41357        -4.59241         2.80041
|107>    H        2.76778        -5.06388         3.35400
|108>    H        5.53078        -5.32752         5.18282
|109>    H        3.49606        -3.22092         8.23281
|110>    H        0.77497        -2.91409         6.39615
|111>    H        6.86761        -4.80066         7.39910
|112>    H        5.08103        -3.70944         9.63742
|113>    H       10.00841        -4.84371        12.68547
|114>    H        3.90316        -5.14428        13.86634
|115>    H        6.02864        -5.88908        15.96189
|116>    H        4.13173        -6.27181        17.40161
|117>    H       -1.02495        -6.93641        17.95585
|118>    H       -0.30812        -7.19891        13.02441
|119> *
|120>
|121>                          ****END OF INPUT****

CARTESIAN COORDINATES (ANGSTROEM)
---------------------------------
  C     -6.134700   -8.173540   -0.889540
  C     -7.362750   -8.787430   -1.073100
  C     -7.471740   -9.768350   -2.058960
  C     -8.718970  -10.408900   -2.270210
  N     -9.728030  -10.923660   -2.433880
  C     -6.364750  -10.134870   -2.850220
  C     -6.505450  -11.144080   -3.834080
  N     -6.599220  -11.960750   -4.630950
  C     -5.133090   -9.503820   -2.671280
  C     -5.035820   -8.530600   -1.698190
  C     -3.864990   -7.695990   -1.349770
  O     -2.747120   -7.756200   -1.788590
  C     -4.398110   -6.694690   -0.371090
  C     -5.715130   -7.147190    0.058080
  C     -6.354140   -6.811170    1.215790
  C     -7.618320   -7.318900    1.593540
  N     -8.647580   -7.693270    1.931300
  C     -5.795820   -5.969470    2.200910
  N     -5.362640   -5.319380    3.041320
  C     -3.754790   -5.529410   -0.186560
  C     -4.250900   -4.331990    0.466440
  C     -3.479490   -3.699690    1.441510
  C     -2.161220   -4.112610    1.981440
  O     -1.465730   -5.028610    1.623950
  N     -1.879840   -3.209890    3.005470
  C     -2.892880   -2.249730    3.166150
  O     -2.874800   -1.364550    3.975150
  C     -3.918960   -2.580840    2.147700
  C     -5.137960   -1.985320    1.883260
  C     -5.896390   -2.571510    0.876530
  C     -5.487830   -3.717120    0.188180
  C     -6.447480   -4.166590   -0.837960
  O     -6.361290   -5.111070   -1.573360
  S     -7.865200   -3.074820   -0.850060
  C     -7.209690   -2.035510    0.465270
  O     -7.776430   -1.081070    0.896030
  C     -0.776610   -3.218350    3.850350
  C      0.328090   -3.958410    3.670700
  C      1.429550   -3.975120    4.578340
  N      2.602680   -4.607400    4.234940
  C      3.476420   -4.491350    5.270480
  C      4.756230   -4.801630    5.703400
  C      4.862640   -4.284070    7.006630
  N      3.674850   -3.671940    7.352610
  C      2.817830   -3.774930    6.308530
  C      1.539610   -3.444730    5.867590
  C      5.989620   -4.367250    7.852820
  C      6.005520   -4.005020    9.162330
  C      7.109180   -4.133180   10.056920
  C      6.863210   -4.413430   11.419030
  C      5.575860   -4.568730   12.107600
  O      4.445790   -4.436420   11.708770
  N      5.887470   -4.935280   13.435720
  C      7.272500   -5.005460   13.650320
  O      7.810360   -5.272140   14.687650
  C      7.879570   -4.669130   12.339650
  C      9.215070   -4.631740   11.987590
  C      9.482830   -4.276110   10.669450
  C      8.487550   -4.015610    9.728940
  C      9.014330   -3.483890    8.459200
  O      8.425410   -3.021780    7.528210
  S     10.821410   -3.526580    8.497130
  C     10.871500   -4.123460   10.179690
  O     11.877170   -4.343990   10.782200
  C      4.884400   -5.319900   14.293210
  C      5.042650   -5.838800   15.524510
  C      3.961230   -6.294340   16.328900
  C      2.719870   -6.729710   15.979500
  C      1.694960   -6.837720   17.057470
  O      1.885370   -6.779350   18.247530
  C      0.399760   -6.979950   16.355010
  C     -0.871390   -6.998870   16.889280
  C     -1.952110   -7.099170   16.011830
  C     -1.730610   -7.164470   14.622610
  C     -0.438680   -7.155440   14.093990
  C      0.631190   -7.074370   14.969370
  C      2.076960   -7.077770   14.725410
  C      2.651180   -7.564010   13.582170
  C      4.031660   -7.767770   13.381440
  N      5.134580   -7.973050   13.139370
  C      1.921660   -7.982020   12.446800
  N      1.388450   -8.324940   11.490750
  C     -2.838880   -7.235260   13.741890
  N     -3.726160   -7.286110   13.020460
  C     -3.274760   -7.125730   16.516950
  N     -4.337620   -7.146100   16.942150
  H     -8.231520   -8.521470   -0.491720
  H     -4.280680   -9.768020   -3.278660
  H     -2.742420   -5.472460   -0.574170
  H     -5.492820   -1.121440    2.422110
  H     -0.892930   -2.536850    4.680910
  H      0.413570   -4.592410    2.800410
  H      2.767780   -5.063880    3.354000
  H      5.530780   -5.327520    5.182820
  H      3.496060   -3.220920    8.232810
  H      0.774970   -2.914090    6.396150
  H      6.867610   -4.800660    7.399100
  H      5.081030   -3.709440    9.637420
  H     10.008410   -4.843710   12.685470
  H      3.903160   -5.144280   13.866340
  H      6.028640   -5.889080   15.961890
  H      4.131730   -6.271810   17.401610
  H     -1.024950   -6.936410   17.955850
  H     -0.308120   -7.198910   13.024410

 Total Charge           Charge          ....    0
 Multiplicity           Mult            ....    1
 Number of Electrons    NEL             ....  586
 Basis Dimension        Dim             .... 1302

ORBITAL ENERGIES
----------------

  NO   OCC          E(Eh)            E(eV)
   0   2.0000     -88.975287     -2421.1406
   1   2.0000     -88.953262     -2420.5413
   2   2.0000     -19.269208      -524.3418
   3   2.0000     -19.266241      -524.2611
   4   2.0000     -19.254156      -523.9322
   5   2.0000     -19.253189      -523.9059
   6   2.0000     -19.252408      -523.8847
   7   2.0000     -19.251621      -523.8632
   8   2.0000     -19.249573      -523.8075
   9   2.0000     -19.246094      -523.7129
  10   2.0000     -19.244790      -523.6773
  11   2.0000     -19.238127      -523.4960
  12   2.0000     -14.502348      -394.6290
  13   2.0000     -14.502312      -394.6280
  14   2.0000     -14.468863      -393.7178
  15   2.0000     -14.465415      -393.6240
  16   2.0000     -14.451289      -393.2396
  17   2.0000     -14.447356      -393.1326
  18   2.0000     -14.439252      -392.9120
  19   2.0000     -14.436819      -392.8458
  20   2.0000     -14.436038      -392.8246
  21   2.0000     -14.435013      -392.7967
  22   2.0000     -14.431010      -392.6877
  23   2.0000     -14.430481      -392.6733
  24   2.0000     -10.433390      -283.9070
  25   2.0000     -10.433308      -283.9047
  26   2.0000     -10.430687      -283.8334
  27   2.0000     -10.428871      -283.7840
  28   2.0000     -10.428037      -283.7613
  29   2.0000     -10.426811      -283.7279
  30   2.0000     -10.409299      -283.2514
  31   2.0000     -10.407095      -283.1915
  32   2.0000     -10.403636      -283.0973
  33   2.0000     -10.388964      -282.6981
  34   2.0000     -10.383527      -282.5501
  35   2.0000     -10.378635      -282.4170
  36   2.0000     -10.371120      -282.2125
  37   2.0000     -10.370304      -282.1903
  38   2.0000     -10.368439      -282.1396
  39   2.0000     -10.367202      -282.1059
  40   2.0000     -10.363410      -282.0027
  41   2.0000     -10.363376      -282.0018
  42   2.0000     -10.362478      -281.9774
  43   2.0000     -10.360849      -281.9330
  44   2.0000     -10.354683      -281.7652
  45   2.0000     -10.352908      -281.7170
  46   2.0000     -10.352866      -281.7158
  47   2.0000     -10.350014      -281.6382
  48   2.0000     -10.348670      -281.6016
  49   2.0000     -10.347648      -281.5738
  50   2.0000     -10.346237      -281.5354
  51   2.0000     -10.345716      -281.5213
  52   2.0000     -10.345367      -281.5117
  53   2.0000     -10.345222      -281.5078
  54   2.0000     -10.345038      -281.5028
  55   2.0000     -10.343686      -281.4660
  56   2.0000     -10.340216      -281.3716
  57   2.0000     -10.339708      -281.3578
  58   2.0000     -10.338272      -281.3187
  59   2.0000     -10.337407      -281.2952
  60   2.0000     -10.337194      -281.2894
  61   2.0000     -10.336729      -281.2767
  62   2.0000     -10.336519      -281.2710
  63   2.0000     -10.335277      -281.2372
  64   2.0000     -10.332986      -281.1748
  65   2.0000     -10.331956      -281.1468
  66   2.0000     -10.331681      -281.1393
  67   2.0000     -10.330810      -281.1156
  68   2.0000     -10.330366      -281.1036
  69   2.0000     -10.328204      -281.0447
  70   2.0000     -10.327505      -281.0257
  71   2.0000     -10.327464      -281.0246
  72   2.0000     -10.326845      -281.0077
  73   2.0000     -10.324457      -280.9427
  74   2.0000     -10.320994      -280.8485
  75   2.0000     -10.320745      -280.8418
  76   2.0000     -10.315626      -280.7024
  77   2.0000     -10.311641      -280.5940
  78   2.0000     -10.306101      -280.4433
  79   2.0000     -10.302409      -280.3428
  80   2.0000     -10.301318      -280.3131
  81   2.0000     -10.300683      -280.2958
  82   2.0000     -10.295665      -280.1593
  83   2.0000     -10.281352      -279.7698
  84   2.0000     -10.280184      -279.7380
  85   2.0000     -10.271789      -279.5096
  86   2.0000      -8.074404      -219.7157
  87   2.0000      -8.052530      -219.1205
  88   2.0000      -6.043261      -164.4455
  89   2.0000      -6.039960      -164.3557
  90   2.0000      -6.035480      -164.2338
  91   2.0000      -6.021354      -163.8494
  92   2.0000      -6.018154      -163.7623
  93   2.0000      -6.013600      -163.6384
  94   2.0000      -1.199390       -32.6371
  95   2.0000      -1.197388       -32.5826
  96   2.0000      -1.192961       -32.4621
  97   2.0000      -1.188084       -32.3294
  98   2.0000      -1.176206       -32.0062
  99   2.0000      -1.173364       -31.9289
 100   2.0000      -1.170931       -31.8626
 101   2.0000      -1.169840       -31.8330
 102   2.0000      -1.166928       -31.7537
 103   2.0000      -1.154444       -31.4140
 104   2.0000      -1.099945       -29.9310
 105   2.0000      -1.092196       -29.7202
 106   2.0000      -1.091127       -29.6911
 107   2.0000      -1.063590       -28.9418
 108   2.0000      -1.058051       -28.7910
 109   2.0000      -1.046735       -28.4831
 110   2.0000      -1.044138       -28.4124
 111   2.0000      -1.036544       -28.2058
 112   2.0000      -1.033168       -28.1139
 113   2.0000      -1.026685       -27.9375
 114   2.0000      -1.023145       -27.8412
 115   2.0000      -1.017116       -27.6771
 116   2.0000      -1.015605       -27.6360
 117   2.0000      -1.015508       -27.6334
 118   2.0000      -1.013558       -27.5803
 119   2.0000      -1.010066       -27.4853
 120   2.0000      -0.992494       -27.0071
 121   2.0000      -0.982863       -26.7451
 122   2.0000      -0.977327       -26.5944
 123   2.0000      -0.964492       -26.2452
 124   2.0000      -0.950594       -25.8670
 125   2.0000      -0.942118       -25.6363
 126   2.0000      -0.936032       -25.4707
 127   2.0000      -0.930652       -25.3243
 128   2.0000      -0.925126       -25.1740
 129   2.0000      -0.921917       -25.0866
 130   2.0000      -0.916304       -24.9339
 131   2.0000      -0.907762       -24.7015
 132   2.0000      -0.899289       -24.4709
 133   2.0000      -0.898577       -24.4515
 134   2.0000      -0.894391       -24.3376
 135   2.0000      -0.885059       -24.0837
 136   2.0000      -0.872186       -23.7334
 137   2.0000      -0.867444       -23.6044
 138   2.0000      -0.856847       -23.3160
 139   2.0000      -0.843185       -22.9442
 140   2.0000      -0.829911       -22.5830
 141   2.0000      -0.823684       -22.4136
 142   2.0000      -0.818524       -22.2732
 143   2.0000      -0.816654       -22.2223
 144   2.0000      -0.813154       -22.1270
 145   2.0000      -0.802455       -21.8359
 146   2.0000      -0.792628       -21.5685
 147   2.0000      -0.782066       -21.2811
 148   2.0000      -0.771499       -20.9935
 149   2.0000      -0.767661       -20.8891
 150   2.0000      -0.763496       -20.7758
 151   2.0000      -0.758718       -20.6458
 152   2.0000      -0.752411       -20.4742
 153   2.0000      -0.740009       -20.1367
 154   2.0000      -0.731299       -19.8997
 155   2.0000      -0.725479       -19.7413
 156   2.0000      -0.715928       -19.4814
 157   2.0000      -0.715381       -19.4665
 158   2.0000      -0.710006       -19.3203
 159   2.0000      -0.705640       -19.2014
 160   2.0000      -0.702519       -19.1165
 161   2.0000      -0.700544       -19.0628
 162   2.0000      -0.695172       -18.9166
 163   2.0000      -0.693321       -18.8662
 164   2.0000      -0.683981       -18.6121
 165   2.0000      -0.676793       -18.4165
 166   2.0000      -0.672518       -18.3001
 167   2.0000      -0.667263       -18.1572
 168   2.0000      -0.661483       -17.9999
 169   2.0000      -0.660250       -17.9663
 170   2.0000      -0.654887       -17.8204
 171   2.0000      -0.651996       -17.7417
 172   2.0000      -0.642722       -17.4893
 173   2.0000      -0.634932       -17.2774
 174   2.0000      -0.633452       -17.2371
 175   2.0000      -0.628206       -17.0943
 176   2.0000      -0.624607       -16.9964
 177   2.0000      -0.622158       -16.9298
 178   2.0000      -0.618721       -16.8363
 179   2.0000      -0.614442       -16.7198
 180   2.0000      -0.613363       -16.6904
 181   2.0000      -0.607843       -16.5403
 182   2.0000      -0.606564       -16.5055
 183   2.0000      -0.604346       -16.4451
 184   2.0000      -0.600215       -16.3327
 185   2.0000      -0.593472       -16.1492
 186   2.0000      -0.590424       -16.0663
 187   2.0000      -0.585054       -15.9201
 188   2.0000      -0.583442       -15.8763
 189   2.0000      -0.580223       -15.7887
 190   2.0000      -0.578925       -15.7534
 191   2.0000      -0.575856       -15.6698
 192   2.0000      -0.574376       -15.6296
 193   2.0000      -0.573493       -15.6055
 194   2.0000      -0.572491       -15.5783
 195   2.0000      -0.565762       -15.3952
 196   2.0000      -0.564211       -15.3530
 197   2.0000      -0.563028       -15.3208
 198   2.0000      -0.560956       -15.2644
 199   2.0000      -0.560515       -15.2524
 200   2.0000      -0.559705       -15.2303
 201   2.0000      -0.557913       -15.1816
 202   2.0000      -0.556750       -15.1499
 203   2.0000      -0.555144       -15.1062
 204   2.0000      -0.552439       -15.0326
 205   2.0000      -0.548909       -14.9366
 206   2.0000      -0.544600       -14.8193
 207   2.0000      -0.544109       -14.8060
 208   2.0000      -0.543768       -14.7967
 209   2.0000      -0.542335       -14.7577
 210   2.0000      -0.540278       -14.7017
 211   2.0000      -0.539694       -14.6858
 212   2.0000      -0.535466       -14.5708
 213   2.0000      -0.531541       -14.4640
 214   2.0000      -0.529788       -14.4163
 215   2.0000      -0.527932       -14.3658
 216   2.0000      -0.527310       -14.3488
 217   2.0000      -0.526328       -14.3221
 218   2.0000      -0.523688       -14.2503
 219   2.0000      -0.520779       -14.1711
 220   2.0000      -0.517697       -14.0872
 221   2.0000      -0.516827       -14.0636
 222   2.0000      -0.516225       -14.0472
 223   2.0000      -0.515496       -14.0274
 224   2.0000      -0.511128       -13.9085
 225   2.0000      -0.508527       -13.8377
 226   2.0000      -0.504702       -13.7336
 227   2.0000      -0.503114       -13.6904
 228   2.0000      -0.503067       -13.6891
 229   2.0000      -0.496563       -13.5122
 230   2.0000      -0.493647       -13.4328
 231   2.0000      -0.491716       -13.3803
 232   2.0000      -0.486871       -13.2484
 233   2.0000      -0.485472       -13.2104
 234   2.0000      -0.483428       -13.1548
 235   2.0000      -0.483128       -13.1466
 236   2.0000      -0.477778       -13.0010
 237   2.0000      -0.476379       -12.9629
 238   2.0000      -0.472772       -12.8648
 239   2.0000      -0.471306       -12.8249
 240   2.0000      -0.469289       -12.7700
 241   2.0000      -0.467949       -12.7335
 242   2.0000      -0.464149       -12.6301
 243   2.0000      -0.463538       -12.6135
 244   2.0000      -0.461849       -12.5676
 245   2.0000      -0.461796       -12.5661
 246   2.0000      -0.460150       -12.5213
 247   2.0000      -0.459505       -12.5038
 248   2.0000      -0.459463       -12.5026
 249   2.0000      -0.456834       -12.4311
 250   2.0000      -0.456416       -12.4197
 251   2.0000      -0.455218       -12.3871
 252   2.0000      -0.454483       -12.3671
 253   2.0000      -0.450163       -12.2495
 254   2.0000      -0.448188       -12.1958
 255   2.0000      -0.447854       -12.1867
 256   2.0000      -0.442966       -12.0537
 257   2.0000      -0.442711       -12.0468
 258   2.0000      -0.440450       -11.9853
 259   2.0000      -0.436981       -11.8909
 260   2.0000      -0.436153       -11.8683
 261   2.0000      -0.435148       -11.8410
 262   2.0000      -0.430746       -11.7212
 263   2.0000      -0.426940       -11.6176
 264   2.0000      -0.421371       -11.4661
 265   2.0000      -0.411011       -11.1842
 266   2.0000      -0.404332       -11.0024
 267   2.0000      -0.400464       -10.8972
 268   2.0000      -0.396964       -10.8019
 269   2.0000      -0.394899       -10.7457
 270   2.0000      -0.392022       -10.6675
 271   2.0000      -0.389758       -10.6059
 272   2.0000      -0.383077       -10.4240
 273   2.0000      -0.379957       -10.3392
 274   2.0000      -0.379367       -10.3231
 275   2.0000      -0.377923       -10.2838
 276   2.0000      -0.377690       -10.2775
 277   2.0000      -0.373497       -10.1634
 278   2.0000      -0.372110       -10.1256
 279   2.0000      -0.371641       -10.1129
 280   2.0000      -0.371327       -10.1043
 281   2.0000      -0.369459       -10.0535
 282   2.0000      -0.360565        -9.8115
 283   2.0000      -0.358682        -9.7602
 284   2.0000      -0.356663        -9.7053
 285   2.0000      -0.350794        -9.5456
 286   2.0000      -0.347716        -9.4618
 287   2.0000      -0.344082        -9.3630
 288   2.0000      -0.342665        -9.3244
 289   2.0000      -0.313122        -8.5205
 290   2.0000      -0.307589        -8.3699
 291   2.0000      -0.299018        -8.1367
 292   2.0000      -0.237748        -6.4695
 293   0.0000      -0.128362        -3.4929
 294   0.0000      -0.113148        -3.0789
 295   0.0000      -0.112567        -3.0631
 296   0.0000      -0.103577        -2.8185
 297   0.0000      -0.100179        -2.7260

MULLIKEN ATOMIC CHARGES
-----------------------
   0 C :    0.050657
   1 C :   -0.029645
   2 C :   -0.062960
   3 C :   -0.172022
   4 N :    0.209224
   5 C :   -0.063290
   6 C :   -0.174589
   7 N :    0.201786
   8 C :   -0.025087
   9 C :    0.004288
  10 C :    0.147020
  11 O :   -0.105932
  12 C :   -0.076826
  13 C :    0.277026
  14 C :   -0.327126
  15 C :   -0.190668
  16 N :    0.193839
  17 C :   -0.173047
  18 N :    0.171727
  19 C :    0.024831
  20 C :   -0.059230
  21 C :    0.014516
  22 C :    0.215955
  23 O :   -0.152259
  24 N :   -0.229398
  25 C :    0.199012
  26 O :   -0.120261
  27 C :    0.036937
  28 C :   -0.052382
  29 C :    0.054414
  30 C :    0.058664
  31 C :    0.042292
  32 O :   -0.146062
  33 S :    0.037227
  34 C :    0.047572
  35 O :   -0.101899
  36 C :    0.064640
  37 C :    0.012087
  38 C :    0.093591
  39 N :   -0.027439
  40 C :    0.115746
  41 C :   -0.148887
  42 C :    0.042968
  43 N :   -0.025267
  44 C :    0.118237
  45 C :   -0.166350
  46 C :    0.120573
  47 C :   -0.103536
  48 C :    0.087868
  49 C :   -0.034184
  50 C :    0.202055
  51 O :   -0.158251
  52 N :   -0.238405
  53 C :    0.228483
  54 O :   -0.123912
  55 C :    0.007115
  56 C :   -0.079929
  57 C :    0.051967
  58 C :    0.007630
  59 C :    0.024575
  60 O :   -0.122617
  61 S :    0.008137
  62 C :    0.052077
  63 O :   -0.120046
  64 C :    0.091066
  65 C :    0.003685
  66 C :    0.049098
  67 C :   -0.124593
  68 C :    0.136151
  69 O :   -0.126908
  70 C :    0.015756
  71 C :   -0.031509
  72 C :   -0.065880
  73 C :   -0.061383
  74 C :   -0.032311
  75 C :    0.019781
  76 C :    0.278983
  77 C :   -0.322578
  78 C :   -0.194677
  79 N :    0.173543
  80 C :   -0.180186
  81 N :    0.173215
  82 C :   -0.177822
  83 N :    0.202262
  84 C :   -0.174402
  85 N :    0.197616
  86 H :    0.025126
  87 H :    0.021112
  88 H :    0.051879
  89 H :    0.026193
  90 H :    0.032114
  91 H :    0.008169
  92 H :    0.125197
  93 H :   -0.027709
  94 H :    0.132007
  95 H :   -0.031438
  96 H :   -0.009405
  97 H :   -0.012930
  98 H :    0.018028
  99 H :    0.051476
 100 H :    0.044472
 101 H :    0.039303
 102 H :    0.019729
 103 H :    0.024540
Sum of atomic charges:   -0.0000000

LOEWDIN ATOMIC CHARGES
----------------------
   0 C :    0.010129
   1 C :    0.039430
   2 C :   -0.018591
   3 C :   -0.031924
   4 N :   -0.004657
   5 C :   -0.024119
   6 C :   -0.032452
   7 N :   -0.007784
   8 C :    0.053331
   9 C :   -0.027890
  10 C :    0.091115
  11 O :   -0.106988
  12 C :   -0.055370
  13 C :    0.071247
  14 C :   -0.117362
  15 C :   -0.024393
  16 N :   -0.019245
  17 C :   -0.013749
  18 N :   -0.039134
  19 C :    0.072226
  20 C :    0.012012
  21 C :   -0.015056
  22 C :    0.102658
  23 O :   -0.131310
  24 N :   -0.005837
  25 C :    0.102398
  26 O :   -0.118447
  27 C :   -0.017042
  28 C :    0.056935
  29 C :   -0.047055
  30 C :   -0.055582
  31 C :   -0.046031
  32 O :   -0.125805
  33 S :    0.320270
  34 C :   -0.042464
  35 O :   -0.095093
  36 C :    0.025180
  37 C :   -0.045680
  38 C :    0.010840
  39 N :    0.074218
  40 C :   -0.029151
  41 C :   -0.061665
  42 C :   -0.013679
  43 N :    0.075718
  44 C :   -0.001182
  45 C :   -0.098677
  46 C :    0.038414
  47 C :   -0.088351
  48 C :    0.045368
  49 C :   -0.051514
  50 C :    0.112876
  51 O :   -0.141041
  52 N :   -0.008971
  53 C :    0.110311
  54 O :   -0.114375
  55 C :   -0.024897
  56 C :    0.022842
  57 C :   -0.042300
  58 C :   -0.072348
  59 C :   -0.043303
  60 O :   -0.111553
  61 S :    0.296961
  62 C :   -0.050057
  63 O :   -0.111250
  64 C :    0.092463
  65 C :   -0.070667
  66 C :    0.087840
  67 C :   -0.106461
  68 C :    0.083329
  69 O :   -0.126053
  70 C :   -0.030605
  71 C :    0.049711
  72 C :   -0.028560
  73 C :   -0.023258
  74 C :    0.032648
  75 C :    0.004082
  76 C :    0.062077
  77 C :   -0.126087
  78 C :   -0.011727
  79 N :   -0.037651
  80 C :   -0.022819
  81 N :   -0.034813
  82 C :   -0.031568
  83 N :   -0.010894
  84 C :   -0.032316
  85 N :   -0.012576
  86 H :    0.053900
  87 H :    0.056223
  88 H :    0.058249
  89 H :    0.055963
  90 H :    0.035023
  91 H :    0.033694
  92 H :    0.091992
  93 H :    0.028744
  94 H :    0.092394
  95 H :    0.025281
  96 H :    0.036425
  97 H :    0.023062
  98 H :    0.050603
  99 H :    0.037290
 100 H :    0.044479
 101 H :    0.051693
 102 H :    0.055213
 103 H :    0.052577

  Mayer bond orders larger than 0.100000
B(  0-C ,  1-C ) :   1.3575 B(  0-C ,  9-C ) :   1.3324 B(  0-C , 13-C ) :   0.9896
B(  1-C ,  2-C ) :   1.3971 B(  1-C , 86-H ) :   0.9894 B(  2-C ,  3-C ) :   1.0853
B(  2-C ,  5-C ) :   1.3943 B(  3-C ,  4-N ) :   3.0445 B(  5-C ,  6-C ) :   1.0886
B(  5-C ,  8-C ) :   1.3754 B(  6-C ,  7-N ) :   3.0447 B(  8-C ,  9-C ) :   1.3612
B(  8-C , 87-H ) :   1.0135 B(  9-C , 10-C ) :   0.9013 B( 10-C , 11-O ) :   2.3054
B( 10-C , 12-C ) :   0.9242 B( 12-C , 13-C ) :   0.9844 B( 12-C , 19-C ) :   1.8171
B( 13-C , 14-C ) :   1.7022 B( 14-C , 15-C ) :   1.1261 B( 14-C , 17-C ) :   1.1701
B( 15-C , 16-N ) :   2.9932 B( 17-C , 18-N ) :   2.9924 B( 19-C , 20-C ) :   0.9995
B( 19-C , 88-H ) :   0.9247 B( 20-C , 21-C ) :   1.4297 B( 20-C , 30-C ) :   1.3571
B( 21-C , 22-C ) :   0.8907 B( 21-C , 27-C ) :   1.3873 B( 22-C , 23-O ) :   2.1345
B( 22-C , 24-N ) :   1.0650 B( 24-N , 25-C ) :   1.0182 B( 24-N , 36-C ) :   1.0050
B( 25-C , 26-O ) :   2.2520 B( 25-C , 27-C ) :   0.8672 B( 27-C , 28-C ) :   1.3286
B( 28-C , 29-C ) :   1.3375 B( 28-C , 89-H ) :   1.0250 B( 29-C , 30-C ) :   1.3414
B( 29-C , 34-C ) :   0.8353 B( 30-C , 31-C ) :   0.8557 B( 31-C , 32-O ) :   2.1352
B( 31-C , 33-S ) :   1.0534 B( 32-O , 33-S ) :   0.1084 B( 33-S , 34-C ) :   1.0131
B( 33-S , 35-O ) :   0.1047 B( 34-C , 35-O ) :   2.2379 B( 36-C , 37-C ) :   1.7335
B( 36-C , 90-H ) :   0.9713 B( 37-C , 38-C ) :   1.0800 B( 37-C , 91-H ) :   0.9522
B( 38-C , 39-N ) :   1.1966 B( 38-C , 45-C ) :   1.4206 B( 39-N , 40-C ) :   1.1546
B( 39-N , 92-H ) :   0.9350 B( 40-C , 41-C ) :   1.2712 B( 40-C , 44-C ) :   1.3001
B( 41-C , 42-C ) :   1.3279 B( 41-C , 93-H ) :   1.0406 B( 42-C , 43-N ) :   1.1816
B( 42-C , 46-C ) :   1.2305 B( 43-N , 44-C ) :   1.1905 B( 43-N , 94-H ) :   0.9290
B( 44-C , 45-C ) :   1.2580 B( 45-C , 95-H ) :   1.0291 B( 46-C , 47-C ) :   1.5569
B( 46-C , 96-H ) :   0.9464 B( 47-C , 48-C ) :   1.2004 B( 47-C , 97-H ) :   0.9393
B( 48-C , 49-C ) :   1.3202 B( 48-C , 58-C ) :   1.2784 B( 49-C , 50-C ) :   0.9314
B( 49-C , 55-C ) :   1.3835 B( 50-C , 51-O ) :   2.1376 B( 50-C , 52-N ) :   1.0075
B( 52-N , 53-C ) :   0.9956 B( 52-N , 64-C ) :   1.0859 B( 53-C , 54-O ) :   2.2294
B( 53-C , 55-C ) :   0.8849 B( 55-C , 56-C ) :   1.3324 B( 56-C , 57-C ) :   1.3344
B( 56-C , 98-H ) :   1.0274 B( 57-C , 58-C ) :   1.3599 B( 57-C , 62-C ) :   0.8373
B( 58-C , 59-C ) :   0.8612 B( 59-C , 60-O ) :   2.1871 B( 59-C , 61-S ) :   1.0136
B( 60-O , 61-S ) :   0.1024 B( 61-S , 62-C ) :   1.0319 B( 61-S , 63-O ) :   0.1097
B( 62-C , 63-O ) :   2.2177 B( 64-C , 65-C ) :   1.6461 B( 64-C , 99-H ) :   0.9617
B( 65-C , 66-C ) :   1.1531 B( 65-C ,100-H ) :   0.9467 B( 66-C , 67-C ) :   1.6550
B( 66-C ,101-H ) :   0.9324 B( 67-C , 68-C ) :   0.9540 B( 67-C , 76-C ) :   1.0295
B( 68-C , 69-O ) :   2.2746 B( 68-C , 70-C ) :   0.8965 B( 70-C , 71-C ) :   1.3689
B( 70-C , 75-C ) :   1.3382 B( 71-C , 72-C ) :   1.3658 B( 71-C ,102-H ) :   1.0145
B( 72-C , 73-C ) :   1.4015 B( 72-C , 84-C ) :   1.0860 B( 73-C , 74-C ) :   1.3941
B( 73-C , 82-C ) :   1.0864 B( 74-C , 75-C ) :   1.3588 B( 74-C ,103-H ) :   0.9885
B( 75-C , 76-C ) :   0.9760 B( 76-C , 77-C ) :   1.6639 B( 77-C , 78-C ) :   1.1734
B( 77-C , 80-C ) :   1.1258 B( 78-C , 79-N ) :   2.9753 B( 80-C , 81-N ) :   2.9853
B( 82-C , 83-N ) :   3.0461 B( 84-C , 85-N ) :   3.0449

-----------------------------------------------------------------------------
         ABSORPTION SPECTRUM VIA TRANSITION ELECTRIC DIPOLE MOMENTS
-----------------------------------------------------------------------------
State   Energy  Wavelength   fosc         T2         TX        TY        TZ
        (cm-1)    (nm)                  (au**2)     (au)      (au)      (au)
-----------------------------------------------------------------------------
   0   12761.4    783.6   0.061431510   1.58478  -1.01715  -0.01415  -0.74162
   1   13976.3    715.5   0.035496157   0.83611   0.81057   0.20260  -0.37153
   2   14321.8    698.2   0.198244664   4.55700  -1.48208  -0.16183  -1.52783
   3   15361.0    651.0   0.072778937   1.55977  -0.42487   0.38618  -1.10911
   4   19119.3    523.0   0.605096265  10.41904   2.21989  -0.21563   2.33338
   5   19970.0    500.8   0.209554324   3.45457   1.03187  -0.23980   1.52719
   6   22042.1    453.7   0.341716269   5.10373   1.73446  -0.18792   1.43530
   7   23065.4    433.5   0.374236228   5.34147  -1.96138  -1.02928  -0.65957
   8   25629.8    390.2   0.023066018   0.29628  -0.39455  -0.26905   0.26120
   9   25892.3    386.2   0.042025954   0.53435   0.52605  -0.39448   0.31938
  10   26741.9    373.9   0.001552643   0.01911  -0.12282   0.06331   0.00447
  11   27102.3    369.0   0.010848446   0.13178   0.06073  -0.02705   0.35687
  12   27444.8    364.4   0.006982466   0.08376  -0.23780  -0.02727   0.16268
  13   28202.5    354.6   0.239322940   2.79365   1.39206   0.68950  -0.61678
  14   28288.6    353.5   0.017988733   0.20935   0.43051   0.04038  -0.14958
  15   28343.4    352.8   0.006729884   0.07817   0.24545   0.12566  -0.04615
  16   28818.3    347.0   0.049017068   0.55996  -0.11264  -0.16260   0.72168
  17   28868.2    346.4   0.003651818   0.04165  -0.11919   0.02537   0.16369
  18   29196.5    342.5   0.004184175   0.04718  -0.21158  -0.00253   0.04905
  19   29287.3    341.4   0.020913115   0.23508  -0.11167  -0.40525  -0.24163
  20   29677.0    337.0   0.007902260   0.08766   0.26649   0.12858   0.01049
  21   29712.5    336.6   0.024030544   0.26626   0.20566   0.35886  -0.30851
  22   30083.5    332.4   0.077566727   0.84883  -0.68389  -0.45518  -0.41706
  23   30165.1    331.5   0.003558719   0.03884   0.19704   0.00032   0.00346
  24   30420.2    328.7   0.005604880   0.06066   0.10764  -0.01480   0.22102
  25   30854.4    324.1   0.098914498   1.05540  -0.76916  -0.16584   0.66052
  26   31055.6    322.0   0.157718140   1.67193   0.98602  -0.07517  -0.83309
  27   31226.2    320.2   0.052300504   0.55140  -0.28108   0.56879   0.38584
  28   31475.5    317.7   0.029971739   0.31348  -0.23123   0.14377   0.48923
  29   31618.3    316.3   0.006418023   0.06682   0.18763  -0.10538   0.14323
  30   31763.9    314.8   0.023540651   0.24398  -0.42359   0.21364   0.13752
  31   32315.0    309.5   0.008979211   0.09148   0.01084  -0.29033   0.08408
  32   32584.2    306.9   0.014530731   0.14681   0.12815   0.06680  -0.35486
  33   32831.1    304.6   0.030341613   0.30425  -0.50401   0.09975  -0.20068
  34   32967.7    303.3   0.156132677   1.55913  -1.04319  -0.10439   0.67823
  35   32984.6    303.2   0.094919469   0.94737   0.83532  -0.07873  -0.49338
  36   33071.0    302.4   0.010047947   0.10002   0.30402   0.07646   0.04186
  37   33238.3    300.9   0.001151373   0.01140  -0.03514   0.08870   0.04797
  38   33466.3    298.8   0.098963854   0.97352  -0.96143  -0.05801  -0.21400
  39   33759.1    296.2   0.219090786   2.13653   1.23707  -0.29251   0.72154
  40   33943.4    294.6   0.110707386   1.07373  -0.15181  -0.74671  -0.70222
  41   34768.7    287.6   0.091226161   0.86379  -0.01245   0.83459   0.40876
  42   34839.3    287.0   0.133963469   1.26588   0.20230  -0.65417  -0.89276
  43   35081.7    285.0   0.400084538   3.75446  -0.70913   0.39096   1.76032
  44   35223.2    283.9   0.309010227   2.88815   1.68107   0.24919  -0.00633
  45   35271.1    283.5   0.009734227   0.09086   0.28251  -0.02559  -0.10193
  46   35429.4    282.3   0.156575564   1.45491   1.17332  -0.24582  -0.13339
  47   35590.1    281.0   0.021270681   0.19676   0.31095   0.04938   0.31245
  48   35692.5    280.2   0.452051871   4.16953   0.69567  -1.53253  -1.15625
  49   35798.7    279.3   0.037571411   0.34551  -0.24570   0.20829   0.49169
  50   35906.0    278.5   0.047511255   0.43562   0.04127  -0.53060  -0.39035
  51   36042.9    277.4   0.070587222   0.64474   0.20301  -0.57920  -0.51774
  52   36580.4    273.4   0.104811545   0.94327   0.60683   0.23326  -0.72154
  53   36895.9    271.0   0.034073795   0.30403  -0.47579   0.06907  -0.26998
  54   37029.8    270.1   0.043058350   0.38281  -0.07178  -0.21970  -0.57392
  55   37187.6    268.9   0.023354950   0.20676   0.28539   0.09867  -0.33996
  56   37199.6    268.8   0.079370878   0.70242   0.65662   0.13469  -0.50312
  57   37496.3    266.7   0.028145832   0.24712   0.21975  -0.20110  -0.39798
  58   37745.0    264.9   0.039792960   0.34707  -0.41942  -0.35634  -0.21020
  59   37754.2    264.9   0.044798069   0.39063   0.28453  -0.05377   0.55388
  60   38207.0    261.7   0.029884035   0.25750   0.46898  -0.11749  -0.15411
  61   38570.3    259.3   0.052224239   0.44575  -0.53801  -0.30654  -0.24967
  62   38685.6    258.5   0.007353952   0.06258   0.11583  -0.13977  -0.17213
  63   38711.9    258.3   0.004567284   0.03884   0.00372   0.18545   0.06659
  64   38809.2    257.7   0.005399363   0.04580   0.03592   0.13174   0.16479
  65   38937.5    256.8   0.000794759   0.00672   0.05231   0.00891   0.06248
  66   39009.8    256.3   0.019275630   0.16267   0.28764  -0.23865  -0.15159
  67   39130.2    255.6   0.011588088   0.09749   0.25487   0.17731   0.03311
  68   39240.0    254.8   0.008519445   0.07148  -0.01750  -0.06899   0.25770
  69   39456.7    253.4   0.079460350   0.66299  -0.38034  -0.56439  -0.44699
  70   39633.6    252.3   0.015922628   0.13226   0.33960   0.13006   0.00389
  71   39991.4    250.1   0.021467903   0.17673  -0.12817  -0.00823   0.40029
  72   40112.5    249.3   0.003305598   0.02713  -0.12197  -0.04769   0.09990
  73   40155.2    249.0   0.000207773   0.00170   0.03075  -0.01834  -0.02053

FINAL SINGLE POINT ENERGY     -4574.081926538780

DIPOLE MOMENT
-------------
                                X             Y             Z
Electronic contribution:    -22.31122      -4.22451     -17.18822
Nuclear contribution   :     25.03236       6.89124      16.36793
                        -----------------------------------------
Total Dipole Moment    :      2.72114       2.66673      -0.82030
                        -----------------------------------------
Magnitude (a.u.)       :      3.89730
Magnitude (Debye)      :      9.90614

Rotational constants in cm-1:     0.000786     0.000214     0.000187
Rotational constants in MHz :    23.578527     6.417548     5.604876

                             ****ORCA TERMINATED NORMALLY****
TOTAL RUN TIME: 0 days 0 hours 12 minutes 28 seconds 674 msec
