                         Program Version 4.2.0 -  RELEASE  -
|  1> # ORCA input file
|  2> # SCF done       -218.245287954904          0.000674722801
|  3> ! CAM-B3LYP def2-SVP def2/J RIJCOSX Grid4 TightSCF
|  4> %maxcore 5000
|  5> %tddft
|  6>     Mode sTDDFT
|  7>     Ethresh 5.0
|  8>     maxcore 5000
|  9> end
| 10>
| 11> %pal
| 12>   nprocs 6
| 13>   end
| 14> * xyz 0 1
| 15>    C        0.75374        -4.10618        -4.28465
| 16>    C        1.56161        -3.61965        -5.30101
| 17>    C        2.62967        -4.40428        -5.73649
| 18>    C        3.46464        -3.92741        -6.77864
| 19>    N        4.13268        -3.53730        -7.62201
| 20>    C        2.89391        -5.66412        -5.16339
| 21>    C        3.99018        -6.43360        -5.62470
| 22>    N        4.87308        -7.06772        -5.98351
| 23>    C        2.07727        -6.15419        -4.14473
| 24>    C        1.02080        -5.37243        -3.72293
| 25>    C        0.01934        -5.67615        -2.68464
| 26>    O       -0.05252        -6.65481        -1.97881
| 27>    C       -0.91196        -4.51166        -2.68344
| 28>    C       -0.41684        -3.52239        -3.63532
| 29>    C       -0.93343        -2.28145        -3.85603
| 30>    C       -0.40293        -1.35039        -4.77941
| 31>    N       -0.01088        -0.56002        -5.51103
| 32>    C       -2.05939        -1.75700        -3.17916
| 33>    N       -2.96521        -1.27888        -2.66433
| 34>    C       -2.02701        -4.50108        -1.93852
| 35>    C       -2.37489        -5.60789        -1.04788
| 36>    C       -2.12440        -5.54802         0.31689
| 37>    C       -1.45010        -4.46799         1.07768
| 38>    O       -1.00074        -3.43841         0.64364
| 39>    N       -1.43834        -4.90191         2.39986
| 40>    C       -2.02785        -6.16876         2.55356
| 41>    O       -2.13718        -6.75205         3.59474
| 42>    C       -2.45990        -6.58045         1.19176
| 43>    C       -3.07072        -7.74118         0.75406
| 44>    C       -3.32536        -7.81449        -0.61239
| 45>    C       -2.99427        -6.78316        -1.48741
| 46>    C       -3.30425        -7.04730        -2.90529
| 47>    O       -3.10602        -6.32042        -3.83482
| 48>    S       -4.03506        -8.67288        -3.04372
| 49>    C       -3.94650        -8.98639        -1.26866
| 50>    O       -4.33494        -9.98855        -0.75823
| 51>    C       -0.93462        -4.22473         3.51225
| 52>    C       -0.39645        -3.00445         3.49456
| 53>    C        0.09252        -2.31082         4.67265
| 54>    C        0.31890        -0.93665         4.61562
| 55>    C        0.76055        -0.24415         5.74346
| 56>    C        0.93491        -0.99235         6.91592
| 57>    N        0.75873        -2.29630         6.97191
| 58>    C        0.36681        -2.94280         5.89259
| 59>    C        0.98651         1.18391         5.66163
| 60>    C        1.63091         1.91356         6.58294
| 61>    C        1.79177         3.34973         6.54404
| 62>    C        1.63002         4.08850         7.72622
| 63>    C        1.31974         3.59347         9.08660
| 64>    O        1.12849         2.46550         9.45662
| 65>    N        1.25729         4.73846         9.89838
| 66>    C        1.47578         5.92149         9.16450
| 67>    O        1.45644         7.02464         9.63006
| 68>    C        1.71136         5.48014         7.77064
| 69>    C        1.97285         6.23381         6.64214
| 70>    C        2.18645         5.51542         5.47131
| 71>    C        2.11269         4.12324         5.40675
| 72>    C        2.50758         3.57743         4.08855
| 73>    O        2.63788         2.43989         3.75353
| 74>    S        2.84827         4.94036         2.95826
| 75>    C        2.53591         6.18914         4.19989
| 76>    O        2.60920         7.36244         4.00225
| 77>    C        1.10055         4.77856        11.26765
| 78>    C        1.01197         3.70022        12.06598
| 79>    C        0.93714         3.80542        13.48102
| 80>    C        1.17678         2.79668        14.35853
| 81>    C        0.72786         2.89667        15.77296
| 82>    O        0.35822         3.88723        16.35364
| 83>    C        0.77777         1.50717        16.28747
| 84>    C        0.35095         1.02929        17.50848
| 85>    C        0.46397        -0.33970        17.75593
| 86>    C        0.99511        -1.19535        16.77153
| 87>    C        1.43376        -0.70022        15.54225
| 88>    C        1.32866         0.65978        15.30488
| 89>    C        1.72340         1.46921        14.15055
| 90>    C        2.62510         1.09122        13.19397
| 91>    C        3.21633         1.96427        12.25322
| 92>    N        3.77432         2.62884        11.50255
| 93>    C        3.17064        -0.20939        13.10332
| 94>    N        3.63236        -1.25221        12.98371
| 95>    C        1.08168        -2.58594        17.03194
| 96>    N        1.15043        -3.71099        17.23103
| 97>    C        0.03589        -0.87168        18.99652
| 98>    N       -0.31634        -1.28409        20.00485
| 99>    H        1.38893        -2.66181        -5.76546
|100>    H        2.26403        -7.11919        -3.69862
|101>    H       -2.71613        -3.66751        -1.94864
|102>    H       -3.32757        -8.54968         1.41984
|103>    H       -1.05218        -4.80762         4.41542
|104>    H       -0.33152        -2.45586         2.56632
|105>    H        0.15669        -0.40322         3.68911
|106>    H        1.21302        -0.52355         7.84920
|107>    H        0.27403        -4.01362         6.00583
|108>    H        0.57385         1.66288         4.78377
|109>    H        1.98942         1.44664         7.48923
|110>    H        2.02941         7.31027         6.65933
|111>    H        1.12513         5.78819        11.66045
|112>    H        1.00970         2.71349        11.62964
|113>    H        0.61239         4.74722        13.90865
|114>    H       -0.06087         1.69575        18.25097
|115>    H        1.82940        -1.38446        14.80837
|116> *
|117>
|118>                          ****END OF INPUT****

CARTESIAN COORDINATES (ANGSTROEM)
---------------------------------
  C      0.753740   -4.106180   -4.284650
  C      1.561610   -3.619650   -5.301010
  C      2.629670   -4.404280   -5.736490
  C      3.464640   -3.927410   -6.778640
  N      4.132680   -3.537300   -7.622010
  C      2.893910   -5.664120   -5.163390
  C      3.990180   -6.433600   -5.624700
  N      4.873080   -7.067720   -5.983510
  C      2.077270   -6.154190   -4.144730
  C      1.020800   -5.372430   -3.722930
  C      0.019340   -5.676150   -2.684640
  O     -0.052520   -6.654810   -1.978810
  C     -0.911960   -4.511660   -2.683440
  C     -0.416840   -3.522390   -3.635320
  C     -0.933430   -2.281450   -3.856030
  C     -0.402930   -1.350390   -4.779410
  N     -0.010880   -0.560020   -5.511030
  C     -2.059390   -1.757000   -3.179160
  N     -2.965210   -1.278880   -2.664330
  C     -2.027010   -4.501080   -1.938520
  C     -2.374890   -5.607890   -1.047880
  C     -2.124400   -5.548020    0.316890
  C     -1.450100   -4.467990    1.077680
  O     -1.000740   -3.438410    0.643640
  N     -1.438340   -4.901910    2.399860
  C     -2.027850   -6.168760    2.553560
  O     -2.137180   -6.752050    3.594740
  C     -2.459900   -6.580450    1.191760
  C     -3.070720   -7.741180    0.754060
  C     -3.325360   -7.814490   -0.612390
  C     -2.994270   -6.783160   -1.487410
  C     -3.304250   -7.047300   -2.905290
  O     -3.106020   -6.320420   -3.834820
  S     -4.035060   -8.672880   -3.043720
  C     -3.946500   -8.986390   -1.268660
  O     -4.334940   -9.988550   -0.758230
  C     -0.934620   -4.224730    3.512250
  C     -0.396450   -3.004450    3.494560
  C      0.092520   -2.310820    4.672650
  C      0.318900   -0.936650    4.615620
  C      0.760550   -0.244150    5.743460
  C      0.934910   -0.992350    6.915920
  N      0.758730   -2.296300    6.971910
  C      0.366810   -2.942800    5.892590
  C      0.986510    1.183910    5.661630
  C      1.630910    1.913560    6.582940
  C      1.791770    3.349730    6.544040
  C      1.630020    4.088500    7.726220
  C      1.319740    3.593470    9.086600
  O      1.128490    2.465500    9.456620
  N      1.257290    4.738460    9.898380
  C      1.475780    5.921490    9.164500
  O      1.456440    7.024640    9.630060
  C      1.711360    5.480140    7.770640
  C      1.972850    6.233810    6.642140
  C      2.186450    5.515420    5.471310
  C      2.112690    4.123240    5.406750
  C      2.507580    3.577430    4.088550
  O      2.637880    2.439890    3.753530
  S      2.848270    4.940360    2.958260
  C      2.535910    6.189140    4.199890
  O      2.609200    7.362440    4.002250
  C      1.100550    4.778560   11.267650
  C      1.011970    3.700220   12.065980
  C      0.937140    3.805420   13.481020
  C      1.176780    2.796680   14.358530
  C      0.727860    2.896670   15.772960
  O      0.358220    3.887230   16.353640
  C      0.777770    1.507170   16.287470
  C      0.350950    1.029290   17.508480
  C      0.463970   -0.339700   17.755930
  C      0.995110   -1.195350   16.771530
  C      1.433760   -0.700220   15.542250
  C      1.328660    0.659780   15.304880
  C      1.723400    1.469210   14.150550
  C      2.625100    1.091220   13.193970
  C      3.216330    1.964270   12.253220
  N      3.774320    2.628840   11.502550
  C      3.170640   -0.209390   13.103320
  N      3.632360   -1.252210   12.983710
  C      1.081680   -2.585940   17.031940
  N      1.150430   -3.710990   17.231030
  C      0.035890   -0.871680   18.996520
  N     -0.316340   -1.284090   20.004850
  H      1.388930   -2.661810   -5.765460
  H      2.264030   -7.119190   -3.698620
  H     -2.716130   -3.667510   -1.948640
  H     -3.327570   -8.549680    1.419840
  H     -1.052180   -4.807620    4.415420
  H     -0.331520   -2.455860    2.566320
  H      0.156690   -0.403220    3.689110
  H      1.213020   -0.523550    7.849200
  H      0.274030   -4.013620    6.005830
  H      0.573850    1.662880    4.783770
  H      1.989420    1.446640    7.489230
  H      2.029410    7.310270    6.659330
  H      1.125130    5.788190   11.660450
  H      1.009700    2.713490   11.629640
  H      0.612390    4.747220   13.908650
  H     -0.060870    1.695750   18.250970
  H      1.829400   -1.384460   14.808370

 Total Charge           Charge          ....    0
 Multiplicity           Mult            ....    1
 Number of Electrons    NEL             ....  572
 Basis Dimension        Dim             .... 1269

ORBITAL ENERGIES
----------------

  NO   OCC          E(Eh)            E(eV)
   0   2.0000     -88.971913     -2421.0488
   1   2.0000     -88.964782     -2420.8548
   2   2.0000     -19.266098      -524.2572
   3   2.0000     -19.264905      -524.2247
   4   2.0000     -19.261211      -524.1242
   5   2.0000     -19.260490      -524.1046
   6   2.0000     -19.259857      -524.0874
   7   2.0000     -19.257227      -524.0158
   8   2.0000     -19.257065      -524.0114
   9   2.0000     -19.256719      -524.0020
  10   2.0000     -19.255479      -523.9682
  11   2.0000     -19.240718      -523.5665
  12   2.0000     -14.512759      -394.9122
  13   2.0000     -14.505173      -394.7058
  14   2.0000     -14.449843      -393.2002
  15   2.0000     -14.449092      -393.1798
  16   2.0000     -14.440411      -392.9436
  17   2.0000     -14.439596      -392.9214
  18   2.0000     -14.436536      -392.8381
  19   2.0000     -14.436317      -392.8321
  20   2.0000     -14.431152      -392.6916
  21   2.0000     -14.430391      -392.6709
  22   2.0000     -14.412227      -392.1766
  23   2.0000     -10.439340      -284.0689
  24   2.0000     -10.438126      -284.0358
  25   2.0000     -10.435983      -283.9775
  26   2.0000     -10.434210      -283.9293
  27   2.0000     -10.427797      -283.7548
  28   2.0000     -10.425836      -283.7014
  29   2.0000     -10.421724      -283.5895
  30   2.0000     -10.418208      -283.4939
  31   2.0000     -10.409988      -283.2702
  32   2.0000     -10.391661      -282.7715
  33   2.0000     -10.385775      -282.6113
  34   2.0000     -10.378030      -282.4005
  35   2.0000     -10.375307      -282.3264
  36   2.0000     -10.374265      -282.2981
  37   2.0000     -10.371417      -282.2206
  38   2.0000     -10.365959      -282.0721
  39   2.0000     -10.364885      -282.0428
  40   2.0000     -10.363796      -282.0132
  41   2.0000     -10.362911      -281.9891
  42   2.0000     -10.362797      -281.9860
  43   2.0000     -10.357743      -281.8485
  44   2.0000     -10.357261      -281.8354
  45   2.0000     -10.353113      -281.7225
  46   2.0000     -10.350046      -281.6391
  47   2.0000     -10.350044      -281.6390
  48   2.0000     -10.349219      -281.6166
  49   2.0000     -10.349180      -281.6155
  50   2.0000     -10.349023      -281.6112
  51   2.0000     -10.348075      -281.5854
  52   2.0000     -10.345948      -281.5275
  53   2.0000     -10.345194      -281.5070
  54   2.0000     -10.344820      -281.4969
  55   2.0000     -10.344529      -281.4890
  56   2.0000     -10.343813      -281.4695
  57   2.0000     -10.343303      -281.4556
  58   2.0000     -10.343221      -281.4534
  59   2.0000     -10.342132      -281.4237
  60   2.0000     -10.339538      -281.3531
  61   2.0000     -10.338469      -281.3241
  62   2.0000     -10.338332      -281.3203
  63   2.0000     -10.338033      -281.3122
  64   2.0000     -10.337773      -281.3051
  65   2.0000     -10.337598      -281.3003
  66   2.0000     -10.337478      -281.2971
  67   2.0000     -10.337107      -281.2870
  68   2.0000     -10.337023      -281.2847
  69   2.0000     -10.336434      -281.2687
  70   2.0000     -10.335321      -281.2384
  71   2.0000     -10.329191      -281.0716
  72   2.0000     -10.327636      -281.0293
  73   2.0000     -10.326611      -281.0014
  74   2.0000     -10.317152      -280.7440
  75   2.0000     -10.315617      -280.7022
  76   2.0000     -10.314936      -280.6837
  77   2.0000     -10.307983      -280.4945
  78   2.0000     -10.307970      -280.4941
  79   2.0000     -10.301649      -280.3221
  80   2.0000     -10.300943      -280.3029
  81   2.0000     -10.300007      -280.2774
  82   2.0000     -10.298785      -280.2442
  83   2.0000     -10.295072      -280.1432
  84   2.0000      -8.071068      -219.6249
  85   2.0000      -8.064039      -219.4336
  86   2.0000      -6.039934      -164.3550
  87   2.0000      -6.036646      -164.2655
  88   2.0000      -6.032873      -164.1628
  89   2.0000      -6.032115      -164.1422
  90   2.0000      -6.029630      -164.0746
  91   2.0000      -6.025104      -163.9514
  92   2.0000      -1.207305       -32.8524
  93   2.0000      -1.202167       -32.7126
  94   2.0000      -1.190345       -32.3909
  95   2.0000      -1.186399       -32.2836
  96   2.0000      -1.183775       -32.2122
  97   2.0000      -1.183079       -32.1932
  98   2.0000      -1.179261       -32.0893
  99   2.0000      -1.178810       -32.0771
 100   2.0000      -1.176662       -32.0186
 101   2.0000      -1.156582       -31.4722
 102   2.0000      -1.100876       -29.9564
 103   2.0000      -1.095213       -29.8023
 104   2.0000      -1.059339       -28.8261
 105   2.0000      -1.048511       -28.5314
 106   2.0000      -1.047160       -28.4947
 107   2.0000      -1.044150       -28.4128
 108   2.0000      -1.037701       -28.2373
 109   2.0000      -1.032538       -28.0968
 110   2.0000      -1.030498       -28.0413
 111   2.0000      -1.027167       -27.9506
 112   2.0000      -1.025878       -27.9156
 113   2.0000      -1.019035       -27.7293
 114   2.0000      -1.014947       -27.6181
 115   2.0000      -1.014418       -27.6037
 116   2.0000      -1.010061       -27.4851
 117   2.0000      -0.995207       -27.0809
 118   2.0000      -0.984186       -26.7811
 119   2.0000      -0.976339       -26.5675
 120   2.0000      -0.974918       -26.5289
 121   2.0000      -0.954605       -25.9761
 122   2.0000      -0.948366       -25.8064
 123   2.0000      -0.944157       -25.6918
 124   2.0000      -0.937636       -25.5144
 125   2.0000      -0.931488       -25.3471
 126   2.0000      -0.930873       -25.3303
 127   2.0000      -0.920106       -25.0374
 128   2.0000      -0.915135       -24.9021
 129   2.0000      -0.909683       -24.7537
 130   2.0000      -0.906663       -24.6715
 131   2.0000      -0.901934       -24.5429
 132   2.0000      -0.898393       -24.4465
 133   2.0000      -0.874184       -23.7877
 134   2.0000      -0.858664       -23.3654
 135   2.0000      -0.846179       -23.0257
 136   2.0000      -0.840163       -22.8620
 137   2.0000      -0.833573       -22.6827
 138   2.0000      -0.826444       -22.4887
 139   2.0000      -0.815836       -22.2000
 140   2.0000      -0.813763       -22.1436
 141   2.0000      -0.813155       -22.1271
 142   2.0000      -0.799028       -21.7427
 143   2.0000      -0.796186       -21.6653
 144   2.0000      -0.772964       -21.0334
 145   2.0000      -0.772054       -21.0086
 146   2.0000      -0.771299       -20.9881
 147   2.0000      -0.761663       -20.7259
 148   2.0000      -0.758237       -20.6327
 149   2.0000      -0.753017       -20.4906
 150   2.0000      -0.736482       -20.0407
 151   2.0000      -0.730336       -19.8734
 152   2.0000      -0.726661       -19.7735
 153   2.0000      -0.719407       -19.5761
 154   2.0000      -0.715469       -19.4689
 155   2.0000      -0.714111       -19.4320
 156   2.0000      -0.710200       -19.3255
 157   2.0000      -0.704907       -19.1815
 158   2.0000      -0.700563       -19.0633
 159   2.0000      -0.694936       -18.9102
 160   2.0000      -0.685423       -18.6513
 161   2.0000      -0.678994       -18.4764
 162   2.0000      -0.677120       -18.4254
 163   2.0000      -0.664651       -18.0861
 164   2.0000      -0.662028       -18.0147
 165   2.0000      -0.654975       -17.8228
 166   2.0000      -0.652466       -17.7545
 167   2.0000      -0.648265       -17.6402
 168   2.0000      -0.640509       -17.4291
 169   2.0000      -0.636679       -17.3249
 170   2.0000      -0.633018       -17.2253
 171   2.0000      -0.630242       -17.1498
 172   2.0000      -0.626766       -17.0552
 173   2.0000      -0.624103       -16.9827
 174   2.0000      -0.618496       -16.8301
 175   2.0000      -0.616371       -16.7723
 176   2.0000      -0.614937       -16.7333
 177   2.0000      -0.612307       -16.6617
 178   2.0000      -0.608911       -16.5693
 179   2.0000      -0.603765       -16.4293
 180   2.0000      -0.603012       -16.4088
 181   2.0000      -0.591350       -16.0915
 182   2.0000      -0.587750       -15.9935
 183   2.0000      -0.586167       -15.9504
 184   2.0000      -0.585533       -15.9332
 185   2.0000      -0.583220       -15.8702
 186   2.0000      -0.582927       -15.8623
 187   2.0000      -0.580528       -15.7970
 188   2.0000      -0.577591       -15.7171
 189   2.0000      -0.573334       -15.6012
 190   2.0000      -0.572887       -15.5891
 191   2.0000      -0.571828       -15.5602
 192   2.0000      -0.569038       -15.4843
 193   2.0000      -0.567813       -15.4510
 194   2.0000      -0.564725       -15.3669
 195   2.0000      -0.563731       -15.3399
 196   2.0000      -0.560668       -15.2565
 197   2.0000      -0.559054       -15.2126
 198   2.0000      -0.557187       -15.1618
 199   2.0000      -0.556150       -15.1336
 200   2.0000      -0.555000       -15.1023
 201   2.0000      -0.552803       -15.0425
 202   2.0000      -0.548292       -14.9198
 203   2.0000      -0.544028       -14.8037
 204   2.0000      -0.541383       -14.7318
 205   2.0000      -0.539453       -14.6793
 206   2.0000      -0.538563       -14.6551
 207   2.0000      -0.537649       -14.6302
 208   2.0000      -0.535261       -14.5652
 209   2.0000      -0.532928       -14.5017
 210   2.0000      -0.532218       -14.4824
 211   2.0000      -0.530746       -14.4423
 212   2.0000      -0.526336       -14.3223
 213   2.0000      -0.526272       -14.3206
 214   2.0000      -0.523249       -14.2383
 215   2.0000      -0.522515       -14.2184
 216   2.0000      -0.521111       -14.1802
 217   2.0000      -0.517335       -14.0774
 218   2.0000      -0.516260       -14.0482
 219   2.0000      -0.511905       -13.9296
 220   2.0000      -0.507368       -13.8062
 221   2.0000      -0.505778       -13.7629
 222   2.0000      -0.501990       -13.6599
 223   2.0000      -0.499597       -13.5947
 224   2.0000      -0.497082       -13.5263
 225   2.0000      -0.496867       -13.5204
 226   2.0000      -0.492649       -13.4057
 227   2.0000      -0.489734       -13.3263
 228   2.0000      -0.488214       -13.2850
 229   2.0000      -0.486710       -13.2441
 230   2.0000      -0.479188       -13.0394
 231   2.0000      -0.474407       -12.9093
 232   2.0000      -0.474333       -12.9073
 233   2.0000      -0.472136       -12.8475
 234   2.0000      -0.468685       -12.7536
 235   2.0000      -0.467731       -12.7276
 236   2.0000      -0.467573       -12.7233
 237   2.0000      -0.465129       -12.6568
 238   2.0000      -0.463706       -12.6181
 239   2.0000      -0.462804       -12.5935
 240   2.0000      -0.461160       -12.5488
 241   2.0000      -0.460217       -12.5231
 242   2.0000      -0.459369       -12.5001
 243   2.0000      -0.458840       -12.4857
 244   2.0000      -0.456543       -12.4232
 245   2.0000      -0.455321       -12.3899
 246   2.0000      -0.454394       -12.3647
 247   2.0000      -0.448856       -12.2140
 248   2.0000      -0.447831       -12.1861
 249   2.0000      -0.447747       -12.1838
 250   2.0000      -0.444885       -12.1059
 251   2.0000      -0.442642       -12.0449
 252   2.0000      -0.439612       -11.9625
 253   2.0000      -0.439525       -11.9601
 254   2.0000      -0.437764       -11.9122
 255   2.0000      -0.433787       -11.8040
 256   2.0000      -0.430645       -11.7184
 257   2.0000      -0.426926       -11.6172
 258   2.0000      -0.425205       -11.5704
 259   2.0000      -0.406934       -11.0732
 260   2.0000      -0.404910       -11.0182
 261   2.0000      -0.402953       -10.9649
 262   2.0000      -0.397097       -10.8056
 263   2.0000      -0.396424       -10.7872
 264   2.0000      -0.393418       -10.7055
 265   2.0000      -0.390512       -10.6264
 266   2.0000      -0.389523       -10.5995
 267   2.0000      -0.388670       -10.5763
 268   2.0000      -0.387093       -10.5333
 269   2.0000      -0.384155       -10.4534
 270   2.0000      -0.382249       -10.4015
 271   2.0000      -0.379282       -10.3208
 272   2.0000      -0.378318       -10.2946
 273   2.0000      -0.371801       -10.1172
 274   2.0000      -0.368535       -10.0283
 275   2.0000      -0.363579        -9.8935
 276   2.0000      -0.363021        -9.8783
 277   2.0000      -0.361703        -9.8424
 278   2.0000      -0.361623        -9.8403
 279   2.0000      -0.360633        -9.8133
 280   2.0000      -0.344599        -9.3770
 281   2.0000      -0.343313        -9.3420
 282   2.0000      -0.334586        -9.1046
 283   2.0000      -0.319553        -8.6955
 284   2.0000      -0.313135        -8.5208
 285   2.0000      -0.296269        -8.0619
 286   0.0000      -0.123409        -3.3581
 287   0.0000      -0.114500        -3.1157
 288   0.0000      -0.112814        -3.0698
 289   0.0000      -0.110993        -3.0203
 290   0.0000      -0.104757        -2.8506

MULLIKEN ATOMIC CHARGES
-----------------------
   0 C :    0.045033
   1 C :   -0.034428
   2 C :   -0.055710
   3 C :   -0.175406
   4 N :    0.209578
   5 C :   -0.066393
   6 C :   -0.172055
   7 N :    0.206499
   8 C :   -0.020492
   9 C :   -0.009578
  10 C :    0.152927
  11 O :   -0.128657
  12 C :    0.001274
  13 C :    0.331483
  14 C :   -0.312124
  15 C :   -0.192149
  16 N :    0.183355
  17 C :   -0.191994
  18 N :    0.182770
  19 C :   -0.079510
  20 C :   -0.029517
  21 C :   -0.002394
  22 C :    0.213858
  23 O :   -0.147443
  24 N :   -0.238754
  25 C :    0.197451
  26 O :   -0.122104
  27 C :    0.031897
  28 C :   -0.062536
  29 C :    0.064146
  30 C :    0.071511
  31 C :    0.045790
  32 O :   -0.133100
  33 S :    0.025961
  34 C :    0.045293
  35 O :   -0.103423
  36 C :    0.086122
  37 C :   -0.005581
  38 C :    0.066667
  39 C :   -0.025351
  40 C :    0.042947
  41 C :   -0.007153
  42 N :   -0.048384
  43 C :   -0.009882
  44 C :    0.071048
  45 C :   -0.040559
  46 C :    0.047263
  47 C :   -0.029039
  48 C :    0.231883
  49 O :   -0.143434
  50 N :   -0.242250
  51 C :    0.209879
  52 O :   -0.118220
  53 C :    0.009405
  54 C :   -0.068367
  55 C :    0.044711
  56 C :    0.029518
  57 C :    0.029657
  58 O :   -0.115692
  59 S :    0.020981
  60 C :    0.052685
  61 O :   -0.114478
  62 C :    0.109752
  63 C :   -0.008828
  64 C :    0.036983
  65 C :   -0.118381
  66 C :    0.150287
  67 O :   -0.120600
  68 C :   -0.000966
  69 C :   -0.029615
  70 C :   -0.071564
  71 C :   -0.059927
  72 C :   -0.032809
  73 C :    0.036773
  74 C :    0.271054
  75 C :   -0.306999
  76 C :   -0.197736
  77 N :    0.166132
  78 C :   -0.186312
  79 N :    0.173784
  80 C :   -0.173271
  81 N :    0.201036
  82 C :   -0.172838
  83 N :    0.201537
  84 H :    0.023673
  85 H :    0.019624
  86 H :    0.062789
  87 H :    0.024900
  88 H :    0.036667
  89 H :    0.020876
  90 H :   -0.009129
  91 H :    0.009532
  92 H :    0.003167
  93 H :   -0.006371
  94 H :    0.037345
  95 H :    0.024539
  96 H :    0.048387
  97 H :    0.062526
  98 H :    0.025524
  99 H :    0.018587
 100 H :    0.024437
Sum of atomic charges:   -0.0000000

LOEWDIN ATOMIC CHARGES
----------------------
   0 C :    0.006127
   1 C :    0.037795
   2 C :   -0.017603
   3 C :   -0.032230
   4 N :   -0.002685
   5 C :   -0.024574
   6 C :   -0.032905
   7 N :   -0.005715
   8 C :    0.054546
   9 C :   -0.032202
  10 C :    0.089932
  11 O :   -0.122769
  12 C :   -0.062179
  13 C :    0.070154
  14 C :   -0.099617
  15 C :   -0.021329
  16 N :   -0.019894
  17 C :   -0.015531
  18 N :   -0.022465
  19 C :    0.094278
  20 C :    0.029684
  21 C :   -0.025530
  22 C :    0.100851
  23 O :   -0.132704
  24 N :   -0.012985
  25 C :    0.101477
  26 O :   -0.118670
  27 C :   -0.026598
  28 C :    0.050568
  29 C :   -0.047264
  30 C :   -0.045490
  31 C :   -0.046641
  32 O :   -0.119196
  33 S :    0.312913
  34 C :   -0.040312
  35 O :   -0.096540
  36 C :    0.030859
  37 C :   -0.034398
  38 C :   -0.043284
  39 C :    0.019903
  40 C :   -0.050374
  41 C :    0.033851
  42 N :   -0.057890
  43 C :    0.029918
  44 C :    0.035271
  45 C :   -0.037113
  46 C :    0.042784
  47 C :   -0.036049
  48 C :    0.114872
  49 O :   -0.119200
  50 N :   -0.010923
  51 C :    0.105841
  52 O :   -0.115274
  53 C :   -0.031368
  54 C :    0.038761
  55 C :   -0.046298
  56 C :   -0.059195
  57 C :   -0.043070
  58 O :   -0.104854
  59 S :    0.307996
  60 C :   -0.049518
  61 O :   -0.106031
  62 C :    0.088182
  63 C :   -0.056937
  64 C :    0.083477
  65 C :   -0.098494
  66 C :    0.082852
  67 O :   -0.124098
  68 C :   -0.031482
  69 C :    0.049866
  70 C :   -0.028665
  71 C :   -0.022207
  72 C :    0.033137
  73 C :    0.004538
  74 C :    0.064269
  75 C :   -0.117771
  76 C :   -0.015362
  77 N :   -0.043856
  78 C :   -0.022898
  79 N :   -0.029547
  80 C :   -0.031435
  81 N :   -0.009542
  82 C :   -0.032432
  83 N :   -0.012315
  84 H :    0.053813
  85 H :    0.055919
  86 H :    0.057140
  87 H :    0.055143
  88 H :    0.034717
  89 H :    0.035115
  90 H :    0.033162
  91 H :    0.024799
  92 H :    0.022062
  93 H :    0.029000
  94 H :    0.038427
  95 H :    0.053673
  96 H :    0.043810
  97 H :    0.037513
  98 H :    0.048488
  99 H :    0.054995
 100 H :    0.053033

  Mayer bond orders larger than 0.100000
B(  0-C ,  1-C ) :   1.3521 B(  0-C ,  9-C ) :   1.3292 B(  0-C , 13-C ) :   0.9753
B(  1-C ,  2-C ) :   1.4032 B(  1-C , 84-H ) :   0.9853 B(  2-C ,  3-C ) :   1.0856
B(  2-C ,  5-C ) :   1.3961 B(  3-C ,  4-N ) :   3.0437 B(  5-C ,  6-C ) :   1.0841
B(  5-C ,  8-C ) :   1.3722 B(  6-C ,  7-N ) :   3.0446 B(  8-C ,  9-C ) :   1.3618
B(  8-C , 85-H ) :   1.0136 B(  9-C , 10-C ) :   0.9289 B( 10-C , 11-O ) :   2.2389
B( 10-C , 12-C ) :   0.9217 B( 12-C , 13-C ) :   1.0137 B( 12-C , 19-C ) :   1.7836
B( 13-C , 14-C ) :   1.7068 B( 14-C , 15-C ) :   1.1347 B( 14-C , 17-C ) :   1.1501
B( 15-C , 16-N ) :   2.9691 B( 17-C , 18-N ) :   2.9758 B( 19-C , 20-C ) :   0.9838
B( 19-C , 86-H ) :   0.9251 B( 20-C , 21-C ) :   1.4434 B( 20-C , 30-C ) :   1.4022
B( 21-C , 22-C ) :   0.8933 B( 21-C , 27-C ) :   1.3767 B( 22-C , 23-O ) :   2.1518
B( 22-C , 24-N ) :   1.0550 B( 24-N , 25-C ) :   1.0174 B( 24-N , 36-C ) :   1.0003
B( 25-C , 26-O ) :   2.2453 B( 25-C , 27-C ) :   0.8653 B( 27-C , 28-C ) :   1.3444
B( 28-C , 29-C ) :   1.3220 B( 28-C , 87-H ) :   1.0243 B( 29-C , 30-C ) :   1.3481
B( 29-C , 34-C ) :   0.8313 B( 30-C , 31-C ) :   0.8501 B( 31-C , 32-O ) :   2.1668
B( 31-C , 33-S ) :   1.0401 B( 32-O , 33-S ) :   0.1100 B( 33-S , 34-C ) :   1.0148
B( 33-S , 35-O ) :   0.1064 B( 34-C , 35-O ) :   2.2405 B( 36-C , 37-C ) :   1.7549
B( 36-C , 88-H ) :   0.9661 B( 37-C , 38-C ) :   1.0343 B( 37-C , 89-H ) :   0.9705
B( 38-C , 39-C ) :   1.3658 B( 38-C , 43-C ) :   1.3293 B( 39-C , 40-C ) :   1.3570
B( 39-C , 90-H ) :   1.0016 B( 40-C , 41-C ) :   1.3260 B( 40-C , 44-C ) :   1.0752
B( 41-C , 42-N ) :   1.5657 B( 41-C , 91-H ) :   0.9825 B( 42-N , 43-C ) :   1.5667
B( 43-C , 92-H ) :   0.9832 B( 44-C , 45-C ) :   1.7568 B( 44-C , 93-H ) :   0.9711
B( 45-C , 46-C ) :   1.0923 B( 45-C , 94-H ) :   0.9331 B( 46-C , 47-C ) :   1.3706
B( 46-C , 56-C ) :   1.3444 B( 47-C , 48-C ) :   0.9137 B( 47-C , 53-C ) :   1.3816
B( 48-C , 49-O ) :   2.1359 B( 48-C , 50-N ) :   1.0170 B( 50-N , 51-C ) :   0.9926
B( 50-N , 62-C ) :   1.0593 B( 51-C , 52-O ) :   2.2552 B( 51-C , 53-C ) :   0.8783
B( 53-C , 54-C ) :   1.3338 B( 54-C , 55-C ) :   1.3416 B( 54-C , 95-H ) :   1.0280
B( 55-C , 56-C ) :   1.3461 B( 55-C , 60-C ) :   0.8365 B( 56-C , 57-C ) :   0.8465
B( 57-C , 58-O ) :   2.1957 B( 57-C , 59-S ) :   1.0230 B( 58-O , 59-S ) :   0.1060
B( 59-S , 60-C ) :   1.0297 B( 59-S , 61-O ) :   0.1094 B( 60-C , 61-O ) :   2.2230
B( 62-C , 63-C ) :   1.6781 B( 62-C , 96-H ) :   0.9752 B( 63-C , 64-C ) :   1.1137
B( 63-C , 97-H ) :   0.9332 B( 64-C , 65-C ) :   1.6409 B( 64-C , 98-H ) :   0.9598
B( 65-C , 66-C ) :   0.9425 B( 65-C , 74-C ) :   1.0395 B( 66-C , 67-O ) :   2.2923
B( 66-C , 68-C ) :   0.8996 B( 68-C , 69-C ) :   1.3683 B( 68-C , 73-C ) :   1.3354
B( 69-C , 70-C ) :   1.3685 B( 69-C , 99-H ) :   1.0137 B( 70-C , 71-C ) :   1.4030
B( 70-C , 82-C ) :   1.0871 B( 71-C , 72-C ) :   1.3880 B( 71-C , 80-C ) :   1.0857
B( 72-C , 73-C ) :   1.3619 B( 72-C ,100-H ) :   0.9886 B( 73-C , 74-C ) :   0.9763
B( 74-C , 75-C ) :   1.6684 B( 75-C , 76-C ) :   1.1593 B( 75-C , 78-C ) :   1.1309
B( 76-C , 77-N ) :   2.9964 B( 78-C , 79-N ) :   2.9837 B( 80-C , 81-N ) :   3.0439
B( 82-C , 83-N ) :   3.0463

-----------------------------------------------------------------------------
         ABSORPTION SPECTRUM VIA TRANSITION ELECTRIC DIPOLE MOMENTS
-----------------------------------------------------------------------------
State   Energy  Wavelength   fosc         T2         TX        TY        TZ
        (cm-1)    (nm)                  (au**2)     (au)      (au)      (au)
-----------------------------------------------------------------------------
   0   22528.2    443.9   0.042253573   0.61747   0.18730   0.29988  -0.70175
   1   23483.4    425.8   0.006589469   0.09238  -0.03153  -0.09187   0.28800
   2   25020.3    399.7   0.282522035   3.71737   0.74629  -0.96758   1.49138
   3   25601.7    390.6   0.004852284   0.06240   0.03250   0.13524   0.20748
   4   26863.2    372.3   0.026595537   0.32593  -0.01425  -0.56598  -0.07348
   5   27603.5    362.3   0.209928084   2.50370   0.04825   1.37092   0.78863
   6   27655.6    361.6   0.000730927   0.00870  -0.08849  -0.01776  -0.02358
   7   28569.3    350.0   0.004062204   0.04681  -0.05932  -0.13424   0.15896
   8   28683.2    348.6   0.006273843   0.07201   0.05424  -0.01537  -0.26235
   9   28874.7    346.3   0.229435639   2.61589  -0.07249   0.73265  -1.44009
  10   29261.0    341.8   0.022052576   0.24811   0.17141   0.33474   0.32662
  11   29955.4    333.8   0.099774171   1.09653  -0.20543   0.16797  -1.01297
  12   30515.5    327.7   0.072072948   0.77755  -0.08625   0.70822  -0.51820
  13   30599.6    326.8   0.014852388   0.15979  -0.10468   0.05584   0.38173
  14   30922.7    323.4   0.254524722   2.70974  -0.29380  -1.58472  -0.33478
  15   31108.7    321.5   0.149493353   1.58203   0.28119  -1.18395   0.31818
  16   31522.4    317.2   0.084862216   0.88628  -0.04174   0.87231  -0.35158
  17   31772.1    314.7   0.082757613   0.85751  -0.32039  -0.27931   0.82270
  18   31784.2    314.6   0.266980512   2.76531  -0.44097  -0.76198   1.41076
  19   32123.2    311.3   0.003909753   0.04007  -0.04800   0.04015  -0.19014
  20   32275.8    309.8   0.001873831   0.01911  -0.11699  -0.06402  -0.03644
  21   32543.8    307.3   0.002407499   0.02435   0.09938  -0.12018   0.00587
  22   32796.0    304.9   0.073651358   0.73933  -0.00827   0.11407   0.85220
  23   32926.2    303.7   0.186057335   1.86029   0.41083   0.57522  -1.16646
  24   33220.7    301.0   0.114894180   1.13858   0.34770   1.00794  -0.04177
  25   33565.2    297.9   0.049682056   0.48729   0.59823   0.32888   0.14576
  26   33574.1    297.8   0.032646409   0.32012   0.37497  -0.09493   0.41291
  27   33632.4    297.3   0.170342477   1.66740   0.06801   0.88693   0.93602
  28   33763.9    296.2   0.007726958   0.07534  -0.17496  -0.19034  -0.09220
  29   34024.9    293.9   0.193003666   1.86743   0.14887   0.95527   0.96578
  30   34124.6    293.0   0.338697869   3.26753  -0.00617  -1.04890  -1.47217
  31   34268.7    291.8   0.006949753   0.06676   0.03555   0.16110  -0.19886
  32   34630.7    288.8   0.013931248   0.13244  -0.26371  -0.24611   0.04815
  33   34729.1    287.9   0.267805007   2.53864  -1.53567   0.40246   0.13552
  34   35214.1    284.0   0.408577816   3.81974   1.28885  -1.37919  -0.50641
  35   35316.5    283.2   0.690693718   6.43849   1.14050   0.68064  -2.16206
  36   35455.7    282.0   0.115251577   1.07013   0.77418  -0.67941  -0.09581
  37   35536.8    281.4   0.013200301   0.12229  -0.06457  -0.32561  -0.10997
  38   35600.2    280.9   0.027133779   0.25092  -0.05784  -0.46081  -0.18769
  39   35833.3    279.1   0.013761872   0.12643   0.07671   0.31514   0.14573
  40   35939.5    278.2   0.017378475   0.15919   0.25235  -0.18367  -0.24855
  41   35967.1    278.0   0.010102350   0.09247   0.26763  -0.14292   0.02043
  42   36227.6    276.0   0.058312882   0.52991  -0.37227  -0.01605   0.62535
  43   36659.4    272.8   0.000400005   0.00359   0.00853   0.04274  -0.04115
  44   37093.1    269.6   0.000017227   0.00015  -0.00134   0.00527  -0.01111
  45   37378.7    267.5   0.030973044   0.27279  -0.11086   0.44453   0.25079
  46   37536.7    266.4   0.007168647   0.06287   0.20372   0.14438   0.02285
  47   37682.5    265.4   0.064297605   0.56173   0.28780  -0.68196  -0.11765
  48   37872.0    264.0   0.099598691   0.86579  -0.28540  -0.74558   0.47796
  49   37923.7    263.7   0.068537192   0.59496  -0.14093  -0.70922  -0.26852
  50   37991.4    263.2   0.005940101   0.05147   0.12763  -0.06675   0.17530
  51   38660.9    258.7   0.080783395   0.68790   0.09538   0.50915  -0.64774
  52   38833.8    257.5   0.092048096   0.78033   0.43730   0.05768  -0.76536
  53   38907.9    257.0   0.059715771   0.50527   0.42414   0.49459  -0.28419
  54   39028.9    256.2   0.005400479   0.04555  -0.04163  -0.19643   0.07235
  55   39446.6    253.5   0.007666046   0.06398   0.12619  -0.03574   0.21628
  56   39479.3    253.3   0.007815691   0.06517   0.12563   0.09694  -0.19999
  57   39536.8    252.9   0.005300080   0.04413  -0.08701  -0.18309  -0.05512
  58   39653.3    252.2   0.001111746   0.00923  -0.01509   0.02171   0.09236
  59   39762.1    251.5   0.020524619   0.16993  -0.03802  -0.41024  -0.01400
  60   39897.9    250.6   0.010513170   0.08675   0.15647   0.24147  -0.06290
  61   40122.4    249.2   0.068213361   0.55970   0.34664   0.57368   0.33232
  62   40253.0    248.4   0.023448706   0.19178   0.29445   0.31231   0.08682

FINAL SINGLE POINT ENERGY     -4480.742751012338

DIPOLE MOMENT
-------------
                                X             Y             Z
Electronic contribution:     -1.78783      -9.33748     -24.37257
Nuclear contribution   :     -0.44080      10.74141      23.66214
                        -----------------------------------------
Total Dipole Moment    :     -2.22863       1.40393      -0.71043
                        -----------------------------------------
Magnitude (a.u.)       :      2.72810
Magnitude (Debye)      :      6.93428

Rotational constants in cm-1:     0.000912     0.000221     0.000190
Rotational constants in MHz :    27.346380     6.614697     5.689302

                             ****ORCA TERMINATED NORMALLY****
TOTAL RUN TIME: 0 days 0 hours 12 minutes 59 seconds 312 msec
