                         Program Version 4.2.0 -  RELEASE  -
|  1> # ORCA input file
|  2> # SCF done       -228.457949119537          0.000469656305
|  3> ! CAM-B3LYP def2-SVP def2/J RIJCOSX Grid4 TightSCF
|  4> %maxcore 5000
|  5> %tddft
|  6>     Mode sTDDFT
|  7>     Ethresh 5.0
|  8>     maxcore 5000
|  9> end
| 10>
| 11> %pal
| 12>   nprocs 6
| 13>   end
| 14> * xyz 0 1
| 15>    C       -7.06046        -6.03989         8.13677
| 16>    C       -7.41943        -6.03564         9.47604
| 17>    C       -6.48020        -6.45814        10.41794
| 18>    C       -6.82989        -6.46501        11.79225
| 19>    N       -7.12074        -6.47061        12.89895
| 20>    C       -5.19018        -6.87578        10.03221
| 21>    C       -4.25227        -7.28111        11.01342
| 22>    N       -3.48047        -7.61044        11.79194
| 23>    C       -4.83480        -6.89098         8.68446
| 24>    C       -5.77545        -6.48054         7.76113
| 25>    C       -5.62211        -6.39972         6.30143
| 26>    O       -4.63168        -6.69103         5.66666
| 27>    C       -6.93879        -5.90736         5.78753
| 28>    C       -7.79201        -5.62963         6.94170
| 29>    C       -9.01206        -5.02263         6.91528
| 30>    C       -9.78840        -4.75604         8.06768
| 31>    N      -10.45719        -4.52071         8.96820
| 32>    C       -9.65132        -4.54185         5.74783
| 33>    N      -10.21683        -4.10625         4.85088
| 34>    C       -7.29297        -5.85665         4.48717
| 35>    C       -6.36358        -6.15173         3.41102
| 36>    C       -5.08230        -5.60317         3.36913
| 37>    C       -4.47305        -4.57628         4.25291
| 38>    O       -4.98823        -3.84917         5.05778
| 39>    N       -3.11119        -4.58643         3.93779
| 40>    C       -2.81336        -5.43640         2.86888
| 41>    O       -1.72048        -5.64618         2.41760
| 42>    C       -4.11457        -6.03218         2.46350
| 43>    C       -4.40268        -6.94388         1.46114
| 44>    C       -5.70890        -7.41783         1.42446
| 45>    C       -6.65416        -7.06311         2.38723
| 46>    C       -7.94325        -7.77285         2.27187
| 47>    O       -8.86955        -7.71454         3.02526
| 48>    S       -7.91345        -8.79406         0.80094
| 49>    C       -6.20313        -8.37712         0.41267
| 50>    O       -5.61057        -8.82528        -0.51755
| 51>    C       -2.20397        -3.89640         4.73369
| 52>    C       -0.92248        -4.24933         4.87541
| 53>    C       -0.02539        -3.63303         5.80485
| 54>    S       -0.21325        -1.98468         6.31821
| 55>    C        1.18804        -2.11341         7.32469
| 56>    C        1.85370        -1.24600         8.19848
| 57>    C        2.93270        -1.86742         8.78048
| 58>    C        3.93524        -1.37480         9.73783
| 59>    O        4.84171        -2.06507        10.11663
| 60>    O        3.78870        -0.11046        10.16677
| 61>    S        3.14314        -3.51599         8.26448
| 62>    C        1.76793        -3.38024         7.24038
| 63>    C        1.07124        -4.25748         6.37972
| 64>    C        1.41002        -5.65141         6.13884
| 65>    C        2.68962        -6.04374         5.73623
| 66>    C        3.88969        -5.21905         5.47061
| 67>    O        4.03371        -4.02842         5.50980
| 68>    N        4.90275        -6.12667         5.10499
| 69>    C        4.43787        -7.44735         5.05088
| 70>    O        5.06795        -8.41057         4.71484
| 71>    C        3.01080        -7.37349         5.45760
| 72>    C        2.07767        -8.38940         5.53625
| 73>    C        0.80491        -8.01478         5.95129
| 74>    C        0.47428        -6.69735         6.26917
| 75>    C       -0.88859        -6.55165         6.82787
| 76>    O       -1.39447        -5.59324         7.33146
| 77>    S       -1.74449        -8.12727         6.71379
| 78>    C       -0.30049        -8.98886         6.08701
| 79>    O       -0.28309       -10.15050         5.82804
| 80>    C        6.20405        -5.69735         4.93610
| 81>    C        7.25290        -6.50722         4.71278
| 82>    C        8.58978        -6.02626         4.65297
| 83>    C        9.70462        -6.78842         4.79160
| 84>    C       11.03461        -6.27404         4.36645
| 85>    O       11.32616        -5.13351         4.10411
| 86>    C       11.89675        -7.47631         4.27640
| 87>    C       13.19280        -7.56830         3.81443
| 88>    C       13.79420        -8.82747         3.78598
| 89>    C       13.07924        -9.96284         4.21432
| 90>    C       11.77118        -9.85765         4.69015
| 91>    C       11.18180        -8.60508         4.72607
| 92>    C        9.86310        -8.17395         5.19382
| 93>    C        9.05622        -8.88235         6.04104
| 94>    C        7.93020        -8.35441         6.71255
| 95>    N        7.04033        -7.97125         7.32689
| 96>    C        9.31851       -10.21289         6.43917
| 97>    N        9.48605       -11.29546         6.77796
| 98>    C       13.69826       -11.23672         4.15613
| 99>    N       14.18927       -12.26951         4.10838
|100>    C       15.12327        -8.96616         3.31727
|101>    N       16.19810        -9.05947         2.93391
|102>    H       -8.39480        -5.72048         9.81139
|103>    H       -3.85248        -7.20726         8.36796
|104>    H       -8.31514        -5.65043         4.19875
|105>    H       -3.66178        -7.27924         0.75288
|106>    H       -2.65848        -3.10254         5.31116
|107>    H       -0.53054        -5.08771         4.31651
|108>    H        1.54180        -0.23110         8.37282
|109>    H        3.01938         0.33405         9.78968
|110>    H        2.31510        -9.41424         5.29946
|111>    H        6.31515        -4.62958         5.08111
|112>    H        7.09100        -7.56729         4.59179
|113>    H        8.74891        -4.97688         4.43214
|114>    H       13.72593        -6.69039         3.48241
|115>    H       11.25103       -10.74866         5.00465
|116> *
|117>
|118>                          ****END OF INPUT****

CARTESIAN COORDINATES (ANGSTROEM)
---------------------------------
  C     -7.060460   -6.039890    8.136770
  C     -7.419430   -6.035640    9.476040
  C     -6.480200   -6.458140   10.417940
  C     -6.829890   -6.465010   11.792250
  N     -7.120740   -6.470610   12.898950
  C     -5.190180   -6.875780   10.032210
  C     -4.252270   -7.281110   11.013420
  N     -3.480470   -7.610440   11.791940
  C     -4.834800   -6.890980    8.684460
  C     -5.775450   -6.480540    7.761130
  C     -5.622110   -6.399720    6.301430
  O     -4.631680   -6.691030    5.666660
  C     -6.938790   -5.907360    5.787530
  C     -7.792010   -5.629630    6.941700
  C     -9.012060   -5.022630    6.915280
  C     -9.788400   -4.756040    8.067680
  N    -10.457190   -4.520710    8.968200
  C     -9.651320   -4.541850    5.747830
  N    -10.216830   -4.106250    4.850880
  C     -7.292970   -5.856650    4.487170
  C     -6.363580   -6.151730    3.411020
  C     -5.082300   -5.603170    3.369130
  C     -4.473050   -4.576280    4.252910
  O     -4.988230   -3.849170    5.057780
  N     -3.111190   -4.586430    3.937790
  C     -2.813360   -5.436400    2.868880
  O     -1.720480   -5.646180    2.417600
  C     -4.114570   -6.032180    2.463500
  C     -4.402680   -6.943880    1.461140
  C     -5.708900   -7.417830    1.424460
  C     -6.654160   -7.063110    2.387230
  C     -7.943250   -7.772850    2.271870
  O     -8.869550   -7.714540    3.025260
  S     -7.913450   -8.794060    0.800940
  C     -6.203130   -8.377120    0.412670
  O     -5.610570   -8.825280   -0.517550
  C     -2.203970   -3.896400    4.733690
  C     -0.922480   -4.249330    4.875410
  C     -0.025390   -3.633030    5.804850
  S     -0.213250   -1.984680    6.318210
  C      1.188040   -2.113410    7.324690
  C      1.853700   -1.246000    8.198480
  C      2.932700   -1.867420    8.780480
  C      3.935240   -1.374800    9.737830
  O      4.841710   -2.065070   10.116630
  O      3.788700   -0.110460   10.166770
  S      3.143140   -3.515990    8.264480
  C      1.767930   -3.380240    7.240380
  C      1.071240   -4.257480    6.379720
  C      1.410020   -5.651410    6.138840
  C      2.689620   -6.043740    5.736230
  C      3.889690   -5.219050    5.470610
  O      4.033710   -4.028420    5.509800
  N      4.902750   -6.126670    5.104990
  C      4.437870   -7.447350    5.050880
  O      5.067950   -8.410570    4.714840
  C      3.010800   -7.373490    5.457600
  C      2.077670   -8.389400    5.536250
  C      0.804910   -8.014780    5.951290
  C      0.474280   -6.697350    6.269170
  C     -0.888590   -6.551650    6.827870
  O     -1.394470   -5.593240    7.331460
  S     -1.744490   -8.127270    6.713790
  C     -0.300490   -8.988860    6.087010
  O     -0.283090  -10.150500    5.828040
  C      6.204050   -5.697350    4.936100
  C      7.252900   -6.507220    4.712780
  C      8.589780   -6.026260    4.652970
  C      9.704620   -6.788420    4.791600
  C     11.034610   -6.274040    4.366450
  O     11.326160   -5.133510    4.104110
  C     11.896750   -7.476310    4.276400
  C     13.192800   -7.568300    3.814430
  C     13.794200   -8.827470    3.785980
  C     13.079240   -9.962840    4.214320
  C     11.771180   -9.857650    4.690150
  C     11.181800   -8.605080    4.726070
  C      9.863100   -8.173950    5.193820
  C      9.056220   -8.882350    6.041040
  C      7.930200   -8.354410    6.712550
  N      7.040330   -7.971250    7.326890
  C      9.318510  -10.212890    6.439170
  N      9.486050  -11.295460    6.777960
  C     13.698260  -11.236720    4.156130
  N     14.189270  -12.269510    4.108380
  C     15.123270   -8.966160    3.317270
  N     16.198100   -9.059470    2.933910
  H     -8.394800   -5.720480    9.811390
  H     -3.852480   -7.207260    8.367960
  H     -8.315140   -5.650430    4.198750
  H     -3.661780   -7.279240    0.752880
  H     -2.658480   -3.102540    5.311160
  H     -0.530540   -5.087710    4.316510
  H      1.541800   -0.231100    8.372820
  H      3.019380    0.334050    9.789680
  H      2.315100   -9.414240    5.299460
  H      6.315150   -4.629580    5.081110
  H      7.091000   -7.567290    4.591790
  H      8.748910   -4.976880    4.432140
  H     13.725930   -6.690390    3.482410
  H     11.251030  -10.748660    5.004650

 Total Charge           Charge          ....    0
 Multiplicity           Mult            ....    1
 Number of Electrons    NEL             ....  610
 Basis Dimension        Dim             .... 1304

ORBITAL ENERGIES
----------------

  NO   OCC          E(Eh)            E(eV)
   0   2.0000     -88.987057     -2421.4609
   1   2.0000     -88.980727     -2421.2887
   2   2.0000     -88.976958     -2421.1861
   3   2.0000     -88.975843     -2421.1558
   4   2.0000     -19.271303      -524.3988
   5   2.0000     -19.269760      -524.3568
   6   2.0000     -19.268393      -524.3196
   7   2.0000     -19.267890      -524.3059
   8   2.0000     -19.267583      -524.2976
   9   2.0000     -19.267454      -524.2941
  10   2.0000     -19.262722      -524.1653
  11   2.0000     -19.261725      -524.1382
  12   2.0000     -19.260419      -524.1026
  13   2.0000     -19.258576      -524.0525
  14   2.0000     -19.240568      -523.5625
  15   2.0000     -19.205606      -522.6111
  16   2.0000     -14.514983      -394.9728
  17   2.0000     -14.510936      -394.8627
  18   2.0000     -14.450785      -393.2259
  19   2.0000     -14.450329      -393.2134
  20   2.0000     -14.441262      -392.9667
  21   2.0000     -14.441157      -392.9639
  22   2.0000     -14.436311      -392.8320
  23   2.0000     -14.435627      -392.8134
  24   2.0000     -14.430791      -392.6818
  25   2.0000     -14.430143      -392.6642
  26   2.0000     -10.441256      -284.1210
  27   2.0000     -10.441251      -284.1209
  28   2.0000     -10.441062      -284.1157
  29   2.0000     -10.440961      -284.1130
  30   2.0000     -10.432228      -283.8754
  31   2.0000     -10.430844      -283.8377
  32   2.0000     -10.428987      -283.7872
  33   2.0000     -10.428625      -283.7773
  34   2.0000     -10.418673      -283.5065
  35   2.0000     -10.415437      -283.4184
  36   2.0000     -10.391410      -282.7646
  37   2.0000     -10.388389      -282.6824
  38   2.0000     -10.380206      -282.4598
  39   2.0000     -10.377506      -282.3863
  40   2.0000     -10.375513      -282.3320
  41   2.0000     -10.371225      -282.2154
  42   2.0000     -10.365675      -282.0644
  43   2.0000     -10.364801      -282.0406
  44   2.0000     -10.364159      -282.0231
  45   2.0000     -10.363814      -282.0137
  46   2.0000     -10.363502      -282.0052
  47   2.0000     -10.362481      -281.9774
  48   2.0000     -10.359556      -281.8978
  49   2.0000     -10.357922      -281.8534
  50   2.0000     -10.355745      -281.7942
  51   2.0000     -10.354799      -281.7684
  52   2.0000     -10.353669      -281.7377
  53   2.0000     -10.352402      -281.7032
  54   2.0000     -10.351647      -281.6826
  55   2.0000     -10.351221      -281.6710
  56   2.0000     -10.351175      -281.6698
  57   2.0000     -10.351022      -281.6656
  58   2.0000     -10.350804      -281.6597
  59   2.0000     -10.350746      -281.6581
  60   2.0000     -10.350272      -281.6452
  61   2.0000     -10.349978      -281.6372
  62   2.0000     -10.349521      -281.6248
  63   2.0000     -10.349115      -281.6137
  64   2.0000     -10.346594      -281.5451
  65   2.0000     -10.346068      -281.5308
  66   2.0000     -10.344297      -281.4826
  67   2.0000     -10.343866      -281.4709
  68   2.0000     -10.342666      -281.4383
  69   2.0000     -10.338286      -281.3191
  70   2.0000     -10.337503      -281.2978
  71   2.0000     -10.337452      -281.2964
  72   2.0000     -10.337346      -281.2935
  73   2.0000     -10.337240      -281.2906
  74   2.0000     -10.337216      -281.2900
  75   2.0000     -10.336873      -281.2806
  76   2.0000     -10.328910      -281.0639
  77   2.0000     -10.327252      -281.0188
  78   2.0000     -10.327019      -281.0125
  79   2.0000     -10.326339      -280.9940
  80   2.0000     -10.326092      -280.9872
  81   2.0000     -10.324406      -280.9414
  82   2.0000     -10.322332      -280.8849
  83   2.0000     -10.319263      -280.8014
  84   2.0000     -10.317287      -280.7476
  85   2.0000     -10.313912      -280.6558
  86   2.0000     -10.308844      -280.5179
  87   2.0000      -8.082478      -219.9354
  88   2.0000      -8.075456      -219.7443
  89   2.0000      -8.075286      -219.7397
  90   2.0000      -8.074900      -219.7292
  91   2.0000      -6.051911      -164.6809
  92   2.0000      -6.047960      -164.5734
  93   2.0000      -6.044808      -164.4876
  94   2.0000      -6.044319      -164.4743
  95   2.0000      -6.044085      -164.4679
  96   2.0000      -6.043784      -164.4597
  97   2.0000      -6.041024      -164.3846
  98   2.0000      -6.040551      -164.3718
  99   2.0000      -6.040477      -164.3697
 100   2.0000      -6.037075      -164.2772
 101   2.0000      -6.036649      -164.2656
 102   2.0000      -6.035941      -164.2463
 103   2.0000      -1.209913       -32.9234
 104   2.0000      -1.209088       -32.9009
 105   2.0000      -1.194723       -32.5101
 106   2.0000      -1.192942       -32.4616
 107   2.0000      -1.191959       -32.4348
 108   2.0000      -1.189736       -32.3744
 109   2.0000      -1.188926       -32.3523
 110   2.0000      -1.187794       -32.3215
 111   2.0000      -1.186160       -32.2771
 112   2.0000      -1.180443       -32.1215
 113   2.0000      -1.156401       -31.4673
 114   2.0000      -1.107191       -30.1282
 115   2.0000      -1.103736       -30.0342
 116   2.0000      -1.101695       -29.9786
 117   2.0000      -1.061765       -28.8921
 118   2.0000      -1.046850       -28.4862
 119   2.0000      -1.045651       -28.4536
 120   2.0000      -1.045045       -28.4371
 121   2.0000      -1.042377       -28.3645
 122   2.0000      -1.032063       -28.0839
 123   2.0000      -1.030934       -28.0531
 124   2.0000      -1.028127       -27.9768
 125   2.0000      -1.027749       -27.9665
 126   2.0000      -1.020315       -27.7642
 127   2.0000      -1.014598       -27.6086
 128   2.0000      -1.014017       -27.5928
 129   2.0000      -1.009725       -27.4760
 130   2.0000      -0.997439       -27.1417
 131   2.0000      -0.984880       -26.7999
 132   2.0000      -0.984487       -26.7892
 133   2.0000      -0.981002       -26.6944
 134   2.0000      -0.976046       -26.5596
 135   2.0000      -0.957563       -26.0566
 136   2.0000      -0.946380       -25.7523
 137   2.0000      -0.943941       -25.6859
 138   2.0000      -0.934071       -25.4174
 139   2.0000      -0.930610       -25.3232
 140   2.0000      -0.926053       -25.1992
 141   2.0000      -0.921881       -25.0857
 142   2.0000      -0.913727       -24.8638
 143   2.0000      -0.907393       -24.6914
 144   2.0000      -0.903414       -24.5831
 145   2.0000      -0.890942       -24.2438
 146   2.0000      -0.879052       -23.9202
 147   2.0000      -0.876943       -23.8628
 148   2.0000      -0.849347       -23.1119
 149   2.0000      -0.839761       -22.8510
 150   2.0000      -0.838719       -22.8227
 151   2.0000      -0.829500       -22.5718
 152   2.0000      -0.829231       -22.5645
 153   2.0000      -0.820959       -22.3394
 154   2.0000      -0.819857       -22.3094
 155   2.0000      -0.813437       -22.1347
 156   2.0000      -0.805482       -21.9183
 157   2.0000      -0.796238       -21.6667
 158   2.0000      -0.780433       -21.2367
 159   2.0000      -0.777229       -21.1495
 160   2.0000      -0.770564       -20.9681
 161   2.0000      -0.762028       -20.7358
 162   2.0000      -0.757939       -20.6246
 163   2.0000      -0.746786       -20.3211
 164   2.0000      -0.744506       -20.2590
 165   2.0000      -0.731861       -19.9150
 166   2.0000      -0.727351       -19.7922
 167   2.0000      -0.720848       -19.6153
 168   2.0000      -0.719390       -19.5756
 169   2.0000      -0.714839       -19.4518
 170   2.0000      -0.711846       -19.3703
 171   2.0000      -0.706229       -19.2175
 172   2.0000      -0.703936       -19.1551
 173   2.0000      -0.697251       -18.9732
 174   2.0000      -0.689842       -18.7716
 175   2.0000      -0.682355       -18.5678
 176   2.0000      -0.680343       -18.5131
 177   2.0000      -0.674870       -18.3641
 178   2.0000      -0.663057       -18.0427
 179   2.0000      -0.661906       -18.0114
 180   2.0000      -0.661391       -17.9974
 181   2.0000      -0.652216       -17.7477
 182   2.0000      -0.647079       -17.6079
 183   2.0000      -0.645256       -17.5583
 184   2.0000      -0.640016       -17.4157
 185   2.0000      -0.635716       -17.2987
 186   2.0000      -0.632107       -17.2005
 187   2.0000      -0.631299       -17.1785
 188   2.0000      -0.626270       -17.0417
 189   2.0000      -0.624640       -16.9973
 190   2.0000      -0.618298       -16.8247
 191   2.0000      -0.616524       -16.7765
 192   2.0000      -0.614715       -16.7272
 193   2.0000      -0.609325       -16.5806
 194   2.0000      -0.605348       -16.4723
 195   2.0000      -0.603469       -16.4212
 196   2.0000      -0.595122       -16.1941
 197   2.0000      -0.591990       -16.1089
 198   2.0000      -0.591127       -16.0854
 199   2.0000      -0.589523       -16.0417
 200   2.0000      -0.587662       -15.9911
 201   2.0000      -0.586133       -15.9495
 202   2.0000      -0.583744       -15.8845
 203   2.0000      -0.580026       -15.7833
 204   2.0000      -0.578668       -15.7464
 205   2.0000      -0.576953       -15.6997
 206   2.0000      -0.572927       -15.5901
 207   2.0000      -0.571824       -15.5601
 208   2.0000      -0.571543       -15.5525
 209   2.0000      -0.568841       -15.4790
 210   2.0000      -0.564472       -15.3601
 211   2.0000      -0.563526       -15.3343
 212   2.0000      -0.562128       -15.2963
 213   2.0000      -0.561329       -15.2745
 214   2.0000      -0.558932       -15.2093
 215   2.0000      -0.558258       -15.1910
 216   2.0000      -0.551769       -15.0144
 217   2.0000      -0.549094       -14.9416
 218   2.0000      -0.548515       -14.9259
 219   2.0000      -0.543927       -14.8010
 220   2.0000      -0.542501       -14.7622
 221   2.0000      -0.541775       -14.7425
 222   2.0000      -0.539783       -14.6882
 223   2.0000      -0.538259       -14.6468
 224   2.0000      -0.536479       -14.5983
 225   2.0000      -0.535282       -14.5658
 226   2.0000      -0.534537       -14.5455
 227   2.0000      -0.533040       -14.5048
 228   2.0000      -0.532797       -14.4981
 229   2.0000      -0.530400       -14.4329
 230   2.0000      -0.528154       -14.3718
 231   2.0000      -0.524214       -14.2646
 232   2.0000      -0.522404       -14.2153
 233   2.0000      -0.521101       -14.1799
 234   2.0000      -0.517072       -14.0702
 235   2.0000      -0.516760       -14.0618
 236   2.0000      -0.515876       -14.0377
 237   2.0000      -0.509959       -13.8767
 238   2.0000      -0.508059       -13.8250
 239   2.0000      -0.504023       -13.7152
 240   2.0000      -0.502356       -13.6698
 241   2.0000      -0.498878       -13.5752
 242   2.0000      -0.498045       -13.5525
 243   2.0000      -0.494482       -13.4555
 244   2.0000      -0.490225       -13.3397
 245   2.0000      -0.485183       -13.2025
 246   2.0000      -0.479843       -13.0572
 247   2.0000      -0.475657       -12.9433
 248   2.0000      -0.475032       -12.9263
 249   2.0000      -0.472222       -12.8498
 250   2.0000      -0.471448       -12.8287
 251   2.0000      -0.468938       -12.7605
 252   2.0000      -0.467625       -12.7247
 253   2.0000      -0.466131       -12.6841
 254   2.0000      -0.464247       -12.6328
 255   2.0000      -0.463317       -12.6075
 256   2.0000      -0.461903       -12.5690
 257   2.0000      -0.461213       -12.5502
 258   2.0000      -0.459763       -12.5108
 259   2.0000      -0.459604       -12.5065
 260   2.0000      -0.456168       -12.4130
 261   2.0000      -0.455079       -12.3833
 262   2.0000      -0.454485       -12.3672
 263   2.0000      -0.454048       -12.3553
 264   2.0000      -0.448993       -12.2177
 265   2.0000      -0.447565       -12.1789
 266   2.0000      -0.446473       -12.1492
 267   2.0000      -0.444533       -12.0964
 268   2.0000      -0.442440       -12.0394
 269   2.0000      -0.440939       -11.9986
 270   2.0000      -0.437865       -11.9149
 271   2.0000      -0.437457       -11.9038
 272   2.0000      -0.435681       -11.8555
 273   2.0000      -0.432249       -11.7621
 274   2.0000      -0.430244       -11.7075
 275   2.0000      -0.425119       -11.5681
 276   2.0000      -0.415233       -11.2991
 277   2.0000      -0.414437       -11.2774
 278   2.0000      -0.409510       -11.1433
 279   2.0000      -0.404967       -11.0197
 280   2.0000      -0.404710       -11.0127
 281   2.0000      -0.400854       -10.9078
 282   2.0000      -0.398292       -10.8381
 283   2.0000      -0.394861       -10.7447
 284   2.0000      -0.392673       -10.6852
 285   2.0000      -0.391942       -10.6653
 286   2.0000      -0.390904       -10.6371
 287   2.0000      -0.389242       -10.5918
 288   2.0000      -0.387499       -10.5444
 289   2.0000      -0.382730       -10.4146
 290   2.0000      -0.376911       -10.2563
 291   2.0000      -0.373524       -10.1641
 292   2.0000      -0.371663       -10.1135
 293   2.0000      -0.371369       -10.1055
 294   2.0000      -0.367651       -10.0043
 295   2.0000      -0.364201        -9.9104
 296   2.0000      -0.362863        -9.8740
 297   2.0000      -0.362588        -9.8665
 298   2.0000      -0.362347        -9.8600
 299   2.0000      -0.354177        -9.6377
 300   2.0000      -0.344807        -9.3827
 301   2.0000      -0.343104        -9.3363
 302   2.0000      -0.318948        -8.6790
 303   2.0000      -0.313307        -8.5255
 304   2.0000      -0.288948        -7.8627
 305   0.0000      -0.130602        -3.5539
 306   0.0000      -0.120614        -3.2821
 307   0.0000      -0.118454        -3.2233
 308   0.0000      -0.113705        -3.0941
 309   0.0000      -0.112794        -3.0693

MULLIKEN ATOMIC CHARGES
-----------------------
   0 C :    0.055813
   1 C :   -0.037034
   2 C :   -0.059855
   3 C :   -0.174959
   4 N :    0.212406
   5 C :   -0.059686
   6 C :   -0.172753
   7 N :    0.203452
   8 C :    0.001544
   9 C :   -0.001150
  10 C :    0.178402
  11 O :   -0.152635
  12 C :   -0.042104
  13 C :    0.292678
  14 C :   -0.303859
  15 C :   -0.188046
  16 N :    0.181135
  17 C :   -0.187364
  18 N :    0.186749
  19 C :   -0.031299
  20 C :    0.016734
  21 C :    0.003613
  22 C :    0.190056
  23 O :   -0.142997
  24 N :   -0.238007
  25 C :    0.210463
  26 O :   -0.135275
  27 C :    0.009728
  28 C :   -0.056560
  29 C :    0.049398
  30 C :    0.056538
  31 C :    0.046151
  32 O :   -0.126602
  33 S :    0.032211
  34 C :    0.048625
  35 O :   -0.106330
  36 C :    0.084927
  37 C :   -0.021042
  38 C :   -0.075367
  39 S :    0.164562
  40 C :   -0.059964
  41 C :   -0.009326
  42 C :   -0.194661
  43 C :    0.195697
  44 O :   -0.174332
  45 O :   -0.153789
  46 S :    0.223181
  47 C :   -0.037828
  48 C :    0.030270
  49 C :    0.007063
  50 C :   -0.009905
  51 C :    0.189181
  52 O :   -0.118038
  53 N :   -0.240677
  54 C :    0.236181
  55 O :   -0.124207
  56 C :    0.003765
  57 C :   -0.057720
  58 C :    0.019500
  59 C :    0.032353
  60 C :    0.042020
  61 O :   -0.114636
  62 S :   -0.000527
  63 C :    0.073384
  64 O :   -0.103758
  65 C :    0.115010
  66 C :   -0.012283
  67 C :    0.039688
  68 C :   -0.117107
  69 C :    0.148113
  70 O :   -0.119316
  71 C :    0.000189
  72 C :   -0.029730
  73 C :   -0.070008
  74 C :   -0.062530
  75 C :   -0.035998
  76 C :    0.039006
  77 C :    0.271539
  78 C :   -0.309875
  79 C :   -0.193262
  80 N :    0.167456
  81 C :   -0.184757
  82 N :    0.173519
  83 C :   -0.172311
  84 N :    0.204234
  85 C :   -0.171370
  86 N :    0.198762
  87 H :    0.024353
  88 H :   -0.008107
  89 H :    0.055776
  90 H :    0.025962
  91 H :    0.037243
  92 H :    0.043353
  93 H :   -0.015748
  94 H :    0.180526
  95 H :    0.027881
  96 H :    0.051038
  97 H :    0.064103
  98 H :    0.027440
  99 H :    0.018347
 100 H :    0.023378
Sum of atomic charges:   -0.0000000

LOEWDIN ATOMIC CHARGES
----------------------
   0 C :    0.007207
   1 C :    0.036461
   2 C :   -0.015672
   3 C :   -0.032293
   4 N :   -0.001514
   5 C :   -0.024244
   6 C :   -0.032135
   7 N :   -0.005635
   8 C :    0.059069
   9 C :   -0.031581
  10 C :    0.101749
  11 O :   -0.127973
  12 C :   -0.058832
  13 C :    0.067468
  14 C :   -0.096759
  15 C :   -0.020432
  16 N :   -0.018640
  17 C :   -0.020149
  18 N :   -0.016776
  19 C :    0.083853
  20 C :    0.013701
  21 C :   -0.007016
  22 C :    0.097348
  23 O :   -0.138568
  24 N :   -0.005789
  25 C :    0.104476
  26 O :   -0.127875
  27 C :   -0.030431
  28 C :    0.055605
  29 C :   -0.056842
  30 C :   -0.043979
  31 C :   -0.045878
  32 O :   -0.108011
  33 S :    0.315903
  34 C :   -0.042303
  35 O :   -0.098884
  36 C :    0.039670
  37 C :   -0.057714
  38 C :   -0.129763
  39 S :    0.448797
  40 C :   -0.202882
  41 C :   -0.061164
  42 C :   -0.225133
  43 C :    0.057818
  44 O :   -0.160549
  45 O :   -0.027791
  46 S :    0.494333
  47 C :   -0.178886
  48 C :   -0.084330
  49 C :    0.037033
  50 C :   -0.036554
  51 C :    0.099722
  52 O :   -0.113404
  53 N :   -0.008081
  54 C :    0.109570
  55 O :   -0.111182
  56 C :   -0.021473
  57 C :    0.048115
  58 C :   -0.046086
  59 C :   -0.056215
  60 C :   -0.043481
  61 O :   -0.104463
  62 S :    0.310570
  63 C :   -0.045081
  64 O :   -0.098396
  65 C :    0.087310
  66 C :   -0.054785
  67 C :    0.083781
  68 C :   -0.096721
  69 C :    0.082945
  70 O :   -0.122785
  71 C :   -0.031572
  72 C :    0.050228
  73 C :   -0.028541
  74 C :   -0.022087
  75 C :    0.032942
  76 C :    0.004694
  77 C :    0.064003
  78 C :   -0.116506
  79 C :   -0.014827
  80 N :   -0.041668
  81 C :   -0.022036
  82 N :   -0.029756
  83 C :   -0.031599
  84 N :   -0.009284
  85 C :   -0.032274
  86 N :   -0.012311
  87 H :    0.053912
  88 H :    0.041151
  89 H :    0.052125
  90 H :    0.055187
  91 H :    0.033620
  92 H :    0.038158
  93 H :    0.030073
  94 H :    0.093476
  95 H :    0.055968
  96 H :    0.044551
  97 H :    0.038065
  98 H :    0.049223
  99 H :    0.054999
 100 H :    0.052708

  Mayer bond orders larger than 0.100000
B(  0-C ,  1-C ) :   1.3489 B(  0-C ,  9-C ) :   1.3250 B(  0-C , 13-C ) :   0.9733
B(  1-C ,  2-C ) :   1.4020 B(  1-C , 87-H ) :   0.9861 B(  2-C ,  3-C ) :   1.0896
B(  2-C ,  5-C ) :   1.3882 B(  3-C ,  4-N ) :   3.0433 B(  5-C ,  6-C ) :   1.0855
B(  5-C ,  8-C ) :   1.3838 B(  6-C ,  7-N ) :   3.0417 B(  8-C ,  9-C ) :   1.3576
B(  8-C , 88-H ) :   1.0106 B(  9-C , 10-C ) :   0.9495 B( 10-C , 11-O ) :   2.1715
B( 10-C , 12-C ) :   0.9219 B( 12-C , 13-C ) :   1.0347 B( 12-C , 19-C ) :   1.7454
B( 13-C , 14-C ) :   1.7092 B( 14-C , 15-C ) :   1.1394 B( 14-C , 17-C ) :   1.1348
B( 15-C , 16-N ) :   2.9675 B( 17-C , 18-N ) :   2.9829 B( 19-C , 20-C ) :   1.0311
B( 19-C , 89-H ) :   0.9153 B( 20-C , 21-C ) :   1.3890 B( 20-C , 30-C ) :   1.4054
B( 21-C , 22-C ) :   0.8670 B( 21-C , 27-C ) :   1.4073 B( 22-C , 23-O ) :   2.2060
B( 22-C , 24-N ) :   1.0418 B( 24-N , 25-C ) :   1.0274 B( 24-N , 36-C ) :   1.0102
B( 25-C , 26-O ) :   2.2207 B( 25-C , 27-C ) :   0.8716 B( 27-C , 28-C ) :   1.3230
B( 28-C , 29-C ) :   1.3424 B( 28-C , 90-H ) :   1.0254 B( 29-C , 30-C ) :   1.3328
B( 29-C , 34-C ) :   0.8358 B( 30-C , 31-C ) :   0.8508 B( 31-C , 32-O ) :   2.1552
B( 31-C , 33-S ) :   1.0430 B( 32-O , 33-S ) :   0.1099 B( 33-S , 34-C ) :   1.0156
B( 33-S , 35-O ) :   0.1069 B( 34-C , 35-O ) :   2.2363 B( 36-C , 37-C ) :   1.7393
B( 36-C , 91-H ) :   0.9754 B( 37-C , 38-C ) :   1.1347 B( 37-C , 92-H ) :   0.9367
B( 38-C , 39-S ) :   1.1183 B( 38-C , 48-C ) :   1.5420 B( 39-S , 40-C ) :   1.0603
B( 40-C , 41-C ) :   1.2960 B( 40-C , 47-C ) :   1.4589 B( 41-C , 42-C ) :   1.5138
B( 41-C , 93-H ) :   0.9806 B( 42-C , 43-C ) :   0.9401 B( 42-C , 46-S ) :   1.1305
B( 43-C , 44-O ) :   2.1944 B( 43-C , 45-O ) :   1.2464 B( 45-O , 94-H ) :   0.9570
B( 46-S , 47-C ) :   1.1004 B( 47-C , 48-C ) :   1.2716 B( 48-C , 49-C ) :   0.9769
B( 49-C , 50-C ) :   1.4178 B( 49-C , 59-C ) :   1.3891 B( 50-C , 51-C ) :   0.8882
B( 50-C , 56-C ) :   1.3740 B( 51-C , 52-O ) :   2.2037 B( 51-C , 53-N ) :   1.0080
B( 53-N , 54-C ) :   1.0089 B( 53-N , 65-C ) :   1.0525 B( 54-C , 55-O ) :   2.2110
B( 54-C , 56-C ) :   0.8796 B( 56-C , 57-C ) :   1.3353 B( 57-C , 58-C ) :   1.3347
B( 57-C , 95-H ) :   1.0270 B( 58-C , 59-C ) :   1.3375 B( 58-C , 63-C ) :   0.8501
B( 59-C , 60-C ) :   0.8618 B( 60-C , 61-O ) :   2.1802 B( 60-C , 62-S ) :   1.0259
B( 61-O , 62-S ) :   0.1031 B( 62-S , 63-C ) :   1.0222 B( 62-S , 64-O ) :   0.1067
B( 63-C , 64-O ) :   2.2357 B( 65-C , 66-C ) :   1.6836 B( 65-C , 96-H ) :   0.9754
B( 66-C , 67-C ) :   1.1111 B( 66-C , 97-H ) :   0.9322 B( 67-C , 68-C ) :   1.6500
B( 67-C , 98-H ) :   0.9587 B( 68-C , 69-C ) :   0.9418 B( 68-C , 77-C ) :   1.0367
B( 69-C , 70-O ) :   2.2950 B( 69-C , 71-C ) :   0.8997 B( 71-C , 72-C ) :   1.3687
B( 71-C , 76-C ) :   1.3344 B( 72-C , 73-C ) :   1.3676 B( 72-C , 99-H ) :   1.0140
B( 73-C , 74-C ) :   1.4035 B( 73-C , 85-C ) :   1.0860 B( 74-C , 75-C ) :   1.3889
B( 74-C , 83-C ) :   1.0856 B( 75-C , 76-C ) :   1.3612 B( 75-C ,100-H ) :   0.9893
B( 76-C , 77-C ) :   0.9767 B( 77-C , 78-C ) :   1.6707 B( 78-C , 79-C ) :   1.1588
B( 78-C , 81-C ) :   1.1316 B( 79-C , 80-N ) :   2.9932 B( 81-C , 82-N ) :   2.9834
B( 83-C , 84-N ) :   3.0446 B( 85-C , 86-N ) :   3.0449

-----------------------------------------------------------------------------
         ABSORPTION SPECTRUM VIA TRANSITION ELECTRIC DIPOLE MOMENTS
-----------------------------------------------------------------------------
State   Energy  Wavelength   fosc         T2         TX        TY        TZ
        (cm-1)    (nm)                  (au**2)     (au)      (au)      (au)
-----------------------------------------------------------------------------
   0   17959.5    556.8   0.015199478   0.27862   0.47912   0.22020  -0.02398
   1   20759.0    481.7   0.112853636   1.78972   1.31536   0.15884   0.18521
   2   22509.5    444.3   0.023566998   0.34468   0.52700   0.06251   0.25109
   3   23800.9    420.2   0.189233912   2.61747   1.45285  -0.64135   0.30883
   4   24281.9    411.8   0.090238014   1.22344  -0.64480   0.89472  -0.08452
   5   24460.6    408.8   0.025746001   0.34651  -0.43278   0.37435   0.13812
   6   25469.0    392.6   0.179622027   2.32179  -1.23282   0.85662  -0.26102
   7   25884.6    386.3   0.036067749   0.45873  -0.32662   0.09857   0.58509
   8   26010.4    384.5   0.037262308   0.47163   0.29558  -0.59255   0.18206
   9   28495.3    350.9   0.038268524   0.44212  -0.39413   0.26099   0.46762
  10   28685.0    348.6   0.147433309   1.69206  -1.13584   0.62835   0.08428
  11   28832.5    346.8   0.025816776   0.29478   0.17675  -0.24693  -0.45007
  12   28939.1    345.6   0.181288627   2.06235   1.40491  -0.26558   0.13434
  13   29009.3    344.7   0.009531936   0.10817  -0.08039  -0.15286   0.27990
  14   29203.7    342.4   0.002826430   0.03186  -0.05778  -0.16639  -0.02894
  15   29463.4    339.4   0.163020305   1.82152  -1.09363   0.51151   0.60320
  16   29956.2    333.8   0.082765877   0.90958   0.70321  -0.58850  -0.26219
  17   30434.1    328.6   0.043360204   0.46904  -0.57651  -0.24157  -0.27986
  18   30521.6    327.6   0.005844136   0.06304   0.16461  -0.05584  -0.18116
  19   30573.6    327.1   0.007087461   0.07632  -0.16118  -0.17805   0.13651
  20   31658.3    315.9   0.051940060   0.54012  -0.68784  -0.10085   0.23839
  21   31780.7    314.7   0.182033212   1.88566  -1.26636   0.00919   0.53096
  22   31956.3    312.9   0.159008976   1.63810  -1.24662  -0.12072   0.26357
  23   32253.5    310.0   0.393930840   4.02086   1.33252   0.85591   1.22990
  24   32273.9    309.8   0.115443502   1.17759   0.48781   0.66081   0.70919
  25   32678.5    306.0   0.001872190   0.01886  -0.01335   0.04187   0.13012
  26   32879.9    304.1   0.246906358   2.47217   1.53100   0.34907  -0.07976
  27   32989.5    303.1   0.337028452   3.36331  -1.69480   0.38916  -0.58268
  28   33185.2    301.3   0.051161070   0.50754  -0.13307   0.28635   0.63862
  29   33280.5    300.5   0.054353887   0.53767   0.04950  -0.38608  -0.62142
  30   33661.5    297.1   0.083815774   0.81972   0.71116  -0.32214   0.45847
  31   33946.7    294.6   0.079745960   0.77337   0.69691  -0.45176   0.28914
  32   34077.3    293.5   0.151337971   1.46204   0.40112   0.30187   1.10001
  33   34190.8    292.5   0.054854586   0.52818   0.03400  -0.01551  -0.72580
  34   34283.5    291.7   0.010108074   0.09706  -0.18004  -0.24313  -0.07443
  35   34372.4    290.9   0.050635131   0.48497  -0.11255  -0.60111  -0.33312
  36   34696.9    288.2   0.040719813   0.38636   0.38693  -0.16176  -0.45878
  37   34857.4    286.9   0.017134402   0.16183  -0.17874   0.14185  -0.33129
  38   34901.2    286.5   0.051996924   0.49047   0.62726  -0.09080  -0.29793
  39   35075.7    285.1   0.327367222   3.07259   1.27640  -0.16685   1.18977
  40   35331.9    283.0   0.728178793   6.78495   2.34663   0.20281  -1.11226
  41   35475.9    281.9   0.362525616   3.36419  -0.96230   0.33605  -1.52487
  42   35590.1    281.0   0.044179538   0.40866   0.42160   0.38394  -0.28897
  43   35796.3    279.4   0.014536560   0.13369  -0.20353  -0.00108  -0.30375
  44   35986.8    277.9   0.050748970   0.46426   0.52502   0.09022   0.42483
  45   36098.3    277.0   0.079805486   0.72782   0.78746  -0.24974   0.21297
  46   36244.1    275.9   0.071154899   0.64631  -0.48888  -0.35508  -0.53030
  47   36362.0    275.0   0.032300368   0.29244   0.24378   0.17098   0.45141
  48   36485.0    274.1   0.047798050   0.43129   0.64296  -0.13049   0.02950
  49   36554.6    273.6   0.111744752   1.00638   0.75781   0.57810  -0.31289
  50   36748.3    272.1   0.074278466   0.66543   0.53509   0.61260  -0.06191
  51   37081.0    269.7   0.060433873   0.53654   0.19117  -0.27967  -0.64945
  52   37142.9    269.2   0.020281229   0.17976  -0.33727  -0.01619  -0.25641
  53   37279.3    268.2   0.040020071   0.35342   0.09925  -0.16705  -0.56184
  54   37352.4    267.7   0.012170360   0.10727   0.24929   0.18182   0.10982
  55   37566.1    266.2   0.418250768   3.66536   0.56274  -0.11821  -1.82612
  56   37892.3    263.9   0.019256677   0.16730  -0.18089   0.30568   0.20283
  57   37927.3    263.7   0.049000328   0.42533   0.09516  -0.57332   0.29593
  58   38085.7    262.6   0.023741172   0.20522  -0.41400   0.17999   0.03776
  59   38184.6    261.9   0.106456626   0.91783   0.08436   0.93928   0.16869
  60   38408.1    260.4   0.004816192   0.04128  -0.17583   0.01448  -0.10077
  61   38509.4    259.7   0.004470082   0.03821  -0.16316   0.10352  -0.02960
  62   38628.1    258.9   0.002127320   0.01813   0.03975  -0.04128  -0.12185
  63   38641.6    258.8   0.012783086   0.10891  -0.03848  -0.16401   0.28377
  64   38947.4    256.8   0.034928094   0.29524  -0.44402   0.29121  -0.11526
  65   39186.6    255.2   0.021502888   0.18065  -0.13877   0.07013  -0.39557
  66   39299.1    254.5   0.033711789   0.28241   0.14978   0.43221  -0.27049
  67   39455.7    253.4   0.022981979   0.19176  -0.03916   0.40074   0.17213
  68   39596.4    252.5   0.076761822   0.63821  -0.05724   0.04345  -0.79564
  69   39841.6    251.0   0.012177489   0.10062  -0.01441   0.03082   0.31538
  70   40180.2    248.9   0.003167710   0.02595   0.06083  -0.03880   0.14405
  71   40193.8    248.8   0.003393491   0.02779   0.10760  -0.08823  -0.09183
  72   40243.5    248.5   0.004255261   0.03481  -0.12830  -0.05595  -0.12336

FINAL SINGLE POINT ENERGY     -5370.708356160190

DIPOLE MOMENT
-------------
                                X             Y             Z
Electronic contribution:    -20.46053      -7.39728      -1.44466
Nuclear contribution   :     17.50197       9.86319      -1.66254
                        -----------------------------------------
Total Dipole Moment    :     -2.95856       2.46591      -3.10720
                        -----------------------------------------
Magnitude (a.u.)       :      4.94859
Magnitude (Debye)      :     12.57831

Rotational constants in cm-1:     0.001126     0.000257     0.000237
Rotational constants in MHz :    33.769018     7.709128     7.100511

                             ****ORCA TERMINATED NORMALLY****
TOTAL RUN TIME: 0 days 0 hours 15 minutes 56 seconds 705 msec
