                         Program Version 4.2.0 -  RELEASE  -
|  1> # ORCA input file
|  2> # SCF done       -165.768411554710          0.000445633110
|  3> ! CAM-B3LYP def2-SVP def2/J RIJCOSX Grid4 TightSCF
|  4> %maxcore 5000
|  5> %tddft
|  6>     Mode sTDDFT
|  7>     Ethresh 5.0
|  8>     maxcore 5000
|  9> end
| 10>
| 11> %pal
| 12>   nprocs 6
| 13>   end
| 14> * xyz 0 1
| 15>    C       -2.79942        -0.50405         2.87695
| 16>    C       -2.27275         0.46959         3.70861
| 17>    C       -3.12809         1.10998         4.60837
| 18>    C       -2.61033         2.10704         5.47157
| 19>    N       -2.18698         2.91221         6.16674
| 20>    C       -4.49617         0.78475         4.67341
| 21>    C       -5.33906         1.44450         5.59930
| 22>    N       -6.04109         1.96256         6.34131
| 23>    C       -5.02437        -0.18937         3.82401
| 24>    C       -4.16898        -0.81956         2.94689
| 25>    C       -4.48980        -1.87053         1.95203
| 26>    O       -5.60157        -2.25039         1.65530
| 27>    C       -3.19985        -2.20863         1.31338
| 28>    C       -2.17478        -1.35190         1.85925
| 29>    C       -0.83820        -1.36657         1.54974
| 30>    C        0.12078        -0.51430         2.13571
| 31>    N        0.94223         0.15743         2.57318
| 32>    C       -0.23795        -2.23873         0.61752
| 33>    N        0.31849        -2.92480        -0.11599
| 34>    C       -3.06596        -3.07020         0.25012
| 35>    C       -3.99120        -4.06524        -0.08764
| 36>    S       -4.09140        -4.68028        -1.72682
| 37>    C       -4.90602        -4.74859         0.71484
| 38>    N       -5.12664        -4.73419         2.05261
| 39>    C       -6.05105        -5.54424         2.38136
| 40>    S       -6.78404        -6.47906         1.08486
| 41>    C       -5.69763        -5.68078        -0.00483
| 42>    C       -5.40441        -5.76439        -1.35740
| 43>    C       -6.02700        -6.54479        -2.35572
| 44>    N       -7.13533        -7.32275        -2.09380
| 45>    C       -7.51958        -7.91636        -3.25275
| 46>    C       -8.47024        -8.75135        -3.81873
| 47>    C       -8.13526        -8.85385        -5.18063
| 48>    N       -7.00282        -8.10246        -5.42899
| 49>    C       -6.61232        -7.51038        -4.27376
| 50>    C       -5.68028        -6.64916        -3.71082
| 51>    C       -8.78070        -9.55561        -6.21989
| 52>    C       -9.95194       -10.23985        -6.08423
| 53>    C      -10.57171       -10.91222        -7.15245
| 54>    S      -12.11080       -11.69258        -6.93865
| 55>    C      -10.14881       -11.06724        -8.47547
| 56>    N       -9.03392       -10.65067        -9.13327
| 57>    C       -9.06128       -11.01673       -10.35581
| 58>    S      -10.47042       -11.92961       -10.88406
| 59>    C      -11.07001       -11.78851        -9.27466
| 60>    C      -12.20905       -12.23207        -8.61156
| 61>    C      -13.31656       -12.86376        -9.18619
| 62>    C      -14.41775       -13.40975        -8.57873
| 63>    C      -15.69151       -13.51361        -9.32507
| 64>    O      -15.86228       -13.38602       -10.51532
| 65>    C      -16.72588       -13.74085        -8.28330
| 66>    C      -18.09569       -13.78964        -8.42434
| 67>    C      -18.87001       -13.97046        -7.27576
| 68>    C      -18.25264       -14.09527        -6.01680
| 69>    C      -16.86210       -14.06177        -5.88708
| 70>    C      -16.10156       -13.88642        -7.02852
| 71>    C      -14.65172       -13.83798        -7.22378
| 72>    C      -13.72222       -14.38542        -6.37526
| 73>    C      -12.38848       -14.62335        -6.76612
| 74>    N      -11.31483       -14.87648        -7.08411
| 75>    C      -14.01926       -14.85911        -5.08298
| 76>    N      -14.21521       -15.23361        -4.01582
| 77>    C      -19.05485       -14.25036        -4.85946
| 78>    N      -19.69385       -14.36728        -3.91662
| 79>    C      -20.28103       -14.02074        -7.37615
| 80>    N      -21.42141       -14.05785        -7.47374
| 81>    H       -1.23180         0.75003         3.68446
| 82>    H       -6.07218        -0.44654         3.85622
| 83>    H       -2.20838        -2.97539        -0.40346
| 84>    H       -6.39193        -5.68597         3.38786
| 85>    H       -7.57806        -7.40698        -1.19415
| 86>    H       -9.29438        -9.23521        -3.33673
| 87>    H       -6.56942        -8.01120        -6.33203
| 88>    H       -4.85517        -6.14855        -4.17566
| 89>    H       -8.31659        -9.53373        -7.19705
| 90>    H      -10.45836       -10.27613        -5.13114
| 91>    H       -8.28054       -10.79581       -11.05673
| 92>    H      -13.35877       -12.82181       -10.27119
| 93>    H      -18.55795       -13.68823        -9.39446
| 94>    H      -16.41746       -14.15887        -4.90898
| 95> *
| 96>
| 97>                          ****END OF INPUT****

CARTESIAN COORDINATES (ANGSTROEM)
---------------------------------
  C     -2.799420   -0.504050    2.876950
  C     -2.272750    0.469590    3.708610
  C     -3.128090    1.109980    4.608370
  C     -2.610330    2.107040    5.471570
  N     -2.186980    2.912210    6.166740
  C     -4.496170    0.784750    4.673410
  C     -5.339060    1.444500    5.599300
  N     -6.041090    1.962560    6.341310
  C     -5.024370   -0.189370    3.824010
  C     -4.168980   -0.819560    2.946890
  C     -4.489800   -1.870530    1.952030
  O     -5.601570   -2.250390    1.655300
  C     -3.199850   -2.208630    1.313380
  C     -2.174780   -1.351900    1.859250
  C     -0.838200   -1.366570    1.549740
  C      0.120780   -0.514300    2.135710
  N      0.942230    0.157430    2.573180
  C     -0.237950   -2.238730    0.617520
  N      0.318490   -2.924800   -0.115990
  C     -3.065960   -3.070200    0.250120
  C     -3.991200   -4.065240   -0.087640
  S     -4.091400   -4.680280   -1.726820
  C     -4.906020   -4.748590    0.714840
  N     -5.126640   -4.734190    2.052610
  C     -6.051050   -5.544240    2.381360
  S     -6.784040   -6.479060    1.084860
  C     -5.697630   -5.680780   -0.004830
  C     -5.404410   -5.764390   -1.357400
  C     -6.027000   -6.544790   -2.355720
  N     -7.135330   -7.322750   -2.093800
  C     -7.519580   -7.916360   -3.252750
  C     -8.470240   -8.751350   -3.818730
  C     -8.135260   -8.853850   -5.180630
  N     -7.002820   -8.102460   -5.428990
  C     -6.612320   -7.510380   -4.273760
  C     -5.680280   -6.649160   -3.710820
  C     -8.780700   -9.555610   -6.219890
  C     -9.951940  -10.239850   -6.084230
  C    -10.571710  -10.912220   -7.152450
  S    -12.110800  -11.692580   -6.938650
  C    -10.148810  -11.067240   -8.475470
  N     -9.033920  -10.650670   -9.133270
  C     -9.061280  -11.016730  -10.355810
  S    -10.470420  -11.929610  -10.884060
  C    -11.070010  -11.788510   -9.274660
  C    -12.209050  -12.232070   -8.611560
  C    -13.316560  -12.863760   -9.186190
  C    -14.417750  -13.409750   -8.578730
  C    -15.691510  -13.513610   -9.325070
  O    -15.862280  -13.386020  -10.515320
  C    -16.725880  -13.740850   -8.283300
  C    -18.095690  -13.789640   -8.424340
  C    -18.870010  -13.970460   -7.275760
  C    -18.252640  -14.095270   -6.016800
  C    -16.862100  -14.061770   -5.887080
  C    -16.101560  -13.886420   -7.028520
  C    -14.651720  -13.837980   -7.223780
  C    -13.722220  -14.385420   -6.375260
  C    -12.388480  -14.623350   -6.766120
  N    -11.314830  -14.876480   -7.084110
  C    -14.019260  -14.859110   -5.082980
  N    -14.215210  -15.233610   -4.015820
  C    -19.054850  -14.250360   -4.859460
  N    -19.693850  -14.367280   -3.916620
  C    -20.281030  -14.020740   -7.376150
  N    -21.421410  -14.057850   -7.473740
  H     -1.231800    0.750030    3.684460
  H     -6.072180   -0.446540    3.856220
  H     -2.208380   -2.975390   -0.403460
  H     -6.391930   -5.685970    3.387860
  H     -7.578060   -7.406980   -1.194150
  H     -9.294380   -9.235210   -3.336730
  H     -6.569420   -8.011200   -6.332030
  H     -4.855170   -6.148550   -4.175660
  H     -8.316590   -9.533730   -7.197050
  H    -10.458360  -10.276130   -5.131140
  H     -8.280540  -10.795810  -11.056730
  H    -13.358770  -12.821810  -10.271190
  H    -18.557950  -13.688230   -9.394460
  H    -16.417460  -14.158870   -4.908980

 Total Charge           Charge          ....    0
 Multiplicity           Mult            ....    1
 Number of Electrons    NEL             ....  466
 Basis Dimension        Dim             .... 1010

ORBITAL ENERGIES
----------------

  NO   OCC          E(Eh)            E(eV)
   0   2.0000     -88.997188     -2421.7366
   1   2.0000     -88.997165     -2421.7360
   2   2.0000     -88.994316     -2421.6584
   3   2.0000     -88.993355     -2421.6323
   4   2.0000     -19.230023      -523.2755
   5   2.0000     -19.227975      -523.2198
   6   2.0000     -14.495059      -394.4306
   7   2.0000     -14.491594      -394.3363
   8   2.0000     -14.448817      -393.1723
   9   2.0000     -14.445732      -393.0883
  10   2.0000     -14.428365      -392.6158
  11   2.0000     -14.428008      -392.6061
  12   2.0000     -14.426111      -392.5544
  13   2.0000     -14.425969      -392.5506
  14   2.0000     -14.425865      -392.5478
  15   2.0000     -14.425855      -392.5475
  16   2.0000     -14.425677      -392.5426
  17   2.0000     -14.423691      -392.4886
  18   2.0000     -10.382377      -282.5188
  19   2.0000     -10.379421      -282.4384
  20   2.0000     -10.373869      -282.2873
  21   2.0000     -10.367130      -282.1039
  22   2.0000     -10.361364      -281.9470
  23   2.0000     -10.357846      -281.8513
  24   2.0000     -10.357313      -281.8368
  25   2.0000     -10.356599      -281.8174
  26   2.0000     -10.356172      -281.8058
  27   2.0000     -10.356106      -281.8040
  28   2.0000     -10.355247      -281.7806
  29   2.0000     -10.354836      -281.7694
  30   2.0000     -10.354626      -281.7637
  31   2.0000     -10.352438      -281.7041
  32   2.0000     -10.351210      -281.6707
  33   2.0000     -10.347889      -281.5804
  34   2.0000     -10.343889      -281.4715
  35   2.0000     -10.340547      -281.3806
  36   2.0000     -10.338902      -281.3358
  37   2.0000     -10.338270      -281.3186
  38   2.0000     -10.337452      -281.2964
  39   2.0000     -10.336615      -281.2736
  40   2.0000     -10.336487      -281.2701
  41   2.0000     -10.336437      -281.2687
  42   2.0000     -10.335641      -281.2471
  43   2.0000     -10.334168      -281.2070
  44   2.0000     -10.331983      -281.1475
  45   2.0000     -10.331550      -281.1358
  46   2.0000     -10.331019      -281.1213
  47   2.0000     -10.330812      -281.1157
  48   2.0000     -10.330383      -281.1040
  49   2.0000     -10.330237      -281.1000
  50   2.0000     -10.328970      -281.0656
  51   2.0000     -10.328788      -281.0606
  52   2.0000     -10.328029      -281.0399
  53   2.0000     -10.327406      -281.0230
  54   2.0000     -10.322937      -280.9014
  55   2.0000     -10.322690      -280.8947
  56   2.0000     -10.322530      -280.8903
  57   2.0000     -10.321729      -280.8685
  58   2.0000     -10.320287      -280.8293
  59   2.0000     -10.319068      -280.7961
  60   2.0000     -10.318701      -280.7861
  61   2.0000     -10.312547      -280.6187
  62   2.0000     -10.308812      -280.5170
  63   2.0000     -10.306443      -280.4526
  64   2.0000     -10.304777      -280.4072
  65   2.0000     -10.299858      -280.2734
  66   2.0000      -8.093225      -220.2278
  67   2.0000      -8.092172      -220.1992
  68   2.0000      -8.090605      -220.1566
  69   2.0000      -8.087996      -220.0856
  70   2.0000      -6.062723      -164.9751
  71   2.0000      -6.061701      -164.9473
  72   2.0000      -6.059966      -164.9001
  73   2.0000      -6.058704      -164.8657
  74   2.0000      -6.057478      -164.8324
  75   2.0000      -6.057435      -164.8312
  76   2.0000      -6.055872      -164.7886
  77   2.0000      -6.054668      -164.7559
  78   2.0000      -6.053905      -164.7351
  79   2.0000      -6.053289      -164.7184
  80   2.0000      -6.052239      -164.6898
  81   2.0000      -6.049833      -164.6243
  82   2.0000      -1.145491       -31.1704
  83   2.0000      -1.143716       -31.1221
  84   2.0000      -1.127022       -30.6678
  85   2.0000      -1.103711       -30.0335
  86   2.0000      -1.101533       -29.9742
  87   2.0000      -1.090136       -29.6641
  88   2.0000      -1.040090       -28.3023
  89   2.0000      -1.037796       -28.2399
  90   2.0000      -1.025426       -27.9033
  91   2.0000      -1.024248       -27.8712
  92   2.0000      -1.013060       -27.5668
  93   2.0000      -1.012089       -27.5403
  94   2.0000      -1.007786       -27.4232
  95   2.0000      -1.007113       -27.4049
  96   2.0000      -1.005442       -27.3595
  97   2.0000      -1.004956       -27.3462
  98   2.0000      -1.003948       -27.3188
  99   2.0000      -1.003919       -27.3180
 100   2.0000      -0.975992       -26.5581
 101   2.0000      -0.975007       -26.5313
 102   2.0000      -0.951268       -25.8853
 103   2.0000      -0.943256       -25.6673
 104   2.0000      -0.923833       -25.1388
 105   2.0000      -0.922211       -25.0946
 106   2.0000      -0.920808       -25.0565
 107   2.0000      -0.913832       -24.8666
 108   2.0000      -0.910192       -24.7676
 109   2.0000      -0.901971       -24.5439
 110   2.0000      -0.900856       -24.5135
 111   2.0000      -0.899641       -24.4805
 112   2.0000      -0.896802       -24.4032
 113   2.0000      -0.871816       -23.7233
 114   2.0000      -0.857455       -23.3325
 115   2.0000      -0.856745       -23.3132
 116   2.0000      -0.853815       -23.2335
 117   2.0000      -0.835722       -22.7411
 118   2.0000      -0.817699       -22.2507
 119   2.0000      -0.805365       -21.9151
 120   2.0000      -0.803880       -21.8747
 121   2.0000      -0.786773       -21.4092
 122   2.0000      -0.767657       -20.8890
 123   2.0000      -0.750840       -20.4314
 124   2.0000      -0.747839       -20.3497
 125   2.0000      -0.740113       -20.1395
 126   2.0000      -0.732653       -19.9365
 127   2.0000      -0.730676       -19.8827
 128   2.0000      -0.725930       -19.7536
 129   2.0000      -0.723625       -19.6908
 130   2.0000      -0.716410       -19.4945
 131   2.0000      -0.708741       -19.2858
 132   2.0000      -0.707144       -19.2424
 133   2.0000      -0.700357       -19.0577
 134   2.0000      -0.690123       -18.7792
 135   2.0000      -0.684926       -18.6378
 136   2.0000      -0.679209       -18.4822
 137   2.0000      -0.667559       -18.1652
 138   2.0000      -0.661547       -18.0016
 139   2.0000      -0.653081       -17.7712
 140   2.0000      -0.652263       -17.7490
 141   2.0000      -0.646380       -17.5889
 142   2.0000      -0.641466       -17.4552
 143   2.0000      -0.623768       -16.9736
 144   2.0000      -0.615080       -16.7372
 145   2.0000      -0.612450       -16.6656
 146   2.0000      -0.608903       -16.5691
 147   2.0000      -0.600113       -16.3299
 148   2.0000      -0.597023       -16.2458
 149   2.0000      -0.592019       -16.1097
 150   2.0000      -0.588510       -16.0142
 151   2.0000      -0.578136       -15.7319
 152   2.0000      -0.574736       -15.6394
 153   2.0000      -0.574624       -15.6363
 154   2.0000      -0.570386       -15.5210
 155   2.0000      -0.565864       -15.3979
 156   2.0000      -0.563886       -15.3441
 157   2.0000      -0.563273       -15.3274
 158   2.0000      -0.560254       -15.2453
 159   2.0000      -0.559535       -15.2257
 160   2.0000      -0.557296       -15.1648
 161   2.0000      -0.555549       -15.1172
 162   2.0000      -0.551978       -15.0201
 163   2.0000      -0.551513       -15.0074
 164   2.0000      -0.549502       -14.9527
 165   2.0000      -0.545335       -14.8393
 166   2.0000      -0.538247       -14.6464
 167   2.0000      -0.534517       -14.5450
 168   2.0000      -0.529156       -14.3991
 169   2.0000      -0.528092       -14.3701
 170   2.0000      -0.522537       -14.2190
 171   2.0000      -0.520989       -14.1768
 172   2.0000      -0.518931       -14.1208
 173   2.0000      -0.516254       -14.0480
 174   2.0000      -0.510881       -13.9018
 175   2.0000      -0.509951       -13.8765
 176   2.0000      -0.508415       -13.8347
 177   2.0000      -0.502141       -13.6640
 178   2.0000      -0.492474       -13.4009
 179   2.0000      -0.491623       -13.3777
 180   2.0000      -0.486853       -13.2479
 181   2.0000      -0.483149       -13.1472
 182   2.0000      -0.480277       -13.0690
 183   2.0000      -0.479315       -13.0428
 184   2.0000      -0.475415       -12.9367
 185   2.0000      -0.466894       -12.7048
 186   2.0000      -0.462852       -12.5948
 187   2.0000      -0.460210       -12.5229
 188   2.0000      -0.459576       -12.5057
 189   2.0000      -0.458313       -12.4713
 190   2.0000      -0.457704       -12.4548
 191   2.0000      -0.455110       -12.3842
 192   2.0000      -0.454243       -12.3606
 193   2.0000      -0.452971       -12.3260
 194   2.0000      -0.452401       -12.3104
 195   2.0000      -0.451789       -12.2938
 196   2.0000      -0.451599       -12.2886
 197   2.0000      -0.450445       -12.2572
 198   2.0000      -0.448929       -12.2160
 199   2.0000      -0.448568       -12.2062
 200   2.0000      -0.447210       -12.1692
 201   2.0000      -0.446057       -12.1378
 202   2.0000      -0.441085       -12.0025
 203   2.0000      -0.439233       -11.9521
 204   2.0000      -0.437832       -11.9140
 205   2.0000      -0.436381       -11.8745
 206   2.0000      -0.433012       -11.7829
 207   2.0000      -0.431561       -11.7434
 208   2.0000      -0.430013       -11.7013
 209   2.0000      -0.426152       -11.5962
 210   2.0000      -0.424593       -11.5538
 211   2.0000      -0.421979       -11.4826
 212   2.0000      -0.420869       -11.4524
 213   2.0000      -0.409379       -11.1398
 214   2.0000      -0.407431       -11.0868
 215   2.0000      -0.402662       -10.9570
 216   2.0000      -0.384247       -10.4559
 217   2.0000      -0.382363       -10.4046
 218   2.0000      -0.379538       -10.3277
 219   2.0000      -0.373087       -10.1522
 220   2.0000      -0.366949        -9.9852
 221   2.0000      -0.364800        -9.9267
 222   2.0000      -0.359620        -9.7858
 223   2.0000      -0.354501        -9.6465
 224   2.0000      -0.353752        -9.6261
 225   2.0000      -0.341482        -9.2922
 226   2.0000      -0.340914        -9.2767
 227   2.0000      -0.336990        -9.1700
 228   2.0000      -0.331634        -9.0242
 229   2.0000      -0.325509        -8.8576
 230   2.0000      -0.314078        -8.5465
 231   2.0000      -0.286026        -7.7832
 232   2.0000      -0.246501        -6.7076
 233   0.0000      -0.126325        -3.4375
 234   0.0000      -0.108674        -2.9572
 235   0.0000      -0.094069        -2.5598
 236   0.0000      -0.090528        -2.4634
 237   0.0000      -0.062610        -1.7037

MULLIKEN ATOMIC CHARGES
-----------------------
   0 C :    0.051078
   1 C :   -0.043486
   2 C :   -0.058980
   3 C :   -0.177219
   4 N :    0.196475
   5 C :   -0.068255
   6 C :   -0.173964
   7 N :    0.193376
   8 C :   -0.037923
   9 C :   -0.003839
  10 C :    0.153579
  11 O :   -0.137307
  12 C :   -0.104087
  13 C :    0.305186
  14 C :   -0.336428
  15 C :   -0.187369
  16 N :    0.162493
  17 C :   -0.199711
  18 N :    0.160741
  19 C :    0.023085
  20 C :   -0.161474
  21 S :    0.183712
  22 C :    0.119465
  23 N :   -0.031064
  24 C :    0.046367
  25 S :    0.074025
  26 C :   -0.030002
  27 C :   -0.166822
  28 C :    0.089457
  29 N :   -0.040226
  30 C :    0.123124
  31 C :   -0.152670
  32 C :    0.101712
  33 N :   -0.024592
  34 C :    0.125108
  35 C :   -0.171467
  36 C :    0.028693
  37 C :    0.004266
  38 C :   -0.102609
  39 S :    0.169987
  40 C :    0.065548
  41 N :   -0.052824
  42 C :    0.018699
  43 S :    0.136230
  44 C :    0.038123
  45 C :   -0.188649
  46 C :    0.037232
  47 C :   -0.156397
  48 C :    0.148066
  49 O :   -0.134933
  50 C :    0.004599
  51 C :   -0.034340
  52 C :   -0.067898
  53 C :   -0.063769
  54 C :   -0.038604
  55 C :    0.035677
  56 C :    0.247799
  57 C :   -0.320680
  58 C :   -0.213957
  59 N :    0.177519
  60 C :   -0.173031
  61 N :    0.163536
  62 C :   -0.172555
  63 N :    0.196238
  64 C :   -0.174574
  65 N :    0.191864
  66 H :    0.019478
  67 H :    0.011183
  68 H :    0.023061
  69 H :    0.058314
  70 H :    0.128328
  71 H :   -0.019404
  72 H :    0.132434
  73 H :   -0.013162
  74 H :   -0.003060
  75 H :   -0.020013
  76 H :    0.052336
  77 H :    0.023039
  78 H :    0.015525
  79 H :    0.020586
Sum of atomic charges:   -0.0000000

LOEWDIN ATOMIC CHARGES
----------------------
   0 C :    0.002560
   1 C :    0.032609
   2 C :   -0.027118
   3 C :   -0.031440
   4 N :   -0.015110
   5 C :   -0.030565
   6 C :   -0.031434
   7 N :   -0.018373
   8 C :    0.043856
   9 C :   -0.023667
  10 C :    0.079328
  11 O :   -0.132070
  12 C :   -0.103011
  13 C :    0.068284
  14 C :   -0.132330
  15 C :   -0.022627
  16 N :   -0.042048
  17 C :   -0.021835
  18 N :   -0.045441
  19 C :    0.050918
  20 C :   -0.190355
  21 S :    0.475446
  22 C :   -0.020915
  23 N :   -0.064295
  24 C :   -0.067017
  25 S :    0.373980
  26 C :   -0.219076
  27 C :   -0.157986
  28 C :   -0.017304
  29 N :    0.072122
  30 C :   -0.005303
  31 C :   -0.073080
  32 C :    0.002325
  33 N :    0.078578
  34 C :   -0.008514
  35 C :   -0.077272
  36 C :    0.013006
  37 C :   -0.054958
  38 C :   -0.122303
  39 S :    0.487188
  40 C :   -0.080071
  41 N :   -0.082945
  42 C :   -0.091985
  43 S :    0.415271
  44 C :   -0.163331
  45 C :   -0.211599
  46 C :    0.052084
  47 C :   -0.120567
  48 C :    0.080377
  49 O :   -0.138425
  50 C :   -0.029163
  51 C :    0.046460
  52 C :   -0.031692
  53 C :   -0.025379
  54 C :    0.028758
  55 C :    0.006282
  56 C :    0.053051
  57 C :   -0.142176
  58 C :   -0.038156
  59 N :   -0.043526
  60 C :   -0.024676
  61 N :   -0.044001
  62 C :   -0.030988
  63 N :   -0.015010
  64 C :   -0.031925
  65 N :   -0.017401
  66 H :    0.051815
  67 H :    0.051760
  68 H :    0.045280
  69 H :    0.028370
  70 H :    0.078147
  71 H :    0.029696
  72 H :    0.096125
  73 H :    0.029035
  74 H :    0.035383
  75 H :    0.030655
  76 H :    0.024498
  77 H :    0.050073
  78 H :    0.053620
  79 H :    0.051521

  Mayer bond orders larger than 0.100000
B(  0-C ,  1-C ) :   1.3626 B(  0-C ,  9-C ) :   1.3349 B(  0-C , 13-C ) :   0.9552
B(  1-C ,  2-C ) :   1.3889 B(  1-C , 66-H ) :   0.9851 B(  2-C ,  3-C ) :   1.0862
B(  2-C ,  5-C ) :   1.4053 B(  3-C ,  4-N ) :   3.0430 B(  5-C ,  6-C ) :   1.0846
B(  5-C ,  8-C ) :   1.3592 B(  6-C ,  7-N ) :   3.0456 B(  8-C ,  9-C ) :   1.3712
B(  8-C , 67-H ) :   1.0142 B(  9-C , 10-C ) :   0.9172 B( 10-C , 11-O ) :   2.2268
B( 10-C , 12-C ) :   0.9686 B( 12-C , 13-C ) :   1.1141 B( 12-C , 19-C ) :   1.5146
B( 13-C , 14-C ) :   1.6334 B( 14-C , 15-C ) :   1.1473 B( 14-C , 17-C ) :   1.1452
B( 15-C , 16-N ) :   2.9592 B( 17-C , 18-N ) :   2.9809 B( 19-C , 20-C ) :   1.2574
B( 19-C , 68-H ) :   0.9280 B( 20-C , 21-S ) :   1.0702 B( 20-C , 22-C ) :   1.3698
B( 20-C , 27-C ) :   0.1064 B( 21-S , 27-C ) :   1.1789 B( 22-C , 23-N ) :   1.3038
B( 22-C , 26-C ) :   1.2791 B( 23-N , 24-C ) :   1.7729 B( 23-N , 25-S ) :   0.1078
B( 24-C , 25-S ) :   1.0899 B( 24-C , 69-H ) :   0.9618 B( 25-S , 26-C ) :   1.0343
B( 26-C , 27-C ) :   1.4640 B( 27-C , 28-C ) :   1.1478 B( 28-C , 29-N ) :   1.2124
B( 28-C , 35-C ) :   1.3708 B( 29-N , 30-C ) :   1.1650 B( 29-N , 70-H ) :   0.9246
B( 30-C , 31-C ) :   1.2880 B( 30-C , 34-C ) :   1.2807 B( 31-C , 32-C ) :   1.3630
B( 31-C , 71-H ) :   1.0319 B( 32-C , 33-N ) :   1.1708 B( 32-C , 36-C ) :   1.1417
B( 33-N , 34-C ) :   1.1814 B( 33-N , 72-H ) :   0.9327 B( 34-C , 35-C ) :   1.2864
B( 35-C , 73-H ) :   1.0258 B( 36-C , 37-C ) :   1.5982 B( 36-C , 74-H ) :   0.9502
B( 37-C , 38-C ) :   1.2020 B( 37-C , 75-H ) :   0.9587 B( 38-C , 39-S ) :   1.1666
B( 38-C , 40-C ) :   1.3310 B( 39-S , 45-C ) :   1.0698 B( 40-C , 41-N ) :   1.2961
B( 40-C , 44-C ) :   1.3016 B( 41-N , 42-C ) :   1.7727 B( 42-C , 43-S ) :   1.0884
B( 42-C , 76-H ) :   0.9638 B( 43-S , 44-C ) :   1.0946 B( 44-C , 45-C ) :   1.4000
B( 45-C , 46-C ) :   1.2605 B( 46-C , 47-C ) :   1.5390 B( 46-C , 77-H ) :   0.9448
B( 47-C , 48-C ) :   0.9686 B( 47-C , 56-C ) :   1.0771 B( 48-C , 49-O ) :   2.2738
B( 48-C , 50-C ) :   0.8961 B( 50-C , 51-C ) :   1.3772 B( 50-C , 55-C ) :   1.3352
B( 51-C , 52-C ) :   1.3584 B( 51-C , 78-H ) :   1.0146 B( 52-C , 53-C ) :   1.4070
B( 52-C , 64-C ) :   1.0882 B( 53-C , 54-C ) :   1.3814 B( 53-C , 62-C ) :   1.0839
B( 54-C , 55-C ) :   1.3691 B( 54-C , 79-H ) :   0.9915 B( 55-C , 56-C ) :   0.9779
B( 56-C , 57-C ) :   1.6372 B( 57-C , 58-C ) :   1.1562 B( 57-C , 60-C ) :   1.1367
B( 58-C , 59-N ) :   3.0264 B( 60-C , 61-N ) :   2.9836 B( 62-C , 63-N ) :   3.0443
B( 64-C , 65-N ) :   3.0439

-----------------------------------------------------------------------------
         ABSORPTION SPECTRUM VIA TRANSITION ELECTRIC DIPOLE MOMENTS
-----------------------------------------------------------------------------
State   Energy  Wavelength   fosc         T2         TX        TY        TZ
        (cm-1)    (nm)                  (au**2)     (au)      (au)      (au)
-----------------------------------------------------------------------------
   0   12144.6    823.4   2.194467782  59.48672  -4.76716  -4.84769  -3.64154
   1   16921.5    591.0   0.148786213   2.89468   0.05965   0.68597   1.55581
   2   20392.4    490.4   0.111256563   1.79611   0.33637   0.48575   1.20292
   3   20958.3    477.1   0.084617748   1.32917   1.13476  -0.10324   0.17559
   4   21898.1    456.7   0.044135902   0.66353   0.03931  -0.07189  -0.81044
   5   24835.6    402.6   0.219542572   2.91018  -0.60965  -0.41760   1.53757
   6   26531.8    376.9   0.123588781   1.53352   0.02692   0.35176   1.18704
   7   27148.5    368.3   0.057869450   0.70175   0.41737   0.72466   0.04921
   8   28070.2    356.2   0.030479332   0.35747   0.39558   0.33882  -0.29358
   9   28305.7    353.3   0.032889949   0.38253   0.52741   0.13164   0.29502
  10   29127.5    343.3   0.047272797   0.53430  -0.70973   0.17410  -0.01659
  11   29527.3    338.7   0.089486627   0.99772   0.80058  -0.28122  -0.52698
  12   29656.5    337.2   0.074641587   0.82858   0.49773   0.37135  -0.66555
  13   30233.7    330.8   0.131816515   1.43534  -1.08979   0.10436  -0.48663
  14   30406.4    328.9   0.024866831   0.26923  -0.34198   0.39014   0.00861
  15   30843.9    324.2   0.030368849   0.32414  -0.50103  -0.09708  -0.25235
  16   30989.2    322.7   0.050032545   0.53152   0.41929  -0.51750  -0.29649
  17   31661.0    315.8   0.011557751   0.12018   0.05635  -0.33603  -0.06393
  18   31767.0    314.8   0.094903662   0.98352  -0.95547  -0.17331  -0.20138
  19   32163.4    310.9   0.065224311   0.66761  -0.48138   0.15015   0.64291
  20   32814.5    304.7   0.048291242   0.48448  -0.33020  -0.39589   0.46768
  21   33811.6    295.8   0.015535963   0.15127   0.10344   0.02919   0.37379
  22   34519.4    289.7   0.284131554   2.70977  -1.55883   0.35643   0.39087
  23   34653.6    288.6   0.052912039   0.50267  -0.68435  -0.18364   0.02479
  24   34817.2    287.2   0.077996924   0.73750   0.29520   0.37699   0.71290
  25   35167.9    284.4   0.194662680   1.82227   0.53944  -0.62873  -1.06582
  26   35721.3    279.9   0.039761513   0.36645   0.27982  -0.45597   0.28327
  27   35935.3    278.3   0.237167220   2.17274   1.45501  -0.13059   0.19654
  28   36084.9    277.1   0.075258047   0.68660  -0.64479   0.01566   0.52019
  29   36526.1    273.8   0.069663433   0.62788   0.62616  -0.18824   0.44762
  30   37580.3    266.1   0.032236148   0.28240   0.33864   0.30311  -0.27540
  31   37623.2    265.8   0.184545449   1.61482  -0.62588   0.54704   0.96116
  32   38043.6    262.9   0.044071104   0.38137  -0.43931   0.37096   0.22531
  33   38392.3    260.5   0.082867111   0.71058  -0.82363  -0.10583  -0.14498
  34   38550.0    259.4   0.166189447   1.41924   0.94937  -0.22095  -0.68492
  35   38588.6    259.1   0.159541860   1.36110  -1.01362   0.10071  -0.56881
  36   38914.2    257.0   0.111001408   0.93906  -0.77678  -0.44326   0.37308
  37   39172.6    255.3   0.239434876   2.01224  -1.31077  -0.09121  -0.53460
  38   39407.6    253.8   0.058248448   0.48661   0.69748   0.00803  -0.00826
  39   39560.9    252.8   0.019386995   0.16133  -0.15024  -0.28909   0.23492
  40   39776.4    251.4   0.017475019   0.14463   0.19564  -0.32612  -0.00179
  41   39951.1    250.3   0.095502559   0.78698   0.40598   0.39093   0.68508
  42   40121.5    249.2   0.060575139   0.49704   0.42915  -0.15118  -0.53853
  43   40267.2    248.3   0.008944764   0.07313   0.26709   0.04071  -0.01169

FINAL SINGLE POINT ENERGY     -4233.770911118640

DIPOLE MOMENT
-------------
                                X             Y             Z
Electronic contribution:     -2.05092       1.04410       5.14018
Nuclear contribution   :      3.29063      -2.00370      -9.05748
                        -----------------------------------------
Total Dipole Moment    :      1.23971      -0.95960      -3.91730
                        -----------------------------------------
Magnitude (a.u.)       :      4.21935
Magnitude (Debye)      :     10.72475

Rotational constants in cm-1:     0.002138     0.000231     0.000215
Rotational constants in MHz :    64.089400     6.929170     6.447872

                             ****ORCA TERMINATED NORMALLY****
TOTAL RUN TIME: 0 days 0 hours 8 minutes 19 seconds 88 msec
