                         Program Version 4.2.0 -  RELEASE  -
|  1> # ORCA input file
|  2> # SCF done       -196.786655139654          0.000425833014
|  3> ! CAM-B3LYP def2-SVP def2/J RIJCOSX Grid4 TightSCF
|  4> %maxcore 5000
|  5> %tddft
|  6>     Mode sTDDFT
|  7>     Ethresh 5.0
|  8>     maxcore 5000
|  9> end
| 10>
| 11> %pal
| 12>   nprocs 6
| 13>   end
| 14> * xyz 0 1
| 15>    C      -10.67192        -5.32834         1.04053
| 16>    C      -11.71135        -4.61378         1.60823
| 17>    C      -13.00548        -5.13405         1.51493
| 18>    C      -14.08508        -4.42144         2.09094
| 19>    N      -14.95356        -3.84100         2.56032
| 20>    C      -13.25488        -6.35531         0.86230
| 21>    C      -14.57493        -6.85610         0.77343
| 22>    N      -15.63454        -7.28258         0.68547
| 23>    C      -12.19872        -7.07823         0.30234
| 24>    C      -10.92961        -6.55317         0.39771
| 25>    C       -9.65443        -7.13398        -0.09015
| 26>    O       -9.51353        -8.24561        -0.56115
| 27>    C       -8.61994        -6.14938         0.26502
| 28>    C       -9.23621        -5.05059         0.95119
| 29>    C       -8.62332        -3.88985         1.36315
| 30>    C       -9.28670        -2.83326         2.01583
| 31>    N       -9.77655        -1.94669         2.55718
| 32>    C       -7.26140        -3.59666         1.15366
| 33>    N       -6.16701        -3.28779         0.98888
| 34>    C       -7.26213        -6.36138         0.09892
| 35>    C       -6.69033        -7.29928        -0.75889
| 36>    S       -5.18133        -8.02485        -0.28200
| 37>    C       -5.28228        -9.25207        -1.50124
| 38>    C       -6.39281        -9.02510        -2.35842
| 39>    C       -7.15033        -7.88019        -1.96184
| 40>    C       -8.20042        -7.38352        -2.76774
| 41>    C       -8.79353        -6.06748        -2.54569
| 42>    C      -10.07701        -5.78021        -2.72013
| 43>    C       -8.57796        -8.14596        -3.85392
| 44>    C       -7.89747        -9.31217        -4.19463
| 45>    C       -6.78573        -9.75243        -3.50783
| 46>    C       -6.04932       -10.94522        -4.03295
| 47>    C       -4.34876       -10.30376        -1.48557
| 48>    C       -3.23911       -10.33210        -0.68871
| 49>    C       -2.33057       -11.40564        -0.61585
| 50>    N       -1.20261       -11.33142         0.17988
| 51>    C       -0.52376       -12.50250         0.08575
| 52>    C        0.59695       -13.18847         0.52755
| 53>    C        0.54592       -14.45400        -0.08449
| 54>    N       -0.57911       -14.52668        -0.88381
| 55>    C       -1.24942       -13.34982        -0.80057
| 56>    C       -2.37061       -12.66598        -1.24114
| 57>    C        1.42062       -15.55248         0.03180
| 58>    C        2.57421       -15.56247         0.76089
| 59>    C        3.40138       -16.68920         0.91425
| 60>    S        2.88071       -18.25274         0.39355
| 61>    C        4.30431       -19.04406         1.01703
| 62>    C        5.10078       -18.12246         1.74606
| 63>    C        4.64880       -16.77629         1.57594
| 64>    C        5.42010       -15.69239         2.06142
| 65>    C        5.14936       -14.30277         1.69551
| 66>    C        5.24351       -13.27694         2.53060
| 67>    C        6.51349       -15.99380         2.84789
| 68>    C        6.82372       -17.30943         3.18529
| 69>    C        6.14729       -18.38930         2.65690
| 70>    C        6.48803       -19.75685         3.16688
| 71>    C        4.51177       -20.35047         0.56600
| 72>    C        5.72178       -20.99105         0.43692
| 73>    C        5.82780       -22.26662        -0.11322
| 74>    C        6.97877       -22.97009        -0.40148
| 75>    C        6.89216       -24.42887        -0.60385
| 76>    O        5.89000       -25.09696        -0.73828
| 77>    C        8.29368       -24.91509        -0.55943
| 78>    C        8.75763       -26.21078        -0.60951
| 79>    C       10.13462       -26.42226        -0.50486
| 80>    C       11.00578       -25.32835        -0.34968
| 81>    C       10.52347       -24.01715        -0.31261
| 82>    C        9.15972       -23.81298        -0.42243
| 83>    C        8.36041       -22.58130        -0.44752
| 84>    C        8.88042       -21.32810        -0.67840
| 85>    C        8.12683       -20.18505        -1.01202
| 86>    N        7.58890       -19.22357        -1.33773
| 87>    C       10.25983       -21.04310        -0.71628
| 88>    N       11.36806       -20.74164        -0.72865
| 89>    C       12.39748       -25.55932        -0.22468
| 90>    N       13.52383       -25.73620        -0.11838
| 91>    C       10.65178       -27.73851        -0.54749
| 92>    N       11.04870       -28.81244        -0.58317
| 93>    H      -11.55736        -3.67758         2.12094
| 94>    H      -12.37196        -8.02112        -0.19374
| 95>    H       -6.57809        -5.83207         0.75157
| 96>    H       -8.10056        -5.29303        -2.23826
| 97>    H      -10.79520        -6.53528        -2.99327
| 98>    H      -10.45956        -4.78355        -2.57784
| 99>    H       -9.38508        -7.80348        -4.48329
|100>    H       -8.22576        -9.86305        -5.06395
|101>    H       -6.47417       -11.24873        -4.98698
|102>    H       -6.13698       -11.78747        -3.34693
|103>    H       -4.99555       -10.71743        -4.18611
|104>    H       -4.53078       -11.14801        -2.12503
|105>    H       -3.02527        -9.47426        -0.06268
|106>    H       -0.94928       -10.53029         0.73231
|107>    H        1.35575       -12.85109         1.20355
|108>    H       -0.83776       -15.33099        -1.42903
|109>    H       -3.13133       -13.01053        -1.91120
|110>    H        1.14307       -16.44998        -0.50830
|111>    H        2.87201       -14.66787         1.28527
|112>    H        4.90931       -14.13580         0.65244
|113>    H        5.46311       -13.41395         3.57635
|114>    H        5.08653       -12.26350         2.20298
|115>    H        7.13194       -15.19153         3.21985
|116>    H        7.63103       -17.49161         3.87968
|117>    H        5.69983       -20.47385         2.95886
|118>    H        7.42075       -20.12032         2.73637
|119>    H        6.63412       -19.70403         4.24511
|120>    H        3.64106       -20.84220         0.14641
|121>    H        6.61534       -20.47039         0.73258
|122>    H        4.91053       -22.82439        -0.27290
|123>    H        8.07578       -27.03966        -0.72465
|124>    H       11.22215       -23.20476        -0.19020
|125> *
|126>
|127>                          ****END OF INPUT****

CARTESIAN COORDINATES (ANGSTROEM)
---------------------------------
  C    -10.671920   -5.328340    1.040530
  C    -11.711350   -4.613780    1.608230
  C    -13.005480   -5.134050    1.514930
  C    -14.085080   -4.421440    2.090940
  N    -14.953560   -3.841000    2.560320
  C    -13.254880   -6.355310    0.862300
  C    -14.574930   -6.856100    0.773430
  N    -15.634540   -7.282580    0.685470
  C    -12.198720   -7.078230    0.302340
  C    -10.929610   -6.553170    0.397710
  C     -9.654430   -7.133980   -0.090150
  O     -9.513530   -8.245610   -0.561150
  C     -8.619940   -6.149380    0.265020
  C     -9.236210   -5.050590    0.951190
  C     -8.623320   -3.889850    1.363150
  C     -9.286700   -2.833260    2.015830
  N     -9.776550   -1.946690    2.557180
  C     -7.261400   -3.596660    1.153660
  N     -6.167010   -3.287790    0.988880
  C     -7.262130   -6.361380    0.098920
  C     -6.690330   -7.299280   -0.758890
  S     -5.181330   -8.024850   -0.282000
  C     -5.282280   -9.252070   -1.501240
  C     -6.392810   -9.025100   -2.358420
  C     -7.150330   -7.880190   -1.961840
  C     -8.200420   -7.383520   -2.767740
  C     -8.793530   -6.067480   -2.545690
  C    -10.077010   -5.780210   -2.720130
  C     -8.577960   -8.145960   -3.853920
  C     -7.897470   -9.312170   -4.194630
  C     -6.785730   -9.752430   -3.507830
  C     -6.049320  -10.945220   -4.032950
  C     -4.348760  -10.303760   -1.485570
  C     -3.239110  -10.332100   -0.688710
  C     -2.330570  -11.405640   -0.615850
  N     -1.202610  -11.331420    0.179880
  C     -0.523760  -12.502500    0.085750
  C      0.596950  -13.188470    0.527550
  C      0.545920  -14.454000   -0.084490
  N     -0.579110  -14.526680   -0.883810
  C     -1.249420  -13.349820   -0.800570
  C     -2.370610  -12.665980   -1.241140
  C      1.420620  -15.552480    0.031800
  C      2.574210  -15.562470    0.760890
  C      3.401380  -16.689200    0.914250
  S      2.880710  -18.252740    0.393550
  C      4.304310  -19.044060    1.017030
  C      5.100780  -18.122460    1.746060
  C      4.648800  -16.776290    1.575940
  C      5.420100  -15.692390    2.061420
  C      5.149360  -14.302770    1.695510
  C      5.243510  -13.276940    2.530600
  C      6.513490  -15.993800    2.847890
  C      6.823720  -17.309430    3.185290
  C      6.147290  -18.389300    2.656900
  C      6.488030  -19.756850    3.166880
  C      4.511770  -20.350470    0.566000
  C      5.721780  -20.991050    0.436920
  C      5.827800  -22.266620   -0.113220
  C      6.978770  -22.970090   -0.401480
  C      6.892160  -24.428870   -0.603850
  O      5.890000  -25.096960   -0.738280
  C      8.293680  -24.915090   -0.559430
  C      8.757630  -26.210780   -0.609510
  C     10.134620  -26.422260   -0.504860
  C     11.005780  -25.328350   -0.349680
  C     10.523470  -24.017150   -0.312610
  C      9.159720  -23.812980   -0.422430
  C      8.360410  -22.581300   -0.447520
  C      8.880420  -21.328100   -0.678400
  C      8.126830  -20.185050   -1.012020
  N      7.588900  -19.223570   -1.337730
  C     10.259830  -21.043100   -0.716280
  N     11.368060  -20.741640   -0.728650
  C     12.397480  -25.559320   -0.224680
  N     13.523830  -25.736200   -0.118380
  C     10.651780  -27.738510   -0.547490
  N     11.048700  -28.812440   -0.583170
  H    -11.557360   -3.677580    2.120940
  H    -12.371960   -8.021120   -0.193740
  H     -6.578090   -5.832070    0.751570
  H     -8.100560   -5.293030   -2.238260
  H    -10.795200   -6.535280   -2.993270
  H    -10.459560   -4.783550   -2.577840
  H     -9.385080   -7.803480   -4.483290
  H     -8.225760   -9.863050   -5.063950
  H     -6.474170  -11.248730   -4.986980
  H     -6.136980  -11.787470   -3.346930
  H     -4.995550  -10.717430   -4.186110
  H     -4.530780  -11.148010   -2.125030
  H     -3.025270   -9.474260   -0.062680
  H     -0.949280  -10.530290    0.732310
  H      1.355750  -12.851090    1.203550
  H     -0.837760  -15.330990   -1.429030
  H     -3.131330  -13.010530   -1.911200
  H      1.143070  -16.449980   -0.508300
  H      2.872010  -14.667870    1.285270
  H      4.909310  -14.135800    0.652440
  H      5.463110  -13.413950    3.576350
  H      5.086530  -12.263500    2.202980
  H      7.131940  -15.191530    3.219850
  H      7.631030  -17.491610    3.879680
  H      5.699830  -20.473850    2.958860
  H      7.420750  -20.120320    2.736370
  H      6.634120  -19.704030    4.245110
  H      3.641060  -20.842200    0.146410
  H      6.615340  -20.470390    0.732580
  H      4.910530  -22.824390   -0.272900
  H      8.075780  -27.039660   -0.724650
  H     11.222150  -23.204760   -0.190200

 Total Charge           Charge          ....    0
 Multiplicity           Mult            ....    1
 Number of Electrons    NEL             ....  534
 Basis Dimension        Dim             .... 1260

ORBITAL ENERGIES
----------------

  NO   OCC          E(Eh)            E(eV)
   0   2.0000     -88.989928     -2421.5390
   1   2.0000     -88.985414     -2421.4162
   2   2.0000     -19.221352      -523.0396
   3   2.0000     -19.214146      -522.8435
   4   2.0000     -14.491154      -394.3243
   5   2.0000     -14.490725      -394.3127
   6   2.0000     -14.421090      -392.4178
   7   2.0000     -14.420200      -392.3936
   8   2.0000     -14.420153      -392.3923
   9   2.0000     -14.419602      -392.3773
  10   2.0000     -14.419037      -392.3619
  11   2.0000     -14.416916      -392.3042
  12   2.0000     -14.416532      -392.2938
  13   2.0000     -14.414798      -392.2466
  14   2.0000     -10.372346      -282.2459
  15   2.0000     -10.367216      -282.1063
  16   2.0000     -10.350428      -281.6495
  17   2.0000     -10.349531      -281.6251
  18   2.0000     -10.349117      -281.6138
  19   2.0000     -10.349098      -281.6133
  20   2.0000     -10.348046      -281.5846
  21   2.0000     -10.346849      -281.5521
  22   2.0000     -10.346158      -281.5333
  23   2.0000     -10.343860      -281.4708
  24   2.0000     -10.342515      -281.4342
  25   2.0000     -10.342144      -281.4240
  26   2.0000     -10.341967      -281.4192
  27   2.0000     -10.341482      -281.4060
  28   2.0000     -10.330554      -281.1087
  29   2.0000     -10.329720      -281.0860
  30   2.0000     -10.329196      -281.0717
  31   2.0000     -10.327829      -281.0345
  32   2.0000     -10.324124      -280.9337
  33   2.0000     -10.324070      -280.9322
  34   2.0000     -10.324003      -280.9304
  35   2.0000     -10.323500      -280.9167
  36   2.0000     -10.323182      -280.9081
  37   2.0000     -10.322983      -280.9027
  38   2.0000     -10.321888      -280.8729
  39   2.0000     -10.321336      -280.8578
  40   2.0000     -10.320542      -280.8362
  41   2.0000     -10.320028      -280.8222
  42   2.0000     -10.319824      -280.8167
  43   2.0000     -10.319766      -280.8151
  44   2.0000     -10.319404      -280.8053
  45   2.0000     -10.318484      -280.7802
  46   2.0000     -10.318117      -280.7702
  47   2.0000     -10.317900      -280.7643
  48   2.0000     -10.316921      -280.7377
  49   2.0000     -10.316777      -280.7338
  50   2.0000     -10.313890      -280.6552
  51   2.0000     -10.313769      -280.6519
  52   2.0000     -10.312272      -280.6112
  53   2.0000     -10.310314      -280.5579
  54   2.0000     -10.310032      -280.5502
  55   2.0000     -10.309907      -280.5468
  56   2.0000     -10.309622      -280.5391
  57   2.0000     -10.307517      -280.4818
  58   2.0000     -10.307220      -280.4737
  59   2.0000     -10.306977      -280.4671
  60   2.0000     -10.304407      -280.3972
  61   2.0000     -10.303820      -280.3812
  62   2.0000     -10.300503      -280.2909
  63   2.0000     -10.297924      -280.2208
  64   2.0000     -10.297349      -280.2051
  65   2.0000     -10.295527      -280.1555
  66   2.0000     -10.295050      -280.1425
  67   2.0000     -10.293665      -280.1049
  68   2.0000     -10.292722      -280.0792
  69   2.0000     -10.292660      -280.0775
  70   2.0000     -10.291408      -280.0435
  71   2.0000     -10.291046      -280.0336
  72   2.0000     -10.290201      -280.0106
  73   2.0000     -10.287917      -279.9485
  74   2.0000     -10.286315      -279.9049
  75   2.0000     -10.286238      -279.9028
  76   2.0000     -10.281224      -279.7663
  77   2.0000     -10.276114      -279.6273
  78   2.0000      -8.085484      -220.0172
  79   2.0000      -8.081160      -219.8995
  80   2.0000      -6.054352      -164.7473
  81   2.0000      -6.050543      -164.6436
  82   2.0000      -6.050165      -164.6333
  83   2.0000      -6.048123      -164.5778
  84   2.0000      -6.046252      -164.5269
  85   2.0000      -6.043565      -164.4538
  86   2.0000      -1.135770       -30.9059
  87   2.0000      -1.129858       -30.7450
  88   2.0000      -1.123925       -30.5835
  89   2.0000      -1.087271       -29.5861
  90   2.0000      -1.032046       -28.0834
  91   2.0000      -1.028431       -27.9850
  92   2.0000      -1.024289       -27.8723
  93   2.0000      -1.021271       -27.7902
  94   2.0000      -1.017968       -27.7003
  95   2.0000      -1.014288       -27.6002
  96   2.0000      -1.001518       -27.2527
  97   2.0000      -0.999961       -27.2103
  98   2.0000      -0.998924       -27.1821
  99   2.0000      -0.998029       -27.1577
 100   2.0000      -0.997013       -27.1301
 101   2.0000      -0.994342       -27.0574
 102   2.0000      -0.969173       -26.3725
 103   2.0000      -0.965921       -26.2840
 104   2.0000      -0.962865       -26.2009
 105   2.0000      -0.960663       -26.1410
 106   2.0000      -0.947878       -25.7931
 107   2.0000      -0.940460       -25.5912
 108   2.0000      -0.925110       -25.1735
 109   2.0000      -0.918791       -25.0016
 110   2.0000      -0.914776       -24.8923
 111   2.0000      -0.914286       -24.8790
 112   2.0000      -0.910130       -24.7659
 113   2.0000      -0.898432       -24.4476
 114   2.0000      -0.897710       -24.4279
 115   2.0000      -0.894471       -24.3398
 116   2.0000      -0.892392       -24.2832
 117   2.0000      -0.888517       -24.1778
 118   2.0000      -0.881642       -23.9907
 119   2.0000      -0.861355       -23.4387
 120   2.0000      -0.857908       -23.3449
 121   2.0000      -0.852706       -23.2033
 122   2.0000      -0.851976       -23.1834
 123   2.0000      -0.848780       -23.0965
 124   2.0000      -0.840796       -22.8792
 125   2.0000      -0.821756       -22.3611
 126   2.0000      -0.810901       -22.0657
 127   2.0000      -0.798505       -21.7284
 128   2.0000      -0.797159       -21.6918
 129   2.0000      -0.792862       -21.5749
 130   2.0000      -0.788699       -21.4616
 131   2.0000      -0.772574       -21.0228
 132   2.0000      -0.760965       -20.7069
 133   2.0000      -0.744709       -20.2646
 134   2.0000      -0.742904       -20.2155
 135   2.0000      -0.737585       -20.0707
 136   2.0000      -0.729508       -19.8509
 137   2.0000      -0.726152       -19.7596
 138   2.0000      -0.723747       -19.6942
 139   2.0000      -0.720897       -19.6166
 140   2.0000      -0.716067       -19.4852
 141   2.0000      -0.709783       -19.3142
 142   2.0000      -0.703088       -19.1320
 143   2.0000      -0.699167       -19.0253
 144   2.0000      -0.697861       -18.9898
 145   2.0000      -0.691326       -18.8119
 146   2.0000      -0.687057       -18.6958
 147   2.0000      -0.675361       -18.3775
 148   2.0000      -0.672891       -18.3103
 149   2.0000      -0.670326       -18.2405
 150   2.0000      -0.666322       -18.1316
 151   2.0000      -0.650946       -17.7131
 152   2.0000      -0.650687       -17.7061
 153   2.0000      -0.644914       -17.5490
 154   2.0000      -0.641583       -17.4584
 155   2.0000      -0.640666       -17.4334
 156   2.0000      -0.630383       -17.1536
 157   2.0000      -0.618356       -16.8263
 158   2.0000      -0.616127       -16.7657
 159   2.0000      -0.611456       -16.6386
 160   2.0000      -0.606505       -16.5038
 161   2.0000      -0.603735       -16.4285
 162   2.0000      -0.597523       -16.2594
 163   2.0000      -0.593226       -16.1425
 164   2.0000      -0.591307       -16.0903
 165   2.0000      -0.587859       -15.9965
 166   2.0000      -0.580805       -15.8045
 167   2.0000      -0.576463       -15.6864
 168   2.0000      -0.574843       -15.6423
 169   2.0000      -0.568623       -15.4730
 170   2.0000      -0.567297       -15.4369
 171   2.0000      -0.565041       -15.3755
 172   2.0000      -0.560272       -15.2458
 173   2.0000      -0.559235       -15.2176
 174   2.0000      -0.558296       -15.1920
 175   2.0000      -0.555592       -15.1184
 176   2.0000      -0.553666       -15.0660
 177   2.0000      -0.550832       -14.9889
 178   2.0000      -0.549322       -14.9478
 179   2.0000      -0.546881       -14.8814
 180   2.0000      -0.545996       -14.8573
 181   2.0000      -0.541375       -14.7316
 182   2.0000      -0.537059       -14.6141
 183   2.0000      -0.535200       -14.5635
 184   2.0000      -0.533128       -14.5071
 185   2.0000      -0.528961       -14.3937
 186   2.0000      -0.527556       -14.3555
 187   2.0000      -0.522710       -14.2237
 188   2.0000      -0.521491       -14.1905
 189   2.0000      -0.519438       -14.1346
 190   2.0000      -0.517646       -14.0859
 191   2.0000      -0.516459       -14.0536
 192   2.0000      -0.514024       -13.9873
 193   2.0000      -0.512996       -13.9593
 194   2.0000      -0.511033       -13.9059
 195   2.0000      -0.508960       -13.8495
 196   2.0000      -0.507577       -13.8119
 197   2.0000      -0.503257       -13.6943
 198   2.0000      -0.502011       -13.6604
 199   2.0000      -0.500555       -13.6208
 200   2.0000      -0.499490       -13.5918
 201   2.0000      -0.497546       -13.5389
 202   2.0000      -0.496237       -13.5033
 203   2.0000      -0.489558       -13.3216
 204   2.0000      -0.488040       -13.2802
 205   2.0000      -0.484781       -13.1915
 206   2.0000      -0.480353       -13.0711
 207   2.0000      -0.479000       -13.0343
 208   2.0000      -0.476567       -12.9680
 209   2.0000      -0.473950       -12.8968
 210   2.0000      -0.470739       -12.8095
 211   2.0000      -0.467049       -12.7091
 212   2.0000      -0.465971       -12.6797
 213   2.0000      -0.454736       -12.3740
 214   2.0000      -0.452870       -12.3232
 215   2.0000      -0.452606       -12.3160
 216   2.0000      -0.451684       -12.2909
 217   2.0000      -0.450169       -12.2497
 218   2.0000      -0.448953       -12.2166
 219   2.0000      -0.447801       -12.1853
 220   2.0000      -0.447424       -12.1750
 221   2.0000      -0.446565       -12.1516
 222   2.0000      -0.445977       -12.1356
 223   2.0000      -0.445526       -12.1234
 224   2.0000      -0.444935       -12.1073
 225   2.0000      -0.444630       -12.0990
 226   2.0000      -0.443459       -12.0671
 227   2.0000      -0.442373       -12.0376
 228   2.0000      -0.441556       -12.0154
 229   2.0000      -0.437567       -11.9068
 230   2.0000      -0.437276       -11.8989
 231   2.0000      -0.435698       -11.8559
 232   2.0000      -0.434549       -11.8247
 233   2.0000      -0.433357       -11.7922
 234   2.0000      -0.431291       -11.7360
 235   2.0000      -0.429061       -11.6754
 236   2.0000      -0.428963       -11.6727
 237   2.0000      -0.427554       -11.6343
 238   2.0000      -0.424639       -11.5550
 239   2.0000      -0.422998       -11.5103
 240   2.0000      -0.420740       -11.4489
 241   2.0000      -0.420354       -11.4384
 242   2.0000      -0.418611       -11.3910
 243   2.0000      -0.418028       -11.3751
 244   2.0000      -0.411598       -11.2001
 245   2.0000      -0.410820       -11.1790
 246   2.0000      -0.403444       -10.9783
 247   2.0000      -0.395414       -10.7598
 248   2.0000      -0.384732       -10.4691
 249   2.0000      -0.380366       -10.3503
 250   2.0000      -0.371213       -10.1012
 251   2.0000      -0.364688        -9.9237
 252   2.0000      -0.358667        -9.7598
 253   2.0000      -0.354971        -9.6593
 254   2.0000      -0.348917        -9.4945
 255   2.0000      -0.346690        -9.4339
 256   2.0000      -0.341061        -9.2807
 257   2.0000      -0.339562        -9.2399
 258   2.0000      -0.333410        -9.0725
 259   2.0000      -0.330807        -9.0017
 260   2.0000      -0.327269        -8.9054
 261   2.0000      -0.323547        -8.8042
 262   2.0000      -0.310632        -8.4527
 263   2.0000      -0.301764        -8.2114
 264   2.0000      -0.289735        -7.8841
 265   2.0000      -0.259185        -7.0528
 266   2.0000      -0.231600        -6.3022
 267   0.0000      -0.128057        -3.4846
 268   0.0000      -0.107223        -2.9177
 269   0.0000      -0.088816        -2.4168
 270   0.0000      -0.085728        -2.3328
 271   0.0000      -0.064140        -1.7453

MULLIKEN ATOMIC CHARGES
-----------------------
   0 C :    0.049268
   1 C :   -0.050047
   2 C :   -0.064605
   3 C :   -0.177091
   4 N :    0.195142
   5 C :   -0.073755
   6 C :   -0.172997
   7 N :    0.189850
   8 C :   -0.049312
   9 C :    0.001154
  10 C :    0.144194
  11 O :   -0.149536
  12 C :   -0.137144
  13 C :    0.317148
  14 C :   -0.354482
  15 C :   -0.188255
  16 N :    0.154967
  17 C :   -0.212480
  18 N :    0.157966
  19 C :    0.017559
  20 C :   -0.179015
  21 S :    0.147232
  22 C :   -0.088660
  23 C :    0.112464
  24 C :    0.181231
  25 C :    0.027280
  26 C :   -0.015435
  27 C :   -0.019825
  28 C :   -0.018552
  29 C :   -0.022764
  30 C :   -0.110268
  31 C :    0.102336
  32 C :   -0.030965
  33 C :    0.020614
  34 C :    0.101299
  35 N :   -0.033093
  36 C :    0.130335
  37 C :   -0.171007
  38 C :    0.110544
  39 N :   -0.034494
  40 C :    0.128773
  41 C :   -0.167463
  42 C :    0.007316
  43 C :   -0.040465
  44 C :   -0.091040
  45 S :    0.148278
  46 C :   -0.163351
  47 C :    0.138061
  48 C :    0.095835
  49 C :    0.037484
  50 C :   -0.055196
  51 C :   -0.021287
  52 C :   -0.014983
  53 C :   -0.011038
  54 C :   -0.115851
  55 C :    0.086030
  56 C :    0.052588
  57 C :   -0.006903
  58 C :    0.025783
  59 C :   -0.133313
  60 C :    0.142353
  61 O :   -0.142684
  62 C :    0.003366
  63 C :   -0.038255
  64 C :   -0.068622
  65 C :   -0.061351
  66 C :   -0.041583
  67 C :    0.034124
  68 C :    0.298639
  69 C :   -0.342094
  70 C :   -0.221599
  71 N :    0.168141
  72 C :   -0.181028
  73 N :    0.149670
  74 C :   -0.176004
  75 N :    0.192628
  76 C :   -0.175676
  77 N :    0.190434
  78 H :    0.016139
  79 H :    0.005871
  80 H :    0.021395
  81 H :    0.016476
  82 H :    0.024224
  83 H :    0.030908
  84 H :   -0.014969
  85 H :   -0.024973
  86 H :    0.010424
  87 H :    0.042679
  88 H :    0.036541
  89 H :   -0.025519
  90 H :   -0.006584
  91 H :    0.128748
  92 H :   -0.021906
  93 H :    0.127516
  94 H :   -0.022988
  95 H :   -0.014196
  96 H :    0.013031
  97 H :    0.030079
  98 H :    0.028166
  99 H :    0.028246
 100 H :   -0.016036
 101 H :   -0.016510
 102 H :    0.035371
 103 H :    0.037060
 104 H :    0.028198
 105 H :   -0.000070
 106 H :    0.021056
 107 H :    0.012682
 108 H :    0.013327
 109 H :    0.019094
Sum of atomic charges:   -0.0000000

LOEWDIN ATOMIC CHARGES
----------------------
   0 C :    0.003522
   1 C :    0.029486
   2 C :   -0.031597
   3 C :   -0.031244
   4 N :   -0.020524
   5 C :   -0.033854
   6 C :   -0.030981
   7 N :   -0.023855
   8 C :    0.037439
   9 C :   -0.019352
  10 C :    0.072413
  11 O :   -0.148391
  12 C :   -0.119150
  13 C :    0.067260
  14 C :   -0.147345
  15 C :   -0.024106
  16 N :   -0.053064
  17 C :   -0.023906
  18 N :   -0.057876
  19 C :    0.027293
  20 C :   -0.184604
  21 S :    0.477023
  22 C :   -0.115459
  23 C :   -0.047507
  24 C :   -0.000822
  25 C :   -0.020904
  26 C :   -0.010069
  27 C :   -0.039211
  28 C :    0.018978
  29 C :   -0.031027
  30 C :   -0.000807
  31 C :   -0.045947
  32 C :   -0.060429
  33 C :   -0.006937
  34 C :    0.000510
  35 N :    0.073677
  36 C :   -0.005193
  37 C :   -0.082604
  38 C :    0.008091
  39 N :    0.072183
  40 C :   -0.009184
  41 C :   -0.077059
  42 C :   -0.020280
  43 C :   -0.048754
  44 C :   -0.136286
  45 S :    0.480277
  46 C :   -0.184703
  47 C :   -0.019034
  48 C :   -0.037056
  49 C :   -0.016806
  50 C :   -0.022033
  51 C :   -0.037204
  52 C :   -0.009357
  53 C :   -0.008225
  54 C :   -0.015782
  55 C :   -0.046801
  56 C :    0.012419
  57 C :   -0.048021
  58 C :    0.067832
  59 C :   -0.120302
  60 C :    0.077321
  61 O :   -0.145813
  62 C :   -0.028779
  63 C :    0.044095
  64 C :   -0.033415
  65 C :   -0.027336
  66 C :    0.027415
  67 C :    0.006559
  68 C :    0.062026
  69 C :   -0.144246
  70 C :   -0.024649
  71 N :   -0.051186
  72 C :   -0.024072
  73 N :   -0.050915
  74 C :   -0.030694
  75 N :   -0.017986
  76 C :   -0.031536
  77 N :   -0.020694
  78 H :    0.050910
  79 H :    0.049651
  80 H :    0.041706
  81 H :    0.035501
  82 H :    0.023114
  83 H :    0.027787
  84 H :    0.033817
  85 H :    0.029125
  86 H :    0.034994
  87 H :    0.035899
  88 H :    0.036365
  89 H :    0.033311
  90 H :    0.024952
  91 H :    0.093875
  92 H :    0.028718
  93 H :    0.093140
  94 H :    0.027625
  95 H :    0.023421
  96 H :    0.039092
  97 H :    0.035296
  98 H :    0.025542
  99 H :    0.026572
 100 H :    0.032623
 101 H :    0.032526
 102 H :    0.034056
 103 H :    0.038225
 104 H :    0.038533
 105 H :    0.034320
 106 H :    0.032038
 107 H :    0.042943
 108 H :    0.052542
 109 H :    0.050934

  Mayer bond orders larger than 0.100000
B(  0-C ,  1-C ) :   1.3655 B(  0-C ,  9-C ) :   1.3356 B(  0-C , 13-C ) :   0.9478
B(  1-C ,  2-C ) :   1.3783 B(  1-C , 78-H ) :   0.9862 B(  2-C ,  3-C ) :   1.0865
B(  2-C ,  5-C ) :   1.4127 B(  3-C ,  4-N ) :   3.0441 B(  5-C ,  6-C ) :   1.0833
B(  5-C ,  8-C ) :   1.3480 B(  6-C ,  7-N ) :   3.0453 B(  8-C ,  9-C ) :   1.3765
B(  8-C , 79-H ) :   1.0164 B(  9-C , 10-C ) :   0.9129 B( 10-C , 11-O ) :   2.2081
B( 10-C , 12-C ) :   0.9678 B( 12-C , 13-C ) :   1.1494 B( 12-C , 19-C ) :   1.4287
B( 13-C , 14-C ) :   1.6031 B( 14-C , 15-C ) :   1.1486 B( 14-C , 17-C ) :   1.1570
B( 15-C , 16-N ) :   2.9587 B( 17-C , 18-N ) :   2.9863 B( 19-C , 20-C ) :   1.3123
B( 19-C , 80-H ) :   0.9326 B( 20-C , 21-S ) :   1.0719 B( 20-C , 24-C ) :   1.2597
B( 21-S , 22-C ) :   1.1894 B( 22-C , 23-C ) :   1.2491 B( 22-C , 32-C ) :   1.2140
B( 23-C , 24-C ) :   1.2411 B( 23-C , 30-C ) :   1.2333 B( 24-C , 25-C ) :   1.2315
B( 25-C , 26-C ) :   1.0687 B( 25-C , 28-C ) :   1.4717 B( 26-C , 27-C ) :   1.9505
B( 26-C , 81-H ) :   0.9339 B( 27-C , 82-H ) :   0.9543 B( 27-C , 83-H ) :   0.9501
B( 28-C , 29-C ) :   1.2472 B( 28-C , 84-H ) :   0.9904 B( 29-C , 30-C ) :   1.5057
B( 29-C , 85-H ) :   0.9854 B( 30-C , 31-C ) :   1.0952 B( 31-C , 86-H ) :   0.9401
B( 31-C , 87-H ) :   0.9347 B( 31-C , 88-H ) :   0.9429 B( 32-C , 33-C ) :   1.5612
B( 32-C , 89-H ) :   0.9706 B( 33-C , 34-C ) :   1.1731 B( 33-C , 90-H ) :   0.9587
B( 34-C , 35-N ) :   1.1612 B( 34-C , 41-C ) :   1.3551 B( 35-N , 36-C ) :   1.1767
B( 35-N , 91-H ) :   0.9351 B( 36-C , 37-C ) :   1.2797 B( 36-C , 40-C ) :   1.2724
B( 37-C , 38-C ) :   1.3688 B( 37-C , 92-H ) :   1.0328 B( 38-C , 39-N ) :   1.1657
B( 38-C , 42-C ) :   1.1565 B( 39-N , 40-C ) :   1.1697 B( 39-N , 93-H ) :   0.9357
B( 40-C , 41-C ) :   1.2916 B( 41-C , 94-H ) :   1.0313 B( 42-C , 43-C ) :   1.5816
B( 42-C , 95-H ) :   0.9610 B( 43-C , 44-C ) :   1.2091 B( 43-C , 96-H ) :   0.9641
B( 44-C , 45-S ) :   1.1790 B( 44-C , 48-C ) :   1.2721 B( 45-S , 46-C ) :   1.0978
B( 46-C , 47-C ) :   1.2359 B( 46-C , 56-C ) :   1.2438 B( 47-C , 48-C ) :   1.2349
B( 47-C , 54-C ) :   1.2634 B( 48-C , 49-C ) :   1.2278 B( 49-C , 50-C ) :   1.0212
B( 49-C , 52-C ) :   1.4972 B( 50-C , 51-C ) :   1.9645 B( 50-C , 97-H ) :   0.9507
B( 51-C , 98-H ) :   0.9604 B( 51-C , 99-H ) :   0.9541 B( 52-C , 53-C ) :   1.2436
B( 52-C ,100-H ) :   0.9910 B( 53-C , 54-C ) :   1.4938 B( 53-C ,101-H ) :   0.9896
B( 54-C , 55-C ) :   1.0870 B( 55-C ,102-H ) :   0.9479 B( 55-C ,103-H ) :   0.9412
B( 55-C ,104-H ) :   0.9487 B( 56-C , 57-C ) :   1.5158 B( 56-C ,105-H ) :   0.9558
B( 57-C , 58-C ) :   1.2628 B( 57-C ,106-H ) :   0.9505 B( 58-C , 59-C ) :   1.4647
B( 58-C ,107-H ) :   0.9568 B( 59-C , 60-C ) :   0.9764 B( 59-C , 68-C ) :   1.1012
B( 60-C , 61-O ) :   2.2593 B( 60-C , 62-C ) :   0.8976 B( 62-C , 63-C ) :   1.3798
B( 62-C , 67-C ) :   1.3328 B( 63-C , 64-C ) :   1.3574 B( 63-C ,108-H ) :   1.0141
B( 64-C , 65-C ) :   1.4094 B( 64-C , 76-C ) :   1.0852 B( 65-C , 66-C ) :   1.3807
B( 65-C , 74-C ) :   1.0866 B( 66-C , 67-C ) :   1.3702 B( 66-C ,109-H ) :   0.9863
B( 67-C , 68-C ) :   0.9686 B( 68-C , 69-C ) :   1.6007 B( 69-C , 70-C ) :   1.1708
B( 69-C , 72-C ) :   1.1357 B( 70-C , 71-N ) :   3.0027 B( 72-C , 73-N ) :   2.9663
B( 74-C , 75-N ) :   3.0428 B( 76-C , 77-N ) :   3.0452

-----------------------------------------------------------------------------
         ABSORPTION SPECTRUM VIA TRANSITION ELECTRIC DIPOLE MOMENTS
-----------------------------------------------------------------------------
State   Energy  Wavelength   fosc         T2         TX        TY        TZ
        (cm-1)    (nm)                  (au**2)     (au)      (au)      (au)
-----------------------------------------------------------------------------
   0    9452.5   1057.9   2.482745772  86.46946   6.50046  -6.64146  -0.32326
   1   14148.4    706.8   0.037357936   0.86927   0.85743  -0.34709  -0.11662
   2   17374.4    575.6   0.003099585   0.05873   0.07234   0.22630   0.04783
   3   18469.0    541.4   0.094150413   1.67824   0.69534  -0.22815   1.06897
   4   19017.2    525.8   0.070550515   1.22132  -0.53122  -0.93939   0.23807
   5   20906.7    478.3   0.240834317   3.79234  -0.53120  -0.42325  -1.82511
   6   22214.3    450.2   0.019320579   0.28633  -0.32403  -0.20559  -0.37292
   7   23311.0    429.0   0.046275409   0.65353  -0.16174   0.32933   0.72035
   8   24441.8    409.1   0.025512650   0.34364  -0.18335  -0.16253  -0.53254
   9   25165.7    397.4   0.086847756   1.13612   0.85537   0.25075  -0.58446
  10   26210.4    381.5   0.057957640   0.72797   0.47179  -0.61206   0.36161
  11   26968.3    370.8   0.090304834   1.10239  -0.20680  -0.64649  -0.80104
  12   27109.6    368.9   0.030518494   0.37061  -0.46022  -0.06894   0.39250
  13   27691.5    361.1   0.001826851   0.02172   0.10728   0.04926  -0.08822
  14   27872.8    358.8   0.020642338   0.24381   0.35590   0.31896  -0.12415
  15   28027.8    356.8   0.110180015   1.29417   0.89028  -0.00993   0.70814
  16   28299.6    353.4   0.028210340   0.32817   0.36000   0.25856   0.36294
  17   29144.1    343.1   0.019285464   0.21785  -0.18116   0.33030   0.27555
  18   29944.2    334.0   0.084498528   0.92899  -0.79993   0.53745  -0.01567
  19   30214.0    331.0   0.082502401   0.89895  -0.20051  -0.91927  -0.11698
  20   30474.4    328.1   0.160761747   1.73669  -1.11768   0.58523  -0.38077
  21   30761.4    325.1   0.055211653   0.59088   0.68519  -0.34434   0.05326
  22   30922.7    323.4   0.023120291   0.24615   0.08425  -0.48829   0.02493
  23   31214.6    320.4   0.121318412   1.27951  -1.12198  -0.10022   0.10313
  24   31425.4    318.2   0.182245341   1.90920   1.00395   0.54230   0.77923
  25   31756.1    314.9   0.048226520   0.49996   0.40281  -0.02786   0.58045
  26   32361.8    309.0   0.012607487   0.12825   0.02387  -0.34928  -0.07541
  27   32592.6    306.8   0.026779344   0.27049  -0.26814   0.29057  -0.33788
  28   32690.3    305.9   0.122789414   1.23657  -0.24454   1.08021  -0.09955
  29   33032.3    302.7   0.012843669   0.12800   0.08964  -0.01993   0.34579
  30   33239.4    300.8   0.093599922   0.92704   0.12545   0.90418   0.30619
  31   33608.1    297.5   0.135899982   1.33123  -0.20949  -0.97023  -0.58821
  32   34026.3    293.9   0.138655515   1.34152   1.00804   0.53719  -0.19185
  33   34301.3    291.5   0.045005312   0.43195   0.08976   0.20030   0.61949
  34   34574.0    289.2   0.059449946   0.56608   0.19175  -0.67625   0.26832
  35   35107.8    284.8   0.039509645   0.37049   0.00901  -0.52171   0.31340
  36   35469.6    281.9   0.076510365   0.71013  -0.74933  -0.09476  -0.37371
  37   35699.1    280.1   0.040864222   0.37684  -0.16970   0.57588  -0.12811
  38   36154.3    276.6   0.035469718   0.32298   0.56452   0.04068   0.05139
  39   36383.8    274.8   0.074809271   0.67690  -0.80772   0.09949   0.12078
  40   36456.7    274.3   0.047228893   0.42649  -0.29571   0.02460   0.58175
  41   36768.9    272.0   0.029301556   0.26235   0.35824  -0.36546  -0.02142
  42   37262.6    268.4   0.069946867   0.61797   0.58715  -0.49248  -0.17518
  43   37615.6    265.8   0.033971646   0.29732  -0.52485   0.13268  -0.06514
  44   37807.7    264.5   0.030277720   0.26364  -0.29614   0.38796  -0.15947
  45   38039.7    262.9   0.378628116   3.27681  -0.66090  -1.68413   0.06092
  46   38142.6    262.2   0.555855253   4.79763  -1.20966  -1.80962  -0.24415
  47   38296.2    261.1   0.010149957   0.08725   0.10250  -0.15919  -0.22673
  48   38523.6    259.6   0.063606599   0.54356   0.21280  -0.70138   0.07969
  49   38832.5    257.5   0.036618225   0.31044  -0.42251  -0.36106  -0.03947
  50   39058.7    256.0   0.026366963   0.22224  -0.29315   0.32895  -0.16762
  51   39099.7    255.8   0.080491032   0.67772   0.17869   0.74669   0.29706
  52   39393.7    253.8   0.068122535   0.56930   0.36703   0.46982   0.46245
  53   39471.1    253.3   0.025025386   0.20873   0.00070  -0.30849  -0.33699
  54   39901.3    250.6   0.025622550   0.21140  -0.29527   0.32892   0.12661

FINAL SINGLE POINT ENERGY     -3947.903759763805

DIPOLE MOMENT
-------------
                                X             Y             Z
Electronic contribution:     -5.30369      -7.39547       5.36847
Nuclear contribution   :      5.44115       7.03766      -6.22035
                        -----------------------------------------
Total Dipole Moment    :      0.13746      -0.35781      -0.85188
                        -----------------------------------------
Magnitude (a.u.)       :      0.93414
Magnitude (Debye)      :      2.37440

Rotational constants in cm-1:     0.002547     0.000135     0.000133
Rotational constants in MHz :    76.365792     4.062062     3.986882

                             ****ORCA TERMINATED NORMALLY****
TOTAL RUN TIME: 0 days 0 hours 12 minutes 35 seconds 584 msec
