                         Program Version 4.2.0 -  RELEASE  -
|  1> # ORCA input file
|  2> # SCF done       -207.414217889390          0.000560513789
|  3> ! CAM-B3LYP def2-SVP def2/J RIJCOSX Grid4 TightSCF
|  4> %maxcore 5000
|  5> %tddft
|  6>     Mode sTDDFT
|  7>     Ethresh 5.0
|  8>     maxcore 5000
|  9> end
| 10>
| 11> %pal
| 12>   nprocs 6
| 13>   end
| 14> * xyz 0 1
| 15>    C       -2.17336         2.47282        -1.50312
| 16>    C       -3.44465         3.02756        -1.57317
| 17>    C       -4.07958         3.52971        -0.44566
| 18>    C       -3.44829         3.50619         0.79018
| 19>    C       -2.18032         2.96233         0.86486
| 20>    C       -1.54036         2.43308        -0.27173
| 21>    C       -0.23949         1.89543         0.12469
| 22>    C        0.45697         0.94100        -0.56786
| 23>    C        0.06822         0.44424        -1.83072
| 24>    N       -0.20699        -0.00266        -2.85068
| 25>    C        1.58653         0.26940        -0.06001
| 26>    N        2.49636        -0.31724         0.32243
| 27>    C        0.00726         2.33936         1.48117
| 28>    C       -1.28553         2.84700         2.03156
| 29>    O       -1.50935         3.13925         3.18279
| 30>    C        1.12948         2.44745         2.24370
| 31>    C        2.48101         2.40587         1.83590
| 32>    C        3.01101         2.59479         0.56663
| 33>    C        4.39586         2.51773         0.55913
| 34>    C        4.94197         2.27343         1.83794
| 35>    S        3.74138         2.15925         3.03930
| 36>    C        6.34944         2.20617         1.72129
| 37>    C        6.69461         2.40451         0.36599
| 38>    C        5.47732         2.58668        -0.40812
| 39>    C        5.35277         2.74712        -1.75641
| 40>    C        6.46221         2.77446        -2.62843
| 41>    N        7.35350         2.80023        -3.34838
| 42>    C        4.08549         2.88856        -2.36120
| 43>    N        3.04792         3.00734        -2.83495
| 44>    C        8.06441         2.37909         0.14826
| 45>    C        8.77672         2.16184         1.32292
| 46>    S        7.71773         1.96939         2.71420
| 47>    C       10.18529         2.10210         1.50800
| 48>    C       11.14181         2.33892         0.49055
| 49>    C       12.55095         2.28904         0.76111
| 50>    N       13.42689         2.52823        -0.23580
| 51>    C       12.99597         2.80364        -1.42307
| 52>    C       11.60213         2.86309        -1.68832
| 53>    N       10.73114         2.63758        -0.75999
| 54>    F       11.15415         3.16116        -2.90062
| 55>    F       13.89296         3.03268        -2.37455
| 56>    C       13.09131         2.00927         2.03737
| 57>    C       12.13920         1.75803         3.05205
| 58>    C       10.72451         1.80969         2.78174
| 59>    N       10.00521         1.55222         3.87498
| 60>    S       10.99367         1.27057         5.10880
| 61>    N       12.37879         1.46381         4.33107
| 62>    C       14.49132         2.00710         2.27113
| 63>    C       15.12793         1.76697         3.48511
| 64>    C       16.50616         1.87639         3.37929
| 65>    C       16.92959         2.19756         2.07025
| 66>    S       15.62454         2.36044         0.97941
| 67>    C       18.33975         2.30135         2.07397
| 68>    C       18.80884         2.05261         3.38272
| 69>    C       17.67216         1.76528         4.24012
| 70>    C       17.70686         1.44115         5.56470
| 71>    C       18.92734         1.35980         6.26808
| 72>    N       19.92698         1.30596         6.82736
| 73>    C       16.53716         1.17662         6.30762
| 74>    N       15.58934         0.96897         6.91829
| 75>    C       20.19024         2.12717         3.48658
| 76>    C       20.79239         2.42385         2.27061
| 77>    S       19.60544         2.64058         0.98930
| 78>    C       22.15910         2.62375         1.97791
| 79>    C       23.25684         2.26628         2.69895
| 80>    C       23.47534         1.37063         3.81564
| 81>    C       22.77758         0.22428         4.09754
| 82>    C       23.13658        -0.68341         5.11629
| 83>    N       23.39187        -1.45852         5.92272
| 84>    C       21.68331        -0.23505         3.34015
| 85>    N       20.80067        -0.65547         2.73771
| 86>    C       24.74462         1.74785         4.42780
| 87>    C       25.40582         2.67158         3.57672
| 88>    C       24.54712         2.96432         2.41775
| 89>    O       24.79186         3.65837         1.45804
| 90>    C       26.64734         3.18312         3.86974
| 91>    C       27.25713         2.77540         5.05998
| 92>    C       26.58013         1.86725         5.91053
| 93>    C       25.32815         1.34188         5.61156
| 94>    S       27.51533         1.51845         7.32879
| 95>    C       28.78053         2.56302         6.78167
| 96>    C       28.52160         3.15221         5.59386
| 97>    H       -1.69460         2.09943        -2.39396
| 98>    H       -3.94711         3.06751        -2.52783
| 99>    H       -5.07154         3.94647        -0.53312
|100>    H       -3.92258         3.89846         1.67650
|101>    H        0.95013         2.66368         3.29261
|102>    H        2.40641         2.82339        -0.29185
|103>    H        8.55006         2.51250        -0.79979
|104>    H       14.58077         1.53247         4.37957
|105>    H       20.74135         2.02079         4.40303
|106>    H       22.37463         3.20682         1.08714
|107>    H       27.13209         3.87731         3.20102
|108>    H       24.84454         0.66122         6.29270
|109>    H       29.65429         2.67384         7.39399
|110>    H       29.19153         3.83245         5.09992
|111> *
|112>
|113>                          ****END OF INPUT****

CARTESIAN COORDINATES (ANGSTROEM)
---------------------------------
  C     -2.173360    2.472820   -1.503120
  C     -3.444650    3.027560   -1.573170
  C     -4.079580    3.529710   -0.445660
  C     -3.448290    3.506190    0.790180
  C     -2.180320    2.962330    0.864860
  C     -1.540360    2.433080   -0.271730
  C     -0.239490    1.895430    0.124690
  C      0.456970    0.941000   -0.567860
  C      0.068220    0.444240   -1.830720
  N     -0.206990   -0.002660   -2.850680
  C      1.586530    0.269400   -0.060010
  N      2.496360   -0.317240    0.322430
  C      0.007260    2.339360    1.481170
  C     -1.285530    2.847000    2.031560
  O     -1.509350    3.139250    3.182790
  C      1.129480    2.447450    2.243700
  C      2.481010    2.405870    1.835900
  C      3.011010    2.594790    0.566630
  C      4.395860    2.517730    0.559130
  C      4.941970    2.273430    1.837940
  S      3.741380    2.159250    3.039300
  C      6.349440    2.206170    1.721290
  C      6.694610    2.404510    0.365990
  C      5.477320    2.586680   -0.408120
  C      5.352770    2.747120   -1.756410
  C      6.462210    2.774460   -2.628430
  N      7.353500    2.800230   -3.348380
  C      4.085490    2.888560   -2.361200
  N      3.047920    3.007340   -2.834950
  C      8.064410    2.379090    0.148260
  C      8.776720    2.161840    1.322920
  S      7.717730    1.969390    2.714200
  C     10.185290    2.102100    1.508000
  C     11.141810    2.338920    0.490550
  C     12.550950    2.289040    0.761110
  N     13.426890    2.528230   -0.235800
  C     12.995970    2.803640   -1.423070
  C     11.602130    2.863090   -1.688320
  N     10.731140    2.637580   -0.759990
  F     11.154150    3.161160   -2.900620
  F     13.892960    3.032680   -2.374550
  C     13.091310    2.009270    2.037370
  C     12.139200    1.758030    3.052050
  C     10.724510    1.809690    2.781740
  N     10.005210    1.552220    3.874980
  S     10.993670    1.270570    5.108800
  N     12.378790    1.463810    4.331070
  C     14.491320    2.007100    2.271130
  C     15.127930    1.766970    3.485110
  C     16.506160    1.876390    3.379290
  C     16.929590    2.197560    2.070250
  S     15.624540    2.360440    0.979410
  C     18.339750    2.301350    2.073970
  C     18.808840    2.052610    3.382720
  C     17.672160    1.765280    4.240120
  C     17.706860    1.441150    5.564700
  C     18.927340    1.359800    6.268080
  N     19.926980    1.305960    6.827360
  C     16.537160    1.176620    6.307620
  N     15.589340    0.968970    6.918290
  C     20.190240    2.127170    3.486580
  C     20.792390    2.423850    2.270610
  S     19.605440    2.640580    0.989300
  C     22.159100    2.623750    1.977910
  C     23.256840    2.266280    2.698950
  C     23.475340    1.370630    3.815640
  C     22.777580    0.224280    4.097540
  C     23.136580   -0.683410    5.116290
  N     23.391870   -1.458520    5.922720
  C     21.683310   -0.235050    3.340150
  N     20.800670   -0.655470    2.737710
  C     24.744620    1.747850    4.427800
  C     25.405820    2.671580    3.576720
  C     24.547120    2.964320    2.417750
  O     24.791860    3.658370    1.458040
  C     26.647340    3.183120    3.869740
  C     27.257130    2.775400    5.059980
  C     26.580130    1.867250    5.910530
  C     25.328150    1.341880    5.611560
  S     27.515330    1.518450    7.328790
  C     28.780530    2.563020    6.781670
  C     28.521600    3.152210    5.593860
  H     -1.694600    2.099430   -2.393960
  H     -3.947110    3.067510   -2.527830
  H     -5.071540    3.946470   -0.533120
  H     -3.922580    3.898460    1.676500
  H      0.950130    2.663680    3.292610
  H      2.406410    2.823390   -0.291850
  H      8.550060    2.512500   -0.799790
  H     14.580770    1.532470    4.379570
  H     20.741350    2.020790    4.403030
  H     22.374630    3.206820    1.087140
  H     27.132090    3.877310    3.201020
  H     24.844540    0.661220    6.292700
  H     29.654290    2.673840    7.393990
  H     29.191530    3.832450    5.099920

 Total Charge           Charge          ....    0
 Multiplicity           Mult            ....    1
 Number of Electrons    NEL             ....  588
 Basis Dimension        Dim             .... 1242

ORBITAL ENERGIES
----------------

  NO   OCC          E(Eh)            E(eV)
   0   2.0000     -89.056926     -2423.3622
   1   2.0000     -88.996540     -2421.7190
   2   2.0000     -88.995454     -2421.6894
   3   2.0000     -88.989735     -2421.5338
   4   2.0000     -88.989671     -2421.5321
   5   2.0000     -88.966055     -2420.8894
   6   2.0000     -24.831152      -675.6900
   7   2.0000     -24.824348      -675.5049
   8   2.0000     -19.217906      -522.9458
   9   2.0000     -19.215002      -522.8668
  10   2.0000     -14.472304      -393.8114
  11   2.0000     -14.466938      -393.6654
  12   2.0000     -14.465750      -393.6331
  13   2.0000     -14.465452      -393.6250
  14   2.0000     -14.432338      -392.7239
  15   2.0000     -14.432147      -392.7187
  16   2.0000     -14.431142      -392.6913
  17   2.0000     -14.429794      -392.6547
  18   2.0000     -14.418960      -392.3599
  19   2.0000     -14.417018      -392.3070
  20   2.0000     -14.413725      -392.2174
  21   2.0000     -14.412877      -392.1943
  22   2.0000     -10.447744      -284.2976
  23   2.0000     -10.444088      -284.1981
  24   2.0000     -10.368597      -282.1439
  25   2.0000     -10.366079      -282.0754
  26   2.0000     -10.365975      -282.0725
  27   2.0000     -10.365919      -282.0710
  28   2.0000     -10.361145      -281.9411
  29   2.0000     -10.359297      -281.8908
  30   2.0000     -10.354492      -281.7601
  31   2.0000     -10.353633      -281.7367
  32   2.0000     -10.353432      -281.7312
  33   2.0000     -10.353268      -281.7267
  34   2.0000     -10.345921      -281.5268
  35   2.0000     -10.343887      -281.4715
  36   2.0000     -10.343287      -281.4551
  37   2.0000     -10.342874      -281.4439
  38   2.0000     -10.342481      -281.4332
  39   2.0000     -10.341865      -281.4165
  40   2.0000     -10.332746      -281.1683
  41   2.0000     -10.332550      -281.1630
  42   2.0000     -10.332044      -281.1492
  43   2.0000     -10.331488      -281.1341
  44   2.0000     -10.331091      -281.1233
  45   2.0000     -10.330671      -281.1119
  46   2.0000     -10.330669      -281.1118
  47   2.0000     -10.330311      -281.1020
  48   2.0000     -10.329784      -281.0877
  49   2.0000     -10.328923      -281.0643
  50   2.0000     -10.328864      -281.0627
  51   2.0000     -10.328345      -281.0485
  52   2.0000     -10.325645      -280.9751
  53   2.0000     -10.324065      -280.9321
  54   2.0000     -10.320295      -280.8295
  55   2.0000     -10.319972      -280.8207
  56   2.0000     -10.318263      -280.7742
  57   2.0000     -10.315977      -280.7120
  58   2.0000     -10.315320      -280.6941
  59   2.0000     -10.313399      -280.6418
  60   2.0000     -10.312517      -280.6179
  61   2.0000     -10.312308      -280.6122
  62   2.0000     -10.308410      -280.5061
  63   2.0000     -10.308167      -280.4995
  64   2.0000     -10.307424      -280.4793
  65   2.0000     -10.306581      -280.4563
  66   2.0000     -10.305808      -280.4353
  67   2.0000     -10.305498      -280.4269
  68   2.0000     -10.302667      -280.3498
  69   2.0000     -10.301460      -280.3170
  70   2.0000     -10.301138      -280.3082
  71   2.0000     -10.301136      -280.3082
  72   2.0000     -10.300290      -280.2851
  73   2.0000     -10.300217      -280.2832
  74   2.0000     -10.299155      -280.2542
  75   2.0000     -10.296181      -280.1733
  76   2.0000     -10.295461      -280.1537
  77   2.0000     -10.295067      -280.1430
  78   2.0000     -10.294662      -280.1320
  79   2.0000     -10.293302      -280.0950
  80   2.0000     -10.290764      -280.0259
  81   2.0000     -10.288523      -279.9650
  82   2.0000      -8.147886      -221.7153
  83   2.0000      -8.091131      -220.1709
  84   2.0000      -8.090209      -220.1458
  85   2.0000      -8.082860      -219.9458
  86   2.0000      -8.082357      -219.9321
  87   2.0000      -8.062341      -219.3875
  88   2.0000      -6.118988      -166.5061
  89   2.0000      -6.111160      -166.2931
  90   2.0000      -6.110670      -166.2798
  91   2.0000      -6.060287      -164.9088
  92   2.0000      -6.059337      -164.8829
  93   2.0000      -6.056136      -164.7958
  94   2.0000      -6.055180      -164.7698
  95   2.0000      -6.053670      -164.7287
  96   2.0000      -6.052748      -164.7036
  97   2.0000      -6.052292      -164.6912
  98   2.0000      -6.051839      -164.6789
  99   2.0000      -6.047671      -164.5655
 100   2.0000      -6.047105      -164.5501
 101   2.0000      -6.045303      -164.5010
 102   2.0000      -6.044860      -164.4890
 103   2.0000      -6.031844      -164.1348
 104   2.0000      -6.027541      -164.0177
 105   2.0000      -6.024018      -163.9219
 106   2.0000      -1.357591       -36.9419
 107   2.0000      -1.342274       -36.5251
 108   2.0000      -1.154746       -31.4222
 109   2.0000      -1.133230       -30.8368
 110   2.0000      -1.130500       -30.7625
 111   2.0000      -1.129340       -30.7309
 112   2.0000      -1.055919       -28.7330
 113   2.0000      -1.048352       -28.5271
 114   2.0000      -1.047131       -28.4939
 115   2.0000      -1.023638       -27.8546
 116   2.0000      -1.023542       -27.8520
 117   2.0000      -1.020396       -27.7664
 118   2.0000      -1.020301       -27.7638
 119   2.0000      -1.013892       -27.5894
 120   2.0000      -1.009543       -27.4711
 121   2.0000      -1.008603       -27.4455
 122   2.0000      -1.008059       -27.4307
 123   2.0000      -1.005625       -27.3644
 124   2.0000      -0.998341       -27.1662
 125   2.0000      -0.997393       -27.1404
 126   2.0000      -0.993281       -27.0286
 127   2.0000      -0.992507       -27.0075
 128   2.0000      -0.985757       -26.8238
 129   2.0000      -0.982544       -26.7364
 130   2.0000      -0.962607       -26.1939
 131   2.0000      -0.957919       -26.0663
 132   2.0000      -0.949334       -25.8327
 133   2.0000      -0.932303       -25.3693
 134   2.0000      -0.924358       -25.1531
 135   2.0000      -0.918273       -24.9875
 136   2.0000      -0.905288       -24.6341
 137   2.0000      -0.900353       -24.4998
 138   2.0000      -0.900094       -24.4928
 139   2.0000      -0.891455       -24.2577
 140   2.0000      -0.882224       -24.0065
 141   2.0000      -0.881073       -23.9752
 142   2.0000      -0.876015       -23.8376
 143   2.0000      -0.867686       -23.6109
 144   2.0000      -0.860437       -23.4137
 145   2.0000      -0.859703       -23.3937
 146   2.0000      -0.858259       -23.3544
 147   2.0000      -0.856095       -23.2955
 148   2.0000      -0.830788       -22.6069
 149   2.0000      -0.822827       -22.3902
 150   2.0000      -0.818811       -22.2810
 151   2.0000      -0.808186       -21.9919
 152   2.0000      -0.797992       -21.7145
 153   2.0000      -0.787769       -21.4363
 154   2.0000      -0.779916       -21.2226
 155   2.0000      -0.776451       -21.1283
 156   2.0000      -0.770174       -20.9575
 157   2.0000      -0.765547       -20.8316
 158   2.0000      -0.760204       -20.6862
 159   2.0000      -0.755021       -20.5452
 160   2.0000      -0.738869       -20.1056
 161   2.0000      -0.723074       -19.6758
 162   2.0000      -0.715827       -19.4786
 163   2.0000      -0.708719       -19.2852
 164   2.0000      -0.704502       -19.1705
 165   2.0000      -0.700448       -19.0601
 166   2.0000      -0.695646       -18.9295
 167   2.0000      -0.694177       -18.8895
 168   2.0000      -0.688131       -18.7250
 169   2.0000      -0.686722       -18.6866
 170   2.0000      -0.685237       -18.6462
 171   2.0000      -0.681818       -18.5532
 172   2.0000      -0.678577       -18.4650
 173   2.0000      -0.672018       -18.2865
 174   2.0000      -0.669064       -18.2062
 175   2.0000      -0.661486       -18.0000
 176   2.0000      -0.654312       -17.8047
 177   2.0000      -0.648230       -17.6392
 178   2.0000      -0.642297       -17.4778
 179   2.0000      -0.639241       -17.3946
 180   2.0000      -0.635657       -17.2971
 181   2.0000      -0.634107       -17.2549
 182   2.0000      -0.632279       -17.2052
 183   2.0000      -0.623184       -16.9577
 184   2.0000      -0.619490       -16.8572
 185   2.0000      -0.618614       -16.8333
 186   2.0000      -0.617642       -16.8069
 187   2.0000      -0.614334       -16.7169
 188   2.0000      -0.607337       -16.5265
 189   2.0000      -0.598952       -16.2983
 190   2.0000      -0.592349       -16.1186
 191   2.0000      -0.589792       -16.0490
 192   2.0000      -0.583306       -15.8726
 193   2.0000      -0.583140       -15.8681
 194   2.0000      -0.580695       -15.8015
 195   2.0000      -0.575309       -15.6549
 196   2.0000      -0.565122       -15.3777
 197   2.0000      -0.562817       -15.3150
 198   2.0000      -0.561484       -15.2788
 199   2.0000      -0.551139       -14.9973
 200   2.0000      -0.550392       -14.9769
 201   2.0000      -0.548770       -14.9328
 202   2.0000      -0.548111       -14.9149
 203   2.0000      -0.543618       -14.7926
 204   2.0000      -0.538302       -14.6479
 205   2.0000      -0.538091       -14.6422
 206   2.0000      -0.536228       -14.5915
 207   2.0000      -0.534666       -14.5490
 208   2.0000      -0.533345       -14.5130
 209   2.0000      -0.531246       -14.4559
 210   2.0000      -0.528842       -14.3905
 211   2.0000      -0.526289       -14.3211
 212   2.0000      -0.523420       -14.2430
 213   2.0000      -0.522191       -14.2095
 214   2.0000      -0.516107       -14.0440
 215   2.0000      -0.514205       -13.9922
 216   2.0000      -0.509103       -13.8534
 217   2.0000      -0.508360       -13.8332
 218   2.0000      -0.507390       -13.8068
 219   2.0000      -0.506259       -13.7760
 220   2.0000      -0.505111       -13.7448
 221   2.0000      -0.503870       -13.7110
 222   2.0000      -0.503225       -13.6935
 223   2.0000      -0.496755       -13.5174
 224   2.0000      -0.496228       -13.5030
 225   2.0000      -0.495182       -13.4746
 226   2.0000      -0.492715       -13.4074
 227   2.0000      -0.490913       -13.3584
 228   2.0000      -0.487051       -13.2533
 229   2.0000      -0.485668       -13.2157
 230   2.0000      -0.482533       -13.1304
 231   2.0000      -0.478565       -13.0224
 232   2.0000      -0.476211       -12.9584
 233   2.0000      -0.472932       -12.8691
 234   2.0000      -0.467716       -12.7272
 235   2.0000      -0.466317       -12.6891
 236   2.0000      -0.462936       -12.5971
 237   2.0000      -0.462668       -12.5898
 238   2.0000      -0.462474       -12.5846
 239   2.0000      -0.460587       -12.5332
 240   2.0000      -0.458932       -12.4882
 241   2.0000      -0.457833       -12.4583
 242   2.0000      -0.455744       -12.4014
 243   2.0000      -0.453716       -12.3462
 244   2.0000      -0.452636       -12.3168
 245   2.0000      -0.451186       -12.2774
 246   2.0000      -0.450280       -12.2527
 247   2.0000      -0.449548       -12.2328
 248   2.0000      -0.449179       -12.2228
 249   2.0000      -0.447141       -12.1673
 250   2.0000      -0.441990       -12.0272
 251   2.0000      -0.441733       -12.0202
 252   2.0000      -0.441233       -12.0066
 253   2.0000      -0.440955       -11.9990
 254   2.0000      -0.440207       -11.9787
 255   2.0000      -0.439555       -11.9609
 256   2.0000      -0.437929       -11.9167
 257   2.0000      -0.433574       -11.7981
 258   2.0000      -0.431939       -11.7537
 259   2.0000      -0.429231       -11.6800
 260   2.0000      -0.428601       -11.6628
 261   2.0000      -0.427685       -11.6379
 262   2.0000      -0.425827       -11.5873
 263   2.0000      -0.425688       -11.5836
 264   2.0000      -0.424542       -11.5524
 265   2.0000      -0.419452       -11.4139
 266   2.0000      -0.417827       -11.3697
 267   2.0000      -0.416482       -11.3330
 268   2.0000      -0.409928       -11.1547
 269   2.0000      -0.409329       -11.1384
 270   2.0000      -0.407732       -11.0950
 271   2.0000      -0.407404       -11.0860
 272   2.0000      -0.402633       -10.9562
 273   2.0000      -0.385737       -10.4964
 274   2.0000      -0.382490       -10.4081
 275   2.0000      -0.381455       -10.3799
 276   2.0000      -0.376464       -10.2441
 277   2.0000      -0.371625       -10.1124
 278   2.0000      -0.360372        -9.8062
 279   2.0000      -0.356495        -9.7007
 280   2.0000      -0.349224        -9.5029
 281   2.0000      -0.348926        -9.4948
 282   2.0000      -0.345011        -9.3882
 283   2.0000      -0.343682        -9.3521
 284   2.0000      -0.340119        -9.2551
 285   2.0000      -0.335096        -9.1184
 286   2.0000      -0.324085        -8.8188
 287   2.0000      -0.323290        -8.7972
 288   2.0000      -0.318559        -8.6684
 289   2.0000      -0.313301        -8.5254
 290   2.0000      -0.306545        -8.3415
 291   2.0000      -0.294831        -8.0228
 292   2.0000      -0.277489        -7.5509
 293   2.0000      -0.245202        -6.6723
 294   0.0000      -0.134106        -3.6492
 295   0.0000      -0.107747        -2.9319
 296   0.0000      -0.100701        -2.7402
 297   0.0000      -0.086492        -2.3536
 298   0.0000      -0.085734        -2.3329

MULLIKEN ATOMIC CHARGES
-----------------------
   0 C :   -0.023788
   1 C :    0.041014
   2 C :    0.044507
   3 C :   -0.027954
   4 C :    0.004307
   5 C :    0.006907
   6 C :    0.257617
   7 C :   -0.328963
   8 C :   -0.173782
   9 N :    0.167688
  10 C :   -0.200452
  11 N :    0.169976
  12 C :   -0.134564
  13 C :    0.131252
  14 O :   -0.141617
  15 C :    0.084217
  16 C :   -0.113066
  17 C :   -0.002727
  18 C :   -0.006495
  19 C :   -0.073953
  20 S :    0.215385
  21 C :   -0.076360
  22 C :    0.045245
  23 C :    0.312534
  24 C :   -0.292086
  25 C :   -0.192209
  26 N :    0.183517
  27 C :   -0.186044
  28 N :    0.165839
  29 C :   -0.060761
  30 C :   -0.184456
  31 S :    0.212569
  32 C :    0.199046
  33 C :   -0.065325
  34 C :   -0.056635
  35 N :   -0.060002
  36 C :    0.157796
  37 C :    0.150889
  38 N :    0.005910
  39 F :   -0.125684
  40 F :   -0.130511
  41 C :    0.174837
  42 C :   -0.001612
  43 C :   -0.023011
  44 N :   -0.340749
  45 S :    0.577280
  46 N :   -0.279057
  47 C :   -0.178508
  48 C :   -0.061184
  49 C :    0.040992
  50 C :   -0.069572
  51 S :    0.212881
  52 C :   -0.077391
  53 C :   -0.005451
  54 C :    0.312388
  55 C :   -0.292928
  56 C :   -0.187348
  57 N :    0.168200
  58 C :   -0.185500
  59 N :    0.171983
  60 C :   -0.000121
  61 C :   -0.108828
  62 S :    0.215725
  63 C :    0.077680
  64 C :   -0.134096
  65 C :    0.267223
  66 C :   -0.330569
  67 C :   -0.175192
  68 N :    0.160132
  69 C :   -0.200334
  70 N :    0.167949
  71 C :    0.001043
  72 C :    0.005317
  73 C :    0.131943
  74 O :   -0.146536
  75 C :   -0.071228
  76 C :    0.112565
  77 C :   -0.092427
  78 C :   -0.023195
  79 S :    0.142557
  80 C :   -0.049881
  81 C :    0.023735
  82 H :    0.011027
  83 H :    0.003867
  84 H :    0.001482
  85 H :   -0.002482
  86 H :    0.020918
  87 H :    0.024416
  88 H :    0.023912
  89 H :    0.019822
  90 H :    0.023416
  91 H :    0.020790
  92 H :   -0.010901
  93 H :    0.002382
  94 H :    0.039104
  95 H :   -0.006249
Sum of atomic charges:   -0.0000000

LOEWDIN ATOMIC CHARGES
----------------------
   0 C :    0.002120
   1 C :    0.003960
   2 C :   -0.002751
   3 C :    0.014380
   4 C :   -0.046783
   5 C :   -0.010166
   6 C :    0.064827
   7 C :   -0.132715
   8 C :   -0.019653
   9 N :   -0.042867
  10 C :   -0.015519
  11 N :   -0.044737
  12 C :   -0.090269
  13 C :    0.083794
  14 O :   -0.140336
  15 C :    0.040479
  16 C :   -0.180412
  17 C :    0.007100
  18 C :   -0.063026
  19 C :   -0.159327
  20 S :    0.498731
  21 C :   -0.185648
  22 C :   -0.063885
  23 C :    0.081418
  24 C :   -0.098656
  25 C :   -0.019170
  26 N :   -0.026373
  27 C :   -0.012361
  28 N :   -0.035001
  29 C :   -0.012421
  30 C :   -0.158744
  31 S :    0.517374
  32 C :   -0.045569
  33 C :   -0.005607
  34 C :   -0.015158
  35 N :   -0.059412
  36 C :    0.066809
  37 C :    0.063793
  38 N :   -0.027776
  39 F :   -0.015137
  40 F :   -0.020453
  41 C :   -0.040864
  42 C :   -0.038367
  43 C :   -0.046737
  44 N :   -0.306126
  45 S :    0.693649
  46 N :   -0.268983
  47 C :   -0.162713
  48 C :   -0.010964
  49 C :   -0.064864
  50 C :   -0.185077
  51 S :    0.516660
  52 C :   -0.160103
  53 C :   -0.062760
  54 C :    0.082674
  55 C :   -0.100252
  56 C :   -0.013498
  57 N :   -0.034122
  58 C :   -0.016140
  59 N :   -0.032509
  60 C :    0.008257
  61 C :   -0.178840
  62 S :    0.500815
  63 C :    0.038921
  64 C :   -0.088918
  65 C :    0.065522
  66 C :   -0.137605
  67 C :   -0.019337
  68 N :   -0.046289
  69 C :   -0.016084
  70 N :   -0.046965
  71 C :   -0.018908
  72 C :   -0.056310
  73 C :    0.083659
  74 O :   -0.145222
  75 C :    0.024115
  76 C :   -0.035816
  77 C :   -0.144271
  78 C :   -0.008744
  79 S :    0.431997
  80 C :   -0.149722
  81 C :   -0.057856
  82 H :    0.041842
  83 H :    0.037094
  84 H :    0.034959
  85 H :    0.039910
  86 H :    0.045752
  87 H :    0.042226
  88 H :    0.038131
  89 H :    0.038050
  90 H :    0.042452
  91 H :    0.045502
  92 H :    0.040696
  93 H :    0.042443
  94 H :    0.029471
  95 H :    0.035315

  Mayer bond orders larger than 0.100000
B(  0-C ,  1-C ) :   1.3711 B(  0-C ,  5-C ) :   1.3861 B(  0-C , 82-H ) :   0.9869
B(  1-C ,  2-C ) :   1.3814 B(  1-C , 83-H ) :   0.9856 B(  2-C ,  3-C ) :   1.3512
B(  2-C , 84-H ) :   0.9897 B(  3-C ,  4-C ) :   1.3924 B(  3-C , 85-H ) :   1.0062
B(  4-C ,  5-C ) :   1.3298 B(  4-C , 13-C ) :   0.9264 B(  5-C ,  6-C ) :   0.9978
B(  6-C ,  7-C ) :   1.6618 B(  6-C , 12-C ) :   1.0338 B(  7-C ,  8-C ) :   1.1246
B(  7-C , 10-C ) :   1.1700 B(  8-C ,  9-N ) :   3.0025 B( 10-C , 11-N ) :   2.9996
B( 12-C , 13-C ) :   0.9403 B( 12-C , 15-C ) :   1.6772 B( 13-C , 14-O ) :   2.2650
B( 15-C , 16-C ) :   1.1353 B( 15-C , 86-H ) :   0.9286 B( 16-C , 17-C ) :   1.3940
B( 16-C , 20-S ) :   1.0897 B( 17-C , 18-C ) :   1.3625 B( 17-C , 87-H ) :   0.9788
B( 18-C , 19-C ) :   1.4019 B( 18-C , 23-C ) :   0.9973 B( 19-C , 20-S ) :   1.1507
B( 19-C , 21-C ) :   1.2042 B( 21-C , 22-C ) :   1.3977 B( 21-C , 31-S ) :   1.0963
B( 22-C , 23-C ) :   0.9907 B( 22-C , 29-C ) :   1.2768 B( 23-C , 24-C ) :   1.7143
B( 24-C , 25-C ) :   1.1381 B( 24-C , 27-C ) :   1.1331 B( 25-C , 26-N ) :   2.9932
B( 27-C , 28-N ) :   2.9809 B( 29-C , 30-C ) :   1.4061 B( 29-C , 88-H ) :   0.9873
B( 30-C , 31-S ) :   1.1061 B( 30-C , 32-C ) :   1.1847 B( 32-C , 33-C ) :   1.2970
B( 32-C , 41-C ) :   0.1284 B( 32-C , 43-C ) :   1.1875 B( 33-C , 34-C ) :   1.1179
B( 33-C , 38-N ) :   1.4384 B( 34-C , 35-N ) :   1.3730 B( 34-C , 41-C ) :   1.2909
B( 35-N , 36-C ) :   1.6503 B( 36-C , 37-C ) :   1.1039 B( 36-C , 40-F ) :   1.1940
B( 37-C , 38-N ) :   1.6579 B( 37-C , 39-F ) :   1.1884 B( 41-C , 42-C ) :   1.2003
B( 41-C , 47-C ) :   1.1954 B( 42-C , 43-C ) :   1.1146 B( 42-C , 46-N ) :   1.5104
B( 43-C , 44-N ) :   1.4662 B( 44-N , 45-S ) :   1.2709 B( 44-N , 46-N ) :   0.1508
B( 45-S , 46-N ) :   1.2901 B( 47-C , 48-C ) :   1.4151 B( 47-C , 51-S ) :   1.0934
B( 48-C , 49-C ) :   1.2844 B( 48-C , 89-H ) :   0.9816 B( 49-C , 50-C ) :   1.3994
B( 49-C , 54-C ) :   0.9914 B( 50-C , 51-S ) :   1.0875 B( 50-C , 52-C ) :   1.2047
B( 52-C , 53-C ) :   1.4001 B( 52-C , 62-S ) :   1.1511 B( 53-C , 54-C ) :   0.9965
B( 53-C , 60-C ) :   1.3606 B( 54-C , 55-C ) :   1.7121 B( 55-C , 56-C ) :   1.1334
B( 55-C , 58-C ) :   1.1387 B( 56-C , 57-N ) :   2.9833 B( 58-C , 59-N ) :   2.9856
B( 60-C , 61-C ) :   1.3900 B( 60-C , 90-H ) :   0.9798 B( 61-C , 62-S ) :   1.0927
B( 61-C , 63-C ) :   1.1345 B( 63-C , 64-C ) :   1.6780 B( 63-C , 91-H ) :   0.9263
B( 64-C , 65-C ) :   1.0354 B( 64-C , 73-C ) :   0.9405 B( 65-C , 66-C ) :   1.6460
B( 65-C , 71-C ) :   1.0111 B( 66-C , 67-C ) :   1.1275 B( 66-C , 69-C ) :   1.1727
B( 67-C , 68-N ) :   2.9942 B( 69-C , 70-N ) :   2.9951 B( 71-C , 72-C ) :   1.2680
B( 71-C , 78-C ) :   1.4193 B( 72-C , 73-C ) :   0.9254 B( 72-C , 75-C ) :   1.4247
B( 73-C , 74-O ) :   2.2602 B( 75-C , 76-C ) :   1.2524 B( 75-C , 92-H ) :   1.0168
B( 76-C , 77-C ) :   1.3004 B( 76-C , 81-C ) :   1.1719 B( 77-C , 78-C ) :   1.3191
B( 77-C , 79-S ) :   1.0995 B( 78-C , 93-H ) :   0.9862 B( 79-S , 80-C ) :   1.1272
B( 80-C , 81-C ) :   1.6286 B( 80-C , 94-H ) :   0.9686 B( 81-C , 95-H ) :   1.0001

-----------------------------------------------------------------------------
         ABSORPTION SPECTRUM VIA TRANSITION ELECTRIC DIPOLE MOMENTS
-----------------------------------------------------------------------------
State   Energy  Wavelength   fosc         T2         TX        TY        TZ
        (cm-1)    (nm)                  (au**2)     (au)      (au)      (au)
-----------------------------------------------------------------------------
   0    9481.3   1054.7   1.149243159  39.90430   6.23948  -0.13269   0.97752
   1   13430.3    744.6   0.001688229   0.04138  -0.16288  -0.06749   0.10148
   2   14370.3    695.9   0.004113639   0.09424   0.23222  -0.03909   0.19695
   3   17740.5    563.7   0.004207368   0.07808   0.09858  -0.16274   0.20463
   4   20100.7    497.5   0.913698786  14.96469   3.82110  -0.07642   0.59839
   5   20321.7    492.1   0.025113931   0.40685   0.12254   0.62359  -0.05443
   6   22691.7    440.7   0.023313901   0.33824  -0.56452   0.03538  -0.13530
   7   24271.7    412.0   0.018011581   0.24430   0.22031  -0.39775  -0.19382
   8   24632.9    406.0   0.006421608   0.08582  -0.17423   0.23394  -0.02721
   9   25254.2    396.0   0.140722162   1.83444  -1.25395  -0.19112  -0.47489
  10   25982.2    384.9   0.008148354   0.10325   0.11782  -0.11413  -0.27629
  11   26164.9    382.2   0.076217604   0.95898   0.53418   0.23978  -0.78495
  12   26887.6    371.9   0.085683083   1.04910  -1.00028  -0.06654  -0.21005
  13   26913.9    371.6   0.009531080   0.11658   0.28752  -0.04911  -0.17750
  14   27578.8    362.6   0.180387804   2.15331  -1.44203   0.18179  -0.20204
  15   27869.7    358.8   0.285711630   3.37498  -1.80526   0.15891   0.30129
  16   27974.6    357.5   0.022290940   0.26233   0.28412   0.40667   0.12738
  17   28878.5    346.3   0.045093479   0.51406  -0.41365  -0.43588  -0.39110
  18   29326.2    341.0   0.029400844   0.33005   0.26445   0.44370  -0.25149
  19   29444.0    339.6   0.034617495   0.38706   0.47167   0.37661   0.15084
  20   29803.8    335.5   0.120789629   1.33424  -0.85232  -0.04729   0.77817
  21   30000.5    333.3   0.012124188   0.13305  -0.19771  -0.24484  -0.18442
  22   30029.0    333.0   0.139426800   1.52855  -0.89216  -0.53152   0.67089
  23   30191.4    331.2   0.422613372   4.60825   1.74323   0.36513   1.19836
  24   30362.3    329.4   0.124254032   1.34726  -1.15537  -0.01300   0.11055
  25   30600.0    326.8   0.071283258   0.76691  -0.64660  -0.04689   0.58874
  26   30717.0    325.6   0.015128851   0.16214  -0.27040   0.02377   0.29743
  27   31281.3    319.7   0.120917173   1.27256  -0.50713   0.28123  -0.96762
  28   31373.2    318.7   0.263227150   2.76215  -1.08956   0.25164  -1.22951
  29   31700.2    315.5   0.008205720   0.08522  -0.12909  -0.03819   0.25902
  30   31772.1    314.7   0.656451822   6.80193  -1.94588   0.45815  -1.67499
  31   31977.6    312.7   0.049092051   0.50541   0.69798  -0.07569   0.11183
  32   32324.2    309.4   0.042077614   0.42855   0.54067   0.22607  -0.29175
  33   32495.0    307.7   0.018966446   0.19215   0.30789  -0.11890   0.28848
  34   32659.9    306.2   0.096747605   0.97522   0.50837  -0.40268  -0.74474
  35   32922.1    303.7   0.091749189   0.91747   0.70254  -0.23749  -0.60623
  36   33189.0    301.3   0.144677777   1.43510  -0.91616  -0.67736   0.37005
  37   33394.3    299.5   0.044709532   0.44076   0.15568  -0.11186  -0.63562
  38   33866.6    295.3   0.021229163   0.20637   0.43646  -0.09869   0.07826
  39   34382.2    290.8   0.225145820   2.15579   1.27724   0.72324   0.03703
  40   34430.2    290.4   0.046890827   0.44836   0.62817  -0.16369  -0.16421
  41   34511.1    289.8   0.191626769   1.82798  -0.88775  -0.62338  -0.80702
  42   34585.8    289.1   0.007827332   0.07451  -0.21955   0.12242   0.10639
  43   34739.8    287.9   0.038333003   0.36326  -0.22857  -0.48359   0.27777
  44   34876.3    286.7   0.135512795   1.27916   0.00506   0.19842  -1.11345
  45   35030.0    285.5   0.036240216   0.34059   0.12093   0.14138   0.55315
  46   35433.3    282.2   0.210642862   1.95709  -0.55113   0.48816  -1.18956
  47   35670.9    280.3   0.492676200   4.54698  -1.05653  -0.57668   1.76016
  48   36180.4    276.4   0.018717007   0.17031  -0.20094   0.29621   0.20540
  49   36247.5    275.9   0.246777744   2.24132  -1.09523   0.22604   0.99534
  50   36381.8    274.9   0.151513021   1.37101   0.99589  -0.19351  -0.58461
  51   36737.1    272.2   0.082242319   0.73700   0.72738   0.06438   0.45141
  52   37035.8    270.0   0.038671107   0.34375   0.45106  -0.36637   0.07793
  53   37151.2    269.2   0.065931282   0.58424   0.74056  -0.16211  -0.09764
  54   37411.5    267.3   0.130255436   1.14622  -0.16871   0.04079  -1.05645
  55   37544.6    266.3   0.109504348   0.96020   0.58945  -0.77623   0.10104
  56   37671.6    265.5   0.159901187   1.39738  -1.04576   0.44988   0.31840
  57   37890.3    263.9   0.015900356   0.13815   0.35801  -0.05484   0.08349
  58   37970.5    263.4   0.017993683   0.15601   0.28447  -0.07884   0.26243
  59   38024.4    263.0   0.030924747   0.26774   0.39546  -0.20166   0.26587
  60   38331.2    260.9   0.120924483   1.03857   0.17073   0.28760  -0.96266
  61   38464.6    260.0   0.003424823   0.02931   0.02001  -0.16507   0.04079
  62   38736.2    258.2   0.014037406   0.11930   0.13363  -0.07313   0.30999
  63   39151.7    255.4   0.041648260   0.35020  -0.04518   0.41990  -0.41454
  64   39273.2    254.6   0.175542948   1.47151   0.74419  -0.57203  -0.76842
  65   39392.8    253.9   0.105610266   0.88260   0.14154  -0.65607   0.65737
  66   39523.6    253.0   0.013831426   0.11521   0.01061  -0.02398   0.33841
  67   39623.0    252.4   0.047181900   0.39202  -0.30527  -0.08203  -0.54046
  68   39720.6    251.8   0.013481396   0.11174   0.22694   0.02175  -0.24446
  69   39831.9    251.1   0.030537205   0.25239   0.04644   0.20023   0.45841
  70   40224.7    248.6   0.020279856   0.16598   0.22620  -0.04495   0.33584
  71   40314.3    248.1   0.060800314   0.49650   0.06178   0.06648  -0.69876

FINAL SINGLE POINT ENERGY     -5686.054090049852

DIPOLE MOMENT
-------------
                                X             Y             Z
Electronic contribution:      8.78490      -4.68404      -8.90656
Nuclear contribution   :     -8.26325       7.71164      10.06761
                        -----------------------------------------
Total Dipole Moment    :      0.52164       3.02759       1.16105
                        -----------------------------------------
Magnitude (a.u.)       :      3.28428
Magnitude (Debye)      :      8.34797

Rotational constants in cm-1:     0.002672     0.000162     0.000155
Rotational constants in MHz :    80.104426     4.844514     4.648523

                             ****ORCA TERMINATED NORMALLY****
TOTAL RUN TIME: 0 days 0 hours 11 minutes 45 seconds 690 msec
