                         Program Version 4.2.0 -  RELEASE  -
|  1> # ORCA input file
|  2> # SCF done       -205.466208141560          0.000785118101
|  3> ! CAM-B3LYP def2-SVP def2/J RIJCOSX Grid4 TightSCF
|  4> %maxcore 5000
|  5> %tddft
|  6>     Mode sTDDFT
|  7>     Ethresh 5.0
|  8>     maxcore 5000
|  9> end
| 10>
| 11> %pal
| 12>   nprocs 6
| 13>   end
| 14> * xyz 0 1
| 15>    C       -1.85885         2.45168        -2.91961
| 16>    C       -3.17464         2.86822        -3.07433
| 17>    C       -4.03208         2.98102        -1.98864
| 18>    C       -3.58782         2.69490        -0.70534
| 19>    C       -2.27766         2.28664        -0.54436
| 20>    C       -1.40995         2.14958        -1.64437
| 21>    C       -0.11792         1.65428        -1.17042
| 22>    C        0.79826         0.99634        -1.94725
| 23>    C        0.67439         0.83370        -3.34425
| 24>    N        0.62219         0.66320        -4.47735
| 25>    C        1.92003         0.31211        -1.43972
| 26>    N        2.82954        -0.28372        -1.07080
| 27>    C       -0.13823         1.73351         0.27605
| 28>    C       -1.55507         1.95299         0.69657
| 29>    O       -1.98242         1.90377         1.82608
| 30>    C        0.82926         1.71707         1.23198
| 31>    C        2.22601         1.87181         1.08366
| 32>    C        2.93622         2.44783         0.04012
| 33>    C        4.30726         2.42083         0.25888
| 34>    C        4.65304         1.81698         1.48637
| 35>    S        3.28803         1.31987         2.37320
| 36>    C        6.06101         1.79664         1.59242
| 37>    C        6.61441         2.39234         0.43840
| 38>    C        5.52545         2.76901        -0.45239
| 39>    C        5.61271         3.24881        -1.72498
| 40>    C        6.84168         3.44240        -2.39344
| 41>    N        7.82321         3.57484        -2.96927
| 42>    C        4.45157         3.52812        -2.47805
| 43>    N        3.49778         3.75427        -3.07296
| 44>    C        8.00221         2.43821         0.45935
| 45>    C        8.51511         1.85601         1.61399
| 46>    S        7.25495         1.25920         2.68587
| 47>    C        9.87366         1.71252         1.95043
| 48>    C       10.97565         2.28429         1.29757
| 49>    C       12.23476         1.90645         1.88174
| 50>    N       13.38913         2.29516         1.33570
| 51>    C       13.32012         3.08590         0.28828
| 52>    C       14.60121         3.44369        -0.37674
| 53>    O       15.65813         2.94125        -0.06605
| 54>    C       14.47891         4.42662        -1.46878
| 55>    C       13.31379         4.93182        -1.88638
| 56>    C       12.01007         4.58260        -1.29322
| 57>    O       10.97479         5.10850        -1.63625
| 58>    C       12.06809         3.56064        -0.21431
| 59>    N       10.92303         3.13799         0.27255
| 60>    C       12.09253         1.07371         3.00171
| 61>    S       10.41254         0.75025         3.28983
| 62>    C       13.11770         0.54595         3.80765
| 63>    C       14.46532         0.88941         3.77141
| 64>    C       15.19728         0.18268         4.71663
| 65>    C       14.41229        -0.72316         5.46253
| 66>    S       12.76497        -0.67518         5.02355
| 67>    C       15.24622        -1.40805         6.37317
| 68>    C       16.56532        -0.93412         6.21286
| 69>    C       16.57097         0.10221         5.19423
| 70>    C       17.62656         0.89025         4.84495
| 71>    C       18.89768         0.70594         5.43129
| 72>    N       19.92445         0.53886         5.91350
| 73>    C       17.52016         1.96274         3.93214
| 74>    N       17.44577         2.86022         3.22399
| 75>    C       17.45892        -1.52081         7.09949
| 76>    C       16.84158        -2.43813         7.93764
| 77>    S       15.12458        -2.59344         7.58848
| 78>    C       17.40765        -3.23885         8.95533
| 79>    C       18.57409        -3.06607         9.63308
| 80>    C       19.49849        -1.95867         9.77011
| 81>    C       19.19627        -0.62254         9.70980
| 82>    C       20.11912         0.40600         9.99581
| 83>    N       20.82578         1.28088        10.22310
| 84>    C       17.90720        -0.11368         9.46277
| 85>    N       16.86838         0.34745         9.29730
| 86>    C       20.75520        -2.50679        10.26802
| 87>    C       20.54328        -3.85463        10.66016
| 88>    C       19.15409        -4.23515        10.35966
| 89>    O       18.59276        -5.27969        10.59783
| 90>    C       21.53701        -4.62394        11.21669
| 91>    C       22.79748        -4.04239        11.38261
| 92>    C       23.00322        -2.70323        10.96884
| 93>    C       21.99741        -1.92108        10.41289
| 94>    S       24.63771        -2.20055        11.25732
| 95>    C       25.02307        -3.74997        11.92182
| 96>    C       23.98250        -4.61164        11.92782
| 97>    H       -1.20825         2.38205        -3.77632
| 98>    H       -3.53535         3.10809        -4.06314
| 99>    H       -5.05197         3.29839        -2.14475
|100>    H       -4.23658         2.78343         0.15236
|101>    H        0.46209         1.62470         2.24998
|102>    H        2.46011         2.89819        -0.81172
|103>    H        8.63979         2.86498        -0.29418
|104>    H       15.41452         4.71429        -1.92914
|105>    H       13.26858         5.64860        -2.69522
|106>    H       14.84958         1.61262         3.07442
|107>    H       18.51675        -1.33169         7.11914
|108>    H       16.87090        -4.15057         9.20143
|109>    H       21.34621        -5.64292        11.51560
|110>    H       22.20089        -0.90929        10.10324
|111>    H       26.02200        -3.92319        12.27229
|112>    H       24.03564        -5.61803        12.30174
|113> *
|114>
|115>                          ****END OF INPUT****

CARTESIAN COORDINATES (ANGSTROEM)
---------------------------------
  C     -1.858850    2.451680   -2.919610
  C     -3.174640    2.868220   -3.074330
  C     -4.032080    2.981020   -1.988640
  C     -3.587820    2.694900   -0.705340
  C     -2.277660    2.286640   -0.544360
  C     -1.409950    2.149580   -1.644370
  C     -0.117920    1.654280   -1.170420
  C      0.798260    0.996340   -1.947250
  C      0.674390    0.833700   -3.344250
  N      0.622190    0.663200   -4.477350
  C      1.920030    0.312110   -1.439720
  N      2.829540   -0.283720   -1.070800
  C     -0.138230    1.733510    0.276050
  C     -1.555070    1.952990    0.696570
  O     -1.982420    1.903770    1.826080
  C      0.829260    1.717070    1.231980
  C      2.226010    1.871810    1.083660
  C      2.936220    2.447830    0.040120
  C      4.307260    2.420830    0.258880
  C      4.653040    1.816980    1.486370
  S      3.288030    1.319870    2.373200
  C      6.061010    1.796640    1.592420
  C      6.614410    2.392340    0.438400
  C      5.525450    2.769010   -0.452390
  C      5.612710    3.248810   -1.724980
  C      6.841680    3.442400   -2.393440
  N      7.823210    3.574840   -2.969270
  C      4.451570    3.528120   -2.478050
  N      3.497780    3.754270   -3.072960
  C      8.002210    2.438210    0.459350
  C      8.515110    1.856010    1.613990
  S      7.254950    1.259200    2.685870
  C      9.873660    1.712520    1.950430
  C     10.975650    2.284290    1.297570
  C     12.234760    1.906450    1.881740
  N     13.389130    2.295160    1.335700
  C     13.320120    3.085900    0.288280
  C     14.601210    3.443690   -0.376740
  O     15.658130    2.941250   -0.066050
  C     14.478910    4.426620   -1.468780
  C     13.313790    4.931820   -1.886380
  C     12.010070    4.582600   -1.293220
  O     10.974790    5.108500   -1.636250
  C     12.068090    3.560640   -0.214310
  N     10.923030    3.137990    0.272550
  C     12.092530    1.073710    3.001710
  S     10.412540    0.750250    3.289830
  C     13.117700    0.545950    3.807650
  C     14.465320    0.889410    3.771410
  C     15.197280    0.182680    4.716630
  C     14.412290   -0.723160    5.462530
  S     12.764970   -0.675180    5.023550
  C     15.246220   -1.408050    6.373170
  C     16.565320   -0.934120    6.212860
  C     16.570970    0.102210    5.194230
  C     17.626560    0.890250    4.844950
  C     18.897680    0.705940    5.431290
  N     19.924450    0.538860    5.913500
  C     17.520160    1.962740    3.932140
  N     17.445770    2.860220    3.223990
  C     17.458920   -1.520810    7.099490
  C     16.841580   -2.438130    7.937640
  S     15.124580   -2.593440    7.588480
  C     17.407650   -3.238850    8.955330
  C     18.574090   -3.066070    9.633080
  C     19.498490   -1.958670    9.770110
  C     19.196270   -0.622540    9.709800
  C     20.119120    0.406000    9.995810
  N     20.825780    1.280880   10.223100
  C     17.907200   -0.113680    9.462770
  N     16.868380    0.347450    9.297300
  C     20.755200   -2.506790   10.268020
  C     20.543280   -3.854630   10.660160
  C     19.154090   -4.235150   10.359660
  O     18.592760   -5.279690   10.597830
  C     21.537010   -4.623940   11.216690
  C     22.797480   -4.042390   11.382610
  C     23.003220   -2.703230   10.968840
  C     21.997410   -1.921080   10.412890
  S     24.637710   -2.200550   11.257320
  C     25.023070   -3.749970   11.921820
  C     23.982500   -4.611640   11.927820
  H     -1.208250    2.382050   -3.776320
  H     -3.535350    3.108090   -4.063140
  H     -5.051970    3.298390   -2.144750
  H     -4.236580    2.783430    0.152360
  H      0.462090    1.624700    2.249980
  H      2.460110    2.898190   -0.811720
  H      8.639790    2.864980   -0.294180
  H     15.414520    4.714290   -1.929140
  H     13.268580    5.648600   -2.695220
  H     14.849580    1.612620    3.074420
  H     18.516750   -1.331690    7.119140
  H     16.870900   -4.150570    9.201430
  H     21.346210   -5.642920   11.515600
  H     22.200890   -0.909290   10.103240
  H     26.022000   -3.923190   12.272290
  H     24.035640   -5.618030   12.301740

 Total Charge           Charge          ....    0
 Multiplicity           Mult            ....    1
 Number of Electrons    NEL             ....  586
 Basis Dimension        Dim             .... 1252

ORBITAL ENERGIES
----------------

  NO   OCC          E(Eh)            E(eV)
   0   2.0000     -89.009090     -2422.0605
   1   2.0000     -89.000148     -2421.8172
   2   2.0000     -89.000141     -2421.8170
   3   2.0000     -88.997788     -2421.7529
   4   2.0000     -88.997412     -2421.7427
   5   2.0000     -88.966927     -2420.9132
   6   2.0000     -19.229061      -523.2493
   7   2.0000     -19.228974      -523.2470
   8   2.0000     -19.219182      -522.9805
   9   2.0000     -19.216111      -522.8970
  10   2.0000     -14.455463      -393.3532
  11   2.0000     -14.455323      -393.3493
  12   2.0000     -14.434519      -392.7832
  13   2.0000     -14.433805      -392.7638
  14   2.0000     -14.429319      -392.6417
  15   2.0000     -14.428788      -392.6273
  16   2.0000     -14.420710      -392.4075
  17   2.0000     -14.418500      -392.3473
  18   2.0000     -14.415091      -392.2546
  19   2.0000     -14.413876      -392.2215
  20   2.0000     -10.377960      -282.3987
  21   2.0000     -10.377822      -282.3949
  22   2.0000     -10.369715      -282.1743
  23   2.0000     -10.369649      -282.1725
  24   2.0000     -10.369163      -282.1593
  25   2.0000     -10.367149      -282.1045
  26   2.0000     -10.355587      -281.7898
  27   2.0000     -10.355140      -281.7777
  28   2.0000     -10.347455      -281.5686
  29   2.0000     -10.347046      -281.5574
  30   2.0000     -10.346740      -281.5491
  31   2.0000     -10.346067      -281.5308
  32   2.0000     -10.345727      -281.5215
  33   2.0000     -10.345531      -281.5162
  34   2.0000     -10.345136      -281.5055
  35   2.0000     -10.344599      -281.4909
  36   2.0000     -10.344291      -281.4825
  37   2.0000     -10.343924      -281.4725
  38   2.0000     -10.343087      -281.4497
  39   2.0000     -10.342814      -281.4423
  40   2.0000     -10.341029      -281.3937
  41   2.0000     -10.340929      -281.3910
  42   2.0000     -10.340825      -281.3882
  43   2.0000     -10.340699      -281.3847
  44   2.0000     -10.334477      -281.2154
  45   2.0000     -10.333758      -281.1958
  46   2.0000     -10.330273      -281.1010
  47   2.0000     -10.329658      -281.0843
  48   2.0000     -10.328196      -281.0445
  49   2.0000     -10.327659      -281.0299
  50   2.0000     -10.326767      -281.0056
  51   2.0000     -10.325369      -280.9676
  52   2.0000     -10.321991      -280.8757
  53   2.0000     -10.321217      -280.8546
  54   2.0000     -10.320026      -280.8222
  55   2.0000     -10.317346      -280.7492
  56   2.0000     -10.316287      -280.7204
  57   2.0000     -10.314365      -280.6682
  58   2.0000     -10.314174      -280.6629
  59   2.0000     -10.313658      -280.6489
  60   2.0000     -10.313427      -280.6426
  61   2.0000     -10.313184      -280.6360
  62   2.0000     -10.310334      -280.5585
  63   2.0000     -10.310266      -280.5566
  64   2.0000     -10.309777      -280.5433
  65   2.0000     -10.309570      -280.5377
  66   2.0000     -10.308695      -280.5138
  67   2.0000     -10.307684      -280.4863
  68   2.0000     -10.306486      -280.4537
  69   2.0000     -10.306389      -280.4511
  70   2.0000     -10.303621      -280.3758
  71   2.0000     -10.302880      -280.3556
  72   2.0000     -10.302064      -280.3334
  73   2.0000     -10.301746      -280.3248
  74   2.0000     -10.300099      -280.2799
  75   2.0000     -10.297123      -280.1990
  76   2.0000     -10.296517      -280.1825
  77   2.0000     -10.296129      -280.1719
  78   2.0000     -10.295715      -280.1606
  79   2.0000     -10.294404      -280.1250
  80   2.0000     -10.291902      -280.0569
  81   2.0000     -10.289178      -279.9828
  82   2.0000      -8.103914      -220.5187
  83   2.0000      -8.095117      -220.2793
  84   2.0000      -8.095001      -220.2762
  85   2.0000      -8.092654      -220.2123
  86   2.0000      -8.092086      -220.1969
  87   2.0000      -8.063127      -219.4088
  88   2.0000      -6.072976      -165.2541
  89   2.0000      -6.068863      -165.1422
  90   2.0000      -6.066562      -165.0796
  91   2.0000      -6.064411      -165.0210
  92   2.0000      -6.064302      -165.0181
  93   2.0000      -6.061846      -164.9512
  94   2.0000      -6.061290      -164.9361
  95   2.0000      -6.060260      -164.9081
  96   2.0000      -6.060134      -164.9046
  97   2.0000      -6.057659      -164.8373
  98   2.0000      -6.057294      -164.8273
  99   2.0000      -6.057213      -164.8252
 100   2.0000      -6.057097      -164.8220
 101   2.0000      -6.055066      -164.7667
 102   2.0000      -6.054554      -164.7528
 103   2.0000      -6.032657      -164.1570
 104   2.0000      -6.028313      -164.0387
 105   2.0000      -6.024826      -163.9439
 106   2.0000      -1.146999       -31.2114
 107   2.0000      -1.142139       -31.0792
 108   2.0000      -1.134544       -30.8725
 109   2.0000      -1.131575       -30.7917
 110   2.0000      -1.107299       -30.1311
 111   2.0000      -1.053034       -28.6545
 112   2.0000      -1.052516       -28.6404
 113   2.0000      -1.034192       -28.1418
 114   2.0000      -1.026473       -27.9317
 115   2.0000      -1.024484       -27.8776
 116   2.0000      -1.023305       -27.8455
 117   2.0000      -1.021799       -27.8046
 118   2.0000      -1.019608       -27.7449
 119   2.0000      -1.009687       -27.4750
 120   2.0000      -1.008728       -27.4489
 121   2.0000      -1.008016       -27.4295
 122   2.0000      -1.006105       -27.3775
 123   2.0000      -0.999846       -27.2072
 124   2.0000      -0.998502       -27.1706
 125   2.0000      -0.994294       -27.0561
 126   2.0000      -0.993659       -27.0388
 127   2.0000      -0.985773       -26.8243
 128   2.0000      -0.967281       -26.3210
 129   2.0000      -0.962825       -26.1998
 130   2.0000      -0.950670       -25.8690
 131   2.0000      -0.941865       -25.6295
 132   2.0000      -0.933731       -25.4081
 133   2.0000      -0.926615       -25.2145
 134   2.0000      -0.920495       -25.0479
 135   2.0000      -0.905641       -24.6437
 136   2.0000      -0.901554       -24.5325
 137   2.0000      -0.889706       -24.2101
 138   2.0000      -0.885220       -24.0881
 139   2.0000      -0.882185       -24.0055
 140   2.0000      -0.881911       -23.9980
 141   2.0000      -0.877606       -23.8809
 142   2.0000      -0.870134       -23.6775
 143   2.0000      -0.864543       -23.5254
 144   2.0000      -0.862507       -23.4700
 145   2.0000      -0.861493       -23.4424
 146   2.0000      -0.855860       -23.2891
 147   2.0000      -0.823878       -22.4189
 148   2.0000      -0.822235       -22.3741
 149   2.0000      -0.810249       -22.0480
 150   2.0000      -0.801722       -21.8160
 151   2.0000      -0.798828       -21.7372
 152   2.0000      -0.792837       -21.5742
 153   2.0000      -0.782759       -21.3000
 154   2.0000      -0.780084       -21.2272
 155   2.0000      -0.772392       -21.0179
 156   2.0000      -0.765758       -20.8373
 157   2.0000      -0.758455       -20.6386
 158   2.0000      -0.746769       -20.3206
 159   2.0000      -0.739650       -20.1269
 160   2.0000      -0.719946       -19.5907
 161   2.0000      -0.714466       -19.4416
 162   2.0000      -0.705521       -19.1982
 163   2.0000      -0.703113       -19.1327
 164   2.0000      -0.698235       -18.9999
 165   2.0000      -0.693314       -18.8660
 166   2.0000      -0.690405       -18.7869
 167   2.0000      -0.687044       -18.6954
 168   2.0000      -0.683942       -18.6110
 169   2.0000      -0.681934       -18.5564
 170   2.0000      -0.680741       -18.5239
 171   2.0000      -0.672969       -18.3124
 172   2.0000      -0.669191       -18.2096
 173   2.0000      -0.662137       -18.0177
 174   2.0000      -0.655253       -17.8303
 175   2.0000      -0.649604       -17.6766
 176   2.0000      -0.640206       -17.4209
 177   2.0000      -0.637507       -17.3474
 178   2.0000      -0.630128       -17.1467
 179   2.0000      -0.628688       -17.1075
 180   2.0000      -0.622130       -16.9290
 181   2.0000      -0.621465       -16.9109
 182   2.0000      -0.620536       -16.8856
 183   2.0000      -0.618410       -16.8278
 184   2.0000      -0.610404       -16.6099
 185   2.0000      -0.603720       -16.4281
 186   2.0000      -0.600270       -16.3342
 187   2.0000      -0.597379       -16.2555
 188   2.0000      -0.590834       -16.0774
 189   2.0000      -0.584817       -15.9137
 190   2.0000      -0.579340       -15.7646
 191   2.0000      -0.573636       -15.6094
 192   2.0000      -0.567701       -15.4479
 193   2.0000      -0.567202       -15.4344
 194   2.0000      -0.561484       -15.2788
 195   2.0000      -0.557214       -15.1626
 196   2.0000      -0.554189       -15.0802
 197   2.0000      -0.553791       -15.0694
 198   2.0000      -0.550194       -14.9715
 199   2.0000      -0.548895       -14.9362
 200   2.0000      -0.542080       -14.7507
 201   2.0000      -0.539018       -14.6674
 202   2.0000      -0.538941       -14.6653
 203   2.0000      -0.536559       -14.6005
 204   2.0000      -0.533594       -14.5198
 205   2.0000      -0.531133       -14.4529
 206   2.0000      -0.529326       -14.4037
 207   2.0000      -0.527843       -14.3633
 208   2.0000      -0.525528       -14.3004
 209   2.0000      -0.525181       -14.2909
 210   2.0000      -0.518035       -14.0964
 211   2.0000      -0.514795       -14.0083
 212   2.0000      -0.511361       -13.9148
 213   2.0000      -0.510388       -13.8884
 214   2.0000      -0.509189       -13.8557
 215   2.0000      -0.508417       -13.8347
 216   2.0000      -0.507328       -13.8051
 217   2.0000      -0.506102       -13.7717
 218   2.0000      -0.505251       -13.7486
 219   2.0000      -0.502452       -13.6724
 220   2.0000      -0.500041       -13.6068
 221   2.0000      -0.498672       -13.5696
 222   2.0000      -0.497800       -13.5458
 223   2.0000      -0.493799       -13.4369
 224   2.0000      -0.493015       -13.4156
 225   2.0000      -0.491130       -13.3643
 226   2.0000      -0.488418       -13.2905
 227   2.0000      -0.487128       -13.2554
 228   2.0000      -0.485077       -13.1996
 229   2.0000      -0.483874       -13.1669
 230   2.0000      -0.477500       -12.9934
 231   2.0000      -0.476780       -12.9738
 232   2.0000      -0.468585       -12.7509
 233   2.0000      -0.465011       -12.6536
 234   2.0000      -0.463941       -12.6245
 235   2.0000      -0.463118       -12.6021
 236   2.0000      -0.462580       -12.5875
 237   2.0000      -0.460139       -12.5210
 238   2.0000      -0.459033       -12.4909
 239   2.0000      -0.457980       -12.4623
 240   2.0000      -0.457433       -12.4474
 241   2.0000      -0.456030       -12.4092
 242   2.0000      -0.453904       -12.3513
 243   2.0000      -0.452478       -12.3126
 244   2.0000      -0.452131       -12.3031
 245   2.0000      -0.450761       -12.2658
 246   2.0000      -0.449818       -12.2402
 247   2.0000      -0.448861       -12.2141
 248   2.0000      -0.443423       -12.0662
 249   2.0000      -0.442895       -12.0518
 250   2.0000      -0.442313       -12.0360
 251   2.0000      -0.441005       -12.0004
 252   2.0000      -0.440543       -11.9878
 253   2.0000      -0.440106       -11.9759
 254   2.0000      -0.439591       -11.9619
 255   2.0000      -0.434767       -11.8306
 256   2.0000      -0.433469       -11.7953
 257   2.0000      -0.430475       -11.7138
 258   2.0000      -0.429392       -11.6843
 259   2.0000      -0.428019       -11.6470
 260   2.0000      -0.427634       -11.6365
 261   2.0000      -0.426952       -11.6179
 262   2.0000      -0.426753       -11.6125
 263   2.0000      -0.423440       -11.5224
 264   2.0000      -0.420330       -11.4378
 265   2.0000      -0.413582       -11.2541
 266   2.0000      -0.411748       -11.2042
 267   2.0000      -0.410767       -11.1775
 268   2.0000      -0.410388       -11.1672
 269   2.0000      -0.404391       -11.0040
 270   2.0000      -0.390696       -10.6314
 271   2.0000      -0.383676       -10.4404
 272   2.0000      -0.375141       -10.2081
 273   2.0000      -0.374032       -10.1779
 274   2.0000      -0.368122       -10.0171
 275   2.0000      -0.363944        -9.9034
 276   2.0000      -0.359392        -9.7796
 277   2.0000      -0.355241        -9.6666
 278   2.0000      -0.352651        -9.5961
 279   2.0000      -0.348467        -9.4823
 280   2.0000      -0.346991        -9.4421
 281   2.0000      -0.344942        -9.3864
 282   2.0000      -0.341537        -9.2937
 283   2.0000      -0.341168        -9.2837
 284   2.0000      -0.336669        -9.1612
 285   2.0000      -0.327681        -8.9167
 286   2.0000      -0.326408        -8.8820
 287   2.0000      -0.320038        -8.7087
 288   2.0000      -0.314287        -8.5522
 289   2.0000      -0.307140        -8.3577
 290   2.0000      -0.295597        -8.0436
 291   2.0000      -0.279348        -7.6014
 292   2.0000      -0.243475        -6.6253
 293   0.0000      -0.126208        -3.4343
 294   0.0000      -0.110431        -3.0050
 295   0.0000      -0.095418        -2.5965
 296   0.0000      -0.090310        -2.4575
 297   0.0000      -0.086622        -2.3571

MULLIKEN ATOMIC CHARGES
-----------------------
   0 C :   -0.023375
   1 C :    0.041633
   2 C :    0.044000
   3 C :   -0.028474
   4 C :    0.003660
   5 C :    0.004626
   6 C :    0.264489
   7 C :   -0.324298
   8 C :   -0.174375
   9 N :    0.163368
  10 C :   -0.196230
  11 N :    0.164502
  12 C :   -0.131992
  13 C :    0.132158
  14 O :   -0.142582
  15 C :    0.079386
  16 C :   -0.112164
  17 C :   -0.007524
  18 C :   -0.001294
  19 C :   -0.069712
  20 S :    0.211939
  21 C :   -0.098345
  22 C :    0.027802
  23 C :    0.308143
  24 C :   -0.283822
  25 C :   -0.191894
  26 N :    0.198090
  27 C :   -0.184306
  28 N :    0.168136
  29 C :   -0.051362
  30 C :   -0.087465
  31 S :    0.184062
  32 C :   -0.118025
  33 C :    0.026274
  34 C :    0.024863
  35 N :    0.064192
  36 C :   -0.116681
  37 C :    0.141371
  38 O :   -0.095364
  39 C :   -0.008216
  40 C :   -0.014813
  41 C :    0.142926
  42 O :   -0.095314
  43 C :   -0.117357
  44 N :    0.065757
  45 C :   -0.116906
  46 S :    0.202575
  47 C :   -0.088420
  48 C :   -0.051392
  49 C :    0.031583
  50 C :   -0.097315
  51 S :    0.183485
  52 C :   -0.070733
  53 C :   -0.001222
  54 C :    0.303787
  55 C :   -0.283693
  56 C :   -0.184074
  57 N :    0.169450
  58 C :   -0.193115
  59 N :    0.197965
  60 C :   -0.004966
  61 C :   -0.111003
  62 S :    0.212129
  63 C :    0.077283
  64 C :   -0.129097
  65 C :    0.268056
  66 C :   -0.333703
  67 C :   -0.173417
  68 N :    0.160155
  69 C :   -0.196468
  70 N :    0.164447
  71 C :   -0.002615
  72 C :    0.007400
  73 C :    0.128094
  74 O :   -0.145834
  75 C :   -0.066532
  76 C :    0.106451
  77 C :   -0.093450
  78 C :   -0.018692
  79 S :    0.143880
  80 C :   -0.050414
  81 C :    0.029903
  82 H :    0.011857
  83 H :    0.003926
  84 H :    0.002302
  85 H :   -0.000778
  86 H :    0.022463
  87 H :    0.024621
  88 H :    0.030365
  89 H :    0.021829
  90 H :    0.023488
  91 H :    0.031025
  92 H :    0.024872
  93 H :    0.021540
  94 H :   -0.011271
  95 H :    0.001962
  96 H :    0.038738
  97 H :   -0.006917
Sum of atomic charges:    0.0000000

LOEWDIN ATOMIC CHARGES
----------------------
   0 C :    0.001989
   1 C :    0.004375
   2 C :   -0.002286
   3 C :    0.014492
   4 C :   -0.046733
   5 C :   -0.010289
   6 C :    0.065576
   7 C :   -0.132284
   8 C :   -0.019573
   9 N :   -0.042547
  10 C :   -0.014448
  11 N :   -0.046449
  12 C :   -0.089825
  13 C :    0.084081
  14 O :   -0.140090
  15 C :    0.039860
  16 C :   -0.180385
  17 C :    0.006572
  18 C :   -0.063038
  19 C :   -0.161256
  20 S :    0.496081
  21 C :   -0.181645
  22 C :   -0.054282
  23 C :    0.078106
  24 C :   -0.088558
  25 C :   -0.022738
  26 N :   -0.012093
  27 C :   -0.011011
  28 N :   -0.031482
  29 C :   -0.006747
  30 C :   -0.177514
  31 S :    0.466151
  32 C :   -0.192446
  33 C :   -0.041572
  34 C :   -0.041924
  35 N :    0.008236
  36 C :   -0.036278
  37 C :    0.055440
  38 O :   -0.089842
  39 C :   -0.010971
  40 C :   -0.011486
  41 C :    0.055579
  42 O :   -0.089936
  43 C :   -0.036086
  44 N :    0.008009
  45 C :   -0.191078
  46 S :    0.492151
  47 C :   -0.178573
  48 C :   -0.006067
  49 C :   -0.054739
  50 C :   -0.180460
  51 S :    0.466209
  52 C :   -0.162491
  53 C :   -0.062575
  54 C :    0.078024
  55 C :   -0.088464
  56 C :   -0.011306
  57 N :   -0.031089
  58 C :   -0.022774
  59 N :   -0.012275
  60 C :    0.006653
  61 C :   -0.179202
  62 S :    0.496392
  63 C :    0.039003
  64 C :   -0.088204
  65 C :    0.066136
  66 C :   -0.136837
  67 C :   -0.019169
  68 N :   -0.045600
  69 C :   -0.014821
  70 N :   -0.049183
  71 C :   -0.019195
  72 C :   -0.056336
  73 C :    0.083335
  74 O :   -0.144899
  75 C :    0.024539
  76 C :   -0.035684
  77 C :   -0.143998
  78 C :   -0.008235
  79 S :    0.432771
  80 C :   -0.149128
  81 C :   -0.057623
  82 H :    0.041957
  83 H :    0.037175
  84 H :    0.035204
  85 H :    0.040347
  86 H :    0.045926
  87 H :    0.042693
  88 H :    0.045773
  89 H :    0.047201
  90 H :    0.047409
  91 H :    0.045880
  92 H :    0.042830
  93 H :    0.045588
  94 H :    0.040746
  95 H :    0.042438
  96 H :    0.029532
  97 H :    0.035364

  Mayer bond orders larger than 0.100000
B(  0-C ,  1-C ) :   1.3717 B(  0-C ,  5-C ) :   1.3845 B(  0-C , 82-H ) :   0.9865
B(  1-C ,  2-C ) :   1.3813 B(  1-C , 83-H ) :   0.9858 B(  2-C ,  3-C ) :   1.3503
B(  2-C , 84-H ) :   0.9900 B(  3-C ,  4-C ) :   1.3904 B(  3-C , 85-H ) :   1.0068
B(  4-C ,  5-C ) :   1.3318 B(  4-C , 13-C ) :   0.9284 B(  5-C ,  6-C ) :   0.9994
B(  6-C ,  7-C ) :   1.6597 B(  6-C , 12-C ) :   1.0330 B(  7-C ,  8-C ) :   1.1231
B(  7-C , 10-C ) :   1.1679 B(  8-C ,  9-N ) :   3.0005 B( 10-C , 11-N ) :   2.9975
B( 12-C , 13-C ) :   0.9398 B( 12-C , 15-C ) :   1.6812 B( 13-C , 14-O ) :   2.2618
B( 15-C , 16-C ) :   1.1266 B( 15-C , 86-H ) :   0.9285 B( 16-C , 17-C ) :   1.4023
B( 16-C , 20-S ) :   1.0881 B( 17-C , 18-C ) :   1.3530 B( 17-C , 87-H ) :   0.9817
B( 18-C , 19-C ) :   1.4062 B( 18-C , 23-C ) :   1.0004 B( 19-C , 20-S ) :   1.1479
B( 19-C , 21-C ) :   1.2094 B( 21-C , 22-C ) :   1.4203 B( 21-C , 31-S ) :   1.1168
B( 22-C , 23-C ) :   0.9848 B( 22-C , 29-C ) :   1.2813 B( 23-C , 24-C ) :   1.7223
B( 24-C , 25-C ) :   1.1325 B( 24-C , 27-C ) :   1.1363 B( 25-C , 26-N ) :   3.0016
B( 27-C , 28-N ) :   2.9808 B( 29-C , 30-C ) :   1.4493 B( 29-C , 88-H ) :   0.9885
B( 30-C , 31-S ) :   1.0889 B( 30-C , 32-C ) :   1.1885 B( 32-C , 33-C ) :   1.3656
B( 32-C , 45-C ) :   0.1522 B( 32-C , 46-S ) :   1.1524 B( 33-C , 34-C ) :   1.1889
B( 33-C , 44-N ) :   1.4396 B( 34-C , 35-N ) :   1.4405 B( 34-C , 45-C ) :   1.3647
B( 35-N , 36-C ) :   1.7157 B( 36-C , 37-C ) :   0.8875 B( 36-C , 43-C ) :   1.0932
B( 37-C , 38-O ) :   2.2441 B( 37-C , 39-C ) :   1.0238 B( 39-C , 40-C ) :   1.6864
B( 39-C , 89-H ) :   0.9951 B( 40-C , 41-C ) :   1.0228 B( 40-C , 90-H ) :   0.9957
B( 41-C , 42-O ) :   2.2446 B( 41-C , 43-C ) :   0.8878 B( 43-C , 44-N ) :   1.7163
B( 45-C , 46-S ) :   1.1546 B( 45-C , 47-C ) :   1.1894 B( 47-C , 48-C ) :   1.4466
B( 47-C , 51-S ) :   1.0879 B( 48-C , 49-C ) :   1.2796 B( 48-C , 91-H ) :   0.9899
B( 49-C , 50-C ) :   1.4200 B( 49-C , 54-C ) :   0.9846 B( 50-C , 51-S ) :   1.1174
B( 50-C , 52-C ) :   1.2101 B( 52-C , 53-C ) :   1.4069 B( 52-C , 62-S ) :   1.1474
B( 53-C , 54-C ) :   1.0013 B( 53-C , 60-C ) :   1.3544 B( 54-C , 55-C ) :   1.7235
B( 55-C , 56-C ) :   1.1353 B( 55-C , 58-C ) :   1.1318 B( 56-C , 57-N ) :   2.9821
B( 58-C , 59-N ) :   3.0032 B( 60-C , 61-C ) :   1.4023 B( 60-C , 92-H ) :   0.9815
B( 61-C , 62-S ) :   1.0894 B( 61-C , 63-C ) :   1.1234 B( 63-C , 64-C ) :   1.6833
B( 63-C , 93-H ) :   0.9274 B( 64-C , 65-C ) :   1.0319 B( 64-C , 73-C ) :   0.9394
B( 65-C , 66-C ) :   1.6493 B( 65-C , 71-C ) :   1.0122 B( 66-C , 67-C ) :   1.1262
B( 66-C , 69-C ) :   1.1724 B( 67-C , 68-N ) :   2.9933 B( 69-C , 70-N ) :   2.9947
B( 71-C , 72-C ) :   1.2684 B( 71-C , 78-C ) :   1.4190 B( 72-C , 73-C ) :   0.9271
B( 72-C , 75-C ) :   1.4258 B( 73-C , 74-O ) :   2.2619 B( 75-C , 76-C ) :   1.2533
B( 75-C , 94-H ) :   1.0152 B( 76-C , 77-C ) :   1.3023 B( 76-C , 81-C ) :   1.1736
B( 77-C , 78-C ) :   1.3219 B( 77-C , 79-S ) :   1.0989 B( 78-C , 95-H ) :   0.9847
B( 79-S , 80-C ) :   1.1286 B( 80-C , 81-C ) :   1.6281 B( 80-C , 96-H ) :   0.9685
B( 81-C , 97-H ) :   0.9988

-----------------------------------------------------------------------------
         ABSORPTION SPECTRUM VIA TRANSITION ELECTRIC DIPOLE MOMENTS
-----------------------------------------------------------------------------
State   Energy  Wavelength   fosc         T2         TX        TY        TZ
        (cm-1)    (nm)                  (au**2)     (au)      (au)      (au)
-----------------------------------------------------------------------------
   0   10402.4    961.3   1.019061920  32.25109  -4.93621   1.10767  -2.58031
   1   12750.7    784.3   0.050136576   1.29448   0.48170   0.64672  -0.80263
   2   14992.3    667.0   0.232843282   5.11295   1.96096  -0.41711   1.04576
   3   18357.2    544.7   0.169110735   3.03278  -0.77204  -0.97595   1.21830
   4   19499.1    512.8   0.047674319   0.80491   0.26178   0.51162  -0.68893
   5   19763.9    506.0   0.647021777  10.77759  -2.73743   0.12463  -1.80790
   6   20351.6    491.4   0.019117508   0.30925  -0.36221  -0.33645   0.25468
   7   22265.0    449.1   0.033904854   0.50132  -0.31475  -0.36593  -0.51802
   8   24609.3    406.4   0.003682126   0.04926   0.07158   0.13196   0.16347
   9   25040.1    399.4   0.010499022   0.13803  -0.12044  -0.35086   0.02066
  10   25521.1    391.8   0.063934018   0.82472   0.39181   0.44959  -0.68489
  11   25906.2    386.0   0.000339492   0.00431  -0.06386  -0.01469   0.00447
  12   26225.1    381.3   0.396467401   4.97698   2.06826  -0.41675   0.72497
  13   26624.7    375.6   0.002843301   0.03516   0.12443  -0.12058  -0.07166
  14   27151.7    368.3   0.060167591   0.72953   0.77653  -0.27534  -0.22522
  15   27538.7    363.1   0.277233103   3.31419   1.17580  -1.09227   0.85944
  16   27877.3    358.7   0.087692396   1.03559   0.59644   0.46056  -0.68391
  17   28193.3    354.7   0.038681777   0.45169   0.29956  -0.39988  -0.44949
  18   28321.1    353.1   0.193412816   2.24829   1.34870   0.03934   0.65401
  19   28880.7    346.3   0.251889630   2.87130   0.89102   0.89886  -1.12669
  20   28965.6    345.2   0.091122934   1.03567   0.96885  -0.18813   0.24820
  21   29056.3    344.2   0.055494120   0.62876  -0.38243   0.17969  -0.67098
  22   29410.7    340.0   0.029486598   0.33006  -0.19966   0.49291  -0.21733
  23   29700.0    336.7   0.014135945   0.15669  -0.14992   0.32154   0.17558
  24   30022.0    333.1   0.078064864   0.85604  -0.83244   0.29246  -0.27849
  25   30258.3    330.5   0.262388883   2.85481  -1.32229   0.63483  -0.83866
  26   30579.7    327.0   0.007545119   0.08123  -0.21624   0.12289  -0.13916
  27   30652.3    326.2   0.128330304   1.37830   0.94467  -0.43096   0.54788
  28   30919.1    323.4   0.049225166   0.52413   0.56819   0.29516   0.33789
  29   31529.8    317.2   0.061298104   0.64003  -0.19501   0.62365  -0.46159
  30   31917.4    313.3   0.313248282   3.23099  -1.23082   0.63219  -1.14735
  31   32120.9    311.3   0.247508946   2.53676  -1.37560  -0.49458   0.63236
  32   32469.7    308.0   0.029600944   0.30013  -0.27504  -0.30110   0.36582
  33   32640.1    306.4   0.010874734   0.10968   0.25192   0.21367   0.02370
  34   32649.6    306.3   0.068811828   0.69384   0.81120  -0.13968   0.12759
  35   32752.1    305.3   0.063099329   0.63425  -0.67239   0.07142   0.42076
  36   33110.0    302.0   0.015121135   0.15035  -0.13153  -0.36365  -0.02848
  37   33359.4    299.8   0.078900518   0.77864  -0.33353   0.80615  -0.13236
  38   33421.8    299.2   0.056792409   0.55942   0.53795   0.32627   0.40445
  39   33775.6    296.1   0.145645803   1.41961  -0.60504  -0.32594   0.97329
  40   33938.3    294.7   0.001460671   0.01417   0.03612   0.10073  -0.05214
  41   34074.8    293.5   0.006936599   0.06702  -0.16562  -0.01807  -0.19814
  42   34416.1    290.6   0.104411309   0.99876  -0.84982   0.09397  -0.51743
  43   34435.9    290.4   0.379252197   3.62570   1.12903  -1.36043   0.70726
  44   34652.9    288.6   0.061898061   0.58805   0.12592  -0.54720   0.52227
  45   34831.1    287.1   0.063916317   0.60412   0.71700   0.27250  -0.12560
  46   34927.5    286.3   0.043233686   0.40750   0.44109   0.32751  -0.32508
  47   35008.7    285.6   0.033911924   0.31890  -0.43976  -0.00482  -0.35424
  48   35106.4    284.8   0.095194313   0.89269  -0.75961   0.23456   0.51056
  49   35372.3    282.7   0.034655862   0.32254  -0.22136   0.41045  -0.32416
  50   35694.9    280.2   0.002713292   0.02502   0.14802  -0.05548   0.00600
  51   35752.9    279.7   0.061645808   0.56763   0.68652  -0.28856   0.11426
  52   36031.6    277.5   0.146178819   1.33560   0.61165   0.61673  -0.76232
  53   36179.3    276.4   0.139047634   1.26526  -0.30213  -0.73790   0.79340
  54   36229.4    276.0   0.028660859   0.26044   0.07952   0.41568  -0.28517
  55   36414.9    274.6   0.330457730   2.98753   1.64725  -0.52319   0.01959
  56   36698.3    272.5   0.243076448   2.18058   0.63953   0.74212  -1.10492
  57   36911.0    270.9   0.227394312   2.02815   1.16014   0.34336  -0.75122
  58   37019.7    270.1   0.052399265   0.46598  -0.34294  -0.29042   0.51384
  59   37255.6    268.4   0.015579023   0.13767  -0.03126  -0.35840  -0.09077
  60   37436.4    267.1   0.020280148   0.17834   0.29430   0.17905  -0.24427
  61   37518.1    266.5   0.046132653   0.40480  -0.32001   0.23987  -0.49483
  62   37772.9    264.7   0.037063862   0.32303   0.22798  -0.35903  -0.37703
  63   37886.7    263.9   0.037004946   0.32155   0.37711  -0.38632   0.17348
  64   37938.1    263.6   0.254243312   2.20622  -1.39447   0.47161   0.19813
  65   37986.8    263.2   0.021705132   0.18811  -0.24422   0.31446  -0.17198
  66   38017.2    263.0   0.030731269   0.26612   0.45723  -0.21786   0.09796
  67   38071.6    262.7   0.048849009   0.42241   0.37614  -0.41798   0.32591
  68   38152.1    262.1   0.004049440   0.03494  -0.15960  -0.09731  -0.00156
  69   38367.7    260.6   0.048439389   0.41563  -0.61612  -0.18651  -0.03526
  70   38405.9    260.4   0.007845520   0.06725   0.22647   0.12581  -0.01151
  71   38889.7    257.1   0.087063871   0.73702   0.17670   0.82010  -0.18231
  72   39103.5    255.7   0.003259021   0.02744  -0.08735   0.14023  -0.01193
  73   39215.0    255.0   0.004695115   0.03942   0.05147  -0.19074  -0.01962
  74   39386.2    253.9   0.068465667   0.57228   0.19745  -0.47868  -0.55150
  75   39567.2    252.7   0.127534494   1.06113   0.93702   0.03103  -0.42680
  76   39618.6    252.4   0.035542682   0.29534  -0.10059  -0.52123   0.11637
  77   39960.4    250.2   0.094776909   0.78082  -0.67267  -0.30002   0.48818
  78   40128.9    249.2   0.033520232   0.27500  -0.12679   0.16786  -0.48036
  79   40297.1    248.2   0.007368947   0.06020  -0.02562  -0.13300  -0.20459

FINAL SINGLE POINT ENERGY     -5604.779863808200

DIPOLE MOMENT
-------------
                                X             Y             Z
Electronic contribution:      8.84432      -0.24775       5.23020
Nuclear contribution   :     -9.43023      -1.16300      -3.52077
                        -----------------------------------------
Total Dipole Moment    :     -0.58591      -1.41075       1.70943
                        -----------------------------------------
Magnitude (a.u.)       :      2.29252
Magnitude (Debye)      :      5.82714

Rotational constants in cm-1:     0.001722     0.000175     0.000162
Rotational constants in MHz :    51.627403     5.251752     4.869807

                             ****ORCA TERMINATED NORMALLY****
TOTAL RUN TIME: 0 days 0 hours 12 minutes 35 seconds 109 msec
