                         Program Version 4.2.0 -  RELEASE  -
|  1> # ORCA input file
|  2> # SCF done       -188.172619284798          0.000425037120
|  3> ! CAM-B3LYP def2-SVP def2/J RIJCOSX Grid4 TightSCF
|  4> %maxcore 5000
|  5> %tddft
|  6>     Mode sTDDFT
|  7>     Ethresh 5.0
|  8>     maxcore 5000
|  9> end
| 10>
| 11> %pal
| 12>   nprocs 6
| 13>   end
| 14> * xyz 0 1
| 15>    C       -1.58376        -5.47854       -12.00047
| 16>    C       -0.67685        -4.53279       -12.39204
| 17>    F       -0.54652        -4.24355       -13.69380
| 18>    C        0.13872        -3.82859       -11.47585
| 19>    F        0.95748        -2.90308       -11.97414
| 20>    C        0.06250        -4.03829       -10.11040
| 21>    C       -0.86812        -5.01756        -9.67804
| 22>    C       -1.68778        -5.73010       -10.62443
| 23>    N       -2.50891        -6.59278       -10.02207
| 24>    S       -2.25431        -6.52838        -8.43835
| 25>    N       -1.10129        -5.41546        -8.42830
| 26>    C        0.93087        -3.35317        -9.17684
| 27>    N        2.18647        -3.10445        -9.47641
| 28>    C        2.73901        -2.58655        -8.35337
| 29>    C        1.75635        -2.53924        -7.25973
| 30>    C        2.35994        -1.96609        -6.04690
| 31>    O        1.86565        -1.81149        -4.95168
| 32>    C        3.72936        -1.64001        -6.49751
| 33>    C        3.91824        -2.04970        -7.90721
| 34>    N        5.16517        -1.72597        -8.33474
| 35>    C        5.73795        -1.14460        -7.31214
| 36>    C        4.89320        -1.04502        -6.13570
| 37>    C        0.57280        -2.97709        -7.79090
| 38>    C       -0.73168        -3.04027        -7.20742
| 39>    C       -0.92100        -3.29472        -5.90068
| 40>    C       -2.21823        -3.42043        -5.27305
| 41>    C       -3.27505        -2.60523        -5.61167
| 42>    C       -4.52449        -2.76950        -4.97732
| 43>    C       -5.72798        -2.06964        -5.07999
| 44>    C       -6.06528        -0.81611        -5.81470
| 45>    C       -5.42015         0.42793        -5.15979
| 46>    N       -3.97412         0.39215        -5.24154
| 47>    C       -5.72161        -0.87664        -7.31156
| 48>    N       -6.36832        -2.03801        -7.90053
| 49>    C       -6.69559        -2.78928        -4.28260
| 50>    C       -8.02494        -2.62614        -4.13313
| 51>    C       -8.83158        -3.63114        -3.40153
| 52>    C       -8.04514        -4.60171        -2.57662
| 53>    C       -6.70815        -4.74819        -2.73638
| 54>    C       -6.00790        -3.90529        -3.61853
| 55>    C       -4.68744        -3.87297        -4.04085
| 56>    C       -3.58303        -4.68146        -3.70118
| 57>    C       -2.37770        -4.43401        -4.27808
| 58>    C       -9.41537        -4.65519        -4.34892
| 59>    C       -8.86641        -4.99771        -5.53039
| 60>    C       -9.41319        -6.01572        -6.35637
| 61>    N      -10.49636        -6.70842        -6.01336
| 62>    C      -10.72960        -7.55347        -7.02855
| 63>    C       -9.72993        -7.40032        -8.09996
| 64>    C      -10.01472        -8.33105        -9.20755
| 65>    O       -9.40056        -8.47987       -10.24308
| 66>    C      -11.22515        -9.02383        -8.74217
| 67>    C      -11.62637        -8.52753        -7.41172
| 68>    N      -12.74399        -9.15588        -6.98294
| 69>    C      -13.05801        -9.99264        -7.94824
| 70>    C      -12.15604        -9.95987        -9.07391
| 71>    C       -8.87850        -6.41047        -7.68096
| 72>    C       -7.74327        -5.81821        -8.31099
| 73>    C       -7.32930        -6.12833        -9.55678
| 74>    C       -6.25518        -5.45600       -10.24373
| 75>    C       -5.20816        -4.77087        -9.65359
| 76>    F       -5.01722        -4.81551        -8.31401
| 77>    C       -4.27701        -4.01284       -10.38983
| 78>    F       -3.33807        -3.33927        -9.69010
| 79>    C       -4.29336        -3.92507       -11.75292
| 80>    C       -5.28224        -4.67073       -12.41225
| 81>    C       -6.25423        -5.42675       -11.66537
| 82>    N       -7.11654        -6.04729       -12.46538
| 83>    S       -6.73550        -5.73426       -13.98894
| 84>    N       -5.46962        -4.78031       -13.72771
| 85>    H       -2.19422        -6.00352       -12.71552
| 86>    H        6.75239        -0.79242        -7.38483
| 87>    H        5.17342        -0.59481        -5.20384
| 88>    H       -1.57376        -2.91539        -7.87307
| 89>    H       -0.06214        -3.50532        -5.27749
| 90>    H       -3.13082        -1.81638        -6.33154
| 91>    H       -7.14845        -0.67751        -5.74616
| 92>    H       -5.79825         0.50261        -4.12594
| 93>    H       -5.76564         1.30758        -5.70940
| 94>    H       -3.59225        -0.26487        -4.57034
| 95>    H       -3.58029         1.30391        -5.04430
| 96>    H       -4.63203        -0.86017        -7.43876
| 97>    H       -6.12869         0.01501        -7.79601
| 98>    H       -5.94439        -2.87734        -7.52009
| 99>    H       -6.23143        -2.04347        -8.90554
|100>    H       -8.56897        -1.82939        -4.62011
|101>    H       -9.63492        -3.15589        -2.83240
|102>    H       -8.60519        -5.23737        -1.91011
|103>    H       -6.16747        -5.49801        -2.17776
|104>    H       -3.70623        -5.47810        -2.98269
|105>    H       -1.51447        -5.03024        -4.02197
|106>    H      -10.29021        -5.18888        -4.00806
|107>    H       -7.98682        -4.48456        -5.89054
|108>    H      -13.92456       -10.62421        -7.85568
|109>    H      -12.23790       -10.55928        -9.95896
|110>    H       -7.23929        -5.04639        -7.74818
|111>    H       -7.86804        -6.85706       -10.14811
|112>    H       -3.58570        -3.32205       -12.29435
|113> *
|114>
|115>                          ****END OF INPUT****

CARTESIAN COORDINATES (ANGSTROEM)
---------------------------------
  C     -1.583760   -5.478540  -12.000470
  C     -0.676850   -4.532790  -12.392040
  F     -0.546520   -4.243550  -13.693800
  C      0.138720   -3.828590  -11.475850
  F      0.957480   -2.903080  -11.974140
  C      0.062500   -4.038290  -10.110400
  C     -0.868120   -5.017560   -9.678040
  C     -1.687780   -5.730100  -10.624430
  N     -2.508910   -6.592780  -10.022070
  S     -2.254310   -6.528380   -8.438350
  N     -1.101290   -5.415460   -8.428300
  C      0.930870   -3.353170   -9.176840
  N      2.186470   -3.104450   -9.476410
  C      2.739010   -2.586550   -8.353370
  C      1.756350   -2.539240   -7.259730
  C      2.359940   -1.966090   -6.046900
  O      1.865650   -1.811490   -4.951680
  C      3.729360   -1.640010   -6.497510
  C      3.918240   -2.049700   -7.907210
  N      5.165170   -1.725970   -8.334740
  C      5.737950   -1.144600   -7.312140
  C      4.893200   -1.045020   -6.135700
  C      0.572800   -2.977090   -7.790900
  C     -0.731680   -3.040270   -7.207420
  C     -0.921000   -3.294720   -5.900680
  C     -2.218230   -3.420430   -5.273050
  C     -3.275050   -2.605230   -5.611670
  C     -4.524490   -2.769500   -4.977320
  C     -5.727980   -2.069640   -5.079990
  C     -6.065280   -0.816110   -5.814700
  C     -5.420150    0.427930   -5.159790
  N     -3.974120    0.392150   -5.241540
  C     -5.721610   -0.876640   -7.311560
  N     -6.368320   -2.038010   -7.900530
  C     -6.695590   -2.789280   -4.282600
  C     -8.024940   -2.626140   -4.133130
  C     -8.831580   -3.631140   -3.401530
  C     -8.045140   -4.601710   -2.576620
  C     -6.708150   -4.748190   -2.736380
  C     -6.007900   -3.905290   -3.618530
  C     -4.687440   -3.872970   -4.040850
  C     -3.583030   -4.681460   -3.701180
  C     -2.377700   -4.434010   -4.278080
  C     -9.415370   -4.655190   -4.348920
  C     -8.866410   -4.997710   -5.530390
  C     -9.413190   -6.015720   -6.356370
  N    -10.496360   -6.708420   -6.013360
  C    -10.729600   -7.553470   -7.028550
  C     -9.729930   -7.400320   -8.099960
  C    -10.014720   -8.331050   -9.207550
  O     -9.400560   -8.479870  -10.243080
  C    -11.225150   -9.023830   -8.742170
  C    -11.626370   -8.527530   -7.411720
  N    -12.743990   -9.155880   -6.982940
  C    -13.058010   -9.992640   -7.948240
  C    -12.156040   -9.959870   -9.073910
  C     -8.878500   -6.410470   -7.680960
  C     -7.743270   -5.818210   -8.310990
  C     -7.329300   -6.128330   -9.556780
  C     -6.255180   -5.456000  -10.243730
  C     -5.208160   -4.770870   -9.653590
  F     -5.017220   -4.815510   -8.314010
  C     -4.277010   -4.012840  -10.389830
  F     -3.338070   -3.339270   -9.690100
  C     -4.293360   -3.925070  -11.752920
  C     -5.282240   -4.670730  -12.412250
  C     -6.254230   -5.426750  -11.665370
  N     -7.116540   -6.047290  -12.465380
  S     -6.735500   -5.734260  -13.988940
  N     -5.469620   -4.780310  -13.727710
  H     -2.194220   -6.003520  -12.715520
  H      6.752390   -0.792420   -7.384830
  H      5.173420   -0.594810   -5.203840
  H     -1.573760   -2.915390   -7.873070
  H     -0.062140   -3.505320   -5.277490
  H     -3.130820   -1.816380   -6.331540
  H     -7.148450   -0.677510   -5.746160
  H     -5.798250    0.502610   -4.125940
  H     -5.765640    1.307580   -5.709400
  H     -3.592250   -0.264870   -4.570340
  H     -3.580290    1.303910   -5.044300
  H     -4.632030   -0.860170   -7.438760
  H     -6.128690    0.015010   -7.796010
  H     -5.944390   -2.877340   -7.520090
  H     -6.231430   -2.043470   -8.905540
  H     -8.568970   -1.829390   -4.620110
  H     -9.634920   -3.155890   -2.832400
  H     -8.605190   -5.237370   -1.910110
  H     -6.167470   -5.498010   -2.177760
  H     -3.706230   -5.478100   -2.982690
  H     -1.514470   -5.030240   -4.021970
  H    -10.290210   -5.188880   -4.008060
  H     -7.986820   -4.484560   -5.890540
  H    -13.924560  -10.624210   -7.855680
  H    -12.237900  -10.559280   -9.958960
  H     -7.239290   -5.046390   -7.748180
  H     -7.868040   -6.857060  -10.148110
  H     -3.585700   -3.322050  -12.294350

 Total Charge           Charge          ....    0
 Multiplicity           Mult            ....    1
 Number of Electrons    NEL             ....  494
 Basis Dimension        Dim             .... 1128

ORBITAL ENERGIES
----------------

  NO   OCC          E(Eh)            E(eV)
   0   2.0000     -89.033358     -2422.7209
   1   2.0000     -89.027984     -2422.5746
   2   2.0000     -24.813102      -675.1988
   3   2.0000     -24.812836      -675.1916
   4   2.0000     -24.803957      -674.9500
   5   2.0000     -24.802187      -674.9018
   6   2.0000     -19.205378      -522.6049
   7   2.0000     -19.203654      -522.5580
   8   2.0000     -14.446623      -393.1126
   9   2.0000     -14.445361      -393.0783
  10   2.0000     -14.441848      -392.9827
  11   2.0000     -14.441150      -392.9637
  12   2.0000     -14.410732      -392.1360
  13   2.0000     -14.403578      -391.9413
  14   2.0000     -14.398586      -391.8054
  15   2.0000     -14.395075      -391.7099
  16   2.0000     -14.378657      -391.2632
  17   2.0000     -14.373504      -391.1229
  18   2.0000     -10.396207      -282.8952
  19   2.0000     -10.389322      -282.7078
  20   2.0000     -10.388462      -282.6844
  21   2.0000     -10.385074      -282.5922
  22   2.0000     -10.366095      -282.0758
  23   2.0000     -10.363850      -282.0147
  24   2.0000     -10.346650      -281.5467
  25   2.0000     -10.340081      -281.3679
  26   2.0000     -10.337361      -281.2939
  27   2.0000     -10.336192      -281.2621
  28   2.0000     -10.333646      -281.1928
  29   2.0000     -10.332400      -281.1589
  30   2.0000     -10.329187      -281.0715
  31   2.0000     -10.325315      -280.9661
  32   2.0000     -10.323418      -280.9145
  33   2.0000     -10.321949      -280.8745
  34   2.0000     -10.317489      -280.7531
  35   2.0000     -10.314092      -280.6607
  36   2.0000     -10.314015      -280.6586
  37   2.0000     -10.313191      -280.6362
  38   2.0000     -10.311436      -280.5885
  39   2.0000     -10.310586      -280.5653
  40   2.0000     -10.307869      -280.4914
  41   2.0000     -10.306814      -280.4627
  42   2.0000     -10.303658      -280.3768
  43   2.0000     -10.299465      -280.2627
  44   2.0000     -10.298156      -280.2271
  45   2.0000     -10.288202      -279.9562
  46   2.0000     -10.288179      -279.9556
  47   2.0000     -10.285917      -279.8940
  48   2.0000     -10.285366      -279.8790
  49   2.0000     -10.285252      -279.8759
  50   2.0000     -10.284234      -279.8482
  51   2.0000     -10.282977      -279.8140
  52   2.0000     -10.282042      -279.7886
  53   2.0000     -10.280713      -279.7524
  54   2.0000     -10.280374      -279.7432
  55   2.0000     -10.279209      -279.7115
  56   2.0000     -10.279177      -279.7106
  57   2.0000     -10.278397      -279.6894
  58   2.0000     -10.275574      -279.6126
  59   2.0000     -10.274018      -279.5702
  60   2.0000     -10.273176      -279.5473
  61   2.0000     -10.271849      -279.5112
  62   2.0000     -10.271723      -279.5078
  63   2.0000     -10.269946      -279.4594
  64   2.0000     -10.269675      -279.4521
  65   2.0000     -10.269433      -279.4455
  66   2.0000     -10.267965      -279.4055
  67   2.0000     -10.267750      -279.3997
  68   2.0000     -10.265081      -279.3270
  69   2.0000     -10.264380      -279.3080
  70   2.0000      -8.124692      -221.0841
  71   2.0000      -8.119879      -220.9532
  72   2.0000      -6.095844      -165.8764
  73   2.0000      -6.091050      -165.7459
  74   2.0000      -6.088088      -165.6653
  75   2.0000      -6.087262      -165.6428
  76   2.0000      -6.083251      -165.5337
  77   2.0000      -6.082377      -165.5099
  78   2.0000      -1.331630       -36.2355
  79   2.0000      -1.328585       -36.1526
  80   2.0000      -1.314402       -35.7667
  81   2.0000      -1.311264       -35.6813
  82   2.0000      -1.134740       -30.8779
  83   2.0000      -1.130360       -30.7587
  84   2.0000      -1.119578       -30.4653
  85   2.0000      -1.117899       -30.4196
  86   2.0000      -1.077502       -29.3203
  87   2.0000      -1.068958       -29.0878
  88   2.0000      -1.058271       -28.7970
  89   2.0000      -1.048777       -28.5387
  90   2.0000      -0.991434       -26.9783
  91   2.0000      -0.989462       -26.9246
  92   2.0000      -0.985270       -26.8106
  93   2.0000      -0.982031       -26.7224
  94   2.0000      -0.978364       -26.6226
  95   2.0000      -0.967274       -26.3209
  96   2.0000      -0.955448       -25.9991
  97   2.0000      -0.949273       -25.8310
  98   2.0000      -0.933082       -25.3904
  99   2.0000      -0.929669       -25.2976
 100   2.0000      -0.921955       -25.0877
 101   2.0000      -0.915774       -24.9195
 102   2.0000      -0.899969       -24.4894
 103   2.0000      -0.883656       -24.0455
 104   2.0000      -0.882669       -24.0186
 105   2.0000      -0.875752       -23.8304
 106   2.0000      -0.869826       -23.6692
 107   2.0000      -0.866312       -23.5735
 108   2.0000      -0.865980       -23.5645
 109   2.0000      -0.854651       -23.2562
 110   2.0000      -0.848471       -23.0881
 111   2.0000      -0.841901       -22.9093
 112   2.0000      -0.835981       -22.7482
 113   2.0000      -0.830132       -22.5890
 114   2.0000      -0.822563       -22.3831
 115   2.0000      -0.803830       -21.8733
 116   2.0000      -0.792270       -21.5588
 117   2.0000      -0.772543       -21.0220
 118   2.0000      -0.765889       -20.8409
 119   2.0000      -0.762187       -20.7402
 120   2.0000      -0.753971       -20.5166
 121   2.0000      -0.749739       -20.4014
 122   2.0000      -0.744432       -20.2570
 123   2.0000      -0.735052       -20.0018
 124   2.0000      -0.727356       -19.7924
 125   2.0000      -0.724473       -19.7139
 126   2.0000      -0.718057       -19.5393
 127   2.0000      -0.717275       -19.5180
 128   2.0000      -0.712239       -19.3810
 129   2.0000      -0.703796       -19.1513
 130   2.0000      -0.689688       -18.7674
 131   2.0000      -0.680688       -18.5225
 132   2.0000      -0.678042       -18.4505
 133   2.0000      -0.676366       -18.4048
 134   2.0000      -0.671316       -18.2674
 135   2.0000      -0.658082       -17.9073
 136   2.0000      -0.650990       -17.7143
 137   2.0000      -0.649142       -17.6640
 138   2.0000      -0.647010       -17.6060
 139   2.0000      -0.644002       -17.5242
 140   2.0000      -0.642740       -17.4898
 141   2.0000      -0.638458       -17.3733
 142   2.0000      -0.636487       -17.3197
 143   2.0000      -0.633684       -17.2434
 144   2.0000      -0.630234       -17.1496
 145   2.0000      -0.625300       -17.0153
 146   2.0000      -0.618442       -16.8287
 147   2.0000      -0.610617       -16.6157
 148   2.0000      -0.608356       -16.5542
 149   2.0000      -0.598002       -16.2725
 150   2.0000      -0.596857       -16.2413
 151   2.0000      -0.593675       -16.1547
 152   2.0000      -0.591647       -16.0995
 153   2.0000      -0.587059       -15.9747
 154   2.0000      -0.578854       -15.7514
 155   2.0000      -0.576368       -15.6838
 156   2.0000      -0.575258       -15.6536
 157   2.0000      -0.571578       -15.5534
 158   2.0000      -0.565183       -15.3794
 159   2.0000      -0.564098       -15.3499
 160   2.0000      -0.561713       -15.2850
 161   2.0000      -0.559240       -15.2177
 162   2.0000      -0.557309       -15.1652
 163   2.0000      -0.554012       -15.0754
 164   2.0000      -0.553298       -15.0560
 165   2.0000      -0.551750       -15.0139
 166   2.0000      -0.549204       -14.9446
 167   2.0000      -0.546235       -14.8638
 168   2.0000      -0.542677       -14.7670
 169   2.0000      -0.541145       -14.7253
 170   2.0000      -0.539516       -14.6810
 171   2.0000      -0.537623       -14.6295
 172   2.0000      -0.536381       -14.5957
 173   2.0000      -0.535749       -14.5785
 174   2.0000      -0.530965       -14.4483
 175   2.0000      -0.528996       -14.3947
 176   2.0000      -0.522811       -14.2264
 177   2.0000      -0.520691       -14.1687
 178   2.0000      -0.517777       -14.0894
 179   2.0000      -0.515310       -14.0223
 180   2.0000      -0.508495       -13.8369
 181   2.0000      -0.507141       -13.8000
 182   2.0000      -0.505497       -13.7553
 183   2.0000      -0.504460       -13.7271
 184   2.0000      -0.502687       -13.6788
 185   2.0000      -0.501148       -13.6369
 186   2.0000      -0.497529       -13.5384
 187   2.0000      -0.495756       -13.4902
 188   2.0000      -0.491482       -13.3739
 189   2.0000      -0.487795       -13.2736
 190   2.0000      -0.485562       -13.2128
 191   2.0000      -0.484204       -13.1758
 192   2.0000      -0.482833       -13.1386
 193   2.0000      -0.480663       -13.0795
 194   2.0000      -0.475547       -12.9403
 195   2.0000      -0.473437       -12.8829
 196   2.0000      -0.469976       -12.7887
 197   2.0000      -0.468184       -12.7399
 198   2.0000      -0.465753       -12.6738
 199   2.0000      -0.465288       -12.6611
 200   2.0000      -0.464767       -12.6469
 201   2.0000      -0.459634       -12.5073
 202   2.0000      -0.455477       -12.3942
 203   2.0000      -0.451853       -12.2956
 204   2.0000      -0.449137       -12.2216
 205   2.0000      -0.447053       -12.1649
 206   2.0000      -0.442496       -12.0409
 207   2.0000      -0.440670       -11.9913
 208   2.0000      -0.437412       -11.9026
 209   2.0000      -0.433346       -11.7920
 210   2.0000      -0.430842       -11.7238
 211   2.0000      -0.427040       -11.6204
 212   2.0000      -0.425919       -11.5898
 213   2.0000      -0.421409       -11.4671
 214   2.0000      -0.418284       -11.3821
 215   2.0000      -0.414330       -11.2745
 216   2.0000      -0.410689       -11.1754
 217   2.0000      -0.406640       -11.0652
 218   2.0000      -0.395487       -10.7618
 219   2.0000      -0.394497       -10.7348
 220   2.0000      -0.392093       -10.6694
 221   2.0000      -0.390430       -10.6241
 222   2.0000      -0.384340       -10.4584
 223   2.0000      -0.372004       -10.1228
 224   2.0000      -0.364281        -9.9126
 225   2.0000      -0.361793        -9.8449
 226   2.0000      -0.354273        -9.6403
 227   2.0000      -0.351990        -9.5781
 228   2.0000      -0.351080        -9.5534
 229   2.0000      -0.347454        -9.4547
 230   2.0000      -0.344242        -9.3673
 231   2.0000      -0.335516        -9.1298
 232   2.0000      -0.335273        -9.1232
 233   2.0000      -0.333500        -9.0750
 234   2.0000      -0.331671        -9.0252
 235   2.0000      -0.331152        -9.0111
 236   2.0000      -0.324523        -8.8307
 237   2.0000      -0.323267        -8.7965
 238   2.0000      -0.322658        -8.7800
 239   2.0000      -0.321029        -8.7357
 240   2.0000      -0.312781        -8.5112
 241   2.0000      -0.304840        -8.2951
 242   2.0000      -0.296376        -8.0648
 243   2.0000      -0.289555        -7.8792
 244   2.0000      -0.276389        -7.5209
 245   2.0000      -0.273330        -7.4377
 246   2.0000      -0.224029        -6.0961
 247   0.0000      -0.111103        -3.0233
 248   0.0000      -0.107723        -2.9313
 249   0.0000      -0.075867        -2.0644
 250   0.0000      -0.073146        -1.9904
 251   0.0000      -0.061254        -1.6668

MULLIKEN ATOMIC CHARGES
-----------------------
   0 C :   -0.080063
   1 C :    0.233416
   2 F :   -0.170774
   3 C :    0.190429
   4 F :   -0.135578
   5 C :   -0.027729
   6 C :    0.044191
   7 C :    0.018580
   8 N :   -0.280523
   9 S :    0.526327
  10 N :   -0.256273
  11 C :   -0.038885
  12 N :   -0.022630
  13 C :    0.072188
  14 C :   -0.164272
  15 C :    0.202794
  16 O :   -0.131891
  17 C :   -0.028144
  18 C :   -0.022434
  19 N :   -0.052942
  20 C :    0.089339
  21 C :   -0.095231
  22 C :    0.043776
  23 C :    0.027835
  24 C :    0.005755
  25 C :    0.084462
  26 C :   -0.094351
  27 C :    0.032821
  28 C :   -0.100896
  29 C :    0.026469
  30 C :    0.146102
  31 N :   -0.231778
  32 C :    0.113272
  33 N :   -0.253373
  34 C :    0.087293
  35 C :   -0.101187
  36 C :    0.133728
  37 C :   -0.037368
  38 C :    0.017833
  39 C :    0.015603
  40 C :    0.050308
  41 C :   -0.017733
  42 C :    0.002448
  43 C :   -0.028739
  44 C :   -0.014915
  45 C :    0.050129
  46 N :   -0.051043
  47 C :    0.066558
  48 C :   -0.159336
  49 C :    0.215208
  50 O :   -0.138448
  51 C :   -0.017873
  52 C :   -0.038503
  53 N :   -0.059856
  54 C :    0.086043
  55 C :   -0.097886
  56 C :    0.034890
  57 C :    0.004624
  58 C :   -0.016439
  59 C :    0.058818
  60 C :    0.133402
  61 F :   -0.181926
  62 C :    0.264848
  63 F :   -0.184648
  64 C :   -0.095371
  65 C :    0.057292
  66 C :   -0.011263
  67 N :   -0.254237
  68 S :    0.514246
  69 N :   -0.276504
  70 H :    0.002802
  71 H :    0.009252
  72 H :   -0.005589
  73 H :   -0.012447
  74 H :    0.010672
  75 H :   -0.018967
  76 H :   -0.030843
  77 H :   -0.015245
  78 H :   -0.008628
  79 H :    0.108202
  80 H :    0.097039
  81 H :    0.007298
  82 H :   -0.015279
  83 H :    0.120779
  84 H :    0.092005
  85 H :    0.007159
  86 H :    0.026254
  87 H :    0.000903
  88 H :   -0.029324
  89 H :   -0.033772
  90 H :   -0.025514
  91 H :    0.040059
  92 H :    0.011237
  93 H :    0.003787
  94 H :   -0.010302
  95 H :   -0.032752
  96 H :    0.029606
  97 H :   -0.008374
Sum of atomic charges:   -0.0000000

LOEWDIN ATOMIC CHARGES
----------------------
   0 C :   -0.025652
   1 C :    0.063383
   2 F :   -0.046226
   3 C :    0.097271
   4 F :   -0.020806
   5 C :   -0.073154
   6 C :   -0.044627
   7 C :   -0.060665
   8 N :   -0.287455
   9 S :    0.665921
  10 N :   -0.268508
  11 C :    0.073277
  12 N :   -0.084230
  13 C :    0.047333
  14 C :   -0.054711
  15 C :    0.066365
  16 O :   -0.139964
  17 C :   -0.037528
  18 C :    0.026499
  19 N :   -0.094949
  20 C :    0.075016
  21 C :   -0.035519
  22 C :   -0.012927
  23 C :   -0.021972
  24 C :    0.015828
  25 C :   -0.027466
  26 C :   -0.015570
  27 C :   -0.024494
  28 C :   -0.035390
  29 C :   -0.040144
  30 C :    0.029636
  31 N :   -0.112142
  32 C :    0.028624
  33 N :   -0.125595
  34 C :   -0.016821
  35 C :    0.069190
  36 C :   -0.030124
  37 C :   -0.023519
  38 C :   -0.010964
  39 C :   -0.042933
  40 C :   -0.020311
  41 C :   -0.014026
  42 C :   -0.017930
  43 C :    0.094301
  44 C :   -0.067333
  45 C :    0.079741
  46 N :   -0.117763
  47 C :    0.049013
  48 C :   -0.036588
  49 C :    0.066022
  50 O :   -0.140873
  51 C :   -0.042947
  52 C :    0.011337
  53 N :   -0.100794
  54 C :    0.064998
  55 C :   -0.043034
  56 C :   -0.029816
  57 C :   -0.012507
  58 C :    0.013471
  59 C :   -0.038066
  60 C :    0.057218
  61 F :   -0.048711
  62 C :    0.062903
  63 F :   -0.054846
  64 C :   -0.045801
  65 C :   -0.056162
  66 C :   -0.046263
  67 N :   -0.271655
  68 S :    0.654291
  69 N :   -0.291575
  70 H :    0.052927
  71 H :    0.023570
  72 H :    0.033942
  73 H :    0.023694
  74 H :    0.032789
  75 H :    0.027797
  76 H :    0.025461
  77 H :    0.000447
  78 H :    0.016423
  79 H :    0.057059
  80 H :    0.058030
  81 H :    0.002019
  82 H :    0.015303
  83 H :    0.036755
  84 H :    0.050024
  85 H :    0.034065
  86 H :    0.050009
  87 H :    0.029084
  88 H :    0.032075
  89 H :    0.027699
  90 H :    0.027918
  91 H :    0.041572
  92 H :    0.033773
  93 H :    0.021209
  94 H :    0.032256
  95 H :    0.025595
  96 H :    0.040052
  97 H :    0.047865

  Mayer bond orders larger than 0.100000
B(  0-C ,  1-C ) :   1.4533 B(  0-C ,  5-C ) :   0.1306 B(  0-C ,  7-C ) :   1.1599
B(  0-C , 70-H ) :   1.0383 B(  1-C ,  2-F ) :   1.1161 B(  1-C ,  3-C ) :   1.1257
B(  3-C ,  4-F ) :   1.2215 B(  3-C ,  5-C ) :   1.4271 B(  5-C ,  6-C ) :   1.2162
B(  5-C , 11-C ) :   0.9617 B(  6-C ,  7-C ) :   1.1631 B(  6-C , 10-N ) :   1.5489
B(  7-C ,  8-N ) :   1.5007 B(  8-N ,  9-S ) :   1.2760 B(  8-N , 10-N ) :   0.1439
B(  9-S , 10-N ) :   1.2705 B( 11-C , 12-N ) :   1.6950 B( 11-C , 13-C ) :   0.1224
B( 11-C , 22-C ) :   1.0518 B( 12-N , 13-C ) :   1.3081 B( 13-C , 14-C ) :   1.0470
B( 13-C , 18-C ) :   1.4548 B( 14-C , 15-C ) :   0.8932 B( 14-C , 22-C ) :   1.5835
B( 15-C , 16-O ) :   2.2662 B( 15-C , 17-C ) :   0.9030 B( 17-C , 18-C ) :   1.0531
B( 17-C , 21-C ) :   1.6249 B( 18-C , 19-N ) :   1.2970 B( 19-N , 20-C ) :   1.6746
B( 20-C , 21-C ) :   1.0611 B( 20-C , 71-H ) :   0.9888 B( 21-C , 72-H ) :   1.0097
B( 22-C , 23-C ) :   1.0965 B( 23-C , 24-C ) :   1.7674 B( 23-C , 73-H ) :   0.9357
B( 24-C , 25-C ) :   1.0251 B( 24-C , 74-H ) :   0.9637 B( 25-C , 26-C ) :   1.5277
B( 25-C , 42-C ) :   1.1328 B( 26-C , 27-C ) :   1.1201 B( 26-C , 75-H ) :   0.9976
B( 27-C , 28-C ) :   1.4391 B( 27-C , 40-C ) :   1.1339 B( 28-C , 29-C ) :   1.0501
B( 28-C , 34-C ) :   1.1184 B( 29-C , 30-C ) :   1.0400 B( 29-C , 32-C ) :   1.0278
B( 29-C , 76-H ) :   0.8689 B( 30-C , 31-N ) :   1.1027 B( 30-C , 77-H ) :   0.9399
B( 30-C , 78-H ) :   0.9389 B( 31-N , 79-H ) :   0.9566 B( 31-N , 80-H ) :   0.9685
B( 32-C , 33-N ) :   1.0896 B( 32-C , 81-H ) :   0.9413 B( 32-C , 82-H ) :   0.9379
B( 33-N , 83-H ) :   0.9368 B( 33-N , 84-H ) :   0.9681 B( 34-C , 35-C ) :   1.6560
B( 34-C , 39-C ) :   1.0416 B( 35-C , 36-C ) :   0.9971 B( 35-C , 85-H ) :   0.9789
B( 36-C , 37-C ) :   0.9666 B( 36-C , 43-C ) :   0.9366 B( 36-C , 86-H ) :   0.8922
B( 37-C , 38-C ) :   1.6825 B( 37-C , 87-H ) :   0.9630 B( 38-C , 39-C ) :   1.1657
B( 38-C , 88-H ) :   0.9868 B( 39-C , 40-C ) :   1.4036 B( 40-C , 41-C ) :   1.1531
B( 41-C , 42-C ) :   1.5858 B( 41-C , 89-H ) :   0.9944 B( 42-C , 90-H ) :   0.9900
B( 43-C , 44-C ) :   1.7164 B( 43-C , 91-H ) :   0.9668 B( 44-C , 45-C ) :   1.1641
B( 44-C , 92-H ) :   0.9404 B( 45-C , 46-N ) :   1.5703 B( 45-C , 47-C ) :   0.1111
B( 45-C , 56-C ) :   1.0016 B( 46-N , 47-C ) :   1.3801 B( 47-C , 48-C ) :   1.0497
B( 47-C , 52-C ) :   1.3844 B( 48-C , 49-C ) :   0.8903 B( 48-C , 56-C ) :   1.5630
B( 49-C , 50-O ) :   2.1952 B( 49-C , 51-C ) :   0.9329 B( 51-C , 52-C ) :   1.0782
B( 51-C , 55-C ) :   1.5784 B( 52-C , 53-N ) :   1.3308 B( 53-N , 54-C ) :   1.6332
B( 54-C , 55-C ) :   1.0938 B( 54-C , 93-H ) :   0.9895 B( 55-C , 94-H ) :   1.0109
B( 56-C , 57-C ) :   1.1347 B( 57-C , 58-C ) :   1.6794 B( 57-C , 95-H ) :   0.9573
B( 58-C , 59-C ) :   1.0813 B( 58-C , 96-H ) :   0.9522 B( 59-C , 60-C ) :   1.4042
B( 59-C , 64-C ) :   0.1276 B( 59-C , 66-C ) :   1.1642 B( 60-C , 61-F ) :   1.0848
B( 60-C , 62-C ) :   1.1635 B( 62-C , 63-F ) :   1.0485 B( 62-C , 64-C ) :   1.4672
B( 64-C , 65-C ) :   1.1594 B( 64-C , 97-H ) :   1.0252 B( 65-C , 66-C ) :   1.1648
B( 65-C , 69-N ) :   1.5107 B( 66-C , 67-N ) :   1.5713 B( 67-N , 68-S ) :   1.2730
B( 67-N , 69-N ) :   0.1495 B( 68-S , 69-N ) :   1.2699

-----------------------------------------------------------------------------
         ABSORPTION SPECTRUM VIA TRANSITION ELECTRIC DIPOLE MOMENTS
-----------------------------------------------------------------------------
State   Energy  Wavelength   fosc         T2         TX        TY        TZ
        (cm-1)    (nm)                  (au**2)     (au)      (au)      (au)
-----------------------------------------------------------------------------
   0   10979.2    910.8   0.226504525   6.79176  -2.11912  -1.33170  -0.72641
   1   11913.6    839.4   0.033285845   0.91980   0.28244  -0.81272  -0.42368
   2   13823.7    723.4   0.046301206   1.10267  -0.37323  -0.68500   0.70295
   3   18456.3    541.8   0.078867578   1.40679  -1.10059  -0.40177  -0.18457
   4   18801.9    531.9   0.030781033   0.53896  -0.58121  -0.20061   0.40114
   5   18900.0    529.1   0.114938951   2.00208   1.08305   0.90412  -0.10796
   6   21037.5    475.3   0.006620628   0.10360   0.06982  -0.07550  -0.30501
   7   21838.5    457.9   0.010308092   0.15539  -0.32780  -0.09400  -0.19776
   8   21902.1    456.6   0.001095805   0.01647  -0.11009   0.00204  -0.06593
   9   23343.4    428.4   0.301473354   4.25167  -1.70853  -0.97499  -0.61805
  10   23551.9    424.6   0.393238310   5.49673   1.96032   1.17737   0.51737
  11   24630.9    406.0   0.017691596   0.23646   0.05427  -0.48020  -0.05410
  12   24860.6    402.2   0.124436991   1.64784   1.08231   0.68187   0.10718
  13   25187.3    397.0   0.043181281   0.56440  -0.62265  -0.07990  -0.41271
  14   25386.6    393.9   0.094341667   1.22342  -0.89639  -0.10639   0.63920
  15   25581.3    390.9   0.273507099   3.51983   1.64994   0.79769   0.40154
  16   25811.2    387.4   0.061783533   0.78803  -0.62119  -0.60613  -0.18643
  17   25933.0    385.6   0.073903208   0.93818   0.64399   0.69486   0.20156
  18   26168.7    382.1   0.090715916   1.14124   0.26017   0.82637   0.62504
  19   26355.4    379.4   0.071677848   0.89535  -0.66644   0.65689   0.14037
  20   26526.6    377.0   0.134756427   1.67241  -0.91588  -0.31481  -0.85701
  21   27019.3    370.1   0.353952377   4.31267  -1.53078  -0.47817   1.31938
  22   27273.9    366.7   0.092533924   1.11694   0.96473   0.28464  -0.32438
  23   27640.4    361.8   0.003286032   0.03914  -0.09121   0.17531   0.00927
  24   27676.3    361.3   0.007839218   0.09325  -0.03551   0.11185   0.28192
  25   27780.1    360.0   0.113706812   1.34750   1.00857   0.42922  -0.38219
  26   27994.1    357.2   0.123863432   1.45664   0.88213   0.44428   0.69361
  27   28363.5    352.6   0.108738546   1.26212  -0.97627  -0.39593   0.39020
  28   29805.1    335.5   0.032112969   0.35470   0.54654   0.23638  -0.01094
  29   30064.9    332.6   0.017595495   0.19267  -0.13813  -0.07893   0.40910
  30   30195.5    331.2   0.007704749   0.08400   0.24683  -0.08263  -0.12747
  31   30548.1    327.4   0.024905345   0.26840   0.48724   0.08530  -0.15401
  32   30739.2    325.3   0.032813710   0.35143  -0.51739  -0.02904   0.28792
  33   30834.7    324.3   0.011478630   0.12255   0.28971   0.14640  -0.13110
  34   30927.9    323.3   0.103772964   1.10461  -0.68630  -0.10011   0.78967
  35   31065.6    321.9   0.153648783   1.62826  -1.25189  -0.24651   0.01660
  36   31234.1    320.2   0.056898644   0.59972  -0.48445  -0.49744   0.34290
  37   31258.3    319.9   0.042952968   0.45238   0.55485   0.16963  -0.34021
  38   31565.2    316.8   0.016790163   0.17511  -0.03747   0.31436   0.27366
  39   31894.1    313.5   0.018316010   0.18906  -0.30962   0.02887   0.30391
  40   32164.1    310.9   0.023152691   0.23698   0.40654   0.14634  -0.22426
  41   32455.6    308.1   0.033113762   0.33589  -0.07867  -0.16662   0.54949
  42   33030.8    302.7   0.021629488   0.21558   0.39218  -0.16124  -0.18914
  43   33147.1    301.7   0.004889075   0.04856  -0.13143  -0.00066   0.17687
  44   33322.6    300.1   0.011496293   0.11358   0.26483   0.20837   0.00483
  45   33471.5    298.8   0.029541020   0.29055   0.37414  -0.18149  -0.34298
  46   33856.7    295.4   0.021689246   0.21090  -0.15833   0.38138   0.20094
  47   34280.3    291.7   0.147237748   1.41400  -0.94863  -0.47847  -0.53401
  48   34343.9    291.2   0.078677620   0.75418   0.15451   0.48615   0.70283
  49   34868.1    286.8   0.058219609   0.54969   0.48577  -0.32107  -0.45895
  50   35019.0    285.6   0.360680096   3.39073   1.26373   1.00836   0.88144
  51   35047.4    285.3   0.052060161   0.48902   0.43479  -0.07698  -0.54227
  52   35166.8    284.4   0.019921931   0.18650   0.40783   0.13284  -0.05023
  53   35528.0    281.5   0.034989529   0.32422  -0.45420  -0.06821   0.33656
  54   35950.5    278.2   0.034941022   0.31997   0.21150   0.50442  -0.14421
  55   36068.7    277.2   0.016115928   0.14710   0.24076   0.28614  -0.08516
  56   36394.4    274.8   0.044613656   0.40356   0.27836   0.48466   0.30197
  57   36826.9    271.5   0.015742422   0.14073   0.05668  -0.16822   0.33048
  58   36836.6    271.5   0.019986799   0.17862  -0.03918   0.36114  -0.21602
  59   36967.1    270.5   0.054142235   0.48217   0.52774   0.41976   0.16570
  60   37178.3    269.0   0.012322033   0.10911  -0.03166  -0.00716  -0.32872
  61   37374.7    267.6   0.008405760   0.07404  -0.23078  -0.13025  -0.06180
  62   37822.2    264.4   0.051103361   0.44481  -0.65567  -0.06267   0.10478
  63   38526.2    259.6   0.183888171   1.57135   1.18400   0.40107   0.09292
  64   38582.8    259.2   0.001643893   0.01403   0.10149   0.05921  -0.01483
  65   38679.2    258.5   0.065433145   0.55692   0.72844   0.15133   0.05826
  66   38831.3    257.5   0.015966866   0.13537  -0.01292   0.25182   0.26794
  67   38991.3    256.5   0.001746191   0.01474  -0.11477   0.03798  -0.01134
  68   39194.1    255.1   0.007379496   0.06198   0.19608   0.14444  -0.05168
  69   39274.8    254.6   0.067155071   0.56291   0.10522   0.00643   0.74283
  70   39535.5    252.9   0.014234057   0.11853  -0.30333  -0.16152   0.02067
  71   39597.6    252.5   0.090692140   0.75401   0.06515   0.65076   0.57120
  72   39692.1    251.9   0.079560295   0.65988   0.46539   0.52074   0.41488
  73   39813.5    251.2   0.082722332   0.68402  -0.82327  -0.07847  -0.00959
  74   39953.5    250.3   0.001519897   0.01252  -0.00149  -0.09091  -0.06524
  75   40076.6    249.5   0.007727446   0.06348  -0.14398   0.14910   0.14323

FINAL SINGLE POINT ENERGY     -3887.765943551535

DIPOLE MOMENT
-------------
                                X             Y             Z
Electronic contribution:     33.40177     -27.53966     -55.27087
Nuclear contribution   :    -34.02210      28.28800      56.28296
                        -----------------------------------------
Total Dipole Moment    :     -0.62034       0.74834       1.01209
                        -----------------------------------------
Magnitude (a.u.)       :      1.40327
Magnitude (Debye)      :      3.56683

Rotational constants in cm-1:     0.001528     0.000679     0.000528
Rotational constants in MHz :    45.798294    20.363181    15.834959

                             ****ORCA TERMINATED NORMALLY****
TOTAL RUN TIME: 0 days 0 hours 11 minutes 16 seconds 667 msec
