                         Program Version 4.2.0 -  RELEASE  -
|  1> # ORCA input file
|  2> # SCF done       -175.954111109371          0.000770524667
|  3> ! CAM-B3LYP def2-SVP def2/J RIJCOSX Grid4 TightSCF
|  4> %maxcore 5000
|  5> %tddft
|  6>     Mode sTDDFT
|  7>     Ethresh 5.0
|  8>     maxcore 5000
|  9> end
| 10>
| 11> %pal
| 12>   nprocs 6
| 13>   end
| 14> * xyz 0 1
| 15>    C       -1.28443       -12.42127       -10.01587
| 16>    C       -0.42743       -11.46208       -10.48258
| 17>    F       -0.20315       -11.36149       -11.80205
| 18>    C        0.23575       -10.55212        -9.63071
| 19>    F        1.03480        -9.63104       -10.19435
| 20>    C        0.05289       -10.55746        -8.26256
| 21>    C       -0.79856       -11.57224        -7.75240
| 22>    C       -1.47313       -12.49202        -8.62748
| 23>    N       -2.22842       -13.36075        -7.94962
| 24>    S       -2.08449       -13.05897        -6.37929
| 25>    N       -1.06411       -11.82406        -6.47132
| 26>    C        0.66460        -9.61380        -7.35788
| 27>    C        2.01818        -9.06352        -7.40007
| 28>    N        2.33748        -8.35728        -6.34926
| 29>    C        1.24041        -8.36972        -5.54611
| 30>    C        0.14678        -9.12357        -6.18870
| 31>    C       -1.03109        -9.08162        -5.36244
| 32>    S       -2.57245        -9.37860        -5.86380
| 33>    C       -0.56952        -8.52211        -4.12104
| 34>    C        0.80625        -8.02098        -4.29014
| 35>    N        1.24542        -7.43867        -3.13740
| 36>    C        0.26484        -7.56036        -2.28725
| 37>    C       -0.90983        -8.25611        -2.80974
| 38>    C       -2.08737        -8.66402        -2.09793
| 39>    C       -2.84867        -9.68302        -2.64208
| 40>    C       -4.04359       -10.07412        -2.03236
| 41>    C       -5.00622       -10.99619        -2.44537
| 42>    C       -4.95580       -11.76555        -3.72150
| 43>    C       -4.70177       -13.26256        -3.46221
| 44>    N       -4.27299       -13.91244        -4.69079
| 45>    C       -6.19385       -11.50892        -4.61533
| 46>    N       -7.33743       -12.34252        -4.27288
| 47>    C       -6.03062       -10.99074        -1.43386
| 48>    C       -7.18582       -11.68074        -1.33742
| 49>    C       -8.09055       -11.51682        -0.17490
| 50>    C       -7.65094       -10.49772         0.83020
| 51>    C       -6.49187        -9.81831         0.71931
| 52>    C       -5.64631       -10.02449        -0.39444
| 53>    C       -4.43961        -9.45962        -0.77887
| 54>    C       -3.61471        -8.46258        -0.21193
| 55>    C       -2.48161        -8.07164        -0.85895
| 56>    C       -8.25643       -12.80991         0.58837
| 57>    C       -7.30896       -13.75244         0.65943
| 58>    C       -7.43951       -14.97226         1.39441
| 59>    C       -6.38375       -15.98491         1.43876
| 60>    N       -6.67537       -17.04895         2.13046
| 61>    C       -7.93905       -16.83934         2.59297
| 62>    C       -8.45214       -15.52516         2.14888
| 63>    C       -9.77836       -15.32527         2.67798
| 64>    S      -10.69473       -13.96068         2.67912
| 65>    C      -10.08980       -16.56586         3.35024
| 66>    C       -8.91194       -17.45561         3.33353
| 67>    N       -9.16052       -18.59374         4.03692
| 68>    C      -10.38050       -18.47310         4.47836
| 69>    C      -11.04488       -17.23550         4.06891
| 70>    C      -12.41550       -16.89337         4.36678
| 71>    C      -13.25440       -16.29616         3.44586
| 72>    F      -12.82587       -16.07711         2.19598
| 73>    C      -14.59114       -15.95156         3.74964
| 74>    F      -15.32353       -15.38046         2.78327
| 75>    C      -15.15154       -16.18480         4.97434
| 76>    C      -14.34396       -16.81048         5.93702
| 77>    C      -12.98414       -17.17591         5.63414
| 78>    N      -12.38326       -17.76033         6.66866
| 79>    S      -13.42278       -17.84475         7.88980
| 80>    N      -14.68240       -17.14681         7.18175
| 81>    H       -1.78678       -13.09701       -10.68672
| 82>    H        2.72656        -9.21754        -8.19446
| 83>    H        0.37527        -7.18626        -1.28412
| 84>    H       -2.51203       -10.18620        -3.53158
| 85>    H       -4.09535       -11.40174        -4.28994
| 86>    H       -5.59718       -13.71260        -3.00903
| 87>    H       -3.88053       -13.35054        -2.74514
| 88>    H       -5.02241       -13.93168        -5.37328
| 89>    H       -3.99148       -14.86928        -4.51073
| 90>    H       -5.88091       -11.63459        -5.66220
| 91>    H       -6.48653       -10.46461        -4.48475
| 92>    H       -7.22858       -13.27812        -4.64963
| 93>    H       -8.18460       -11.95262        -4.66861
| 94>    H       -7.49046       -12.36418        -2.11835
| 95>    H       -9.08517       -11.23943        -0.55329
| 96>    H       -8.30542       -10.35546         1.67613
| 97>    H       -6.20345        -9.09816         1.47132
| 98>    H       -3.89753        -8.00516         0.72479
| 99>    H       -1.86499        -7.28979        -0.44247
|100>    H       -9.17874       -12.92171         1.14023
|101>    H       -6.37343       -13.62531         0.12758
|102>    H       -5.42620       -15.89172         0.95485
|103>    H      -10.83538       -19.24006         5.07851
|104>    H      -16.16976       -15.91017         5.19019
|105> *
|106>
|107>                          ****END OF INPUT****

CARTESIAN COORDINATES (ANGSTROEM)
---------------------------------
  C     -1.284430  -12.421270  -10.015870
  C     -0.427430  -11.462080  -10.482580
  F     -0.203150  -11.361490  -11.802050
  C      0.235750  -10.552120   -9.630710
  F      1.034800   -9.631040  -10.194350
  C      0.052890  -10.557460   -8.262560
  C     -0.798560  -11.572240   -7.752400
  C     -1.473130  -12.492020   -8.627480
  N     -2.228420  -13.360750   -7.949620
  S     -2.084490  -13.058970   -6.379290
  N     -1.064110  -11.824060   -6.471320
  C      0.664600   -9.613800   -7.357880
  C      2.018180   -9.063520   -7.400070
  N      2.337480   -8.357280   -6.349260
  C      1.240410   -8.369720   -5.546110
  C      0.146780   -9.123570   -6.188700
  C     -1.031090   -9.081620   -5.362440
  S     -2.572450   -9.378600   -5.863800
  C     -0.569520   -8.522110   -4.121040
  C      0.806250   -8.020980   -4.290140
  N      1.245420   -7.438670   -3.137400
  C      0.264840   -7.560360   -2.287250
  C     -0.909830   -8.256110   -2.809740
  C     -2.087370   -8.664020   -2.097930
  C     -2.848670   -9.683020   -2.642080
  C     -4.043590  -10.074120   -2.032360
  C     -5.006220  -10.996190   -2.445370
  C     -4.955800  -11.765550   -3.721500
  C     -4.701770  -13.262560   -3.462210
  N     -4.272990  -13.912440   -4.690790
  C     -6.193850  -11.508920   -4.615330
  N     -7.337430  -12.342520   -4.272880
  C     -6.030620  -10.990740   -1.433860
  C     -7.185820  -11.680740   -1.337420
  C     -8.090550  -11.516820   -0.174900
  C     -7.650940  -10.497720    0.830200
  C     -6.491870   -9.818310    0.719310
  C     -5.646310  -10.024490   -0.394440
  C     -4.439610   -9.459620   -0.778870
  C     -3.614710   -8.462580   -0.211930
  C     -2.481610   -8.071640   -0.858950
  C     -8.256430  -12.809910    0.588370
  C     -7.308960  -13.752440    0.659430
  C     -7.439510  -14.972260    1.394410
  C     -6.383750  -15.984910    1.438760
  N     -6.675370  -17.048950    2.130460
  C     -7.939050  -16.839340    2.592970
  C     -8.452140  -15.525160    2.148880
  C     -9.778360  -15.325270    2.677980
  S    -10.694730  -13.960680    2.679120
  C    -10.089800  -16.565860    3.350240
  C     -8.911940  -17.455610    3.333530
  N     -9.160520  -18.593740    4.036920
  C    -10.380500  -18.473100    4.478360
  C    -11.044880  -17.235500    4.068910
  C    -12.415500  -16.893370    4.366780
  C    -13.254400  -16.296160    3.445860
  F    -12.825870  -16.077110    2.195980
  C    -14.591140  -15.951560    3.749640
  F    -15.323530  -15.380460    2.783270
  C    -15.151540  -16.184800    4.974340
  C    -14.343960  -16.810480    5.937020
  C    -12.984140  -17.175910    5.634140
  N    -12.383260  -17.760330    6.668660
  S    -13.422780  -17.844750    7.889800
  N    -14.682400  -17.146810    7.181750
  H     -1.786780  -13.097010  -10.686720
  H      2.726560   -9.217540   -8.194460
  H      0.375270   -7.186260   -1.284120
  H     -2.512030  -10.186200   -3.531580
  H     -4.095350  -11.401740   -4.289940
  H     -5.597180  -13.712600   -3.009030
  H     -3.880530  -13.350540   -2.745140
  H     -5.022410  -13.931680   -5.373280
  H     -3.991480  -14.869280   -4.510730
  H     -5.880910  -11.634590   -5.662200
  H     -6.486530  -10.464610   -4.484750
  H     -7.228580  -13.278120   -4.649630
  H     -8.184600  -11.952620   -4.668610
  H     -7.490460  -12.364180   -2.118350
  H     -9.085170  -11.239430   -0.553290
  H     -8.305420  -10.355460    1.676130
  H     -6.203450   -9.098160    1.471320
  H     -3.897530   -8.005160    0.724790
  H     -1.864990   -7.289790   -0.442470
  H     -9.178740  -12.921710    1.140230
  H     -6.373430  -13.625310    0.127580
  H     -5.426200  -15.891720    0.954850
  H    -10.835380  -19.240060    5.078510
  H    -16.169760  -15.910170    5.190190

 Total Charge           Charge          ....    0
 Multiplicity           Mult            ....    1
 Number of Electrons    NEL             ....  482
 Basis Dimension        Dim             .... 1060

ORBITAL ENERGIES
----------------

  NO   OCC          E(Eh)            E(eV)
   0   2.0000     -89.033319     -2422.7198
   1   2.0000     -89.013640     -2422.1843
   2   2.0000     -88.904296     -2419.2089
   3   2.0000     -88.889658     -2418.8106
   4   2.0000     -24.805386      -674.9889
   5   2.0000     -24.801009      -674.8698
   6   2.0000     -24.799923      -674.8402
   7   2.0000     -24.790815      -674.5924
   8   2.0000     -14.448989      -393.1770
   9   2.0000     -14.447107      -393.1258
  10   2.0000     -14.428038      -392.6069
  11   2.0000     -14.427458      -392.5911
  12   2.0000     -14.417852      -392.3297
  13   2.0000     -14.413755      -392.2182
  14   2.0000     -14.407919      -392.0594
  15   2.0000     -14.404376      -391.9630
  16   2.0000     -14.402717      -391.9179
  17   2.0000     -14.397076      -391.7644
  18   2.0000     -10.390781      -282.7475
  19   2.0000     -10.388203      -282.6774
  20   2.0000     -10.379008      -282.4272
  21   2.0000     -10.376331      -282.3543
  22   2.0000     -10.346259      -281.5360
  23   2.0000     -10.339602      -281.3549
  24   2.0000     -10.337600      -281.3004
  25   2.0000     -10.336544      -281.2717
  26   2.0000     -10.333784      -281.1966
  27   2.0000     -10.333700      -281.1943
  28   2.0000     -10.331968      -281.1472
  29   2.0000     -10.330617      -281.1104
  30   2.0000     -10.328567      -281.0546
  31   2.0000     -10.325441      -280.9695
  32   2.0000     -10.324936      -280.9558
  33   2.0000     -10.320842      -280.8444
  34   2.0000     -10.320393      -280.8322
  35   2.0000     -10.319759      -280.8149
  36   2.0000     -10.319683      -280.8128
  37   2.0000     -10.312505      -280.6175
  38   2.0000     -10.308367      -280.5049
  39   2.0000     -10.307100      -280.4705
  40   2.0000     -10.305775      -280.4344
  41   2.0000     -10.302224      -280.3378
  42   2.0000     -10.299449      -280.2622
  43   2.0000     -10.296108      -280.1714
  44   2.0000     -10.294615      -280.1307
  45   2.0000     -10.294032      -280.1148
  46   2.0000     -10.293768      -280.1077
  47   2.0000     -10.292926      -280.0848
  48   2.0000     -10.292176      -280.0644
  49   2.0000     -10.292149      -280.0636
  50   2.0000     -10.289926      -280.0031
  51   2.0000     -10.289709      -279.9972
  52   2.0000     -10.283429      -279.8263
  53   2.0000     -10.281799      -279.7820
  54   2.0000     -10.277139      -279.6552
  55   2.0000     -10.269821      -279.4560
  56   2.0000     -10.269763      -279.4545
  57   2.0000     -10.268825      -279.4289
  58   2.0000     -10.268240      -279.4130
  59   2.0000     -10.267845      -279.4023
  60   2.0000     -10.267082      -279.3815
  61   2.0000     -10.266706      -279.3713
  62   2.0000     -10.261991      -279.2430
  63   2.0000     -10.259824      -279.1840
  64   2.0000     -10.259241      -279.1681
  65   2.0000     -10.258991      -279.1613
  66   2.0000      -8.125190      -221.0976
  67   2.0000      -8.104521      -220.5352
  68   2.0000      -7.999946      -217.6896
  69   2.0000      -7.984933      -217.2811
  70   2.0000      -6.096396      -165.8914
  71   2.0000      -6.088610      -165.6795
  72   2.0000      -6.087610      -165.6523
  73   2.0000      -6.075620      -165.3260
  74   2.0000      -6.067797      -165.1132
  75   2.0000      -6.067088      -165.0939
  76   2.0000      -5.968701      -162.4166
  77   2.0000      -5.968400      -162.4084
  78   2.0000      -5.959357      -162.1624
  79   2.0000      -5.953860      -162.0128
  80   2.0000      -5.953234      -161.9957
  81   2.0000      -5.944432      -161.7562
  82   2.0000      -1.326819       -36.1046
  83   2.0000      -1.318791       -35.8861
  84   2.0000      -1.309995       -35.6468
  85   2.0000      -1.301033       -35.4029
  86   2.0000      -1.135565       -30.9003
  87   2.0000      -1.115757       -30.3613
  88   2.0000      -1.085381       -29.5347
  89   2.0000      -1.074900       -29.2495
  90   2.0000      -1.066099       -29.0100
  91   2.0000      -1.055625       -28.7250
  92   2.0000      -0.991005       -26.9666
  93   2.0000      -0.990747       -26.9596
  94   2.0000      -0.981406       -26.7054
  95   2.0000      -0.976618       -26.5751
  96   2.0000      -0.973552       -26.4917
  97   2.0000      -0.966956       -26.3122
  98   2.0000      -0.966180       -26.2911
  99   2.0000      -0.964770       -26.2527
 100   2.0000      -0.953722       -25.9521
 101   2.0000      -0.945923       -25.7399
 102   2.0000      -0.920232       -25.0408
 103   2.0000      -0.903068       -24.5737
 104   2.0000      -0.899087       -24.4654
 105   2.0000      -0.890453       -24.2305
 106   2.0000      -0.876426       -23.8488
 107   2.0000      -0.869360       -23.6565
 108   2.0000      -0.862987       -23.4831
 109   2.0000      -0.857801       -23.3420
 110   2.0000      -0.854328       -23.2474
 111   2.0000      -0.845858       -23.0170
 112   2.0000      -0.841227       -22.8910
 113   2.0000      -0.838456       -22.8156
 114   2.0000      -0.832008       -22.6401
 115   2.0000      -0.827150       -22.5079
 116   2.0000      -0.822383       -22.3782
 117   2.0000      -0.796020       -21.6608
 118   2.0000      -0.782267       -21.2866
 119   2.0000      -0.774050       -21.0630
 120   2.0000      -0.764676       -20.8079
 121   2.0000      -0.754717       -20.5369
 122   2.0000      -0.752865       -20.4865
 123   2.0000      -0.744743       -20.2655
 124   2.0000      -0.740822       -20.1588
 125   2.0000      -0.734212       -19.9789
 126   2.0000      -0.726383       -19.7659
 127   2.0000      -0.723029       -19.6746
 128   2.0000      -0.712256       -19.3815
 129   2.0000      -0.710984       -19.3469
 130   2.0000      -0.703534       -19.1441
 131   2.0000      -0.697931       -18.9917
 132   2.0000      -0.690962       -18.8020
 133   2.0000      -0.684227       -18.6188
 134   2.0000      -0.672063       -18.2878
 135   2.0000      -0.669827       -18.2269
 136   2.0000      -0.658717       -17.9246
 137   2.0000      -0.652726       -17.7616
 138   2.0000      -0.647840       -17.6286
 139   2.0000      -0.641063       -17.4442
 140   2.0000      -0.640694       -17.4342
 141   2.0000      -0.638986       -17.3877
 142   2.0000      -0.634651       -17.2697
 143   2.0000      -0.629560       -17.1312
 144   2.0000      -0.628319       -17.0974
 145   2.0000      -0.625770       -17.0281
 146   2.0000      -0.615577       -16.7507
 147   2.0000      -0.610651       -16.6166
 148   2.0000      -0.606152       -16.4942
 149   2.0000      -0.603279       -16.4161
 150   2.0000      -0.595694       -16.2097
 151   2.0000      -0.593109       -16.1393
 152   2.0000      -0.588527       -16.0146
 153   2.0000      -0.584252       -15.8983
 154   2.0000      -0.576314       -15.6823
 155   2.0000      -0.574987       -15.6462
 156   2.0000      -0.574357       -15.6291
 157   2.0000      -0.566465       -15.4143
 158   2.0000      -0.564183       -15.3522
 159   2.0000      -0.563640       -15.3374
 160   2.0000      -0.557130       -15.1603
 161   2.0000      -0.552679       -15.0392
 162   2.0000      -0.551544       -15.0083
 163   2.0000      -0.550617       -14.9831
 164   2.0000      -0.548863       -14.9353
 165   2.0000      -0.548080       -14.9140
 166   2.0000      -0.545534       -14.8447
 167   2.0000      -0.542909       -14.7733
 168   2.0000      -0.541357       -14.7311
 169   2.0000      -0.539788       -14.6884
 170   2.0000      -0.536916       -14.6102
 171   2.0000      -0.534265       -14.5381
 172   2.0000      -0.531021       -14.4498
 173   2.0000      -0.526505       -14.3269
 174   2.0000      -0.520152       -14.1541
 175   2.0000      -0.519239       -14.1292
 176   2.0000      -0.517558       -14.0835
 177   2.0000      -0.512454       -13.9446
 178   2.0000      -0.511718       -13.9245
 179   2.0000      -0.505261       -13.7488
 180   2.0000      -0.500516       -13.6197
 181   2.0000      -0.500250       -13.6125
 182   2.0000      -0.497129       -13.5276
 183   2.0000      -0.494769       -13.4633
 184   2.0000      -0.492339       -13.3972
 185   2.0000      -0.489419       -13.3178
 186   2.0000      -0.488033       -13.2801
 187   2.0000      -0.485470       -13.2103
 188   2.0000      -0.484515       -13.1843
 189   2.0000      -0.480917       -13.0864
 190   2.0000      -0.479116       -13.0374
 191   2.0000      -0.478159       -13.0114
 192   2.0000      -0.476201       -12.9581
 193   2.0000      -0.468893       -12.7592
 194   2.0000      -0.466454       -12.6929
 195   2.0000      -0.463426       -12.6105
 196   2.0000      -0.458712       -12.4822
 197   2.0000      -0.455670       -12.3994
 198   2.0000      -0.447990       -12.1904
 199   2.0000      -0.443630       -12.0718
 200   2.0000      -0.442039       -12.0285
 201   2.0000      -0.438627       -11.9356
 202   2.0000      -0.434265       -11.8169
 203   2.0000      -0.431942       -11.7537
 204   2.0000      -0.428296       -11.6545
 205   2.0000      -0.426220       -11.5980
 206   2.0000      -0.424042       -11.5388
 207   2.0000      -0.420049       -11.4301
 208   2.0000      -0.416452       -11.3322
 209   2.0000      -0.413782       -11.2596
 210   2.0000      -0.413370       -11.2484
 211   2.0000      -0.410020       -11.1572
 212   2.0000      -0.407914       -11.0999
 213   2.0000      -0.396512       -10.7896
 214   2.0000      -0.395642       -10.7660
 215   2.0000      -0.393215       -10.6999
 216   2.0000      -0.386463       -10.5162
 217   2.0000      -0.380144       -10.3442
 218   2.0000      -0.364218        -9.9109
 219   2.0000      -0.360451        -9.8084
 220   2.0000      -0.360012        -9.7964
 221   2.0000      -0.357920        -9.7395
 222   2.0000      -0.350198        -9.5294
 223   2.0000      -0.348724        -9.4893
 224   2.0000      -0.347560        -9.4576
 225   2.0000      -0.341737        -9.2991
 226   2.0000      -0.337259        -9.1773
 227   2.0000      -0.333896        -9.0858
 228   2.0000      -0.329319        -8.9612
 229   2.0000      -0.327990        -8.9251
 230   2.0000      -0.318638        -8.6706
 231   2.0000      -0.317172        -8.6307
 232   2.0000      -0.307482        -8.3670
 233   2.0000      -0.301296        -8.1987
 234   2.0000      -0.299920        -8.1612
 235   2.0000      -0.292045        -7.9470
 236   2.0000      -0.290152        -7.8954
 237   2.0000      -0.289423        -7.8756
 238   2.0000      -0.278487        -7.5780
 239   2.0000      -0.271916        -7.3992
 240   2.0000      -0.217332        -5.9139
 241   0.0000      -0.113257        -3.0819
 242   0.0000      -0.103522        -2.8170
 243   0.0000      -0.083429        -2.2702
 244   0.0000      -0.077726        -2.1150
 245   0.0000      -0.061449        -1.6721

MULLIKEN ATOMIC CHARGES
-----------------------
   0 C :   -0.117729
   1 C :    0.255243
   2 F :   -0.179600
   3 C :    0.146302
   4 F :   -0.169132
   5 C :    0.029230
   6 C :   -0.004706
   7 C :    0.064208
   8 N :   -0.282560
   9 S :    0.529713
  10 N :   -0.258967
  11 C :   -0.045081
  12 C :    0.064903
  13 N :   -0.033499
  14 C :    0.001012
  15 C :    0.016012
  16 C :   -0.010425
  17 S :   -0.141662
  18 C :   -0.022724
  19 C :    0.014212
  20 N :   -0.035037
  21 C :    0.054992
  22 C :    0.015130
  23 C :    0.076279
  24 C :   -0.053801
  25 C :    0.045158
  26 C :   -0.034520
  27 C :    0.009052
  28 C :    0.098722
  29 N :   -0.218978
  30 C :    0.095572
  31 N :   -0.212065
  32 C :    0.067986
  33 C :   -0.127364
  34 C :    0.166172
  35 C :   -0.031271
  36 C :    0.014849
  37 C :    0.022409
  38 C :    0.040735
  39 C :   -0.003769
  40 C :   -0.029723
  41 C :   -0.059540
  42 C :    0.016037
  43 C :    0.022376
  44 C :    0.061635
  45 N :   -0.028681
  46 C :    0.005887
  47 C :   -0.014703
  48 C :   -0.008281
  49 S :   -0.116572
  50 C :    0.008193
  51 C :    0.010084
  52 N :   -0.032704
  53 C :    0.084672
  54 C :   -0.053994
  55 C :    0.012352
  56 C :    0.167810
  57 F :   -0.153131
  58 C :    0.257107
  59 F :   -0.173594
  60 C :   -0.107924
  61 C :    0.057115
  62 C :   -0.003479
  63 N :   -0.272908
  64 S :    0.511510
  65 N :   -0.266532
  66 H :   -0.007482
  67 H :    0.007965
  68 H :    0.007430
  69 H :   -0.040484
  70 H :   -0.015016
  71 H :   -0.007728
  72 H :    0.004309
  73 H :    0.087223
  74 H :    0.101251
  75 H :    0.000124
  76 H :    0.019543
  77 H :    0.092094
  78 H :    0.106751
  79 H :   -0.011294
  80 H :    0.031227
  81 H :   -0.008814
  82 H :   -0.036584
  83 H :   -0.039091
  84 H :   -0.034746
  85 H :    0.000224
  86 H :   -0.010849
  87 H :    0.007261
  88 H :    0.009620
  89 H :   -0.000946
Sum of atomic charges:   -0.0000000

LOEWDIN ATOMIC CHARGES
----------------------
   0 C :   -0.040029
   1 C :    0.065406
   2 F :   -0.053964
   3 C :    0.069915
   4 F :   -0.048240
   5 C :   -0.050277
   6 C :   -0.049357
   7 C :   -0.055939
   8 N :   -0.302483
   9 S :    0.690689
  10 N :   -0.287587
  11 C :   -0.042416
  12 C :    0.087489
  13 N :   -0.087950
  14 C :    0.031420
  15 C :   -0.008235
  16 C :   -0.129606
  17 S :    0.055373
  18 C :   -0.046488
  19 C :    0.048128
  20 N :   -0.084479
  21 C :    0.090612
  22 C :   -0.025412
  23 C :   -0.043654
  24 C :    0.025137
  25 C :   -0.025794
  26 C :   -0.021286
  27 C :   -0.039774
  28 C :    0.021630
  29 N :   -0.117586
  30 C :    0.024223
  31 N :   -0.090996
  32 C :   -0.030021
  33 C :    0.079851
  34 C :   -0.034577
  35 C :   -0.027286
  36 C :   -0.019635
  37 C :   -0.036930
  38 C :   -0.033096
  39 C :   -0.011400
  40 C :   -0.031864
  41 C :    0.045236
  42 C :   -0.051087
  43 C :   -0.027848
  44 C :    0.088767
  45 N :   -0.080009
  46 C :    0.042972
  47 C :   -0.043496
  48 C :   -0.137666
  49 S :    0.074750
  50 C :   -0.018908
  51 C :    0.033933
  52 N :   -0.084972
  53 C :    0.098232
  54 C :   -0.034188
  55 C :   -0.056648
  56 C :    0.080838
  57 F :   -0.034366
  58 C :    0.071786
  59 F :   -0.047863
  60 C :   -0.037855
  61 C :   -0.054373
  62 C :   -0.047749
  63 N :   -0.290008
  64 S :    0.650048
  65 N :   -0.282897
  66 H :    0.048701
  67 H :    0.025033
  68 H :    0.024662
  69 H :    0.016054
  70 H :    0.025248
  71 H :   -0.001624
  72 H :    0.022812
  73 H :    0.045650
  74 H :    0.056017
  75 H :    0.005454
  76 H :    0.028325
  77 H :    0.049931
  78 H :    0.061755
  79 H :    0.020468
  80 H :    0.060325
  81 H :    0.025793
  82 H :    0.029868
  83 H :    0.026553
  84 H :    0.023086
  85 H :    0.002551
  86 H :    0.029402
  87 H :    0.025948
  88 H :    0.026088
  89 H :    0.051760

  Mayer bond orders larger than 0.100000
B(  0-C ,  1-C ) :   1.4486 B(  0-C ,  5-C ) :   0.1284 B(  0-C ,  7-C ) :   1.1493
B(  0-C , 66-H ) :   1.0465 B(  1-C ,  2-F ) :   1.1048 B(  1-C ,  3-C ) :   1.1402
B(  3-C ,  4-F ) :   1.1697 B(  3-C ,  5-C ) :   1.4339 B(  5-C ,  6-C ) :   1.2119
B(  5-C , 11-C ) :   0.9696 B(  6-C ,  7-C ) :   1.1627 B(  6-C , 10-N ) :   1.5407
B(  7-C ,  8-N ) :   1.4974 B(  8-N ,  9-S ) :   1.2855 B(  8-N , 10-N ) :   0.1413
B(  9-S , 10-N ) :   1.2636 B( 11-C , 12-C ) :   1.0557 B( 11-C , 15-C ) :   1.6034
B( 12-C , 13-N ) :   1.7020 B( 12-C , 67-H ) :   0.9938 B( 13-N , 14-C ) :   1.2874
B( 14-C , 15-C ) :   1.0546 B( 14-C , 19-C ) :   1.5049 B( 15-C , 16-C ) :   1.0196
B( 16-C , 17-S ) :   1.6689 B( 16-C , 18-C ) :   1.0452 B( 18-C , 19-C ) :   1.0689
B( 18-C , 22-C ) :   1.5132 B( 19-C , 20-N ) :   1.2639 B( 20-N , 21-C ) :   1.7179
B( 21-C , 22-C ) :   1.0331 B( 21-C , 68-H ) :   0.9886 B( 22-C , 23-C ) :   1.0334
B( 23-C , 24-C ) :   1.4999 B( 23-C , 40-C ) :   1.1240 B( 24-C , 25-C ) :   1.1735
B( 24-C , 69-H ) :   0.9727 B( 25-C , 26-C ) :   1.4659 B( 25-C , 38-C ) :   1.1210
B( 26-C , 27-C ) :   1.0426 B( 26-C , 32-C ) :   1.0914 B( 27-C , 28-C ) :   1.0476
B( 27-C , 30-C ) :   1.0221 B( 27-C , 70-H ) :   0.8693 B( 28-C , 29-N ) :   1.0862
B( 28-C , 71-H ) :   0.9371 B( 28-C , 72-H ) :   0.9399 B( 29-N , 73-H ) :   0.9682
B( 29-N , 74-H ) :   0.9624 B( 30-C , 31-N ) :   1.0752 B( 30-C , 75-H ) :   0.9459
B( 30-C , 76-H ) :   0.9490 B( 31-N , 77-H ) :   0.9653 B( 31-N , 78-H ) :   0.9642
B( 31-N , 79-H ) :   0.1429 B( 32-C , 33-C ) :   1.6341 B( 32-C , 37-C ) :   1.0595
B( 33-C , 34-C ) :   0.9572 B( 33-C , 79-H ) :   0.9424 B( 34-C , 35-C ) :   0.9856
B( 34-C , 41-C ) :   0.9678 B( 34-C , 80-H ) :   0.8585 B( 35-C , 36-C ) :   1.7227
B( 35-C , 81-H ) :   0.9671 B( 36-C , 37-C ) :   1.1323 B( 36-C , 82-H ) :   0.9890
B( 37-C , 38-C ) :   1.4164 B( 38-C , 39-C ) :   1.1482 B( 39-C , 40-C ) :   1.6026
B( 39-C , 83-H ) :   0.9902 B( 40-C , 84-H ) :   0.9856 B( 41-C , 42-C ) :   1.7782
B( 41-C , 85-H ) :   0.9351 B( 42-C , 43-C ) :   1.0969 B( 42-C , 86-H ) :   0.9547
B( 43-C , 44-C ) :   1.0261 B( 43-C , 47-C ) :   1.4964 B( 44-C , 45-N ) :   1.7113
B( 44-C , 87-H ) :   0.9906 B( 45-N , 46-C ) :   1.2681 B( 46-C , 47-C ) :   1.0644
B( 46-C , 51-C ) :   1.5204 B( 47-C , 48-C ) :   1.0496 B( 48-C , 49-S ) :   1.6848
B( 48-C , 50-C ) :   1.0244 B( 49-S , 85-H ) :   0.1240 B( 50-C , 51-C ) :   1.0544
B( 50-C , 54-C ) :   1.6043 B( 51-C , 52-N ) :   1.2750 B( 52-N , 53-C ) :   1.7083
B( 53-C , 54-C ) :   1.0510 B( 53-C , 88-H ) :   0.9912 B( 54-C , 55-C ) :   0.9648
B( 55-C , 56-C ) :   1.4501 B( 55-C , 60-C ) :   0.1287 B( 55-C , 62-C ) :   1.1989
B( 56-C , 57-F ) :   1.1883 B( 56-C , 58-C ) :   1.1238 B( 58-C , 59-F ) :   1.1116
B( 58-C , 60-C ) :   1.4589 B( 60-C , 61-C ) :   1.1455 B( 60-C , 89-H ) :   1.0463
B( 61-C , 62-C ) :   1.1578 B( 61-C , 65-N ) :   1.5159 B( 62-C , 63-N ) :   1.5571
B( 63-N , 64-S ) :   1.2583 B( 63-N , 65-N ) :   0.1481 B( 64-S , 65-N ) :   1.2790

-----------------------------------------------------------------------------
         ABSORPTION SPECTRUM VIA TRANSITION ELECTRIC DIPOLE MOMENTS
-----------------------------------------------------------------------------
State   Energy  Wavelength   fosc         T2         TX        TY        TZ
        (cm-1)    (nm)                  (au**2)     (au)      (au)      (au)
-----------------------------------------------------------------------------
   0    9262.9   1079.6   0.081461909   2.89525  -1.26488  -0.65848   0.92829
   1   10235.2    977.0   0.032704104   1.05192   0.45562   0.77949  -0.48654
   2   13145.5    760.7   0.007883579   0.19743  -0.00888  -0.30268  -0.32517
   3   15219.8    657.0   0.003909470   0.08456   0.11807  -0.12115  -0.23653
   4   16381.2    610.5   0.037104919   0.74569   0.50865   0.39018  -0.57855
   5   16565.8    603.7   0.023792331   0.47283   0.46751   0.19700  -0.46417
   6   16717.9    598.2   0.127726252   2.51521   0.97690   0.05580  -1.24810
   7   17977.4    556.3   0.087508594   1.60250   0.74826   0.10555  -1.01561
   8   18717.9    534.2   0.053470228   0.94044   0.60773   0.16824  -0.73675
   9   18878.3    529.7   0.036064368   0.62891  -0.48491  -0.55011   0.30191
  10   19073.2    524.3   0.005112004   0.08824   0.18088   0.19267  -0.13563
  11   21018.6    475.8   0.024379172   0.38185   0.56981  -0.01247  -0.23878
  12   21125.2    473.4   0.020469195   0.31899  -0.06163  -0.35250  -0.43696
  13   22869.8    437.3   0.011296271   0.16261  -0.21896  -0.05520   0.33409
  14   23914.2    418.2   0.212019270   2.91873  -0.94619   0.04914   1.42163
  15   24291.1    411.7   0.055843424   0.75683  -0.71531  -0.26647   0.41733
  16   24997.0    400.0   0.000775972   0.01022  -0.05900  -0.07974   0.01948
  17   25080.2    398.7   0.090279112   1.18504  -0.79932  -0.28874   0.68026
  18   25209.5    396.7   0.019438437   0.25385   0.41503   0.06756  -0.27755
  19   25463.7    392.7   0.120847988   1.56241   0.74414   0.36145  -0.93703
  20   26028.5    384.2   0.011144069   0.14095  -0.22672  -0.16614   0.24889
  21   26055.6    383.8   0.012937219   0.16346   0.24253   0.21480  -0.24187
  22   26306.8    380.1   0.165422594   2.07015  -0.96581  -0.22411   1.04266
  23   26380.3    379.1   0.003961427   0.04944   0.16120   0.15312  -0.00224
  24   27591.8    362.4   0.064120733   0.76506  -0.14049  -0.70253  -0.50177
  25   28056.1    356.4   0.508998158   5.97262   1.81062   1.51505  -0.63159
  26   28187.1    354.8   0.337774781   3.94505  -1.10106   0.17519   1.64378
  27   28227.6    354.3   0.161690044   1.88575  -1.12424  -0.76498  -0.19142
  28   28302.6    353.3   0.040231674   0.46797   0.01146   0.63248  -0.26040
  29   29112.6    343.5   0.025452005   0.28782   0.46858   0.23523  -0.11365
  30   29657.7    337.2   0.018315332   0.20331   0.37525   0.24796  -0.03178
  31   30303.0    330.0   0.030821045   0.33484  -0.20512  -0.41104  -0.35187
  32   30325.1    329.8   0.005074192   0.05509   0.08455  -0.07821  -0.20450
  33   30691.5    325.8   0.053401291   0.57281   0.65568   0.37293   0.06172
  34   30708.9    325.6   0.010157717   0.10889  -0.13826   0.27599   0.11667
  35   31013.6    322.4   0.000048148   0.00051  -0.01374  -0.01771   0.00294
  36   31122.3    321.3   0.054961855   0.58139  -0.30806  -0.24104   0.65451
  37   31590.8    316.5   0.005638869   0.05876  -0.22209  -0.06634   0.07097
  38   31677.1    315.7   0.010958439   0.11389  -0.14573   0.07422   0.29520
  39   31837.3    314.1   0.007841102   0.08108   0.21520   0.18397  -0.03040
  40   31987.0    312.6   0.018985366   0.19540   0.32558   0.29539  -0.04627
  41   32026.9    312.2   0.026659791   0.27404   0.47542  -0.02004  -0.21822
  42   32249.3    310.1   0.006424649   0.06559  -0.13746   0.15614   0.14936
  43   32725.9    305.6   0.086150641   0.86665  -0.17084  -0.19471   0.89418
  44   32762.7    305.2   0.100026490   1.00510   0.50812   0.02045  -0.86400
  45   32799.8    304.9   0.001110018   0.01114  -0.01543  -0.00818  -0.10410
  46   33117.5    302.0   0.012312788   0.12240   0.17547   0.11209  -0.28115
  47   33165.1    301.5   0.006086719   0.06042   0.15724   0.08614   0.16815
  48   33415.9    299.3   0.079716611   0.78536   0.60053   0.49098  -0.42856
  49   33874.3    295.2   0.070489677   0.68506   0.14922  -0.05059  -0.81255
  50   34079.9    293.4   0.011864550   0.11461  -0.23055  -0.24218  -0.05299
  51   34339.9    291.2   0.075264795   0.72155  -0.66034  -0.51718   0.13427
  52   34621.3    288.8   0.092244903   0.87715   0.80614   0.18109  -0.44102
  53   34819.3    287.2   0.020697893   0.19570  -0.19857   0.05849   0.39095
  54   35241.2    283.8   0.034889553   0.32593   0.22831   0.52247  -0.02885
  55   35481.2    281.8   0.066734466   0.61920  -0.38346  -0.56070   0.39720
  56   35543.0    281.3   0.060818510   0.56332  -0.32309  -0.63779   0.22839
  57   35694.9    280.2   0.249367509   2.29990  -1.29730  -0.73525  -0.27628
  58   35885.6    278.7   0.088211837   0.80925  -0.80371  -0.06016   0.39959
  59   36021.9    277.6   0.057835933   0.52858   0.66081   0.29476   0.07088
  60   36071.1    277.2   0.019595096   0.17884  -0.34196   0.01561   0.24831
  61   36201.6    276.2   0.006989567   0.06356   0.24537   0.05724   0.00879
  62   36542.7    273.7   0.016378503   0.14755   0.31340   0.15337   0.16067
  63   36580.8    273.4   0.029238714   0.26314   0.11566   0.45621  -0.20404
  64   36643.5    272.9   0.028697622   0.25783  -0.14886   0.24168   0.42102
  65   36944.6    270.7   0.202044512   1.80041  -0.13454   0.97036  -0.91690
  66   37033.5    270.0   0.087978503   0.78209  -0.14061  -0.42070  -0.76507
  67   37135.9    269.3   0.032352589   0.28681   0.10147   0.42816   0.30527
  68   37270.9    268.3   0.006390842   0.05645   0.14520  -0.14659  -0.11780
  69   37404.9    267.3   0.013554652   0.11930   0.07741   0.23785  -0.23819
  70   37448.0    267.0   0.006927754   0.06090   0.00002   0.17558   0.17342
  71   37505.2    266.6   0.025985719   0.22810  -0.25015  -0.34479   0.21597
  72   37742.0    265.0   0.048010996   0.41878  -0.37458  -0.00574   0.52768
  73   37811.0    264.5   0.023287477   0.20276  -0.22193  -0.04661   0.38902
  74   37917.8    263.7   0.056165421   0.48764   0.21541  -0.65261   0.12387
  75   38030.9    262.9   0.003158227   0.02734  -0.14579  -0.07326   0.02676
  76   38480.1    259.9   0.000614470   0.00526   0.05324  -0.03664  -0.03286
  77   38650.9    258.7   0.074392283   0.63364   0.73472  -0.29268  -0.09040
  78   38842.1    257.5   0.192161944   1.62870   0.92161   0.25575  -0.84494
  79   39142.2    255.5   0.005237627   0.04405  -0.15359  -0.01843   0.14186
  80   39313.0    254.4   0.115581325   0.96789  -0.44827  -0.60249   0.63557
  81   39321.8    254.3   0.221379687   1.85344   0.92306  -0.58197  -0.81407
  82   39475.5    253.3   0.007912632   0.06599  -0.17486  -0.10789   0.15419
  83   39524.5    253.0   0.202195664   1.68415   0.82193   0.13489  -0.99518
  84   39711.5    251.8   0.001483530   0.01230   0.07087   0.08520  -0.00408
  85   39719.3    251.8   0.059553825   0.49361   0.67751  -0.18389  -0.02779
  86   39832.2    251.1   0.017510635   0.14472  -0.35557   0.10770  -0.08183
  87   39938.6    250.4   0.099568716   0.82074  -0.83805  -0.22553  -0.25991
  88   40042.6    249.7   0.054068257   0.44452  -0.40367   0.19409   0.49386

FINAL SINGLE POINT ENERGY     -4378.993852590616

DIPOLE MOMENT
-------------
                                X             Y             Z
Electronic contribution:     -9.38564     -16.85033       2.97814
Nuclear contribution   :      6.53610      15.47103      -2.29712
                        -----------------------------------------
Total Dipole Moment    :     -2.84955      -1.37930       0.68102
                        -----------------------------------------
Magnitude (a.u.)       :      3.23823
Magnitude (Debye)      :      8.23094

Rotational constants in cm-1:     0.002688     0.000305     0.000291
Rotational constants in MHz :    80.596551     9.130643     8.727979

                             ****ORCA TERMINATED NORMALLY****
TOTAL RUN TIME: 0 days 0 hours 9 minutes 29 seconds 317 msec
