                         Program Version 4.2.0 -  RELEASE  -
|  1> # ORCA input file
|  2> # SCF done       -196.302975051963          0.001499260408
|  3> ! CAM-B3LYP def2-SVP def2/J RIJCOSX Grid4 TightSCF
|  4> %maxcore 5000
|  5> %tddft
|  6>     Mode sTDDFT
|  7>     Ethresh 5.0
|  8>     maxcore 5000
|  9> end
| 10>
| 11> %pal
| 12>   nprocs 6
| 13>   end
| 14> * xyz 0 1
| 15>    C       13.67652        -3.57770        -7.96179
| 16>    O       13.30372        -2.98120        -6.97602
| 17>    C       13.78781        -3.07600        -9.32485
| 18>    C       14.18829        -4.07189       -10.20821
| 19>    C       14.28911        -3.61024       -11.53435
| 20>    C       13.95972        -2.28883       -11.61459
| 21>    S       13.52592        -1.57907       -10.10445
| 22>    C       14.38034        -5.30348        -9.47227
| 23>    C       14.85544        -6.47233       -10.00341
| 24>    C       15.15976        -6.59035       -11.37657
| 25>    N       15.40355        -6.70728       -12.49118
| 26>    C       15.11006        -7.65364        -9.27830
| 27>    N       15.34704        -8.64044        -8.74199
| 28>    C       14.02949        -5.02918        -8.08524
| 29>    C       13.83524        -5.97411        -7.12375
| 30>    C       13.54689        -5.74317        -5.75666
| 31>    C       13.90348        -4.68636        -4.93368
| 32>    C       13.36232        -4.81139        -3.66040
| 33>    C       12.57658        -5.97562        -3.50463
| 34>    S       12.57178        -6.94285        -4.90581
| 35>    C       11.95912        -5.94009        -2.23494
| 36>    C       12.36446        -4.75715        -1.57706
| 37>    C       13.27706        -4.02451        -2.44237
| 38>    C       13.88691        -2.83434        -2.17879
| 39>    C       14.77839        -2.22357        -3.08758
| 40>    N       15.52033        -1.72956        -3.80834
| 41>    C       13.66225        -2.13385        -0.97340
| 42>    N       13.46028        -1.55582        -0.00426
| 43>    C       11.73415        -4.57694        -0.35600
| 44>    C       10.82734        -5.59673        -0.08140
| 45>    S       10.79890        -6.82118        -1.34283
| 46>    C        9.87327        -5.65072         0.96576
| 47>    C        9.78499        -4.69464         2.01067
| 48>    C        8.60052        -4.60046         2.82669
| 49>    N        8.49893        -3.63219         3.74372
| 50>    C        9.49704        -2.80533         3.93821
| 51>    C       10.70481        -2.95004         3.18171
| 52>    N       10.80630        -3.86022         2.24389
| 53>    C       11.81747        -2.11770         3.46846
| 54>    N       12.69429        -1.43736         3.74860
| 55>    C        9.37160        -1.78916         4.91760
| 56>    N        9.29532        -0.96177         5.70548
| 57>    C        7.48718        -5.46208         2.67646
| 58>    C        7.67496        -6.54284         1.78516
| 59>    C        8.84691        -6.62222         0.95014
| 60>    N        8.80319        -7.67868         0.13888
| 61>    S        7.44775        -8.49933         0.40771
| 62>    N        6.83751        -7.55170         1.54548
| 63>    C        6.24308        -5.15789         3.27886
| 64>    C        5.04726        -5.84579         3.09302
| 65>    C        3.97230        -5.16811         3.64481
| 66>    C        4.34935        -3.95994         4.27340
| 67>    S        6.03440        -3.67900         4.20215
| 68>    C        3.17319        -3.28465         4.67323
| 69>    C        2.05599        -4.05927         4.29415
| 70>    C        2.52261        -5.27545         3.65443
| 71>    C        1.75635        -6.26415         3.11022
| 72>    C        2.31778        -7.39050         2.47286
| 73>    N        2.76775        -8.30709         1.95120
| 74>    C        0.34737        -6.20277         3.14072
| 75>    N       -0.79700        -6.13554         3.16755
| 76>    C        0.84961        -3.39993         4.49664
| 77>    C        1.03120        -2.13252         5.02551
| 78>    S        2.72483        -1.78193         5.33623
| 79>    C        0.04093        -1.15195         5.29235
| 80>    C       -1.13615        -0.98365         4.63968
| 81>    C       -2.20905        -0.14343         5.27062
| 82>    O       -2.08293         0.57451         6.23356
| 83>    C       -3.39309        -0.44591         4.47748
| 84>    C       -3.08481        -1.28022         3.40622
| 85>    C       -1.65791        -1.53539         3.39661
| 86>    C       -0.96755        -1.97701         2.29965
| 87>    C       -1.62857        -2.40030         1.12560
| 88>    N       -2.13893        -2.75875         0.16322
| 89>    C        0.43275        -1.98127         2.15244
| 90>    N        1.55993        -1.96747         1.93312
| 91>    C       -4.20692        -1.58116         2.61188
| 92>    C       -5.32613        -0.97641         3.10402
| 93>    S       -5.04953        -0.02845         4.51751
| 94>    H       14.57985        -4.20690       -12.37878
| 95>    H       13.94803        -1.67745       -12.49578
| 96>    H       13.83716        -7.01537        -7.42474
| 97>    H       14.53253        -3.87816        -5.25480
| 98>    H       11.88355        -3.74768         0.31015
| 99>    H        5.00084        -6.77172         2.54964
|100>    H       -0.12109        -3.81356         4.28961
|101>    H        0.22067        -0.47615         6.12205
|102>    H       -4.19881        -2.20875         1.74016
|103>    H       -6.31962        -1.03144         2.70367
|104> *
|105>
|106>                          ****END OF INPUT****

CARTESIAN COORDINATES (ANGSTROEM)
---------------------------------
  C     13.676520   -3.577700   -7.961790
  O     13.303720   -2.981200   -6.976020
  C     13.787810   -3.076000   -9.324850
  C     14.188290   -4.071890  -10.208210
  C     14.289110   -3.610240  -11.534350
  C     13.959720   -2.288830  -11.614590
  S     13.525920   -1.579070  -10.104450
  C     14.380340   -5.303480   -9.472270
  C     14.855440   -6.472330  -10.003410
  C     15.159760   -6.590350  -11.376570
  N     15.403550   -6.707280  -12.491180
  C     15.110060   -7.653640   -9.278300
  N     15.347040   -8.640440   -8.741990
  C     14.029490   -5.029180   -8.085240
  C     13.835240   -5.974110   -7.123750
  C     13.546890   -5.743170   -5.756660
  C     13.903480   -4.686360   -4.933680
  C     13.362320   -4.811390   -3.660400
  C     12.576580   -5.975620   -3.504630
  S     12.571780   -6.942850   -4.905810
  C     11.959120   -5.940090   -2.234940
  C     12.364460   -4.757150   -1.577060
  C     13.277060   -4.024510   -2.442370
  C     13.886910   -2.834340   -2.178790
  C     14.778390   -2.223570   -3.087580
  N     15.520330   -1.729560   -3.808340
  C     13.662250   -2.133850   -0.973400
  N     13.460280   -1.555820   -0.004260
  C     11.734150   -4.576940   -0.356000
  C     10.827340   -5.596730   -0.081400
  S     10.798900   -6.821180   -1.342830
  C      9.873270   -5.650720    0.965760
  C      9.784990   -4.694640    2.010670
  C      8.600520   -4.600460    2.826690
  N      8.498930   -3.632190    3.743720
  C      9.497040   -2.805330    3.938210
  C     10.704810   -2.950040    3.181710
  N     10.806300   -3.860220    2.243890
  C     11.817470   -2.117700    3.468460
  N     12.694290   -1.437360    3.748600
  C      9.371600   -1.789160    4.917600
  N      9.295320   -0.961770    5.705480
  C      7.487180   -5.462080    2.676460
  C      7.674960   -6.542840    1.785160
  C      8.846910   -6.622220    0.950140
  N      8.803190   -7.678680    0.138880
  S      7.447750   -8.499330    0.407710
  N      6.837510   -7.551700    1.545480
  C      6.243080   -5.157890    3.278860
  C      5.047260   -5.845790    3.093020
  C      3.972300   -5.168110    3.644810
  C      4.349350   -3.959940    4.273400
  S      6.034400   -3.679000    4.202150
  C      3.173190   -3.284650    4.673230
  C      2.055990   -4.059270    4.294150
  C      2.522610   -5.275450    3.654430
  C      1.756350   -6.264150    3.110220
  C      2.317780   -7.390500    2.472860
  N      2.767750   -8.307090    1.951200
  C      0.347370   -6.202770    3.140720
  N     -0.797000   -6.135540    3.167550
  C      0.849610   -3.399930    4.496640
  C      1.031200   -2.132520    5.025510
  S      2.724830   -1.781930    5.336230
  C      0.040930   -1.151950    5.292350
  C     -1.136150   -0.983650    4.639680
  C     -2.209050   -0.143430    5.270620
  O     -2.082930    0.574510    6.233560
  C     -3.393090   -0.445910    4.477480
  C     -3.084810   -1.280220    3.406220
  C     -1.657910   -1.535390    3.396610
  C     -0.967550   -1.977010    2.299650
  C     -1.628570   -2.400300    1.125600
  N     -2.138930   -2.758750    0.163220
  C      0.432750   -1.981270    2.152440
  N      1.559930   -1.967470    1.933120
  C     -4.206920   -1.581160    2.611880
  C     -5.326130   -0.976410    3.104020
  S     -5.049530   -0.028450    4.517510
  H     14.579850   -4.206900  -12.378780
  H     13.948030   -1.677450  -12.495780
  H     13.837160   -7.015370   -7.424740
  H     14.532530   -3.878160   -5.254800
  H     11.883550   -3.747680    0.310150
  H      5.000840   -6.771720    2.549640
  H     -0.121090   -3.813560    4.289610
  H      0.220670   -0.476150    6.122050
  H     -4.198810   -2.208750    1.740160
  H     -6.319620   -1.031440    2.703670

 Total Charge           Charge          ....    0
 Multiplicity           Mult            ....    1
 Number of Electrons    NEL             ....  572
 Basis Dimension        Dim             .... 1184

ORBITAL ENERGIES
----------------

  NO   OCC          E(Eh)            E(eV)
   0   2.0000     -89.064178     -2423.5595
   1   2.0000     -89.000853     -2421.8363
   2   2.0000     -88.999328     -2421.7948
   3   2.0000     -88.995744     -2421.6973
   4   2.0000     -88.994907     -2421.6745
   5   2.0000     -88.994836     -2421.6726
   6   2.0000     -88.993427     -2421.6343
   7   2.0000     -19.226157      -523.1703
   8   2.0000     -19.225863      -523.1623
   9   2.0000     -14.482141      -394.0791
  10   2.0000     -14.476477      -393.9250
  11   2.0000     -14.473190      -393.8355
  12   2.0000     -14.473068      -393.8322
  13   2.0000     -14.442431      -392.9985
  14   2.0000     -14.437167      -392.8553
  15   2.0000     -14.436022      -392.8241
  16   2.0000     -14.435480      -392.8094
  17   2.0000     -14.432637      -392.7320
  18   2.0000     -14.431756      -392.7080
  19   2.0000     -14.427258      -392.5857
  20   2.0000     -14.424373      -392.5071
  21   2.0000     -14.422975      -392.4691
  22   2.0000     -14.421194      -392.4206
  23   2.0000     -10.398482      -282.9571
  24   2.0000     -10.396075      -282.8916
  25   2.0000     -10.385914      -282.6151
  26   2.0000     -10.384320      -282.5717
  27   2.0000     -10.370957      -282.2081
  28   2.0000     -10.369374      -282.1650
  29   2.0000     -10.366562      -282.0885
  30   2.0000     -10.364461      -282.0313
  31   2.0000     -10.362302      -281.9726
  32   2.0000     -10.361167      -281.9417
  33   2.0000     -10.358539      -281.8702
  34   2.0000     -10.356817      -281.8233
  35   2.0000     -10.356041      -281.8022
  36   2.0000     -10.355604      -281.7903
  37   2.0000     -10.352230      -281.6985
  38   2.0000     -10.351539      -281.6797
  39   2.0000     -10.346684      -281.5476
  40   2.0000     -10.345312      -281.5103
  41   2.0000     -10.338805      -281.3332
  42   2.0000     -10.338187      -281.3164
  43   2.0000     -10.337593      -281.3002
  44   2.0000     -10.337441      -281.2961
  45   2.0000     -10.337378      -281.2944
  46   2.0000     -10.336306      -281.2652
  47   2.0000     -10.335822      -281.2520
  48   2.0000     -10.335667      -281.2478
  49   2.0000     -10.335596      -281.2459
  50   2.0000     -10.335528      -281.2440
  51   2.0000     -10.332245      -281.1547
  52   2.0000     -10.331850      -281.1439
  53   2.0000     -10.331799      -281.1425
  54   2.0000     -10.331567      -281.1362
  55   2.0000     -10.331426      -281.1324
  56   2.0000     -10.329702      -281.0855
  57   2.0000     -10.328982      -281.0659
  58   2.0000     -10.327623      -281.0289
  59   2.0000     -10.327046      -281.0132
  60   2.0000     -10.326550      -280.9997
  61   2.0000     -10.325002      -280.9576
  62   2.0000     -10.323975      -280.9296
  63   2.0000     -10.323441      -280.9151
  64   2.0000     -10.321431      -280.8604
  65   2.0000     -10.320287      -280.8293
  66   2.0000     -10.317184      -280.7449
  67   2.0000     -10.316334      -280.7217
  68   2.0000     -10.313898      -280.6554
  69   2.0000     -10.313581      -280.6468
  70   2.0000     -10.312812      -280.6259
  71   2.0000     -10.312251      -280.6106
  72   2.0000     -10.311976      -280.6031
  73   2.0000     -10.311681      -280.5951
  74   2.0000     -10.310508      -280.5632
  75   2.0000     -10.308666      -280.5131
  76   2.0000     -10.307829      -280.4903
  77   2.0000     -10.305415      -280.4246
  78   2.0000     -10.303865      -280.3824
  79   2.0000      -8.155167      -221.9134
  80   2.0000      -8.095510      -220.2900
  81   2.0000      -8.094117      -220.2521
  82   2.0000      -8.090022      -220.1407
  83   2.0000      -8.089036      -220.1138
  84   2.0000      -8.088418      -220.0970
  85   2.0000      -8.087508      -220.0723
  86   2.0000      -6.126255      -166.7039
  87   2.0000      -6.118425      -166.4908
  88   2.0000      -6.117958      -166.4781
  89   2.0000      -6.064678      -165.0283
  90   2.0000      -6.063271      -164.9900
  91   2.0000      -6.060475      -164.9139
  92   2.0000      -6.059177      -164.8786
  93   2.0000      -6.059124      -164.8771
  94   2.0000      -6.058466      -164.8592
  95   2.0000      -6.058035      -164.8475
  96   2.0000      -6.057564      -164.8347
  97   2.0000      -6.057067      -164.8212
  98   2.0000      -6.056598      -164.8084
  99   2.0000      -6.054726      -164.7575
 100   2.0000      -6.053883      -164.7345
 101   2.0000      -6.053116      -164.7137
 102   2.0000      -6.052738      -164.7034
 103   2.0000      -6.052256      -164.6903
 104   2.0000      -6.051441      -164.6681
 105   2.0000      -6.051190      -164.6613
 106   2.0000      -6.049921      -164.6267
 107   2.0000      -1.162069       -31.6215
 108   2.0000      -1.143787       -31.1240
 109   2.0000      -1.143212       -31.1084
 110   2.0000      -1.138983       -30.9933
 111   2.0000      -1.066422       -29.0188
 112   2.0000      -1.053202       -28.6591
 113   2.0000      -1.052284       -28.6341
 114   2.0000      -1.036306       -28.1993
 115   2.0000      -1.033767       -28.1302
 116   2.0000      -1.028800       -27.9951
 117   2.0000      -1.026335       -27.9280
 118   2.0000      -1.024868       -27.8881
 119   2.0000      -1.021272       -27.7902
 120   2.0000      -1.018192       -27.7064
 121   2.0000      -1.015435       -27.6314
 122   2.0000      -1.014264       -27.5995
 123   2.0000      -1.012178       -27.5428
 124   2.0000      -1.010523       -27.4977
 125   2.0000      -1.009100       -27.4590
 126   2.0000      -1.003856       -27.3163
 127   2.0000      -1.001523       -27.2528
 128   2.0000      -1.001008       -27.2388
 129   2.0000      -0.990939       -26.9648
 130   2.0000      -0.974404       -26.5149
 131   2.0000      -0.972002       -26.4495
 132   2.0000      -0.965038       -26.2600
 133   2.0000      -0.961412       -26.1613
 134   2.0000      -0.931424       -25.3453
 135   2.0000      -0.926811       -25.2198
 136   2.0000      -0.923392       -25.1268
 137   2.0000      -0.914254       -24.8781
 138   2.0000      -0.909365       -24.7451
 139   2.0000      -0.902156       -24.5489
 140   2.0000      -0.888868       -24.1873
 141   2.0000      -0.886030       -24.1101
 142   2.0000      -0.874513       -23.7967
 143   2.0000      -0.867196       -23.5976
 144   2.0000      -0.864242       -23.5172
 145   2.0000      -0.863438       -23.4953
 146   2.0000      -0.861732       -23.4489
 147   2.0000      -0.859804       -23.3964
 148   2.0000      -0.851577       -23.1726
 149   2.0000      -0.823271       -22.4023
 150   2.0000      -0.822058       -22.3693
 151   2.0000      -0.803338       -21.8600
 152   2.0000      -0.794802       -21.6277
 153   2.0000      -0.784761       -21.3544
 154   2.0000      -0.780151       -21.2290
 155   2.0000      -0.777131       -21.1468
 156   2.0000      -0.771029       -20.9808
 157   2.0000      -0.760431       -20.6924
 158   2.0000      -0.755305       -20.5529
 159   2.0000      -0.738875       -20.1058
 160   2.0000      -0.723127       -19.6773
 161   2.0000      -0.715733       -19.4761
 162   2.0000      -0.711642       -19.3648
 163   2.0000      -0.710324       -19.3289
 164   2.0000      -0.706074       -19.2132
 165   2.0000      -0.700650       -19.0657
 166   2.0000      -0.693950       -18.8833
 167   2.0000      -0.690714       -18.7953
 168   2.0000      -0.686581       -18.6828
 169   2.0000      -0.680586       -18.5197
 170   2.0000      -0.675232       -18.3740
 171   2.0000      -0.674375       -18.3507
 172   2.0000      -0.672134       -18.2897
 173   2.0000      -0.669493       -18.2178
 174   2.0000      -0.651751       -17.7351
 175   2.0000      -0.646665       -17.5966
 176   2.0000      -0.642411       -17.4809
 177   2.0000      -0.638529       -17.3753
 178   2.0000      -0.635533       -17.2937
 179   2.0000      -0.630202       -17.1487
 180   2.0000      -0.624438       -16.9918
 181   2.0000      -0.623040       -16.9538
 182   2.0000      -0.621036       -16.8992
 183   2.0000      -0.614784       -16.7291
 184   2.0000      -0.612634       -16.6706
 185   2.0000      -0.607480       -16.5304
 186   2.0000      -0.601036       -16.3550
 187   2.0000      -0.597957       -16.2712
 188   2.0000      -0.585856       -15.9420
 189   2.0000      -0.577531       -15.7154
 190   2.0000      -0.576601       -15.6901
 191   2.0000      -0.574984       -15.6461
 192   2.0000      -0.569158       -15.4876
 193   2.0000      -0.559844       -15.2341
 194   2.0000      -0.558216       -15.1898
 195   2.0000      -0.554550       -15.0901
 196   2.0000      -0.551791       -15.0150
 197   2.0000      -0.550250       -14.9731
 198   2.0000      -0.549853       -14.9623
 199   2.0000      -0.548914       -14.9367
 200   2.0000      -0.536608       -14.6018
 201   2.0000      -0.534167       -14.5354
 202   2.0000      -0.529341       -14.4041
 203   2.0000      -0.527856       -14.3637
 204   2.0000      -0.525121       -14.2893
 205   2.0000      -0.522977       -14.2309
 206   2.0000      -0.515657       -14.0317
 207   2.0000      -0.513698       -13.9784
 208   2.0000      -0.511839       -13.9278
 209   2.0000      -0.511104       -13.9079
 210   2.0000      -0.509444       -13.8627
 211   2.0000      -0.507889       -13.8204
 212   2.0000      -0.506679       -13.7874
 213   2.0000      -0.504464       -13.7272
 214   2.0000      -0.502288       -13.6679
 215   2.0000      -0.500986       -13.6325
 216   2.0000      -0.498106       -13.5541
 217   2.0000      -0.493819       -13.4375
 218   2.0000      -0.493264       -13.4224
 219   2.0000      -0.488064       -13.2809
 220   2.0000      -0.486551       -13.2397
 221   2.0000      -0.484579       -13.1861
 222   2.0000      -0.483548       -13.1580
 223   2.0000      -0.481817       -13.1109
 224   2.0000      -0.479923       -13.0594
 225   2.0000      -0.478582       -13.0229
 226   2.0000      -0.476834       -12.9753
 227   2.0000      -0.475372       -12.9355
 228   2.0000      -0.467854       -12.7309
 229   2.0000      -0.466642       -12.6980
 230   2.0000      -0.465871       -12.6770
 231   2.0000      -0.464583       -12.6419
 232   2.0000      -0.463071       -12.6008
 233   2.0000      -0.461665       -12.5625
 234   2.0000      -0.460804       -12.5391
 235   2.0000      -0.458293       -12.4708
 236   2.0000      -0.457895       -12.4600
 237   2.0000      -0.457148       -12.4396
 238   2.0000      -0.457029       -12.4364
 239   2.0000      -0.454961       -12.3801
 240   2.0000      -0.454016       -12.3544
 241   2.0000      -0.453110       -12.3298
 242   2.0000      -0.451798       -12.2940
 243   2.0000      -0.449265       -12.2251
 244   2.0000      -0.447745       -12.1838
 245   2.0000      -0.446794       -12.1579
 246   2.0000      -0.445310       -12.1175
 247   2.0000      -0.441784       -12.0215
 248   2.0000      -0.441128       -12.0037
 249   2.0000      -0.440974       -11.9995
 250   2.0000      -0.438251       -11.9254
 251   2.0000      -0.437188       -11.8965
 252   2.0000      -0.435621       -11.8539
 253   2.0000      -0.434332       -11.8188
 254   2.0000      -0.434250       -11.8165
 255   2.0000      -0.433903       -11.8071
 256   2.0000      -0.431550       -11.7431
 257   2.0000      -0.429655       -11.6915
 258   2.0000      -0.426726       -11.6118
 259   2.0000      -0.424455       -11.5500
 260   2.0000      -0.423204       -11.5160
 261   2.0000      -0.420913       -11.4536
 262   2.0000      -0.418952       -11.4003
 263   2.0000      -0.413947       -11.2641
 264   2.0000      -0.412432       -11.2229
 265   2.0000      -0.411122       -11.1872
 266   2.0000      -0.395162       -10.7529
 267   2.0000      -0.391087       -10.6420
 268   2.0000      -0.389622       -10.6022
 269   2.0000      -0.370483       -10.0814
 270   2.0000      -0.368510       -10.0277
 271   2.0000      -0.364086        -9.9073
 272   2.0000      -0.361269        -9.8306
 273   2.0000      -0.355674        -9.6784
 274   2.0000      -0.353653        -9.6234
 275   2.0000      -0.352639        -9.5958
 276   2.0000      -0.346709        -9.4344
 277   2.0000      -0.345857        -9.4112
 278   2.0000      -0.341605        -9.2955
 279   2.0000      -0.328828        -8.9479
 280   2.0000      -0.326172        -8.8756
 281   2.0000      -0.322771        -8.7831
 282   2.0000      -0.319431        -8.6922
 283   2.0000      -0.311484        -8.4759
 284   2.0000      -0.284993        -7.7551
 285   2.0000      -0.249308        -6.7840
 286   0.0000      -0.146596        -3.9891
 287   0.0000      -0.111879        -3.0444
 288   0.0000      -0.107147        -2.9156
 289   0.0000      -0.091615        -2.4930
 290   0.0000      -0.087181        -2.3723

MULLIKEN ATOMIC CHARGES
-----------------------
   0 C :    0.133401
   1 O :   -0.141985
   2 C :   -0.172134
   3 C :    0.008384
   4 C :    0.028516
   5 C :   -0.057838
   6 S :    0.219189
   7 C :    0.290387
   8 C :   -0.327149
   9 C :   -0.191295
  10 N :    0.159128
  11 C :   -0.195065
  12 N :    0.163314
  13 C :   -0.109852
  14 C :    0.015632
  15 C :   -0.121171
  16 C :    0.068194
  17 C :   -0.028966
  18 C :   -0.088967
  19 S :    0.207266
  20 C :   -0.070593
  21 C :    0.034957
  22 C :    0.303209
  23 C :   -0.286676
  24 C :   -0.183749
  25 N :    0.178981
  26 C :   -0.192529
  27 N :    0.182984
  28 C :   -0.050474
  29 C :   -0.168226
  30 S :    0.215591
  31 C :    0.199410
  32 C :   -0.070203
  33 C :   -0.067159
  34 N :   -0.012335
  35 C :   -0.100458
  36 C :   -0.122330
  37 N :    0.045938
  38 C :   -0.208052
  39 N :    0.251718
  40 C :   -0.229755
  41 N :    0.253938
  42 C :    0.186004
  43 C :   -0.002713
  44 C :   -0.032162
  45 N :   -0.329826
  46 S :    0.580667
  47 N :   -0.276432
  48 C :   -0.163623
  49 C :   -0.054873
  50 C :    0.038071
  51 C :   -0.061664
  52 S :    0.217432
  53 C :   -0.075325
  54 C :    0.001013
  55 C :    0.305585
  56 C :   -0.291900
  57 C :   -0.184291
  58 N :    0.174061
  59 C :   -0.190194
  60 N :    0.168890
  61 C :   -0.012102
  62 C :   -0.122699
  63 S :    0.229747
  64 C :    0.071699
  65 C :   -0.138343
  66 C :    0.115525
  67 O :   -0.135384
  68 C :   -0.154052
  69 C :   -0.020270
  70 C :    0.286579
  71 C :   -0.337410
  72 C :   -0.182147
  73 N :    0.164452
  74 C :   -0.184485
  75 N :    0.170421
  76 C :    0.035137
  77 C :   -0.059426
  78 S :    0.216438
  79 H :    0.019138
  80 H :    0.045731
  81 H :    0.027252
  82 H :    0.022450
  83 H :    0.022349
  84 H :    0.023284
  85 H :    0.024978
  86 H :    0.029333
  87 H :    0.023180
  88 H :    0.046729
Sum of atomic charges:   -0.0000000

LOEWDIN ATOMIC CHARGES
----------------------
   0 C :    0.067239
   1 O :   -0.133770
   2 C :   -0.207626
   3 C :   -0.038851
   4 C :   -0.043712
   5 C :   -0.146809
   6 S :    0.509441
   7 C :    0.073909
   8 C :   -0.134690
   9 C :   -0.017765
  10 N :   -0.047977
  11 C :   -0.024804
  12 N :   -0.045177
  13 C :   -0.085236
  14 C :    0.035465
  15 C :   -0.177368
  16 C :    0.022664
  17 C :   -0.066787
  18 C :   -0.165683
  19 S :    0.489786
  20 C :   -0.182881
  21 C :   -0.062036
  22 C :    0.076124
  23 C :   -0.093090
  24 C :   -0.017207
  25 N :   -0.023450
  26 C :   -0.017426
  27 N :   -0.023540
  28 C :   -0.007598
  29 C :   -0.157351
  30 S :    0.515135
  31 C :   -0.042781
  32 C :   -0.002808
  33 C :   -0.013782
  34 N :   -0.019680
  35 C :   -0.019304
  36 C :   -0.018346
  37 N :    0.007884
  38 C :   -0.039377
  39 N :    0.013188
  40 C :   -0.038988
  41 N :    0.004466
  42 C :   -0.035016
  43 C :   -0.037596
  44 C :   -0.045729
  45 N :   -0.302113
  46 S :    0.699140
  47 N :   -0.266528
  48 C :   -0.162290
  49 C :   -0.004370
  50 C :   -0.065717
  51 C :   -0.172964
  52 S :    0.518333
  53 C :   -0.161660
  54 C :   -0.059746
  55 C :    0.083285
  56 C :   -0.100068
  57 C :   -0.015996
  58 N :   -0.031650
  59 C :   -0.014401
  60 N :   -0.034024
  61 C :   -0.003261
  62 C :   -0.179241
  63 S :    0.507101
  64 C :    0.038318
  65 C :   -0.078794
  66 C :    0.065486
  67 O :   -0.137276
  68 C :   -0.210889
  69 C :   -0.034734
  70 C :    0.067641
  71 C :   -0.131492
  72 C :   -0.017958
  73 N :   -0.043622
  74 C :   -0.016539
  75 N :   -0.047622
  76 C :   -0.043213
  77 C :   -0.144992
  78 S :    0.507126
  79 H :    0.044201
  80 H :    0.032298
  81 H :    0.045018
  82 H :    0.045030
  83 H :    0.038784
  84 H :    0.039276
  85 H :    0.042384
  86 H :    0.048396
  87 H :    0.045501
  88 H :    0.032785

  Mayer bond orders larger than 0.100000
B(  0-C ,  1-O ) :   2.1930 B(  0-C ,  2-C ) :   1.0623 B(  0-C , 13-C ) :   0.9322
B(  2-C ,  3-C ) :   1.4493 B(  2-C ,  6-S ) :   1.1318 B(  3-C ,  4-C ) :   1.2714
B(  3-C ,  7-C ) :   1.0084 B(  4-C ,  5-C ) :   1.5404 B(  4-C , 79-H ) :   0.9953
B(  5-C ,  6-S ) :   1.1892 B(  5-C , 80-H ) :   0.9624 B(  7-C ,  8-C ) :   1.6646
B(  7-C , 13-C ) :   1.0570 B(  8-C ,  9-C ) :   1.1422 B(  8-C , 11-C ) :   1.1320
B(  9-C , 10-N ) :   2.9920 B( 11-C , 12-N ) :   2.9906 B( 13-C , 14-C ) :   1.6635
B( 14-C , 15-C ) :   1.1470 B( 14-C , 81-H ) :   0.9328 B( 15-C , 16-C ) :   1.4310
B( 15-C , 19-S ) :   1.0826 B( 16-C , 17-C ) :   1.3454 B( 16-C , 82-H ) :   0.9763
B( 17-C , 18-C ) :   1.3866 B( 17-C , 22-C ) :   0.9955 B( 18-C , 19-S ) :   1.1511
B( 18-C , 20-C ) :   1.2103 B( 20-C , 21-C ) :   1.3902 B( 20-C , 30-S ) :   1.0985
B( 21-C , 22-C ) :   0.9953 B( 21-C , 28-C ) :   1.3008 B( 22-C , 23-C ) :   1.7206
B( 23-C , 24-C ) :   1.1311 B( 23-C , 26-C ) :   1.1343 B( 24-C , 25-N ) :   2.9920
B( 26-C , 27-N ) :   2.9905 B( 28-C , 29-C ) :   1.3948 B( 28-C , 83-H ) :   0.9832
B( 29-C , 30-S ) :   1.1063 B( 29-C , 31-C ) :   1.2005 B( 31-C , 32-C ) :   1.2469
B( 31-C , 42-C ) :   0.1117 B( 31-C , 44-C ) :   1.1942 B( 32-C , 33-C ) :   1.1134
B( 32-C , 37-N ) :   1.4492 B( 33-C , 34-N ) :   1.4012 B( 33-C , 42-C ) :   1.2379
B( 34-N , 35-C ) :   1.6881 B( 35-C , 36-C ) :   1.2139 B( 35-C , 40-C ) :   1.1601
B( 36-C , 37-N ) :   1.7158 B( 36-C , 38-C ) :   1.1547 B( 38-C , 39-N ) :   3.0350
B( 40-C , 41-N ) :   3.0443 B( 42-C , 43-C ) :   1.2012 B( 42-C , 48-C ) :   1.2215
B( 43-C , 44-C ) :   1.1156 B( 43-C , 47-N ) :   1.5115 B( 44-C , 45-N ) :   1.4761
B( 45-N , 46-S ) :   1.2703 B( 45-N , 47-N ) :   0.1475 B( 46-S , 47-N ) :   1.2902
B( 48-C , 49-C ) :   1.4014 B( 48-C , 52-S ) :   1.0920 B( 49-C , 50-C ) :   1.2964
B( 49-C , 84-H ) :   0.9812 B( 50-C , 51-C ) :   1.3934 B( 50-C , 55-C ) :   0.9968
B( 51-C , 52-S ) :   1.0957 B( 51-C , 53-C ) :   1.2062 B( 53-C , 54-C ) :   1.4099
B( 53-C , 63-S ) :   1.1462 B( 54-C , 55-C ) :   1.0017 B( 54-C , 61-C ) :   1.3354
B( 55-C , 56-C ) :   1.7136 B( 56-C , 57-C ) :   1.1369 B( 56-C , 59-C ) :   1.1336
B( 57-C , 58-N ) :   2.9870 B( 59-C , 60-N ) :   2.9837 B( 61-C , 62-C ) :   1.4240
B( 61-C , 85-H ) :   0.9904 B( 62-C , 63-S ) :   1.1026 B( 62-C , 64-C ) :   1.0834
B( 64-C , 65-C ) :   1.7377 B( 64-C , 86-H ) :   0.9342 B( 65-C , 66-C ) :   0.9380
B( 65-C , 70-C ) :   1.0113 B( 66-C , 67-O ) :   2.2490 B( 66-C , 68-C ) :   1.0308
B( 68-C , 69-C ) :   1.4462 B( 68-C , 78-S ) :   1.1314 B( 69-C , 70-C ) :   1.0248
B( 69-C , 76-C ) :   1.2756 B( 70-C , 71-C ) :   1.6675 B( 71-C , 72-C ) :   1.1322
B( 71-C , 74-C ) :   1.1609 B( 72-C , 73-N ) :   3.0001 B( 74-C , 75-N ) :   2.9982
B( 76-C , 77-C ) :   1.5384 B( 76-C , 87-H ) :   0.9945 B( 77-C , 78-S ) :   1.1902
B( 77-C , 88-H ) :   0.9624

-----------------------------------------------------------------------------
         ABSORPTION SPECTRUM VIA TRANSITION ELECTRIC DIPOLE MOMENTS
-----------------------------------------------------------------------------
State   Energy  Wavelength   fosc         T2         TX        TY        TZ
        (cm-1)    (nm)                  (au**2)     (au)      (au)      (au)
-----------------------------------------------------------------------------
   0    7419.8   1347.7   0.607134127  26.93810   4.12205  -0.59523  -3.09718
   1   13423.8    744.9   0.051426231   1.26120   0.43495  -0.37227   0.96614
   2   14010.9    713.7   0.055298131   1.29933  -0.50108   0.17798   1.00825
   3   16412.3    609.3   0.135080298   2.70956  -0.82134   0.53999  -1.32037
   4   19769.6    505.8   0.264688269   4.40771  -1.92454   0.83770  -0.04599
   5   21469.5    465.8   0.759339555  11.64366  -1.18468   0.38202   3.17715
   6   22148.8    451.5   0.033181797   0.49320   0.42862  -0.34877  -0.43342
   7   23199.5    431.0   0.013736861   0.19493   0.11839   0.21942  -0.36438
   8   23477.5    425.9   0.147249253   2.06479   1.38803   0.06977  -0.36511
   9   23733.0    421.4   0.013716476   0.19027  -0.21167  -0.38105  -0.01623
  10   23958.8    417.4   0.119860368   1.64697  -0.97750   0.32227   0.76656
  11   24478.8    408.5   0.149558779   2.01139  -0.19720  -0.03386   1.40405
  12   24598.2    406.5   0.007098711   0.09501   0.18242  -0.24639   0.03193
  13   25263.6    395.8   0.043141927   0.56219  -0.38961  -0.33672   0.54499
  14   25364.1    394.3   0.005454601   0.07080   0.01573  -0.26556   0.00532
  15   25814.0    387.4   0.142609039   1.81872  -1.09501   0.74910  -0.24192
  16   26668.5    375.0   0.090826822   1.12122   0.90855  -0.51673  -0.16956
  17   27265.2    366.8   0.029619261   0.35764   0.38869   0.30681  -0.33530
  18   28376.2    352.4   0.024342886   0.28242  -0.33560  -0.17925  -0.37103
  19   29127.1    343.3   0.079682233   0.90062  -0.15472  -0.76603   0.53840
  20   29420.4    339.9   0.095433302   1.06789  -0.27283   0.89875   0.43093
  21   29867.0    334.8   0.101242389   1.11595   0.39949  -0.81861  -0.53501
  22   30121.0    332.0   0.061982538   0.67745  -0.02786   0.46371   0.67945
  23   30343.5    329.6   0.077502535   0.84086  -0.58531  -0.21109   0.67359
  24   30487.5    328.0   0.046858580   0.50599   0.69654  -0.01053  -0.14391
  25   30551.3    327.3   0.087711290   0.94515   0.68933   0.58345   0.35995
  26   30625.1    326.5   0.040239079   0.43256  -0.11024  -0.53553  -0.36553
  27   30964.4    323.0   0.027801489   0.29558  -0.52913   0.10356   0.06988
  28   31063.6    321.9   0.118001335   1.25058   0.82811   0.12942  -0.74031
  29   31578.6    316.7   0.704933777   7.34905   2.42322   1.19570  -0.21761
  30   31824.0    314.2   0.021252831   0.21986  -0.12257  -0.28131  -0.35454
  31   32014.9    312.4   0.110260631   1.13382  -1.04707   0.08978   0.17150
  32   32369.1    308.9   0.213003471   2.16637   0.35612   0.63042   1.28145
  33   32438.8    308.3   0.306046488   3.10598   0.83239   1.48843   0.44460
  34   32562.1    307.1   0.026509014   0.26801  -0.30278  -0.21186   0.36257
  35   32759.6    305.3   0.031890973   0.32048   0.46530   0.27523   0.16802
  36   32860.2    304.3   0.399408503   4.00149  -0.73266  -1.62555  -0.90681
  37   33100.6    302.1   0.036924370   0.36724   0.07487   0.36250   0.47983
  38   33677.8    296.9   0.135046895   1.32013  -0.52120  -0.68742  -0.75891
  39   33739.2    296.4   0.011927391   0.11638  -0.04872  -0.10276   0.32164
  40   33812.7    295.7   0.135791685   1.32211   0.28860   1.09483  -0.20042
  41   34178.4    292.6   0.039581825   0.38126  -0.43348   0.43203  -0.08190
  42   34231.0    292.1   0.165635966   1.59298   0.36434   1.08110   0.53986
  43   34322.6    291.4   0.423212480   4.05933   0.95316  -0.78311  -1.59297
  44   34574.4    289.2   0.585179808   5.57200   1.12701  -2.07304  -0.06615
  45   34671.1    288.4   0.078739696   0.74766   0.56492   0.00987  -0.65454
  46   34853.9    286.9   0.040639619   0.38386  -0.38942  -0.10680   0.46990
  47   35338.2    283.0   0.024821057   0.23123   0.47728  -0.04798  -0.03372
  48   35449.0    282.1   0.094016090   0.87312  -0.19466  -0.21842  -0.88742
  49   35741.1    279.8   0.123497497   1.13754  -0.97899  -0.41626  -0.07647
  50   36419.6    274.6   0.116963004   1.05728   0.60294  -0.51056  -0.65808
  51   36553.6    273.6   0.146749448   1.32167  -0.69248   0.66683   0.63045
  52   36902.3    271.0   0.258014746   2.30180  -0.37263   1.43618   0.31675
  53   37007.3    270.2   0.108535188   0.96551  -0.20066   0.95992   0.06161
  54   37020.1    270.1   0.161534325   1.43649   0.71330  -0.17722  -0.94673
  55   37287.6    268.2   0.158339925   1.39798  -0.57323   0.89816   0.51255
  56   37323.2    267.9   0.014741150   0.13003   0.14371   0.13929  -0.29995
  57   37586.5    266.1   0.016663619   0.14595   0.26788   0.01200  -0.27212
  58   37886.4    263.9   0.056770378   0.49330   0.16113  -0.56934  -0.37841
  59   38065.5    262.7   0.022349907   0.19329   0.33524  -0.18051  -0.21983
  60   38201.8    261.8   0.183530164   1.58161  -0.21491  -0.50878  -1.12985
  61   38369.7    260.6   0.058786527   0.50439   0.03043  -0.45492  -0.54453
  62   38750.0    258.1   0.000999959   0.00850   0.03944   0.06099   0.05675
  63   38925.1    256.9   0.005391985   0.04560  -0.09221  -0.19096  -0.02518
  64   39071.1    255.9   0.008358391   0.07043   0.25410  -0.02554   0.07217
  65   39244.5    254.8   0.002620053   0.02198  -0.07417  -0.12713  -0.01775
  66   39259.9    254.7   0.013868515   0.11629  -0.23624  -0.24247  -0.04114
  67   39300.1    254.5   0.031126535   0.26074  -0.08780   0.50073  -0.04800
  68   39375.8    254.0   0.053162109   0.44448   0.22965   0.56950  -0.25964
  69   39451.6    253.5   0.006569672   0.05482  -0.05778   0.21453  -0.07390
  70   39644.0    252.2   0.027911815   0.23179   0.09926   0.40904   0.23371
  71   40063.0    249.6   0.132520707   1.08897   0.25122   1.01067   0.06629
  72   40134.8    249.2   0.034488823   0.28290  -0.33434  -0.31663   0.26619
  73   40254.6    248.4   0.145875862   1.19301  -0.27677   1.05525  -0.05352

FINAL SINGLE POINT ENERGY     -5839.274033985170

DIPOLE MOMENT
-------------
                                X             Y             Z
Electronic contribution:      7.51646      -5.81563      15.29455
Nuclear contribution   :    -10.25102       5.18465     -15.07152
                        -----------------------------------------
Total Dipole Moment    :     -2.73456      -0.63098       0.22303
                        -----------------------------------------
Magnitude (a.u.)       :      2.81526
Magnitude (Debye)      :      7.15583

Rotational constants in cm-1:     0.001122     0.000230     0.000217
Rotational constants in MHz :    33.637507     6.895531     6.506358

                             ****ORCA TERMINATED NORMALLY****
TOTAL RUN TIME: 0 days 0 hours 10 minutes 28 seconds 368 msec
