                         Program Version 4.2.0 -  RELEASE  -
|  1> # ORCA input file
|  2> # SCF done       -195.748532699070          0.000770594416
|  3> ! CAM-B3LYP def2-SVP def2/J RIJCOSX Grid4 TightSCF
|  4> %maxcore 5000
|  5> %tddft
|  6>     Mode sTDDFT
|  7>     Ethresh 5.0
|  8>     maxcore 5000
|  9> end
| 10>
| 11> %pal
| 12>   nprocs 6
| 13>   end
| 14> * xyz 0 1
| 15>    C       17.99119        -3.04695        -3.49387
| 16>    O       17.43649        -2.87629        -2.42302
| 17>    C       19.23742        -2.46211        -3.96096
| 18>    C       19.54793        -2.90335        -5.24194
| 19>    C       20.75128        -2.35482        -5.72417
| 20>    C       21.31061        -1.52089        -4.80037
| 21>    S       20.40554        -1.38085        -3.34040
| 22>    C       18.51013        -3.81136        -5.69189
| 23>    C       18.50094        -4.43497        -6.91059
| 24>    C       19.53566        -4.23347        -7.84986
| 25>    N       20.36602        -4.08333        -8.62689
| 26>    C       17.51327        -5.32234        -7.38373
| 27>    N       16.74936        -6.05214        -7.83319
| 28>    C       17.53651        -3.90264        -4.61190
| 29>    C       16.38974        -4.64676        -4.63577
| 30>    C       15.38079        -4.80391        -3.66817
| 31>    C       14.25686        -5.60556        -3.90160
| 32>    C       13.38272        -5.61498        -2.83157
| 33>    C       13.84313        -4.81409        -1.75729
| 34>    S       15.33550        -4.05702        -2.07309
| 35>    C       12.88356        -4.86880        -0.72017
| 36>    C       11.81825        -5.69855        -1.13434
| 37>    C       12.09900        -6.19645        -2.47061
| 38>    C       11.31770        -7.02279        -3.22318
| 39>    C       11.69187        -7.43840        -4.51891
| 40>    N       11.98941        -7.77971        -5.57213
| 41>    C       10.07905        -7.51464        -2.75871
| 42>    N        9.07066        -7.91676        -2.38962
| 43>    C       10.81089        -5.79398        -0.18557
| 44>    C       11.09422        -5.04450         0.95167
| 45>    S       12.64079        -4.22184         0.84229
| 46>    C       10.25906        -4.88277         2.08919
| 47>    C       10.64834        -4.08642         3.18885
| 48>    C        9.79053        -3.85190         4.31272
| 49>    N       10.22551        -3.07168         5.32204
| 50>    C       11.40763        -2.54931         5.26760
| 51>    C       12.25790        -2.78214         4.15436
| 52>    N       11.87191        -3.52192         3.16595
| 53>    F       13.47194        -2.24727         4.09654
| 54>    F       11.80042        -1.78858         6.28302
| 55>    C        8.48952        -4.39356         4.40189
| 56>    C        8.10870        -5.23111         3.32601
| 57>    C        8.97658        -5.47336         2.19515
| 58>    N        8.40255        -6.28813         1.30846
| 59>    S        6.94732        -6.70866         1.82732
| 60>    N        6.95176        -5.88305         3.19926
| 61>    C        7.62621        -4.08436         5.48637
| 62>    C        6.30737        -4.49866         5.64128
| 63>    C        5.72985        -3.97538         6.78851
| 64>    C        6.61824        -3.16239         7.52614
| 65>    S        8.15775        -3.04294         6.79461
| 66>    C        5.93006        -2.66895         8.65946
| 67>    C        4.60634        -3.15847         8.63275
| 68>    C        4.44377        -4.00646         7.46521
| 69>    C        3.32409        -4.69741         7.10524
| 70>    C        3.27173        -5.50007         5.94622
| 71>    N        3.22277        -6.14415         4.99901
| 72>    C        2.14719        -4.63884         7.88129
| 73>    N        1.19775        -4.57466         8.52150
| 74>    C        3.84707        -2.72796         9.71187
| 75>    C        4.57467        -1.92323        10.57720
| 76>    S        6.22185        -1.67413        10.00871
| 77>    C        4.14547        -1.26653        11.75282
| 78>    C        3.06041        -1.51978        12.53142
| 79>    C        2.59248        -0.43753        13.46207
| 80>    O        3.19837         0.56589        13.75606
| 81>    C        1.25989        -0.87403        13.85541
| 82>    C        0.97096        -2.13478        13.34306
| 83>    C        2.12684        -2.62998        12.61816
| 84>    C        2.34141        -3.95067        12.32433
| 85>    C        1.35956        -4.93503        12.57001
| 86>    N        0.57406        -5.74753        12.76522
| 87>    C        3.55574        -4.48179        11.85130
| 88>    N        4.53476        -4.96335        11.49374
| 89>    C       -0.31166        -2.58682        13.70406
| 90>    C       -0.95641        -1.65851        14.46801
| 91>    S       -0.03054        -0.23785        14.77796
| 92>    H       21.18425        -2.55505        -6.68641
| 93>    H       22.22466        -0.96821        -4.89750
| 94>    H       16.19793        -5.21448        -5.53898
| 95>    H       14.11557        -6.13960        -4.82479
| 96>    H        9.90400        -6.36179        -0.28177
| 97>    H        5.82540        -5.14342         4.92974
| 98>    H        2.80217        -2.93955         9.84647
| 99>    H        4.72012        -0.39372        12.04876
|100>    H       -0.74121        -3.52780        13.41472
|101>    H       -1.94394        -1.73234        14.87993
|102> *
|103>
|104>                          ****END OF INPUT****

CARTESIAN COORDINATES (ANGSTROEM)
---------------------------------
  C     17.991190   -3.046950   -3.493870
  O     17.436490   -2.876290   -2.423020
  C     19.237420   -2.462110   -3.960960
  C     19.547930   -2.903350   -5.241940
  C     20.751280   -2.354820   -5.724170
  C     21.310610   -1.520890   -4.800370
  S     20.405540   -1.380850   -3.340400
  C     18.510130   -3.811360   -5.691890
  C     18.500940   -4.434970   -6.910590
  C     19.535660   -4.233470   -7.849860
  N     20.366020   -4.083330   -8.626890
  C     17.513270   -5.322340   -7.383730
  N     16.749360   -6.052140   -7.833190
  C     17.536510   -3.902640   -4.611900
  C     16.389740   -4.646760   -4.635770
  C     15.380790   -4.803910   -3.668170
  C     14.256860   -5.605560   -3.901600
  C     13.382720   -5.614980   -2.831570
  C     13.843130   -4.814090   -1.757290
  S     15.335500   -4.057020   -2.073090
  C     12.883560   -4.868800   -0.720170
  C     11.818250   -5.698550   -1.134340
  C     12.099000   -6.196450   -2.470610
  C     11.317700   -7.022790   -3.223180
  C     11.691870   -7.438400   -4.518910
  N     11.989410   -7.779710   -5.572130
  C     10.079050   -7.514640   -2.758710
  N      9.070660   -7.916760   -2.389620
  C     10.810890   -5.793980   -0.185570
  C     11.094220   -5.044500    0.951670
  S     12.640790   -4.221840    0.842290
  C     10.259060   -4.882770    2.089190
  C     10.648340   -4.086420    3.188850
  C      9.790530   -3.851900    4.312720
  N     10.225510   -3.071680    5.322040
  C     11.407630   -2.549310    5.267600
  C     12.257900   -2.782140    4.154360
  N     11.871910   -3.521920    3.165950
  F     13.471940   -2.247270    4.096540
  F     11.800420   -1.788580    6.283020
  C      8.489520   -4.393560    4.401890
  C      8.108700   -5.231110    3.326010
  C      8.976580   -5.473360    2.195150
  N      8.402550   -6.288130    1.308460
  S      6.947320   -6.708660    1.827320
  N      6.951760   -5.883050    3.199260
  C      7.626210   -4.084360    5.486370
  C      6.307370   -4.498660    5.641280
  C      5.729850   -3.975380    6.788510
  C      6.618240   -3.162390    7.526140
  S      8.157750   -3.042940    6.794610
  C      5.930060   -2.668950    8.659460
  C      4.606340   -3.158470    8.632750
  C      4.443770   -4.006460    7.465210
  C      3.324090   -4.697410    7.105240
  C      3.271730   -5.500070    5.946220
  N      3.222770   -6.144150    4.999010
  C      2.147190   -4.638840    7.881290
  N      1.197750   -4.574660    8.521500
  C      3.847070   -2.727960    9.711870
  C      4.574670   -1.923230   10.577200
  S      6.221850   -1.674130   10.008710
  C      4.145470   -1.266530   11.752820
  C      3.060410   -1.519780   12.531420
  C      2.592480   -0.437530   13.462070
  O      3.198370    0.565890   13.756060
  C      1.259890   -0.874030   13.855410
  C      0.970960   -2.134780   13.343060
  C      2.126840   -2.629980   12.618160
  C      2.341410   -3.950670   12.324330
  C      1.359560   -4.935030   12.570010
  N      0.574060   -5.747530   12.765220
  C      3.555740   -4.481790   11.851300
  N      4.534760   -4.963350   11.493740
  C     -0.311660   -2.586820   13.704060
  C     -0.956410   -1.658510   14.468010
  S     -0.030540   -0.237850   14.777960
  H     21.184250   -2.555050   -6.686410
  H     22.224660   -0.968210   -4.897500
  H     16.197930   -5.214480   -5.538980
  H     14.115570   -6.139600   -4.824790
  H      9.904000   -6.361790   -0.281770
  H      5.825400   -5.143420    4.929740
  H      2.802170   -2.939550    9.846470
  H      4.720120   -0.393720   12.048760
  H     -0.741210   -3.527800   13.414720
  H     -1.943940   -1.732340   14.879930

 Total Charge           Charge          ....    0
 Multiplicity           Mult            ....    1
 Number of Electrons    NEL             ....  564
 Basis Dimension        Dim             .... 1156

ORBITAL ENERGIES
----------------

  NO   OCC          E(Eh)            E(eV)
   0   2.0000     -89.053497     -2423.2689
   1   2.0000     -88.996954     -2421.7302
   2   2.0000     -88.993816     -2421.6448
   3   2.0000     -88.990804     -2421.5629
   4   2.0000     -88.990416     -2421.5523
   5   2.0000     -88.990248     -2421.5478
   6   2.0000     -88.989432     -2421.5255
   7   2.0000     -24.834592      -675.7836
   8   2.0000     -24.834403      -675.7785
   9   2.0000     -19.231107      -523.3050
  10   2.0000     -19.221085      -523.0323
  11   2.0000     -14.476597      -393.9282
  12   2.0000     -14.476201      -393.9174
  13   2.0000     -14.461718      -393.5234
  14   2.0000     -14.461407      -393.5149
  15   2.0000     -14.433256      -392.7489
  16   2.0000     -14.431519      -392.7016
  17   2.0000     -14.430123      -392.6636
  18   2.0000     -14.429560      -392.6483
  19   2.0000     -14.423623      -392.4867
  20   2.0000     -14.422094      -392.4451
  21   2.0000     -14.419632      -392.3781
  22   2.0000     -14.416974      -392.3058
  23   2.0000     -10.451844      -284.4091
  24   2.0000     -10.451544      -284.4010
  25   2.0000     -10.386843      -282.6404
  26   2.0000     -10.379274      -282.4344
  27   2.0000     -10.366945      -282.0989
  28   2.0000     -10.364731      -282.0387
  29   2.0000     -10.361639      -281.9545
  30   2.0000     -10.361309      -281.9456
  31   2.0000     -10.354369      -281.7567
  32   2.0000     -10.353665      -281.7375
  33   2.0000     -10.353425      -281.7310
  34   2.0000     -10.353135      -281.7231
  35   2.0000     -10.351091      -281.6675
  36   2.0000     -10.350719      -281.6574
  37   2.0000     -10.350454      -281.6502
  38   2.0000     -10.349828      -281.6332
  39   2.0000     -10.343138      -281.4511
  40   2.0000     -10.334065      -281.2042
  41   2.0000     -10.333635      -281.1925
  42   2.0000     -10.332244      -281.1547
  43   2.0000     -10.332039      -281.1491
  44   2.0000     -10.331725      -281.1405
  45   2.0000     -10.331678      -281.1393
  46   2.0000     -10.331155      -281.1250
  47   2.0000     -10.330565      -281.1090
  48   2.0000     -10.330430      -281.1053
  49   2.0000     -10.330086      -281.0959
  50   2.0000     -10.329504      -281.0801
  51   2.0000     -10.329488      -281.0797
  52   2.0000     -10.328397      -281.0500
  53   2.0000     -10.327992      -281.0389
  54   2.0000     -10.326901      -281.0093
  55   2.0000     -10.326386      -280.9952
  56   2.0000     -10.325401      -280.9685
  57   2.0000     -10.324403      -280.9413
  58   2.0000     -10.323209      -280.9088
  59   2.0000     -10.322087      -280.8783
  60   2.0000     -10.320644      -280.8390
  61   2.0000     -10.319024      -280.7949
  62   2.0000     -10.318446      -280.7792
  63   2.0000     -10.316432      -280.7244
  64   2.0000     -10.314964      -280.6844
  65   2.0000     -10.313677      -280.6494
  66   2.0000     -10.313665      -280.6491
  67   2.0000     -10.309229      -280.5284
  68   2.0000     -10.306756      -280.4611
  69   2.0000     -10.306489      -280.4538
  70   2.0000     -10.306437      -280.4524
  71   2.0000     -10.306313      -280.4490
  72   2.0000     -10.306206      -280.4461
  73   2.0000     -10.303469      -280.3716
  74   2.0000     -10.301747      -280.3248
  75   2.0000     -10.300820      -280.2995
  76   2.0000     -10.300512      -280.2912
  77   2.0000      -8.144439      -221.6215
  78   2.0000      -8.091731      -220.1872
  79   2.0000      -8.088819      -220.1080
  80   2.0000      -8.085502      -220.0177
  81   2.0000      -8.083671      -219.9679
  82   2.0000      -8.082779      -219.9436
  83   2.0000      -8.082336      -219.9315
  84   2.0000      -6.115515      -166.4116
  85   2.0000      -6.107582      -166.1958
  86   2.0000      -6.107391      -166.1906
  87   2.0000      -6.060864      -164.9245
  88   2.0000      -6.057956      -164.8454
  89   2.0000      -6.056721      -164.8117
  90   2.0000      -6.054657      -164.7556
  91   2.0000      -6.054240      -164.7442
  92   2.0000      -6.053547      -164.7254
  93   2.0000      -6.053140      -164.7143
  94   2.0000      -6.052186      -164.6883
  95   2.0000      -6.051787      -164.6775
  96   2.0000      -6.051570      -164.6716
  97   2.0000      -6.050214      -164.6347
  98   2.0000      -6.048430      -164.5861
  99   2.0000      -6.048230      -164.5807
 100   2.0000      -6.047423      -164.5587
 101   2.0000      -6.047076      -164.5493
 102   2.0000      -6.046148      -164.5240
 103   2.0000      -6.045330      -164.5018
 104   2.0000      -6.044857      -164.4889
 105   2.0000      -1.363415       -37.1004
 106   2.0000      -1.349380       -36.7185
 107   2.0000      -1.151555       -31.3354
 108   2.0000      -1.148448       -31.2508
 109   2.0000      -1.138285       -30.9743
 110   2.0000      -1.135002       -30.8850
 111   2.0000      -1.062633       -28.9157
 112   2.0000      -1.048873       -28.5413
 113   2.0000      -1.045497       -28.4494
 114   2.0000      -1.033217       -28.1153
 115   2.0000      -1.030845       -28.0507
 116   2.0000      -1.024215       -27.8703
 117   2.0000      -1.021795       -27.8045
 118   2.0000      -1.014760       -27.6130
 119   2.0000      -1.012952       -27.5638
 120   2.0000      -1.010210       -27.4892
 121   2.0000      -1.009230       -27.4625
 122   2.0000      -1.007683       -27.4204
 123   2.0000      -1.006130       -27.3782
 124   2.0000      -0.999928       -27.2094
 125   2.0000      -0.997869       -27.1534
 126   2.0000      -0.995733       -27.0953
 127   2.0000      -0.984758       -26.7966
 128   2.0000      -0.970744       -26.4153
 129   2.0000      -0.968330       -26.3496
 130   2.0000      -0.960797       -26.1446
 131   2.0000      -0.956734       -26.0341
 132   2.0000      -0.926404       -25.2087
 133   2.0000      -0.920704       -25.0536
 134   2.0000      -0.910058       -24.7639
 135   2.0000      -0.906480       -24.6666
 136   2.0000      -0.901457       -24.5299
 137   2.0000      -0.897076       -24.4107
 138   2.0000      -0.884045       -24.0561
 139   2.0000      -0.881117       -23.9764
 140   2.0000      -0.869334       -23.6558
 141   2.0000      -0.863227       -23.4896
 142   2.0000      -0.859784       -23.3959
 143   2.0000      -0.859511       -23.3885
 144   2.0000      -0.856619       -23.3098
 145   2.0000      -0.856114       -23.2960
 146   2.0000      -0.832821       -22.6622
 147   2.0000      -0.819501       -22.2998
 148   2.0000      -0.806541       -21.9471
 149   2.0000      -0.791635       -21.5415
 150   2.0000      -0.787295       -21.4234
 151   2.0000      -0.779559       -21.2129
 152   2.0000      -0.777278       -21.1508
 153   2.0000      -0.772642       -21.0247
 154   2.0000      -0.770997       -20.9799
 155   2.0000      -0.760548       -20.6956
 156   2.0000      -0.753481       -20.5032
 157   2.0000      -0.734566       -19.9886
 158   2.0000      -0.714970       -19.4553
 159   2.0000      -0.709901       -19.3174
 160   2.0000      -0.706771       -19.2322
 161   2.0000      -0.698282       -19.0012
 162   2.0000      -0.697243       -18.9729
 163   2.0000      -0.696004       -18.9392
 164   2.0000      -0.692033       -18.8312
 165   2.0000      -0.687937       -18.7197
 166   2.0000      -0.685164       -18.6443
 167   2.0000      -0.678524       -18.4636
 168   2.0000      -0.675898       -18.3921
 169   2.0000      -0.671140       -18.2627
 170   2.0000      -0.668948       -18.2030
 171   2.0000      -0.664644       -18.0859
 172   2.0000      -0.647673       -17.6241
 173   2.0000      -0.645451       -17.5636
 174   2.0000      -0.640767       -17.4362
 175   2.0000      -0.638413       -17.3721
 176   2.0000      -0.637795       -17.3553
 177   2.0000      -0.632975       -17.2241
 178   2.0000      -0.628590       -17.1048
 179   2.0000      -0.620641       -16.8885
 180   2.0000      -0.620120       -16.8743
 181   2.0000      -0.616810       -16.7843
 182   2.0000      -0.614514       -16.7218
 183   2.0000      -0.606486       -16.5033
 184   2.0000      -0.605144       -16.4668
 185   2.0000      -0.599775       -16.3207
 186   2.0000      -0.590058       -16.0563
 187   2.0000      -0.581850       -15.8329
 188   2.0000      -0.579209       -15.7611
 189   2.0000      -0.576441       -15.6858
 190   2.0000      -0.573635       -15.6094
 191   2.0000      -0.563238       -15.3265
 192   2.0000      -0.558371       -15.1940
 193   2.0000      -0.554204       -15.0807
 194   2.0000      -0.553978       -15.0745
 195   2.0000      -0.551552       -15.0085
 196   2.0000      -0.550238       -14.9727
 197   2.0000      -0.547403       -14.8956
 198   2.0000      -0.545347       -14.8397
 199   2.0000      -0.542899       -14.7730
 200   2.0000      -0.538235       -14.6461
 201   2.0000      -0.535626       -14.5751
 202   2.0000      -0.531439       -14.4612
 203   2.0000      -0.530224       -14.4281
 204   2.0000      -0.528628       -14.3847
 205   2.0000      -0.524137       -14.2625
 206   2.0000      -0.519770       -14.1437
 207   2.0000      -0.516916       -14.0660
 208   2.0000      -0.509437       -13.8625
 209   2.0000      -0.509149       -13.8546
 210   2.0000      -0.507158       -13.8005
 211   2.0000      -0.506464       -13.7816
 212   2.0000      -0.505145       -13.7457
 213   2.0000      -0.502337       -13.6693
 214   2.0000      -0.501943       -13.6586
 215   2.0000      -0.497582       -13.5399
 216   2.0000      -0.495488       -13.4829
 217   2.0000      -0.493023       -13.4158
 218   2.0000      -0.491105       -13.3636
 219   2.0000      -0.490130       -13.3371
 220   2.0000      -0.486569       -13.2402
 221   2.0000      -0.485465       -13.2102
 222   2.0000      -0.480857       -13.0848
 223   2.0000      -0.479403       -13.0452
 224   2.0000      -0.478654       -13.0248
 225   2.0000      -0.477932       -13.0052
 226   2.0000      -0.472813       -12.8659
 227   2.0000      -0.469290       -12.7700
 228   2.0000      -0.466443       -12.6926
 229   2.0000      -0.465436       -12.6652
 230   2.0000      -0.463299       -12.6070
 231   2.0000      -0.460912       -12.5421
 232   2.0000      -0.460122       -12.5206
 233   2.0000      -0.456688       -12.4271
 234   2.0000      -0.455610       -12.3978
 235   2.0000      -0.455126       -12.3846
 236   2.0000      -0.453470       -12.3395
 237   2.0000      -0.452070       -12.3015
 238   2.0000      -0.451749       -12.2927
 239   2.0000      -0.448108       -12.1936
 240   2.0000      -0.446936       -12.1617
 241   2.0000      -0.443950       -12.0805
 242   2.0000      -0.442423       -12.0389
 243   2.0000      -0.441462       -12.0128
 244   2.0000      -0.440760       -11.9937
 245   2.0000      -0.440103       -11.9758
 246   2.0000      -0.438972       -11.9450
 247   2.0000      -0.438900       -11.9431
 248   2.0000      -0.433202       -11.7880
 249   2.0000      -0.432530       -11.7697
 250   2.0000      -0.430670       -11.7191
 251   2.0000      -0.429980       -11.7004
 252   2.0000      -0.428905       -11.6711
 253   2.0000      -0.428105       -11.6493
 254   2.0000      -0.423859       -11.5338
 255   2.0000      -0.423119       -11.5137
 256   2.0000      -0.418040       -11.3754
 257   2.0000      -0.415862       -11.3162
 258   2.0000      -0.415131       -11.2963
 259   2.0000      -0.411564       -11.1992
 260   2.0000      -0.410713       -11.1761
 261   2.0000      -0.401347       -10.9212
 262   2.0000      -0.391234       -10.6460
 263   2.0000      -0.387011       -10.5311
 264   2.0000      -0.386083       -10.5058
 265   2.0000      -0.377562       -10.2740
 266   2.0000      -0.364834        -9.9276
 267   2.0000      -0.357435        -9.7263
 268   2.0000      -0.352398        -9.5892
 269   2.0000      -0.350150        -9.5281
 270   2.0000      -0.349930        -9.5221
 271   2.0000      -0.349065        -9.4985
 272   2.0000      -0.348117        -9.4727
 273   2.0000      -0.343815        -9.3557
 274   2.0000      -0.339069        -9.2265
 275   2.0000      -0.325160        -8.8481
 276   2.0000      -0.323474        -8.8022
 277   2.0000      -0.318944        -8.6789
 278   2.0000      -0.316314        -8.6073
 279   2.0000      -0.307866        -8.3774
 280   2.0000      -0.279378        -7.6023
 281   2.0000      -0.246797        -6.7157
 282   0.0000      -0.134856        -3.6696
 283   0.0000      -0.107423        -2.9231
 284   0.0000      -0.100427        -2.7328
 285   0.0000      -0.085544        -2.3278
 286   0.0000      -0.084532        -2.3002

MULLIKEN ATOMIC CHARGES
-----------------------
   0 C :    0.151353
   1 O :   -0.182072
   2 C :   -0.168266
   3 C :   -0.000610
   4 C :    0.029668
   5 C :   -0.058840
   6 S :    0.212184
   7 C :    0.311851
   8 C :   -0.336185
   9 C :   -0.191456
  10 N :    0.157966
  11 C :   -0.182258
  12 N :    0.156910
  13 C :   -0.107181
  14 C :   -0.035018
  15 C :   -0.054156
  16 C :   -0.062141
  17 C :    0.048364
  18 C :   -0.077269
  19 S :    0.239545
  20 C :   -0.071550
  21 C :    0.044051
  22 C :    0.307638
  23 C :   -0.307304
  24 C :   -0.196833
  25 N :    0.185468
  26 C :   -0.186626
  27 N :    0.175447
  28 C :   -0.062144
  29 C :   -0.174353
  30 S :    0.210055
  31 C :    0.177867
  32 C :   -0.057964
  33 C :   -0.058749
  34 N :   -0.047022
  35 C :    0.150922
  36 C :    0.152037
  37 N :   -0.046676
  38 F :   -0.131722
  39 F :   -0.132994
  40 C :    0.184107
  41 C :   -0.009093
  42 C :   -0.009997
  43 N :   -0.286342
  44 S :    0.585332
  45 N :   -0.289800
  46 C :   -0.177608
  47 C :   -0.064682
  48 C :    0.044267
  49 C :   -0.069363
  50 S :    0.208431
  51 C :   -0.079386
  52 C :   -0.005403
  53 C :    0.311606
  54 C :   -0.293004
  55 C :   -0.187667
  56 N :    0.176517
  57 C :   -0.184804
  58 N :    0.167475
  59 C :   -0.006157
  60 C :   -0.106588
  61 S :    0.212702
  62 C :    0.077305
  63 C :   -0.150571
  64 C :    0.116248
  65 O :   -0.141251
  66 C :   -0.154034
  67 C :   -0.018772
  68 C :    0.275756
  69 C :   -0.322553
  70 C :   -0.173620
  71 N :    0.159242
  72 C :   -0.195422
  73 N :    0.172450
  74 C :    0.037502
  75 C :   -0.061331
  76 S :    0.210999
  77 H :    0.018735
  78 H :    0.044161
  79 H :    0.017197
  80 H :    0.026698
  81 H :    0.023013
  82 H :    0.023584
  83 H :    0.025027
  84 H :    0.021431
  85 H :    0.021161
  86 H :    0.044561
Sum of atomic charges:   -0.0000000

LOEWDIN ATOMIC CHARGES
----------------------
   0 C :    0.068813
   1 O :   -0.171395
   2 C :   -0.211495
   3 C :   -0.037323
   4 C :   -0.043016
   5 C :   -0.148480
   6 S :    0.503995
   7 C :    0.075693
   8 C :   -0.133994
   9 C :   -0.016845
  10 N :   -0.049479
  11 C :   -0.024112
  12 N :   -0.040789
  13 C :   -0.107266
  14 C :    0.048940
  15 C :   -0.185244
  16 C :    0.008845
  17 C :   -0.075509
  18 C :   -0.167204
  19 S :    0.544472
  20 C :   -0.187781
  21 C :   -0.062672
  22 C :    0.078196
  23 C :   -0.102394
  24 C :   -0.020249
  25 N :   -0.026859
  26 C :   -0.016438
  27 N :   -0.032706
  28 C :   -0.013411
  29 C :   -0.159833
  30 S :    0.513693
  31 C :   -0.043132
  32 C :   -0.015731
  33 C :   -0.017272
  34 N :   -0.055287
  35 C :    0.064289
  36 C :    0.064797
  37 N :   -0.055044
  38 F :   -0.021467
  39 F :   -0.022330
  40 C :   -0.039926
  41 C :   -0.037980
  42 C :   -0.037408
  43 N :   -0.273240
  44 S :    0.703865
  45 N :   -0.273431
  46 C :   -0.162944
  47 C :   -0.009861
  48 C :   -0.064892
  49 C :   -0.184434
  50 S :    0.513391
  51 C :   -0.161025
  52 C :   -0.062749
  53 C :    0.082561
  54 C :   -0.099053
  55 C :   -0.016767
  56 N :   -0.030071
  57 C :   -0.012740
  58 N :   -0.034635
  59 C :    0.006097
  60 C :   -0.181017
  61 S :    0.497592
  62 C :    0.035289
  63 C :   -0.085940
  64 C :    0.066527
  65 O :   -0.141801
  66 C :   -0.213051
  67 C :   -0.034708
  68 C :    0.065150
  69 C :   -0.132660
  70 C :   -0.016943
  71 N :   -0.043757
  72 C :   -0.016797
  73 N :   -0.042053
  74 C :   -0.043489
  75 C :   -0.147131
  76 S :    0.503436
  77 H :    0.044205
  78 H :    0.031865
  79 H :    0.054085
  80 H :    0.047541
  81 H :    0.038201
  82 H :    0.038688
  83 H :    0.042118
  84 H :    0.045950
  85 H :    0.045041
  86 H :    0.031927

  Mayer bond orders larger than 0.100000
B(  0-C ,  1-O ) :   2.1031 B(  0-C ,  2-C ) :   1.0849 B(  0-C , 13-C ) :   0.9694
B(  2-C ,  3-C ) :   1.4616 B(  2-C ,  6-S ) :   1.1232 B(  3-C ,  4-C ) :   1.2740
B(  3-C ,  7-C ) :   0.9969 B(  4-C ,  5-C ) :   1.5367 B(  4-C , 77-H ) :   0.9956
B(  5-C ,  6-S ) :   1.1891 B(  5-C , 78-H ) :   0.9625 B(  7-C ,  8-C ) :   1.6512
B(  7-C , 13-C ) :   1.0720 B(  8-C ,  9-C ) :   1.1474 B(  8-C , 11-C ) :   1.1329
B(  9-C , 10-N ) :   2.9875 B( 11-C , 12-N ) :   2.9652 B( 13-C , 14-C ) :   1.5404
B( 14-C , 15-C ) :   1.2511 B( 14-C , 79-H ) :   0.9399 B( 15-C , 16-C ) :   1.3378
B( 15-C , 19-S ) :   1.0742 B( 16-C , 17-C ) :   1.3265 B( 16-C , 80-H ) :   1.0079
B( 17-C , 18-C ) :   1.3551 B( 17-C , 22-C ) :   0.9846 B( 18-C , 19-S ) :   1.1219
B( 18-C , 20-C ) :   1.2088 B( 20-C , 21-C ) :   1.3973 B( 20-C , 30-S ) :   1.0871
B( 21-C , 22-C ) :   0.9943 B( 21-C , 28-C ) :   1.2764 B( 22-C , 23-C ) :   1.7126
B( 23-C , 24-C ) :   1.1362 B( 23-C , 26-C ) :   1.1408 B( 24-C , 25-N ) :   2.9963
B( 26-C , 27-N ) :   2.9855 B( 28-C , 29-C ) :   1.4180 B( 28-C , 81-H ) :   0.9800
B( 29-C , 30-S ) :   1.0971 B( 29-C , 31-C ) :   1.1890 B( 31-C , 32-C ) :   1.2948
B( 31-C , 40-C ) :   0.1282 B( 31-C , 42-C ) :   1.1970 B( 32-C , 33-C ) :   1.1224
B( 32-C , 37-N ) :   1.3782 B( 33-C , 34-N ) :   1.3781 B( 33-C , 40-C ) :   1.2952
B( 34-N , 35-C ) :   1.6527 B( 35-C , 36-C ) :   1.1075 B( 35-C , 39-F ) :   1.1886
B( 36-C , 37-N ) :   1.6558 B( 36-C , 38-F ) :   1.1907 B( 40-C , 41-C ) :   1.1957
B( 40-C , 46-C ) :   1.1911 B( 41-C , 42-C ) :   1.1029 B( 41-C , 45-N ) :   1.5074
B( 42-C , 43-N ) :   1.5102 B( 43-N , 44-S ) :   1.2853 B( 43-N , 45-N ) :   0.1485
B( 44-S , 45-N ) :   1.2860 B( 46-C , 47-C ) :   1.4157 B( 46-C , 50-S ) :   1.0942
B( 47-C , 48-C ) :   1.2790 B( 47-C , 82-H ) :   0.9820 B( 48-C , 49-C ) :   1.4026
B( 48-C , 53-C ) :   0.9897 B( 49-C , 50-S ) :   1.0886 B( 49-C , 51-C ) :   1.2016
B( 51-C , 52-C ) :   1.4073 B( 51-C , 61-S ) :   1.1479 B( 52-C , 53-C ) :   0.9969
B( 52-C , 59-C ) :   1.3565 B( 53-C , 54-C ) :   1.7158 B( 54-C , 55-C ) :   1.1387
B( 54-C , 57-C ) :   1.1323 B( 55-C , 56-N ) :   2.9869 B( 57-C , 58-N ) :   2.9828
B( 59-C , 60-C ) :   1.3997 B( 59-C , 83-H ) :   0.9786 B( 60-C , 61-S ) :   1.0929
B( 60-C , 62-C ) :   1.1227 B( 62-C , 63-C ) :   1.7097 B( 62-C , 84-H ) :   0.9267
B( 63-C , 64-C ) :   0.9429 B( 63-C , 68-C ) :   1.0219 B( 64-C , 65-O ) :   2.2367
B( 64-C , 66-C ) :   1.0328 B( 66-C , 67-C ) :   1.4538 B( 66-C , 76-S ) :   1.1275
B( 67-C , 68-C ) :   1.0178 B( 67-C , 74-C ) :   1.2782 B( 68-C , 69-C ) :   1.6636
B( 69-C , 70-C ) :   1.1282 B( 69-C , 72-C ) :   1.1643 B( 70-C , 71-N ) :   2.9989
B( 72-C , 73-N ) :   2.9991 B( 74-C , 75-C ) :   1.5368 B( 74-C , 85-H ) :   0.9945
B( 75-C , 76-S ) :   1.1914 B( 75-C , 86-H ) :   0.9623

-----------------------------------------------------------------------------
         ABSORPTION SPECTRUM VIA TRANSITION ELECTRIC DIPOLE MOMENTS
-----------------------------------------------------------------------------
State   Energy  Wavelength   fosc         T2         TX        TY        TZ
        (cm-1)    (nm)                  (au**2)     (au)      (au)      (au)
-----------------------------------------------------------------------------
   0    9588.0   1043.0   1.084996568  37.25422   3.88661  -0.65771  -4.66003
   1   13816.5    723.8   0.009475814   0.22578  -0.35311  -0.28610   0.13871
   2   14897.6    671.2   0.001994932   0.04408  -0.08200  -0.18646  -0.05093
   3   17949.1    557.1   0.005347214   0.09808  -0.06782  -0.30381  -0.03424
   4   20757.8    481.7   0.479938485   7.61165   1.63713  -0.02064  -2.22059
   5   21594.0    463.1   0.403392636   6.14994   1.81730   0.20130  -1.67536
   6   22939.7    435.9   0.024885707   0.35714   0.50867  -0.08813  -0.30105
   7   23506.6    425.4   0.459471372   6.43494   2.00420   0.59625  -1.43618
   8   24576.0    406.9   0.353472907   4.73501  -1.48975   0.30867   1.55575
   9   25347.4    394.5   0.031772583   0.41266   0.45107   0.39242   0.23496
  10   25644.3    390.0   0.125140706   1.60651   0.13890   0.73312   1.02458
  11   26109.4    383.0   0.007196374   0.09074   0.24571   0.16276   0.06226
  12   26448.4    378.1   0.017056118   0.21230   0.37423  -0.05881  -0.26228
  13   26833.1    372.7   0.021682400   0.26602  -0.37492  -0.25619   0.24459
  14   27713.9    360.8   0.084666746   1.00575  -0.61894   0.46777   0.63550
  15   28807.1    347.1   0.010583141   0.12095  -0.24995  -0.07294   0.23054
  16   29922.6    334.2   0.122558767   1.34840   0.44790   0.79626   0.71677
  17   30076.5    332.5   0.004805250   0.05260   0.03182   0.10160   0.20313
  18   30138.3    331.8   0.054120223   0.59118   0.34484  -0.05337   0.68514
  19   30278.0    330.3   0.042497767   0.46208  -0.50873  -0.45021  -0.02423
  20   30513.1    327.7   0.066668688   0.71930  -0.58778   0.04492   0.60976
  21   30671.3    326.0   0.002609660   0.02801   0.11360  -0.10143  -0.06940
  22   30693.5    325.8   0.035816948   0.38416   0.04143   0.46812   0.40412
  23   31123.9    321.3   0.114105101   1.20694  -0.92318  -0.56454  -0.18965
  24   31240.1    320.1   0.032953853   0.34727  -0.46695  -0.18135   0.31040
  25   31409.6    318.4   0.204978527   2.14843  -1.06250   0.42158   0.91750
  26   31496.8    317.5   0.063737246   0.66620   0.64426  -0.11657  -0.48738
  27   31684.9    315.6   0.008013366   0.08326  -0.26921  -0.09810  -0.03407
  28   31871.5    313.8   0.486731332   5.02761  -1.33955  -1.32912  -1.21105
  29   32351.1    309.1   0.074624647   0.75940  -0.51873  -0.63918  -0.28595
  30   32443.7    308.2   0.309447128   3.14001  -1.53215  -0.23744   0.85798
  31   32583.0    306.9   0.155886265   1.57504   1.12670  -0.18564  -0.52071
  32   32788.8    305.0   0.037274607   0.37425  -0.53071   0.09608  -0.28874
  33   32919.8    303.8   0.235740327   2.35750   1.12820   1.04043   0.04659
  34   33181.1    301.4   0.099629849   0.98849  -0.75091  -0.02321   0.65123
  35   33789.2    296.0   0.113233327   1.10324  -0.22398   0.06809   1.02393
  36   34034.3    293.8   0.026243792   0.25385   0.14874   0.14771   0.45816
  37   34460.1    290.2   0.253591331   2.42267   0.02011   0.84882   1.30452
  38   34875.2    286.7   0.186961678   1.76486   0.72038  -0.67902  -0.88591
  39   34986.8    285.8   0.229272054   2.15736  -0.00354  -0.90624  -1.15589
  40   35210.2    284.0   0.177928838   1.66362   0.97553   0.68430   0.49366
  41   35265.5    283.6   0.014584773   0.13615  -0.29561  -0.11245  -0.19006
  42   35403.8    282.5   0.032937539   0.30628   0.41277   0.32264  -0.17834
  43   35533.6    281.4   0.239589798   2.21975   0.60839  -0.48520  -1.27051
  44   35664.0    280.4   0.187523293   1.73102   1.23469  -0.26736   0.36753
  45   35863.1    278.8   1.093918554  10.04182  -1.20415  -2.41490  -1.66136
  46   35936.0    278.3   0.125213105   1.14708  -0.55197   0.84840   0.35019
  47   36278.6    275.6   0.051859539   0.47060  -0.56484  -0.38139  -0.07809
  48   36559.4    273.5   0.056687326   0.51046   0.45147   0.15449  -0.53176
  49   36714.8    272.4   0.001768840   0.01586   0.04822   0.10782   0.04371
  50   37254.0    268.4   0.100237487   0.88580   0.76332   0.50203   0.22604
  51   37330.8    267.9   0.012728565   0.11225   0.27013  -0.12564   0.15327
  52   37626.5    265.8   0.161756536   1.41529   0.76416   0.77806   0.47537
  53   37718.7    265.1   0.044963566   0.39245  -0.26211   0.44506   0.35449
  54   38019.8    263.0   0.000284705   0.00247  -0.03476  -0.03519  -0.00432
  55   38152.7    262.1   0.006626562   0.05718  -0.18806   0.01050   0.14732
  56   38209.3    261.7   0.032078143   0.27639  -0.29718   0.25360   0.35179
  57   38504.3    259.7   0.011894252   0.10170   0.26912   0.12678  -0.11489
  58   38597.0    259.1   0.015051297   0.12838  -0.01662  -0.14872  -0.32555
  59   38836.1    257.5   0.018807354   0.15943  -0.13675   0.10412   0.36040
  60   39033.0    256.2   0.006882919   0.05805  -0.20779  -0.11726   0.03354
  61   39039.0    256.2   0.044756387   0.37743   0.55020   0.26449  -0.06892
  62   39737.4    251.7   0.041499045   0.34381   0.46640   0.35503  -0.01524
  63   39753.7    251.5   0.082192130   0.68066  -0.74170  -0.30009   0.20120
  64   39871.5    250.8   0.014074804   0.11621  -0.21347  -0.22782  -0.13690
  65   40315.3    248.0   0.004204290   0.03433   0.01388   0.09213   0.16016

FINAL SINGLE POINT ENERGY     -5853.344582998398

DIPOLE MOMENT
-------------
                                X             Y             Z
Electronic contribution:      8.79461       3.61595       6.99102
Nuclear contribution   :     -7.48579      -0.22102      -4.58927
                        -----------------------------------------
Total Dipole Moment    :      1.30882       3.39494       2.40175
                        -----------------------------------------
Magnitude (a.u.)       :      4.35970
Magnitude (Debye)      :     11.08147

Rotational constants in cm-1:     0.002163     0.000189     0.000176
Rotational constants in MHz :    64.831257     5.663159     5.263080

                             ****ORCA TERMINATED NORMALLY****
TOTAL RUN TIME: 0 days 0 hours 9 minutes 17 seconds 775 msec
