                         Program Version 4.2.0 -  RELEASE  -
|  1> # ORCA input file
|  2> # SCF done       -155.520548729307          0.000790619593
|  3> ! CAM-B3LYP def2-SVP def2/J RIJCOSX Grid4 TightSCF
|  4> %maxcore 5000
|  5> %tddft
|  6>     Mode sTDDFT
|  7>     Ethresh 5.0
|  8>     maxcore 5000
|  9> end
| 10>
| 11> %pal
| 12>   nprocs 6
| 13>   end
| 14> * xyz 0 1
| 15>    C       15.45638        -1.68753        -5.62275
| 16>    F       16.30144        -0.88462        -4.98615
| 17>    C       15.63636        -2.18891        -6.89592
| 18>    C       16.70416        -1.98568        -7.78889
| 19>    N       17.58882        -1.79995        -8.49174
| 20>    O       14.59437        -2.96522        -7.21709
| 21>    C       13.73740        -2.98108        -6.17518
| 22>    C       12.50644        -3.74092        -6.32202
| 23>    O       12.20776        -4.38337        -7.29472
| 24>    C       14.22418        -2.19162        -5.12628
| 25>    C       13.68468        -1.92086        -3.82810
| 26>    C       14.17309        -0.99702        -2.92872
| 27>    C       13.44819        -0.99120        -1.73668
| 28>    C       12.40005        -1.92060        -1.71081
| 29>    S       12.30593        -2.80094        -3.18894
| 30>    C       11.69866        -1.90273        -0.50342
| 31>    C       12.21991        -0.95283         0.38871
| 32>    S       13.57697        -0.07634        -0.26274
| 33>    C       11.55398        -0.90741         1.60814
| 34>    C       10.51588        -1.82141         1.66672
| 35>    S       10.36383        -2.75100         0.18299
| 36>    C        9.61214        -2.07077         2.74064
| 37>    C        9.62812        -1.39311         3.98150
| 38>    C        8.67862        -1.69776         5.01687
| 39>    N        8.73261        -1.02512         6.18457
| 40>    C        9.63079        -0.11509         6.36806
| 41>    C       10.56856         0.18448         5.34465
| 42>    N       10.55248        -0.43533         4.21181
| 43>    F       11.49876         1.11914         5.52153
| 44>    F        9.64863         0.52461         7.53090
| 45>    C        7.66779        -2.67534         4.88450
| 46>    C        7.65169        -3.35891         3.64812
| 47>    C        8.60762        -3.05561         2.61109
| 48>    N        8.42052        -3.81565         1.53159
| 49>    S        7.18476        -4.80415         1.78402
| 50>    N        6.81516        -4.32803         3.26855
| 51>    C        6.74137        -2.93841         5.93222
| 52>    C        5.68985        -3.84011         5.89642
| 53>    C        4.97769        -3.85326         7.08934
| 54>    C        5.48146        -2.96523         8.05269
| 55>    S        6.84948        -2.09277         7.46283
| 56>    C        4.74089        -3.01157         9.23600
| 57>    C        3.67941        -3.92394         9.17221
| 58>    S        3.58502        -4.74391         7.64061
| 59>    C        2.92282        -3.98696        10.34243
| 60>    C        3.40319        -3.13603        11.31532
| 61>    S        4.80825        -2.23458        10.77219
| 62>    C        2.84166        -2.95560        12.62010
| 63>    C        3.33087        -2.27697        13.74254
| 64>    O        2.45271        -2.35572        14.76339
| 65>    C        1.39379        -3.06642        14.35696
| 66>    C        1.58432        -3.46024        13.04793
| 67>    F        0.72808        -4.17595        12.32745
| 68>    C        0.30318        -3.31452        15.21006
| 69>    N       -0.59908        -3.53778        15.87921
| 70>    C        4.58450        -1.57817        13.98072
| 71>    O        4.88042        -1.03511        15.01269
| 72>    H       11.84412        -3.67016        -5.44103
| 73>    H       15.00947        -0.35161        -3.12045
| 74>    H       11.79977        -0.25097         2.41957
| 75>    H        5.47263        -4.44488         5.03669
| 76>    H        2.07231        -4.62995        10.46901
| 77>    H        5.26586        -1.59753        13.11186
| 78> *
| 79>
| 80>                          ****END OF INPUT****

CARTESIAN COORDINATES (ANGSTROEM)
---------------------------------
  C     15.456380   -1.687530   -5.622750
  F     16.301440   -0.884620   -4.986150
  C     15.636360   -2.188910   -6.895920
  C     16.704160   -1.985680   -7.788890
  N     17.588820   -1.799950   -8.491740
  O     14.594370   -2.965220   -7.217090
  C     13.737400   -2.981080   -6.175180
  C     12.506440   -3.740920   -6.322020
  O     12.207760   -4.383370   -7.294720
  C     14.224180   -2.191620   -5.126280
  C     13.684680   -1.920860   -3.828100
  C     14.173090   -0.997020   -2.928720
  C     13.448190   -0.991200   -1.736680
  C     12.400050   -1.920600   -1.710810
  S     12.305930   -2.800940   -3.188940
  C     11.698660   -1.902730   -0.503420
  C     12.219910   -0.952830    0.388710
  S     13.576970   -0.076340   -0.262740
  C     11.553980   -0.907410    1.608140
  C     10.515880   -1.821410    1.666720
  S     10.363830   -2.751000    0.182990
  C      9.612140   -2.070770    2.740640
  C      9.628120   -1.393110    3.981500
  C      8.678620   -1.697760    5.016870
  N      8.732610   -1.025120    6.184570
  C      9.630790   -0.115090    6.368060
  C     10.568560    0.184480    5.344650
  N     10.552480   -0.435330    4.211810
  F     11.498760    1.119140    5.521530
  F      9.648630    0.524610    7.530900
  C      7.667790   -2.675340    4.884500
  C      7.651690   -3.358910    3.648120
  C      8.607620   -3.055610    2.611090
  N      8.420520   -3.815650    1.531590
  S      7.184760   -4.804150    1.784020
  N      6.815160   -4.328030    3.268550
  C      6.741370   -2.938410    5.932220
  C      5.689850   -3.840110    5.896420
  C      4.977690   -3.853260    7.089340
  C      5.481460   -2.965230    8.052690
  S      6.849480   -2.092770    7.462830
  C      4.740890   -3.011570    9.236000
  C      3.679410   -3.923940    9.172210
  S      3.585020   -4.743910    7.640610
  C      2.922820   -3.986960   10.342430
  C      3.403190   -3.136030   11.315320
  S      4.808250   -2.234580   10.772190
  C      2.841660   -2.955600   12.620100
  C      3.330870   -2.276970   13.742540
  O      2.452710   -2.355720   14.763390
  C      1.393790   -3.066420   14.356960
  C      1.584320   -3.460240   13.047930
  F      0.728080   -4.175950   12.327450
  C      0.303180   -3.314520   15.210060
  N     -0.599080   -3.537780   15.879210
  C      4.584500   -1.578170   13.980720
  O      4.880420   -1.035110   15.012690
  H     11.844120   -3.670160   -5.441030
  H     15.009470   -0.351610   -3.120450
  H     11.799770   -0.250970    2.419570
  H      5.472630   -4.444880    5.036690
  H      2.072310   -4.629950   10.469010
  H      5.265860   -1.597530   13.111860

 Total Charge           Charge          ....    0
 Multiplicity           Mult            ....    1
 Number of Electrons    NEL             ....  444
 Basis Dimension        Dim             ....  856

ORBITAL ENERGIES
----------------

  NO   OCC          E(Eh)            E(eV)
   0   2.0000     -89.054750     -2423.3029
   1   2.0000     -88.982626     -2421.3403
   2   2.0000     -88.981901     -2421.3206
   3   2.0000     -88.969752     -2420.9900
   4   2.0000     -88.969426     -2420.9812
   5   2.0000     -88.968151     -2420.9465
   6   2.0000     -88.967946     -2420.9409
   7   2.0000     -24.831599      -675.7022
   8   2.0000     -24.830999      -675.6858
   9   2.0000     -24.828411      -675.6154
  10   2.0000     -24.825865      -675.5461
  11   2.0000     -19.331926      -526.0485
  12   2.0000     -19.331408      -526.0344
  13   2.0000     -19.227095      -523.1959
  14   2.0000     -19.226392      -523.1767
  15   2.0000     -14.468383      -393.7047
  16   2.0000     -14.465188      -393.6178
  17   2.0000     -14.463088      -393.5606
  18   2.0000     -14.462942      -393.5567
  19   2.0000     -14.430950      -392.6861
  20   2.0000     -14.430540      -392.6749
  21   2.0000     -10.444428      -284.2073
  22   2.0000     -10.442307      -284.1496
  23   2.0000     -10.401304      -283.0339
  24   2.0000     -10.400719      -283.0180
  25   2.0000     -10.389730      -282.7189
  26   2.0000     -10.389143      -282.7029
  27   2.0000     -10.376160      -282.3497
  28   2.0000     -10.375411      -282.3293
  29   2.0000     -10.364761      -282.0395
  30   2.0000     -10.364213      -282.0246
  31   2.0000     -10.357071      -281.8302
  32   2.0000     -10.355469      -281.7866
  33   2.0000     -10.351416      -281.6764
  34   2.0000     -10.349921      -281.6357
  35   2.0000     -10.337267      -281.2913
  36   2.0000     -10.336514      -281.2708
  37   2.0000     -10.335117      -281.2328
  38   2.0000     -10.334549      -281.2174
  39   2.0000     -10.329865      -281.0899
  40   2.0000     -10.329480      -281.0794
  41   2.0000     -10.325960      -280.9837
  42   2.0000     -10.325767      -280.9784
  43   2.0000     -10.323996      -280.9302
  44   2.0000     -10.323185      -280.9081
  45   2.0000     -10.323095      -280.9057
  46   2.0000     -10.321901      -280.8732
  47   2.0000     -10.318121      -280.7704
  48   2.0000     -10.317691      -280.7586
  49   2.0000     -10.314302      -280.6664
  50   2.0000     -10.312743      -280.6240
  51   2.0000     -10.312535      -280.6183
  52   2.0000     -10.311904      -280.6012
  53   2.0000     -10.306489      -280.4538
  54   2.0000     -10.305896      -280.4377
  55   2.0000     -10.292218      -280.0655
  56   2.0000     -10.291211      -280.0381
  57   2.0000      -8.145729      -221.6566
  58   2.0000      -8.077410      -219.7975
  59   2.0000      -8.076700      -219.7782
  60   2.0000      -8.065014      -219.4602
  61   2.0000      -8.064679      -219.4511
  62   2.0000      -8.062061      -219.3798
  63   2.0000      -8.061392      -219.3616
  64   2.0000      -6.116827      -166.4473
  65   2.0000      -6.109043      -166.2355
  66   2.0000      -6.108540      -166.2218
  67   2.0000      -6.047048      -164.5485
  68   2.0000      -6.046329      -164.5290
  69   2.0000      -6.042901      -164.4357
  70   2.0000      -6.042168      -164.4157
  71   2.0000      -6.038892      -164.3266
  72   2.0000      -6.038210      -164.3080
  73   2.0000      -6.034736      -164.2135
  74   2.0000      -6.034419      -164.2049
  75   2.0000      -6.031848      -164.1349
  76   2.0000      -6.031235      -164.1182
  77   2.0000      -6.030888      -164.1088
  78   2.0000      -6.030560      -164.0999
  79   2.0000      -6.027335      -164.0121
  80   2.0000      -6.026588      -163.9918
  81   2.0000      -6.025963      -163.9748
  82   2.0000      -6.025612      -163.9652
  83   2.0000      -6.023531      -163.9086
  84   2.0000      -6.022937      -163.8924
  85   2.0000      -1.355915       -36.8963
  86   2.0000      -1.346473       -36.6394
  87   2.0000      -1.345827       -36.6218
  88   2.0000      -1.341647       -36.5081
  89   2.0000      -1.255653       -34.1680
  90   2.0000      -1.255200       -34.1557
  91   2.0000      -1.152203       -31.3530
  92   2.0000      -1.140113       -31.0241
  93   2.0000      -1.139542       -31.0085
  94   2.0000      -1.126324       -30.6488
  95   2.0000      -1.052357       -28.6361
  96   2.0000      -1.032758       -28.1028
  97   2.0000      -1.031683       -28.0735
  98   2.0000      -1.011817       -27.5329
  99   2.0000      -1.011266       -27.5179
 100   2.0000      -1.010220       -27.4895
 101   2.0000      -1.000616       -27.2281
 102   2.0000      -0.991953       -26.9924
 103   2.0000      -0.980362       -26.6770
 104   2.0000      -0.956975       -26.0406
 105   2.0000      -0.952533       -25.9197
 106   2.0000      -0.931027       -25.3345
 107   2.0000      -0.926242       -25.2043
 108   2.0000      -0.910500       -24.7760
 109   2.0000      -0.909784       -24.7565
 110   2.0000      -0.897472       -24.4214
 111   2.0000      -0.896267       -24.3887
 112   2.0000      -0.876235       -23.8436
 113   2.0000      -0.867152       -23.5964
 114   2.0000      -0.848539       -23.0899
 115   2.0000      -0.847707       -23.0673
 116   2.0000      -0.830619       -22.6023
 117   2.0000      -0.818869       -22.2826
 118   2.0000      -0.808510       -22.0007
 119   2.0000      -0.806054       -21.9338
 120   2.0000      -0.802872       -21.8473
 121   2.0000      -0.794677       -21.6242
 122   2.0000      -0.790107       -21.4999
 123   2.0000      -0.777734       -21.1632
 124   2.0000      -0.772219       -21.0132
 125   2.0000      -0.753872       -20.5139
 126   2.0000      -0.743947       -20.2438
 127   2.0000      -0.728041       -19.8110
 128   2.0000      -0.717997       -19.5377
 129   2.0000      -0.701542       -19.0899
 130   2.0000      -0.697198       -18.9717
 131   2.0000      -0.694360       -18.8945
 132   2.0000      -0.692660       -18.8482
 133   2.0000      -0.689268       -18.7559
 134   2.0000      -0.678763       -18.4701
 135   2.0000      -0.671263       -18.2660
 136   2.0000      -0.666533       -18.1373
 137   2.0000      -0.663659       -18.0591
 138   2.0000      -0.650448       -17.6996
 139   2.0000      -0.646460       -17.5911
 140   2.0000      -0.643022       -17.4975
 141   2.0000      -0.639703       -17.4072
 142   2.0000      -0.635966       -17.3055
 143   2.0000      -0.632348       -17.2071
 144   2.0000      -0.630632       -17.1604
 145   2.0000      -0.617279       -16.7970
 146   2.0000      -0.616698       -16.7812
 147   2.0000      -0.615457       -16.7474
 148   2.0000      -0.608393       -16.5552
 149   2.0000      -0.605230       -16.4691
 150   2.0000      -0.588163       -16.0047
 151   2.0000      -0.586915       -15.9708
 152   2.0000      -0.584414       -15.9027
 153   2.0000      -0.582658       -15.8549
 154   2.0000      -0.577789       -15.7224
 155   2.0000      -0.573323       -15.6009
 156   2.0000      -0.572791       -15.5864
 157   2.0000      -0.571917       -15.5627
 158   2.0000      -0.570769       -15.5314
 159   2.0000      -0.562961       -15.3190
 160   2.0000      -0.557523       -15.1710
 161   2.0000      -0.556083       -15.1318
 162   2.0000      -0.553824       -15.0703
 163   2.0000      -0.534692       -14.5497
 164   2.0000      -0.534312       -14.5394
 165   2.0000      -0.532591       -14.4925
 166   2.0000      -0.530598       -14.4383
 167   2.0000      -0.528603       -14.3840
 168   2.0000      -0.527282       -14.3481
 169   2.0000      -0.526753       -14.3337
 170   2.0000      -0.523465       -14.2442
 171   2.0000      -0.521089       -14.1795
 172   2.0000      -0.505772       -13.7627
 173   2.0000      -0.503527       -13.7017
 174   2.0000      -0.498476       -13.5642
 175   2.0000      -0.497505       -13.5378
 176   2.0000      -0.495901       -13.4942
 177   2.0000      -0.492877       -13.4119
 178   2.0000      -0.491086       -13.3631
 179   2.0000      -0.490007       -13.3338
 180   2.0000      -0.487494       -13.2654
 181   2.0000      -0.484409       -13.1814
 182   2.0000      -0.481477       -13.1017
 183   2.0000      -0.471771       -12.8375
 184   2.0000      -0.469063       -12.7639
 185   2.0000      -0.466017       -12.6810
 186   2.0000      -0.463888       -12.6230
 187   2.0000      -0.459420       -12.5014
 188   2.0000      -0.456267       -12.4157
 189   2.0000      -0.455044       -12.3824
 190   2.0000      -0.454823       -12.3764
 191   2.0000      -0.454063       -12.3557
 192   2.0000      -0.452324       -12.3084
 193   2.0000      -0.446495       -12.1498
 194   2.0000      -0.446155       -12.1405
 195   2.0000      -0.437509       -11.9052
 196   2.0000      -0.437192       -11.8966
 197   2.0000      -0.435432       -11.8487
 198   2.0000      -0.429762       -11.6944
 199   2.0000      -0.428400       -11.6573
 200   2.0000      -0.418386       -11.3849
 201   2.0000      -0.416579       -11.3357
 202   2.0000      -0.412086       -11.2134
 203   2.0000      -0.401530       -10.9262
 204   2.0000      -0.398586       -10.8461
 205   2.0000      -0.398078       -10.8322
 206   2.0000      -0.375690       -10.2230
 207   2.0000      -0.370985       -10.0950
 208   2.0000      -0.369296       -10.0490
 209   2.0000      -0.357585        -9.7304
 210   2.0000      -0.353706        -9.6248
 211   2.0000      -0.350459        -9.5365
 212   2.0000      -0.350164        -9.5285
 213   2.0000      -0.344832        -9.3834
 214   2.0000      -0.344054        -9.3622
 215   2.0000      -0.337151        -9.1743
 216   2.0000      -0.331927        -9.0322
 217   2.0000      -0.313728        -8.5370
 218   2.0000      -0.296017        -8.0550
 219   2.0000      -0.295724        -8.0471
 220   2.0000      -0.279951        -7.6179
 221   2.0000      -0.243626        -6.6294
 222   0.0000      -0.124525        -3.3885
 223   0.0000      -0.071959        -1.9581
 224   0.0000      -0.070829        -1.9274
 225   0.0000      -0.036762        -1.0003
 226   0.0000      -0.033459        -0.9105

MULLIKEN ATOMIC CHARGES
-----------------------
   0 C :    0.181243
   1 F :   -0.147188
   2 C :   -0.062785
   3 C :   -0.125324
   4 N :    0.187365
   5 O :   -0.146662
   6 C :    0.002541
   7 C :    0.124988
   8 O :   -0.156929
   9 C :    0.109901
  10 C :   -0.103434
  11 C :   -0.052047
  12 C :   -0.014518
  13 C :   -0.066130
  14 S :    0.134570
  15 C :   -0.042386
  16 C :   -0.006793
  17 S :    0.166292
  18 C :   -0.053243
  19 C :   -0.172433
  20 S :    0.168104
  21 C :    0.206424
  22 C :   -0.078436
  23 C :   -0.050693
  24 N :   -0.048851
  25 C :    0.154479
  26 C :    0.140016
  27 N :    0.002216
  28 F :   -0.139341
  29 F :   -0.132235
  30 C :    0.177652
  31 C :   -0.007268
  32 C :   -0.025640
  33 N :   -0.330245
  34 S :    0.559502
  35 N :   -0.293596
  36 C :   -0.167885
  37 C :   -0.051301
  38 C :   -0.009270
  39 C :   -0.039959
  40 S :    0.169999
  41 C :   -0.070214
  42 C :   -0.013790
  43 S :    0.163137
  44 C :   -0.052087
  45 C :   -0.104220
  46 S :    0.139530
  47 C :    0.108476
  48 C :    0.003804
  49 O :   -0.146377
  50 C :   -0.063795
  51 C :    0.182270
  52 F :   -0.147302
  53 C :   -0.125385
  54 N :    0.186693
  55 C :    0.124241
  56 O :   -0.156028
  57 H :    0.001655
  58 H :    0.002449
  59 H :    0.003220
  60 H :   -0.001046
  61 H :    0.001870
  62 H :    0.002195
Sum of atomic charges:   -0.0000000

LOEWDIN ATOMIC CHARGES
----------------------
   0 C :    0.073688
   1 F :   -0.024746
   2 C :   -0.030403
   3 C :   -0.041839
   4 N :   -0.009888
   5 O :    0.063676
   6 C :   -0.015114
   7 C :    0.075988
   8 O :   -0.111778
   9 C :   -0.065424
  10 C :   -0.173703
  11 C :   -0.046271
  12 C :   -0.192228
  13 C :   -0.208974
  14 S :    0.438669
  15 C :   -0.218926
  16 C :   -0.189668
  17 S :    0.412805
  18 C :   -0.048176
  19 C :   -0.158185
  20 S :    0.461060
  21 C :   -0.042918
  22 C :   -0.008067
  23 C :   -0.014254
  24 N :   -0.052568
  25 C :    0.062830
  26 C :    0.059713
  27 N :   -0.029951
  28 F :   -0.027874
  29 F :   -0.022009
  30 C :   -0.040354
  31 C :   -0.037831
  32 C :   -0.045968
  33 N :   -0.298900
  34 S :    0.680063
  35 N :   -0.278784
  36 C :   -0.161381
  37 C :   -0.047015
  38 C :   -0.190068
  39 C :   -0.219542
  40 S :    0.461180
  41 C :   -0.209149
  42 C :   -0.191832
  43 S :    0.410070
  44 C :   -0.046956
  45 C :   -0.173654
  46 S :    0.440756
  47 C :   -0.066010
  48 C :   -0.014619
  49 O :    0.063918
  50 C :   -0.030776
  51 C :    0.073735
  52 F :   -0.025064
  53 C :   -0.041751
  54 N :   -0.010319
  55 C :    0.076220
  56 O :   -0.110997
  57 H :   -0.009238
  58 H :    0.036059
  59 H :    0.032957
  60 H :    0.032690
  61 H :    0.035887
  62 H :   -0.008795

  Mayer bond orders larger than 0.100000
B(  0-C ,  1-F ) :   1.1910 B(  0-C ,  2-C ) :   1.5001 B(  0-C ,  9-C ) :   1.2016
B(  2-C ,  3-C ) :   1.0531 B(  2-C ,  5-O ) :   1.1974 B(  2-C ,  6-C ) :   0.1367
B(  3-C ,  4-N ) :   3.0527 B(  5-O ,  6-C ) :   1.1460 B(  6-C ,  7-C ) :   0.9938
B(  6-C ,  9-C ) :   1.3479 B(  7-C ,  8-O ) :   2.1927 B(  7-C , 57-H ) :   0.9623
B(  9-C , 10-C ) :   1.0747 B( 10-C , 11-C ) :   1.5300 B( 10-C , 14-S ) :   1.0883
B( 11-C , 12-C ) :   1.2525 B( 11-C , 58-H ) :   1.0013 B( 12-C , 13-C ) :   1.4503
B( 12-C , 17-S ) :   1.0522 B( 13-C , 14-S ) :   1.0709 B( 13-C , 15-C ) :   1.3005
B( 15-C , 16-C ) :   1.4293 B( 15-C , 20-S ) :   1.0419 B( 16-C , 17-S ) :   1.0473
B( 16-C , 18-C ) :   1.2546 B( 18-C , 19-C ) :   1.4735 B( 18-C , 59-H ) :   0.9908
B( 19-C , 20-S ) :   1.0895 B( 19-C , 21-C ) :   1.1856 B( 21-C , 22-C ) :   1.3038
B( 21-C , 30-C ) :   0.1262 B( 21-C , 32-C ) :   1.1873 B( 22-C , 23-C ) :   1.1108
B( 22-C , 27-N ) :   1.4255 B( 23-C , 24-N ) :   1.3751 B( 23-C , 30-C ) :   1.2960
B( 24-N , 25-C ) :   1.6581 B( 25-C , 26-C ) :   1.1028 B( 25-C , 29-F ) :   1.1912
B( 26-C , 27-N ) :   1.6703 B( 26-C , 28-F ) :   1.1752 B( 30-C , 31-C ) :   1.2045
B( 30-C , 36-C ) :   1.1929 B( 31-C , 32-C ) :   1.1121 B( 31-C , 35-N ) :   1.5018
B( 32-C , 33-N ) :   1.4694 B( 33-N , 34-S ) :   1.2767 B( 33-N , 35-N ) :   0.1532
B( 34-S , 35-N ) :   1.2835 B( 36-C , 37-C ) :   1.4799 B( 36-C , 40-S ) :   1.0806
B( 37-C , 38-C ) :   1.2616 B( 37-C , 60-H ) :   0.9867 B( 38-C , 39-C ) :   1.4310
B( 38-C , 43-S ) :   1.0454 B( 39-C , 40-S ) :   1.0312 B( 39-C , 41-C ) :   1.3046
B( 41-C , 42-C ) :   1.4491 B( 41-C , 46-S ) :   1.0720 B( 42-C , 43-S ) :   1.0520
B( 42-C , 44-C ) :   1.2535 B( 44-C , 45-C ) :   1.5291 B( 44-C , 61-H ) :   1.0014
B( 45-C , 46-S ) :   1.0899 B( 45-C , 47-C ) :   1.0725 B( 47-C , 48-C ) :   1.3484
B( 47-C , 51-C ) :   1.2026 B( 48-C , 49-O ) :   1.1464 B( 48-C , 50-C ) :   0.1367
B( 48-C , 55-C ) :   0.9926 B( 49-O , 50-C ) :   1.1971 B( 50-C , 51-C ) :   1.4990
B( 50-C , 53-C ) :   1.0539 B( 51-C , 52-F ) :   1.1917 B( 53-C , 54-N ) :   3.0519
B( 55-C , 56-O ) :   2.1933 B( 55-C , 62-H ) :   0.9626

-----------------------------------------------------------------------------
         ABSORPTION SPECTRUM VIA TRANSITION ELECTRIC DIPOLE MOMENTS
-----------------------------------------------------------------------------
State   Energy  Wavelength   fosc         T2         TX        TY        TZ
        (cm-1)    (nm)                  (au**2)     (au)      (au)      (au)
-----------------------------------------------------------------------------
   0   10680.1    936.3   0.794991863  24.50536   2.91362   0.53667  -3.96588
   1   19366.3    516.4   0.003231043   0.05493  -0.12505  -0.17344  -0.09596
   2   21311.7    469.2   0.016805511   0.25960  -0.39444  -0.32139   0.02701
   3   21389.6    467.5   0.005311977   0.08176  -0.19478  -0.20692  -0.03167
   4   24010.6    416.5   1.426164865  19.55434   1.77157  -0.39319  -4.03253
   5   24863.1    402.2   0.016120675   0.21345   0.24587   0.13042  -0.36877
   6   26290.8    380.4   0.003525895   0.04415  -0.15226  -0.06630   0.12874
   7   27355.6    365.6   0.133345755   1.60475  -0.45019   0.18056   1.17025
   8   29986.4    333.5   0.013744240   0.15089   0.02585  -0.13011  -0.36510
   9   30038.9    332.9   0.001168162   0.01280  -0.06400  -0.01458   0.09216
  10   30215.2    331.0   0.120201759   1.30967   0.59385   0.82860   0.52003
  11   30440.2    328.5   0.000550109   0.00595  -0.05070   0.04722  -0.03391
  12   31023.6    322.3   0.447236799   4.74592   1.71221   0.74390  -1.12289
  13   31334.8    319.1   0.001110374   0.01167  -0.08879  -0.02359   0.05679
  14   31746.7    315.0   0.005949004   0.06169  -0.19634  -0.12532   0.08624
  15   31830.6    314.2   0.038541464   0.39862   0.32987   0.47497   0.25339
  16   32707.0    305.7   0.041102814   0.41372  -0.08344   0.23889   0.59134
  17   32903.6    303.9   0.024534450   0.24548   0.03956   0.22736   0.43843
  18   33202.8    301.2   0.086103455   0.85373   0.67139   0.62831   0.09052
  19   34159.5    292.7   0.018324410   0.17660   0.11695   0.30404   0.26549
  20   34380.7    290.9   0.411877992   3.94393   0.06800  -0.79446  -1.81883
  21   34583.0    289.2   0.048488228   0.46158  -0.38014  -0.15559   0.54117
  22   35517.5    281.6   0.112702193   1.04464   0.82272   0.58196   0.17054
  23   36647.2    272.9   0.224051861   2.01272   0.53339   0.97860   0.87782
  24   37182.0    268.9   0.080288555   0.71088  -0.39498  -0.57997  -0.46745
  25   37373.7    267.6   0.261756686   2.30573  -0.65983  -1.05742  -0.86730
  26   37745.0    264.9   0.002313919   0.02018   0.12872  -0.01996   0.05670
  27   37779.5    264.7   0.049628573   0.43247  -0.43301  -0.44003  -0.22660
  28   39259.3    254.7   0.001962458   0.01646  -0.11811  -0.00689   0.04959
  29   39395.0    253.8   0.001030977   0.00862   0.03577  -0.03624  -0.07761
  30   39737.4    251.7   0.094952622   0.78665  -0.63240  -0.04468   0.62026
  31   39849.4    250.9   0.002241679   0.01852  -0.08411  -0.07886   0.07229
  32   40262.3    248.4   0.021258720   0.17383   0.25774   0.31111   0.10300

FINAL SINGLE POINT ENERGY     -5187.724809917384

DIPOLE MOMENT
-------------
                                X             Y             Z
Electronic contribution:      3.47074       5.98745       4.80093
Nuclear contribution   :     -3.67334      -6.23316      -5.17402
                        -----------------------------------------
Total Dipole Moment    :     -0.20259      -0.24571      -0.37308
                        -----------------------------------------
Magnitude (a.u.)       :      0.49052
Magnitude (Debye)      :      1.24680

Rotational constants in cm-1:     0.004532     0.000296     0.000278
Rotational constants in MHz :   135.873939     8.861421     8.330065

                             ****ORCA TERMINATED NORMALLY****
TOTAL RUN TIME: 0 days 0 hours 4 minutes 53 seconds 296 msec
