                         Program Version 4.2.0 -  RELEASE  -
|  1> # ORCA input file
|  2> # SCF done       -178.222277195625          0.000940993286
|  3> ! CAM-B3LYP def2-SVP def2/J RIJCOSX Grid4 TightSCF
|  4> %maxcore 5000
|  5> %tddft
|  6>     Mode sTDDFT
|  7>     Ethresh 5.0
|  8>     maxcore 5000
|  9> end
| 10>
| 11> %pal
| 12>   nprocs 6
| 13>   end
| 14> * xyz 0 1
| 15>    C        9.77847         2.60912        -6.22863
| 16>    F       10.75514         3.29802        -5.65626
| 17>    C        9.32228         2.79785        -7.51595
| 18>    C        9.75176         3.71864        -8.48938
| 19>    N       10.11188         4.47895        -9.26599
| 20>    O        8.32705         1.93389        -7.77183
| 21>    C        8.12871         1.18289        -6.66156
| 22>    C        7.09424         0.18694        -6.71857
| 23>    O        6.79188        -0.56088        -5.81429
| 24>    C        9.01681         1.55889        -5.64180
| 25>    C        9.15686         1.05782        -4.31562
| 26>    C       10.06978         1.52047        -3.37708
| 27>    C        9.94567         0.85865        -2.16218
| 28>    C        8.92952        -0.12046        -2.18314
| 29>    S        8.13573        -0.22893        -3.68691
| 30>    C        8.85108        -0.70995        -0.89771
| 31>    C        9.81314        -0.10060        -0.06480
| 32>    C       10.54966         0.88619        -0.84003
| 33>    C       11.59429         1.65199        -0.41514
| 34>    C       12.24065         2.58091        -1.25856
| 35>    N       12.76913         3.33541        -1.94073
| 36>    C       12.11381         1.54569         0.89380
| 37>    N       12.54590         1.44553         1.95056
| 38>    C        9.77374        -0.57075         1.24033
| 39>    C        8.79520        -1.54277         1.41406
| 40>    S        7.93403        -1.89317        -0.08044
| 41>    C        8.41155        -2.20919         2.60938
| 42>    C        8.86201        -1.84857         3.90442
| 43>    C        8.36540        -2.52043         5.08030
| 44>    N        8.79532        -2.14827         6.29165
| 45>    C        9.65590        -1.16898         6.41416
| 46>    C       10.13182        -0.48607         5.24752
| 47>    N        9.73275        -0.83933         4.05167
| 48>    C       11.03520         0.59873         5.39177
| 49>    N       11.74972         1.47620         5.56387
| 50>    C       10.10095        -0.79567         7.70642
| 51>    N       10.47103        -0.47133         8.74050
| 52>    C        7.41601        -3.56892         5.03647
| 53>    C        6.99869        -3.95296         3.74297
| 54>    C        7.48362        -3.27408         2.56761
| 55>    N        6.94427        -3.77406         1.45467
| 56>    S        5.94311        -4.96876         1.83753
| 57>    N        6.13065        -4.91512         3.42584
| 58>    C        6.90052        -4.14227         6.22595
| 59>    C        5.98460        -5.18561         6.31472
| 60>    C        5.63484        -5.45661         7.62892
| 61>    C        6.28634        -4.61102         8.55154
| 62>    S        7.35056        -3.50363         7.79795
| 63>    C        5.82473        -4.93751         9.84804
| 64>    C        4.88580        -5.98677         9.75158
| 65>    C        4.75206        -6.36045         8.35325
| 66>    C        3.98234        -7.34926         7.81733
| 67>    C        3.95299        -7.59840         6.42759
| 68>    N        3.92066        -7.80519         5.30024
| 69>    C        3.17151        -8.20910         8.59087
| 70>    N        2.50646        -8.92916         9.18435
| 71>    C        4.34138        -6.34273        10.98279
| 72>    C        4.85817        -5.57612        12.01245
| 73>    S        6.04501        -4.40309        11.44607
| 74>    C        4.54386        -5.61667        13.40448
| 75>    C        3.60472        -6.37948        14.11581
| 76>    O        3.65504        -6.07431        15.43518
| 77>    C        4.59403        -5.13421        15.61973
| 78>    C        5.16551        -4.82049        14.40538
| 79>    F        6.12966        -3.92966        14.20838
| 80>    C        4.86818        -4.61616        16.89838
| 81>    N        5.10507        -4.17278        17.92718
| 82>    C        2.61133        -7.37218        13.75863
| 83>    O        2.37327        -7.79461        12.65467
| 84>    H        6.57737         0.16170        -7.69201
| 85>    H       10.77990         2.30302        -3.57252
| 86>    H       10.40270        -0.23774         2.04442
| 87>    H        5.60910        -5.68851         5.44277
| 88>    H        3.60103        -7.10661        11.14170
| 89>    H        2.05945        -7.72129        14.64922
| 90> *
| 91>
| 92>                          ****END OF INPUT****

CARTESIAN COORDINATES (ANGSTROEM)
---------------------------------
  C      9.778470    2.609120   -6.228630
  F     10.755140    3.298020   -5.656260
  C      9.322280    2.797850   -7.515950
  C      9.751760    3.718640   -8.489380
  N     10.111880    4.478950   -9.265990
  O      8.327050    1.933890   -7.771830
  C      8.128710    1.182890   -6.661560
  C      7.094240    0.186940   -6.718570
  O      6.791880   -0.560880   -5.814290
  C      9.016810    1.558890   -5.641800
  C      9.156860    1.057820   -4.315620
  C     10.069780    1.520470   -3.377080
  C      9.945670    0.858650   -2.162180
  C      8.929520   -0.120460   -2.183140
  S      8.135730   -0.228930   -3.686910
  C      8.851080   -0.709950   -0.897710
  C      9.813140   -0.100600   -0.064800
  C     10.549660    0.886190   -0.840030
  C     11.594290    1.651990   -0.415140
  C     12.240650    2.580910   -1.258560
  N     12.769130    3.335410   -1.940730
  C     12.113810    1.545690    0.893800
  N     12.545900    1.445530    1.950560
  C      9.773740   -0.570750    1.240330
  C      8.795200   -1.542770    1.414060
  S      7.934030   -1.893170   -0.080440
  C      8.411550   -2.209190    2.609380
  C      8.862010   -1.848570    3.904420
  C      8.365400   -2.520430    5.080300
  N      8.795320   -2.148270    6.291650
  C      9.655900   -1.168980    6.414160
  C     10.131820   -0.486070    5.247520
  N      9.732750   -0.839330    4.051670
  C     11.035200    0.598730    5.391770
  N     11.749720    1.476200    5.563870
  C     10.100950   -0.795670    7.706420
  N     10.471030   -0.471330    8.740500
  C      7.416010   -3.568920    5.036470
  C      6.998690   -3.952960    3.742970
  C      7.483620   -3.274080    2.567610
  N      6.944270   -3.774060    1.454670
  S      5.943110   -4.968760    1.837530
  N      6.130650   -4.915120    3.425840
  C      6.900520   -4.142270    6.225950
  C      5.984600   -5.185610    6.314720
  C      5.634840   -5.456610    7.628920
  C      6.286340   -4.611020    8.551540
  S      7.350560   -3.503630    7.797950
  C      5.824730   -4.937510    9.848040
  C      4.885800   -5.986770    9.751580
  C      4.752060   -6.360450    8.353250
  C      3.982340   -7.349260    7.817330
  C      3.952990   -7.598400    6.427590
  N      3.920660   -7.805190    5.300240
  C      3.171510   -8.209100    8.590870
  N      2.506460   -8.929160    9.184350
  C      4.341380   -6.342730   10.982790
  C      4.858170   -5.576120   12.012450
  S      6.045010   -4.403090   11.446070
  C      4.543860   -5.616670   13.404480
  C      3.604720   -6.379480   14.115810
  O      3.655040   -6.074310   15.435180
  C      4.594030   -5.134210   15.619730
  C      5.165510   -4.820490   14.405380
  F      6.129660   -3.929660   14.208380
  C      4.868180   -4.616160   16.898380
  N      5.105070   -4.172780   17.927180
  C      2.611330   -7.372180   13.758630
  O      2.373270   -7.794610   12.654670
  H      6.577370    0.161700   -7.692010
  H     10.779900    2.303020   -3.572520
  H     10.402700   -0.237740    2.044420
  H      5.609100   -5.688510    5.442770
  H      3.601030   -7.106610   11.141700
  H      2.059450   -7.721290   14.649220

 Total Charge           Charge          ....    0
 Multiplicity           Mult            ....    1
 Number of Electrons    NEL             ....  496
 Basis Dimension        Dim             .... 1016

ORBITAL ENERGIES
----------------

  NO   OCC          E(Eh)            E(eV)
   0   2.0000     -89.064761     -2423.5754
   1   2.0000     -88.999638     -2421.8033
   2   2.0000     -88.996088     -2421.7067
   3   2.0000     -88.993504     -2421.6363
   4   2.0000     -88.993113     -2421.6257
   5   2.0000     -24.841197      -675.9633
   6   2.0000     -24.838402      -675.8873
   7   2.0000     -19.345900      -526.4287
   8   2.0000     -19.344730      -526.3969
   9   2.0000     -19.247338      -523.7467
  10   2.0000     -19.240959      -523.5731
  11   2.0000     -14.482421      -394.0867
  12   2.0000     -14.476623      -393.9289
  13   2.0000     -14.473040      -393.8314
  14   2.0000     -14.472505      -393.8169
  15   2.0000     -14.443509      -393.0279
  16   2.0000     -14.441088      -392.9620
  17   2.0000     -14.439790      -392.9267
  18   2.0000     -14.436236      -392.8300
  19   2.0000     -14.434249      -392.7759
  20   2.0000     -14.432993      -392.7417
  21   2.0000     -14.431203      -392.6930
  22   2.0000     -14.430201      -392.6657
  23   2.0000     -10.411757      -283.3183
  24   2.0000     -10.410183      -283.2755
  25   2.0000     -10.402599      -283.0691
  26   2.0000     -10.400460      -283.0109
  27   2.0000     -10.399242      -282.9778
  28   2.0000     -10.396688      -282.9083
  29   2.0000     -10.393226      -282.8140
  30   2.0000     -10.387436      -282.6565
  31   2.0000     -10.374874      -282.3147
  32   2.0000     -10.374296      -282.2990
  33   2.0000     -10.368985      -282.1544
  34   2.0000     -10.368087      -282.1300
  35   2.0000     -10.366169      -282.0778
  36   2.0000     -10.364441      -282.0308
  37   2.0000     -10.362184      -281.9694
  38   2.0000     -10.361206      -281.9427
  39   2.0000     -10.355759      -281.7945
  40   2.0000     -10.355562      -281.7892
  41   2.0000     -10.348968      -281.6097
  42   2.0000     -10.346337      -281.5382
  43   2.0000     -10.341587      -281.4089
  44   2.0000     -10.341302      -281.4011
  45   2.0000     -10.340816      -281.3879
  46   2.0000     -10.339434      -281.3503
  47   2.0000     -10.338390      -281.3219
  48   2.0000     -10.338211      -281.3170
  49   2.0000     -10.337812      -281.3062
  50   2.0000     -10.336571      -281.2724
  51   2.0000     -10.335507      -281.2434
  52   2.0000     -10.335135      -281.2333
  53   2.0000     -10.334622      -281.2194
  54   2.0000     -10.334520      -281.2166
  55   2.0000     -10.333822      -281.1976
  56   2.0000     -10.333056      -281.1768
  57   2.0000     -10.332942      -281.1737
  58   2.0000     -10.330957      -281.1196
  59   2.0000     -10.329326      -281.0752
  60   2.0000     -10.328178      -281.0440
  61   2.0000     -10.313582      -280.6468
  62   2.0000     -10.311157      -280.5808
  63   2.0000     -10.310290      -280.5572
  64   2.0000     -10.308085      -280.4973
  65   2.0000     -10.307788      -280.4892
  66   2.0000     -10.307400      -280.4786
  67   2.0000     -10.306384      -280.4510
  68   2.0000     -10.304739      -280.4062
  69   2.0000      -8.155721      -221.9285
  70   2.0000      -8.094080      -220.2511
  71   2.0000      -8.089227      -220.1191
  72   2.0000      -8.086496      -220.0447
  73   2.0000      -8.085916      -220.0290
  74   2.0000      -6.126765      -166.7177
  75   2.0000      -6.118944      -166.5049
  76   2.0000      -6.118603      -166.4956
  77   2.0000      -6.063299      -164.9908
  78   2.0000      -6.059014      -164.8741
  79   2.0000      -6.058587      -164.8625
  80   2.0000      -6.056534      -164.8067
  81   2.0000      -6.055887      -164.7891
  82   2.0000      -6.055518      -164.7790
  83   2.0000      -6.054008      -164.7379
  84   2.0000      -6.051630      -164.6732
  85   2.0000      -6.051304      -164.6644
  86   2.0000      -6.050631      -164.6460
  87   2.0000      -6.048947      -164.6002
  88   2.0000      -6.048391      -164.5851
  89   2.0000      -1.356873       -36.9224
  90   2.0000      -1.354530       -36.8586
  91   2.0000      -1.266560       -34.4649
  92   2.0000      -1.265487       -34.4356
  93   2.0000      -1.162239       -31.6261
  94   2.0000      -1.160702       -31.5843
  95   2.0000      -1.154032       -31.4028
  96   2.0000      -1.139274       -31.0012
  97   2.0000      -1.066717       -29.0269
  98   2.0000      -1.050343       -28.5813
  99   2.0000      -1.049689       -28.5635
 100   2.0000      -1.027208       -27.9517
 101   2.0000      -1.025160       -27.8960
 102   2.0000      -1.024668       -27.8826
 103   2.0000      -1.021673       -27.8011
 104   2.0000      -1.020807       -27.7776
 105   2.0000      -1.020507       -27.7694
 106   2.0000      -1.012807       -27.5599
 107   2.0000      -1.010867       -27.5071
 108   2.0000      -1.009533       -27.4708
 109   2.0000      -1.008657       -27.4470
 110   2.0000      -1.002763       -27.2866
 111   2.0000      -0.991859       -26.9899
 112   2.0000      -0.970905       -26.4197
 113   2.0000      -0.966004       -26.2863
 114   2.0000      -0.951774       -25.8991
 115   2.0000      -0.951295       -25.8861
 116   2.0000      -0.928004       -25.2523
 117   2.0000      -0.926308       -25.2061
 118   2.0000      -0.925645       -25.1881
 119   2.0000      -0.922044       -25.0901
 120   2.0000      -0.909159       -24.7395
 121   2.0000      -0.893870       -24.3234
 122   2.0000      -0.875454       -23.8223
 123   2.0000      -0.872292       -23.7363
 124   2.0000      -0.861809       -23.4510
 125   2.0000      -0.861532       -23.4435
 126   2.0000      -0.853245       -23.2180
 127   2.0000      -0.831258       -22.6197
 128   2.0000      -0.827053       -22.5053
 129   2.0000      -0.813240       -22.1294
 130   2.0000      -0.806981       -21.9591
 131   2.0000      -0.800564       -21.7844
 132   2.0000      -0.789817       -21.4920
 133   2.0000      -0.783685       -21.3251
 134   2.0000      -0.776057       -21.1176
 135   2.0000      -0.755209       -20.5503
 136   2.0000      -0.754004       -20.5175
 137   2.0000      -0.739805       -20.1311
 138   2.0000      -0.732601       -19.9351
 139   2.0000      -0.725838       -19.7511
 140   2.0000      -0.714639       -19.4463
 141   2.0000      -0.711358       -19.3570
 142   2.0000      -0.704156       -19.1611
 143   2.0000      -0.699084       -19.0231
 144   2.0000      -0.693522       -18.8717
 145   2.0000      -0.687112       -18.6973
 146   2.0000      -0.684265       -18.6198
 147   2.0000      -0.683315       -18.5939
 148   2.0000      -0.678180       -18.4542
 149   2.0000      -0.673036       -18.3142
 150   2.0000      -0.662665       -18.0320
 151   2.0000      -0.656175       -17.8554
 152   2.0000      -0.653963       -17.7952
 153   2.0000      -0.652709       -17.7611
 154   2.0000      -0.643250       -17.5037
 155   2.0000      -0.639489       -17.4014
 156   2.0000      -0.629652       -17.1337
 157   2.0000      -0.627546       -17.0764
 158   2.0000      -0.627295       -17.0696
 159   2.0000      -0.623142       -16.9565
 160   2.0000      -0.622004       -16.9256
 161   2.0000      -0.615614       -16.7517
 162   2.0000      -0.610028       -16.5997
 163   2.0000      -0.598365       -16.2823
 164   2.0000      -0.594675       -16.1819
 165   2.0000      -0.591411       -16.0931
 166   2.0000      -0.587632       -15.9903
 167   2.0000      -0.583243       -15.8709
 168   2.0000      -0.582982       -15.8637
 169   2.0000      -0.582381       -15.8474
 170   2.0000      -0.575706       -15.6658
 171   2.0000      -0.570341       -15.5198
 172   2.0000      -0.565223       -15.3805
 173   2.0000      -0.558983       -15.2107
 174   2.0000      -0.552967       -15.0470
 175   2.0000      -0.551902       -15.0180
 176   2.0000      -0.551698       -15.0125
 177   2.0000      -0.544593       -14.8191
 178   2.0000      -0.542027       -14.7493
 179   2.0000      -0.537764       -14.6333
 180   2.0000      -0.531198       -14.4546
 181   2.0000      -0.526846       -14.3362
 182   2.0000      -0.514796       -14.0083
 183   2.0000      -0.513969       -13.9858
 184   2.0000      -0.510207       -13.8835
 185   2.0000      -0.509865       -13.8741
 186   2.0000      -0.508313       -13.8319
 187   2.0000      -0.506579       -13.7847
 188   2.0000      -0.503315       -13.6959
 189   2.0000      -0.502422       -13.6716
 190   2.0000      -0.501763       -13.6537
 191   2.0000      -0.501145       -13.6369
 192   2.0000      -0.500578       -13.6214
 193   2.0000      -0.497474       -13.5370
 194   2.0000      -0.495507       -13.4834
 195   2.0000      -0.488570       -13.2947
 196   2.0000      -0.482203       -13.1214
 197   2.0000      -0.480279       -13.0691
 198   2.0000      -0.479550       -13.0492
 199   2.0000      -0.476794       -12.9742
 200   2.0000      -0.466813       -12.7026
 201   2.0000      -0.466459       -12.6930
 202   2.0000      -0.465986       -12.6801
 203   2.0000      -0.464766       -12.6469
 204   2.0000      -0.464623       -12.6430
 205   2.0000      -0.464351       -12.6356
 206   2.0000      -0.463909       -12.6236
 207   2.0000      -0.462924       -12.5968
 208   2.0000      -0.460790       -12.5387
 209   2.0000      -0.459071       -12.4920
 210   2.0000      -0.458236       -12.4692
 211   2.0000      -0.456527       -12.4227
 212   2.0000      -0.453339       -12.3360
 213   2.0000      -0.451221       -12.2783
 214   2.0000      -0.450771       -12.2661
 215   2.0000      -0.444806       -12.1038
 216   2.0000      -0.442832       -12.0501
 217   2.0000      -0.442342       -12.0367
 218   2.0000      -0.442303       -12.0357
 219   2.0000      -0.441807       -12.0222
 220   2.0000      -0.441221       -12.0062
 221   2.0000      -0.440532       -11.9875
 222   2.0000      -0.436484       -11.8773
 223   2.0000      -0.432684       -11.7739
 224   2.0000      -0.429883       -11.6977
 225   2.0000      -0.428649       -11.6641
 226   2.0000      -0.427278       -11.6268
 227   2.0000      -0.422409       -11.4943
 228   2.0000      -0.422192       -11.4884
 229   2.0000      -0.409934       -11.1549
 230   2.0000      -0.406784       -11.0692
 231   2.0000      -0.405670       -11.0388
 232   2.0000      -0.390381       -10.6228
 233   2.0000      -0.380204       -10.3459
 234   2.0000      -0.368480       -10.0268
 235   2.0000      -0.366426        -9.9710
 236   2.0000      -0.364419        -9.9163
 237   2.0000      -0.363606        -9.8942
 238   2.0000      -0.362285        -9.8583
 239   2.0000      -0.354480        -9.6459
 240   2.0000      -0.353385        -9.6161
 241   2.0000      -0.347193        -9.4476
 242   2.0000      -0.343303        -9.3418
 243   2.0000      -0.327817        -8.9204
 244   2.0000      -0.325506        -8.8575
 245   2.0000      -0.319833        -8.7031
 246   2.0000      -0.288067        -7.8387
 247   2.0000      -0.250676        -6.8212
 248   0.0000      -0.144267        -3.9257
 249   0.0000      -0.108328        -2.9478
 250   0.0000      -0.104848        -2.8531
 251   0.0000      -0.081781        -2.2254
 252   0.0000      -0.077690        -2.1141

MULLIKEN ATOMIC CHARGES
-----------------------
   0 C :    0.196965
   1 F :   -0.134153
   2 C :   -0.064674
   3 C :   -0.125349
   4 N :    0.196287
   5 O :   -0.169266
   6 C :    0.029925
   7 C :    0.154718
   8 O :   -0.191100
   9 C :    0.074281
  10 C :   -0.106377
  11 C :   -0.071609
  12 C :    0.033272
  13 C :   -0.077975
  14 S :    0.228416
  15 C :   -0.071436
  16 C :    0.039671
  17 C :    0.306722
  18 C :   -0.294406
  19 C :   -0.193281
  20 N :    0.178053
  21 C :   -0.193237
  22 N :    0.186130
  23 C :   -0.053611
  24 C :   -0.182668
  25 S :    0.213982
  26 C :    0.203497
  27 C :   -0.073327
  28 C :   -0.061582
  29 N :   -0.011103
  30 C :   -0.099708
  31 C :   -0.118192
  32 N :    0.056760
  33 C :   -0.222187
  34 N :    0.257476
  35 C :   -0.238434
  36 N :    0.257968
  37 C :    0.183723
  38 C :   -0.003464
  39 C :   -0.030748
  40 N :   -0.329321
  41 S :    0.583772
  42 N :   -0.276214
  43 C :   -0.170993
  44 C :   -0.062451
  45 C :    0.037713
  46 C :   -0.060940
  47 S :    0.210883
  48 C :   -0.095641
  49 C :    0.016816
  50 C :    0.311028
  51 C :   -0.303520
  52 C :   -0.188960
  53 N :    0.168348
  54 C :   -0.199057
  55 N :    0.200174
  56 C :   -0.050469
  57 C :   -0.101539
  58 S :    0.205955
  59 C :    0.068457
  60 C :    0.034788
  61 O :   -0.167067
  62 C :   -0.064029
  63 C :    0.186800
  64 F :   -0.142893
  65 C :   -0.130782
  66 N :    0.196955
  67 C :    0.149158
  68 O :   -0.149885
  69 H :    0.013386
  70 H :    0.017284
  71 H :    0.022686
  72 H :    0.021598
  73 H :    0.025039
  74 H :    0.012962
Sum of atomic charges:   -0.0000000

LOEWDIN ATOMIC CHARGES
----------------------
   0 C :    0.076257
   1 F :   -0.014792
   2 C :   -0.024802
   3 C :   -0.042779
   4 N :   -0.001685
   5 O :    0.044315
   6 C :   -0.025681
   7 C :    0.095367
   8 O :   -0.146836
   9 C :   -0.047330
  10 C :   -0.180025
  11 C :   -0.015134
  12 C :   -0.067841
  13 C :   -0.180200
  14 S :    0.535178
  15 C :   -0.178576
  16 C :   -0.068709
  17 C :    0.077436
  18 C :   -0.099159
  19 C :   -0.018600
  20 N :   -0.028866
  21 C :   -0.019164
  22 N :   -0.022614
  23 C :   -0.007804
  24 C :   -0.164198
  25 S :    0.515246
  26 C :   -0.040301
  27 C :   -0.005540
  28 C :   -0.014100
  29 N :   -0.018934
  30 C :   -0.019544
  31 C :   -0.018950
  32 N :    0.011401
  33 C :   -0.041176
  34 N :    0.014301
  35 C :   -0.039553
  36 N :    0.004574
  37 C :   -0.036066
  38 C :   -0.037538
  39 C :   -0.045947
  40 N :   -0.301580
  41 S :    0.701597
  42 N :   -0.266963
  43 C :   -0.166567
  44 C :   -0.007260
  45 C :   -0.068937
  46 C :   -0.179510
  47 S :    0.512859
  48 C :   -0.174598
  49 C :   -0.066930
  50 C :    0.076679
  51 C :   -0.096553
  52 C :   -0.014213
  53 N :   -0.034567
  54 C :   -0.025146
  55 N :   -0.015545
  56 C :   -0.006184
  57 C :   -0.175328
  58 S :    0.493912
  59 C :   -0.056213
  60 C :   -0.011582
  61 O :    0.048468
  62 C :   -0.028513
  63 C :    0.064378
  64 F :   -0.025471
  65 C :   -0.043548
  66 N :   -0.003939
  67 C :    0.096369
  68 O :   -0.110498
  69 H :    0.014881
  70 H :    0.039260
  71 H :    0.038084
  72 H :    0.038360
  73 H :    0.039639
  74 H :    0.013523

  Mayer bond orders larger than 0.100000
B(  0-C ,  1-F ) :   1.2007 B(  0-C ,  2-C ) :   1.5014 B(  0-C ,  9-C ) :   1.1923
B(  2-C ,  3-C ) :   1.0541 B(  2-C ,  5-O ) :   1.1851 B(  2-C ,  6-C ) :   0.1285
B(  3-C ,  4-N ) :   3.0521 B(  5-O ,  6-C ) :   1.1060 B(  6-C ,  7-C ) :   1.0576
B(  6-C ,  9-C ) :   1.3710 B(  7-C ,  8-O ) :   2.0825 B(  7-C , 69-H ) :   0.9532
B(  9-C , 10-C ) :   1.1054 B( 10-C , 11-C ) :   1.4313 B( 10-C , 14-S ) :   1.1077
B( 11-C , 12-C ) :   1.3013 B( 11-C , 70-H ) :   0.9953 B( 12-C , 13-C ) :   1.4020
B( 12-C , 17-C ) :   0.9865 B( 13-C , 14-S ) :   1.1039 B( 13-C , 15-C ) :   1.1875
B( 15-C , 16-C ) :   1.3990 B( 15-C , 25-S ) :   1.1107 B( 16-C , 17-C ) :   0.9931
B( 16-C , 23-C ) :   1.2774 B( 17-C , 18-C ) :   1.7151 B( 18-C , 19-C ) :   1.1357
B( 18-C , 21-C ) :   1.1330 B( 19-C , 20-N ) :   2.9918 B( 21-C , 22-N ) :   2.9918
B( 23-C , 24-C ) :   1.4032 B( 23-C , 71-H ) :   0.9859 B( 24-C , 25-S ) :   1.0958
B( 24-C , 26-C ) :   1.1921 B( 26-C , 27-C ) :   1.2595 B( 26-C , 37-C ) :   0.1200
B( 26-C , 39-C ) :   1.1928 B( 27-C , 28-C ) :   1.1057 B( 27-C , 32-N ) :   1.4505
B( 28-C , 29-N ) :   1.3997 B( 28-C , 37-C ) :   1.2525 B( 29-N , 30-C ) :   1.6938
B( 30-C , 31-C ) :   1.2109 B( 30-C , 35-C ) :   1.1646 B( 31-C , 32-N ) :   1.7320
B( 31-C , 33-C ) :   1.1580 B( 33-C , 34-N ) :   3.0310 B( 35-C , 36-N ) :   3.0433
B( 37-C , 38-C ) :   1.2034 B( 37-C , 43-C ) :   1.2122 B( 38-C , 39-C ) :   1.1087
B( 38-C , 42-N ) :   1.5127 B( 39-C , 40-N ) :   1.4753 B( 40-N , 41-S ) :   1.2760
B( 40-N , 42-N ) :   0.1493 B( 41-S , 42-N ) :   1.2928 B( 43-C , 44-C ) :   1.4058
B( 43-C , 47-S ) :   1.0867 B( 44-C , 45-C ) :   1.2852 B( 44-C , 72-H ) :   0.9829
B( 45-C , 46-C ) :   1.4034 B( 45-C , 50-C ) :   0.9889 B( 46-C , 47-S ) :   1.0868
B( 46-C , 48-C ) :   1.2024 B( 48-C , 49-C ) :   1.4105 B( 48-C , 58-S ) :   1.1242
B( 49-C , 50-C ) :   0.9903 B( 49-C , 56-C ) :   1.2783 B( 50-C , 51-C ) :   1.7134
B( 51-C , 52-C ) :   1.1415 B( 51-C , 54-C ) :   1.1354 B( 52-C , 53-N ) :   2.9823
B( 54-C , 55-N ) :   3.0037 B( 56-C , 57-C ) :   1.4638 B( 56-C , 73-H ) :   0.9717
B( 57-C , 58-S ) :   1.0907 B( 57-C , 59-C ) :   1.1081 B( 59-C , 60-C ) :   1.3797
B( 59-C , 63-C ) :   1.1867 B( 60-C , 61-O ) :   1.1144 B( 60-C , 62-C ) :   0.1327
B( 60-C , 67-C ) :   1.0248 B( 61-O , 62-C ) :   1.1859 B( 62-C , 63-C ) :   1.5020
B( 62-C , 65-C ) :   1.0596 B( 63-C , 64-F ) :   1.1980 B( 65-C , 66-N ) :   3.0533
B( 67-C , 68-O ) :   2.1225 B( 67-C , 74-H ) :   0.9464 B( 68-O , 73-H ) :   0.1025

-----------------------------------------------------------------------------
         ABSORPTION SPECTRUM VIA TRANSITION ELECTRIC DIPOLE MOMENTS
-----------------------------------------------------------------------------
State   Energy  Wavelength   fosc         T2         TX        TY        TZ
        (cm-1)    (nm)                  (au**2)     (au)      (au)      (au)
-----------------------------------------------------------------------------
   0    7938.5   1259.7   0.604751108  25.07925   1.49909   2.11108  -4.28664
   1   14179.0    705.3   0.006211492   0.14422  -0.35984   0.04558  -0.11252
   2   14543.6    687.6   0.053574409   1.21272   0.09436   0.31929  -1.04970
   3   17052.2    586.4   0.016712767   0.32266   0.54561   0.02183   0.15648
   4   22637.0    441.8   0.534296684   7.77033   0.22468  -0.57235   2.71887
   5   23271.6    429.7   0.209582281   2.96486  -0.57004  -0.66601   1.48201
   6   23568.8    424.3   0.283556001   3.96075   1.01848   1.00619  -1.38241
   7   23821.2    419.8   0.033914181   0.46870   0.07292   0.08753   0.67507
   8   23902.8    418.4   0.100000249   1.37730  -0.39187  -0.34697   1.05040
   9   24663.2    405.5   0.070155583   0.93646  -0.54563   0.08784  -0.79438
  10   25027.2    399.6   0.122932275   1.61707   0.30156   0.19802  -1.21939
  11   25448.6    392.9   0.000752893   0.00974  -0.05992   0.06444   0.04469
  12   25825.6    387.2   0.061936254   0.78953   0.47633   0.14406  -0.73613
  13   26054.7    383.8   0.002165849   0.02737  -0.02424   0.02584  -0.16159
  14   29836.7    335.2   0.069824468   0.77043   0.32524   0.49619   0.64687
  15   29851.2    335.0   0.081016001   0.89348  -0.50068  -0.33009  -0.73064
  16   30473.2    328.2   0.138779279   1.49928   0.02664   0.09005   1.22084
  17   30625.5    326.5   0.005390396   0.05794  -0.00499   0.02862  -0.23896
  18   30710.1    325.6   0.140010241   1.50091  -0.51034  -0.29274   1.07460
  19   30939.5    323.2   0.483426435   5.14390   1.12386   1.38524  -1.40070
  20   31144.2    321.1   0.057459182   0.60738   0.12013  -0.35376   0.68396
  21   31457.7    317.9   0.250473756   2.62126  -1.01079  -1.24175   0.24002
  22   32226.9    310.3   0.370143750   3.78118   1.20149   1.49493  -0.32063
  23   32495.0    307.7   0.053594551   0.54298   0.68106   0.22582   0.16773
  24   32669.7    306.1   0.615912267   6.20653   1.30931   1.24665   1.71409
  25   33009.0    302.9   0.376155193   3.75154   1.41563   0.99223   0.87350
  26   33133.6    301.8   0.193810390   1.92568   0.94324   0.76994   0.66571
  27   33695.1    296.8   0.008202633   0.08014  -0.11039  -0.25890  -0.03043
  28   33816.7    295.7   0.130937944   1.27470  -0.82845  -0.70575   0.30047
  29   34362.0    291.0   0.394106223   3.77582   0.43081  -0.03096   1.89453
  30   34395.2    290.7   0.002478020   0.02372  -0.05268   0.14471  -0.00174
  31   34534.1    289.6   0.095409550   0.90953   0.21979   0.05627  -0.92632
  32   34756.6    287.7   0.043492320   0.41196  -0.39848  -0.37111   0.33978
  33   35048.1    285.3   0.056935702   0.53481  -0.02679  -0.15246  -0.71473
  34   35623.9    280.7   0.112356947   1.03833  -0.62787  -0.76335  -0.24780
  35   35687.3    280.2   0.088130438   0.81300  -0.23298  -0.01837  -0.87085
  36   36327.5    275.3   0.055131038   0.49962  -0.09976   0.69568  -0.07546
  37   36414.2    274.6   0.061276580   0.55399  -0.35582  -0.30048  -0.58059
  38   36559.4    273.5   0.001860088   0.01675   0.02044   0.11251   0.06061
  39   36706.7    272.4   0.000364911   0.00327  -0.00784  -0.02138   0.05248
  40   37558.5    266.3   0.115644531   1.01366  -0.36480  -0.49873  -0.79489
  41   37669.6    265.5   0.004717872   0.04123  -0.09597  -0.09474   0.15181
  42   38045.2    262.8   0.060395453   0.52261   0.10370   0.20630   0.68505
  43   38137.4    262.2   0.009553733   0.08247   0.04675   0.28333  -0.00312
  44   38572.9    259.2   0.028830641   0.24606  -0.03847  -0.26711   0.41621
  45   38982.4    256.5   0.039889641   0.33687  -0.04727  -0.05061  -0.57626
  46   39259.9    254.7   0.132709121   1.11282  -0.12386   0.04934  -1.04645
  47   39892.9    250.7   0.002120671   0.01750   0.08773  -0.03489  -0.09267
  48   40012.2    249.9   0.001975223   0.01625  -0.10865  -0.01768   0.06430
  49   40174.0    248.9   0.002081927   0.01706  -0.11035   0.00419   0.06975
  50   40258.6    248.4   0.001331627   0.01089   0.00487  -0.10140   0.02416
  51   40302.9    248.1   0.001002111   0.00819  -0.05070   0.06542  -0.03653

FINAL SINGLE POINT ENERGY     -4900.602110528576

DIPOLE MOMENT
-------------
                                X             Y             Z
Electronic contribution:      5.48110       6.11251       0.65515
Nuclear contribution   :     -7.45127      -7.73059      -2.21132
                        -----------------------------------------
Total Dipole Moment    :     -1.97017      -1.61807      -1.55617
                        -----------------------------------------
Magnitude (a.u.)       :      2.98687
Magnitude (Debye)      :      7.59203

Rotational constants in cm-1:     0.002385     0.000286     0.000260
Rotational constants in MHz :    71.490902     8.582337     7.796525

                             ****ORCA TERMINATED NORMALLY****
TOTAL RUN TIME: 0 days 0 hours 7 minutes 43 seconds 414 msec
