                         Program Version 4.2.0 -  RELEASE  -
|  1> # ORCA input file
|  2> # SCF done       -131.388996501393          0.000475074140
|  3> ! CAM-B3LYP def2-SVP def2/J RIJCOSX Grid4 TightSCF
|  4> %maxcore 5000
|  5> %tddft
|  6>     Mode sTDDFT
|  7>     Ethresh 5.0
|  8>     maxcore 5000
|  9> end
| 10>
| 11> %pal
| 12>   nprocs 6
| 13>   end
| 14> * xyz 0 1
| 15>    C       -0.78668        -0.32333        -0.11992
| 16>    C       -0.61934         1.04786         0.11073
| 17>    C        0.32134         1.31812         1.06858
| 18>    S        0.78548         2.91351         1.60456
| 19>    C        2.05387         2.51200         2.83784
| 20>    S        1.01571        -0.13823         1.70363
| 21>    C        0.02088        -1.12235         0.65577
| 22>    C        0.15359        -2.53764         0.71593
| 23>    C       -0.53670        -3.41508        -0.04641
| 24>    C       -0.38951        -4.82874         0.01680
| 25>    N       -1.10793        -5.65886        -0.79531
| 26>    C       -0.77964        -6.96183        -0.54722
| 27>    C        0.18114        -6.96384         0.46306
| 28>    C        0.42135        -5.64047         0.81112
| 29>    C       -1.34637        -8.02550        -1.23004
| 30>    C       -1.82812        -8.97111        -1.82500
| 31>    C       -2.36794       -10.04206        -2.50180
| 32>    S       -3.58233        -9.84544        -3.72075
| 33>    C       -3.69958       -11.56311        -4.01966
| 34>    C       -2.79156       -12.25884        -3.20603
| 35>    C       -2.05119       -11.39400        -2.34137
| 36>    C       -1.10633       -11.92405        -1.44265
| 37>    C       -0.90175       -13.27035        -1.40535
| 38>    S        0.28233       -13.95733        -0.26700
| 39>    C       -0.87287       -14.54775         1.02725
| 40>    C       -1.56505       -13.40240         1.73750
| 41>    C       -1.59223       -14.14066        -2.29301
| 42>    S       -1.13347       -15.83811        -2.16990
| 43>    C       -2.25284       -16.70809        -3.31950
| 44>    C       -3.66029       -16.84903        -2.76915
| 45>    C       -2.51160       -13.64018        -3.17653
| 46>    C       -4.66032       -11.95744        -4.98236
| 47>    C       -5.09909       -13.20530        -5.28501
| 48>    C       -6.07222       -13.51003        -6.27473
| 49>    N       -6.71376       -12.59265        -7.05632
| 50>    C       -7.57701       -13.22309        -7.90599
| 51>    C       -7.48607       -14.59022        -7.66198
| 52>    C       -6.55241       -14.76622        -6.64683
| 53>    C       -8.37415       -12.53822        -8.81750
| 54>    C       -9.09397       -12.00888        -9.63742
| 55>    C       -9.90402       -11.30610       -10.53441
| 56>    C      -10.04704        -9.89315       -10.44539
| 57>    C      -10.88094        -9.38439       -11.39145
| 58>    S      -11.37577        -7.73224       -11.68741
| 59>    C      -10.52941        -6.85973       -10.33944
| 60>    S      -11.51734       -10.62239       -12.42759
| 61>    C      -10.63946       -11.86249       -11.56733
| 62>    C      -10.77325       -13.22027       -12.00983
| 63>    C      -10.16673       -14.28374       -11.48359
| 64>    H       -1.48391        -0.71379        -0.83871
| 65>    H       -1.16276         1.82092        -0.40128
| 66>    H        2.41357         3.45897         3.22682
| 67>    H        2.86370         1.96730         2.36124
| 68>    H        1.61131         1.92007         3.63379
| 69>    H        0.87122        -2.91341         1.43147
| 70>    H       -1.25472        -3.04486        -0.76660
| 71>    H       -1.77846        -5.35907        -1.48384
| 72>    H        0.64099        -7.83742         0.88125
| 73>    H        1.10937        -5.30037         1.55896
| 74>    H       -0.55303       -11.26255        -0.79431
| 75>    H       -0.24289       -15.11588         1.70969
| 76>    H       -1.58517       -15.22048         0.55156
| 77>    H       -0.83198       -12.73736         2.18779
| 78>    H       -2.21384       -13.79016         2.52074
| 79>    H       -2.17036       -12.82674         1.03922
| 80>    H       -1.78674       -17.68660        -3.43725
| 81>    H       -2.22700       -16.19684        -4.28145
| 82>    H       -3.64392       -17.41595        -1.84113
| 83>    H       -4.28840       -17.37524        -3.48591
| 84>    H       -4.10392       -15.87655        -2.56509
| 85>    H       -3.00263       -14.28510        -3.88133
| 86>    H       -5.10332       -11.11925        -5.50916
| 87>    H       -4.72672       -14.06621        -4.75493
| 88>    H       -6.57747       -11.59682        -7.02040
| 89>    H       -8.04311       -15.35235        -8.17020
| 90>    H       -6.24581       -15.70047        -6.21837
| 91>    H       -9.54013        -9.31257        -9.69656
| 92>    H      -10.80940        -5.81594       -10.43998
| 93>    H       -9.45457        -6.96866       -10.44856
| 94>    H      -10.86913        -7.24604        -9.38319
| 95>    H      -11.43724       -13.34710       -12.85605
| 96>    H       -9.49779       -14.20225       -10.64595
| 97>    H      -10.32915       -15.26742       -11.88807
| 98> *
| 99>
|100>                          ****END OF INPUT****

CARTESIAN COORDINATES (ANGSTROEM)
---------------------------------
  C     -0.786680   -0.323330   -0.119920
  C     -0.619340    1.047860    0.110730
  C      0.321340    1.318120    1.068580
  S      0.785480    2.913510    1.604560
  C      2.053870    2.512000    2.837840
  S      1.015710   -0.138230    1.703630
  C      0.020880   -1.122350    0.655770
  C      0.153590   -2.537640    0.715930
  C     -0.536700   -3.415080   -0.046410
  C     -0.389510   -4.828740    0.016800
  N     -1.107930   -5.658860   -0.795310
  C     -0.779640   -6.961830   -0.547220
  C      0.181140   -6.963840    0.463060
  C      0.421350   -5.640470    0.811120
  C     -1.346370   -8.025500   -1.230040
  C     -1.828120   -8.971110   -1.825000
  C     -2.367940  -10.042060   -2.501800
  S     -3.582330   -9.845440   -3.720750
  C     -3.699580  -11.563110   -4.019660
  C     -2.791560  -12.258840   -3.206030
  C     -2.051190  -11.394000   -2.341370
  C     -1.106330  -11.924050   -1.442650
  C     -0.901750  -13.270350   -1.405350
  S      0.282330  -13.957330   -0.267000
  C     -0.872870  -14.547750    1.027250
  C     -1.565050  -13.402400    1.737500
  C     -1.592230  -14.140660   -2.293010
  S     -1.133470  -15.838110   -2.169900
  C     -2.252840  -16.708090   -3.319500
  C     -3.660290  -16.849030   -2.769150
  C     -2.511600  -13.640180   -3.176530
  C     -4.660320  -11.957440   -4.982360
  C     -5.099090  -13.205300   -5.285010
  C     -6.072220  -13.510030   -6.274730
  N     -6.713760  -12.592650   -7.056320
  C     -7.577010  -13.223090   -7.905990
  C     -7.486070  -14.590220   -7.661980
  C     -6.552410  -14.766220   -6.646830
  C     -8.374150  -12.538220   -8.817500
  C     -9.093970  -12.008880   -9.637420
  C     -9.904020  -11.306100  -10.534410
  C    -10.047040   -9.893150  -10.445390
  C    -10.880940   -9.384390  -11.391450
  S    -11.375770   -7.732240  -11.687410
  C    -10.529410   -6.859730  -10.339440
  S    -11.517340  -10.622390  -12.427590
  C    -10.639460  -11.862490  -11.567330
  C    -10.773250  -13.220270  -12.009830
  C    -10.166730  -14.283740  -11.483590
  H     -1.483910   -0.713790   -0.838710
  H     -1.162760    1.820920   -0.401280
  H      2.413570    3.458970    3.226820
  H      2.863700    1.967300    2.361240
  H      1.611310    1.920070    3.633790
  H      0.871220   -2.913410    1.431470
  H     -1.254720   -3.044860   -0.766600
  H     -1.778460   -5.359070   -1.483840
  H      0.640990   -7.837420    0.881250
  H      1.109370   -5.300370    1.558960
  H     -0.553030  -11.262550   -0.794310
  H     -0.242890  -15.115880    1.709690
  H     -1.585170  -15.220480    0.551560
  H     -0.831980  -12.737360    2.187790
  H     -2.213840  -13.790160    2.520740
  H     -2.170360  -12.826740    1.039220
  H     -1.786740  -17.686600   -3.437250
  H     -2.227000  -16.196840   -4.281450
  H     -3.643920  -17.415950   -1.841130
  H     -4.288400  -17.375240   -3.485910
  H     -4.103920  -15.876550   -2.565090
  H     -3.002630  -14.285100   -3.881330
  H     -5.103320  -11.119250   -5.509160
  H     -4.726720  -14.066210   -4.754930
  H     -6.577470  -11.596820   -7.020400
  H     -8.043110  -15.352350   -8.170200
  H     -6.245810  -15.700470   -6.218370
  H     -9.540130   -9.312570   -9.696560
  H    -10.809400   -5.815940  -10.439980
  H     -9.454570   -6.968660  -10.448560
  H    -10.869130   -7.246040   -9.383190
  H    -11.437240  -13.347100  -12.856050
  H     -9.497790  -14.202250  -10.645950
  H    -10.329150  -15.267420  -11.888070

 Total Charge           Charge          ....    0
 Multiplicity           Mult            ....    1
 Number of Electrons    NEL             ....  400
 Basis Dimension        Dim             ....  884

ORBITAL ENERGIES
----------------

  NO   OCC          E(Eh)            E(eV)
   0   2.0000     -88.960701     -2420.7437
   1   2.0000     -88.953263     -2420.5413
   2   2.0000     -88.950824     -2420.4750
   3   2.0000     -88.931467     -2419.9482
   4   2.0000     -88.931358     -2419.9453
   5   2.0000     -88.917762     -2419.5753
   6   2.0000     -88.904165     -2419.2053
   7   2.0000     -14.458938      -393.4477
   8   2.0000     -14.457307      -393.4033
   9   2.0000     -10.314524      -280.6725
  10   2.0000     -10.312534      -280.6183
  11   2.0000     -10.310430      -280.5611
  12   2.0000     -10.308054      -280.4964
  13   2.0000     -10.306201      -280.4460
  14   2.0000     -10.299242      -280.2566
  15   2.0000     -10.298739      -280.2429
  16   2.0000     -10.298619      -280.2397
  17   2.0000     -10.298447      -280.2350
  18   2.0000     -10.297186      -280.2007
  19   2.0000     -10.297061      -280.1973
  20   2.0000     -10.294747      -280.1343
  21   2.0000     -10.291570      -280.0479
  22   2.0000     -10.290805      -280.0270
  23   2.0000     -10.290610      -280.0217
  24   2.0000     -10.287576      -279.9392
  25   2.0000     -10.281842      -279.7832
  26   2.0000     -10.279311      -279.7143
  27   2.0000     -10.279171      -279.7105
  28   2.0000     -10.277459      -279.6639
  29   2.0000     -10.277150      -279.6555
  30   2.0000     -10.276660      -279.6421
  31   2.0000     -10.275166      -279.6015
  32   2.0000     -10.274933      -279.5951
  33   2.0000     -10.274702      -279.5889
  34   2.0000     -10.272797      -279.5370
  35   2.0000     -10.272069      -279.5172
  36   2.0000     -10.269909      -279.4584
  37   2.0000     -10.269769      -279.4546
  38   2.0000     -10.268828      -279.4290
  39   2.0000     -10.267522      -279.3935
  40   2.0000     -10.267314      -279.3878
  41   2.0000     -10.264619      -279.3145
  42   2.0000     -10.261031      -279.2168
  43   2.0000     -10.257146      -279.1111
  44   2.0000     -10.256102      -279.0827
  45   2.0000     -10.254485      -279.0387
  46   2.0000     -10.253825      -279.0208
  47   2.0000     -10.251797      -278.9656
  48   2.0000     -10.248966      -278.8885
  49   2.0000      -8.055708      -219.2070
  50   2.0000      -8.048564      -219.0126
  51   2.0000      -8.046875      -218.9666
  52   2.0000      -8.027032      -218.4266
  53   2.0000      -8.026997      -218.4257
  54   2.0000      -8.012469      -218.0304
  55   2.0000      -7.999180      -217.6687
  56   2.0000      -6.024798      -163.9431
  57   2.0000      -6.020742      -163.8327
  58   2.0000      -6.018280      -163.7657
  59   2.0000      -6.018061      -163.7598
  60   2.0000      -6.016274      -163.7111
  61   2.0000      -6.013767      -163.6429
  62   2.0000      -6.012195      -163.6001
  63   2.0000      -6.010552      -163.5554
  64   2.0000      -6.008614      -163.5027
  65   2.0000      -5.997605      -163.2031
  66   2.0000      -5.997466      -163.1994
  67   2.0000      -5.993395      -163.0886
  68   2.0000      -5.993386      -163.0883
  69   2.0000      -5.986596      -162.9035
  70   2.0000      -5.986490      -162.9007
  71   2.0000      -5.982853      -162.8017
  72   2.0000      -5.978555      -162.6847
  73   2.0000      -5.972455      -162.5188
  74   2.0000      -5.969687      -162.4434
  75   2.0000      -5.965893      -162.3402
  76   2.0000      -5.958539      -162.1401
  77   2.0000      -1.076123       -29.2828
  78   2.0000      -1.075701       -29.2713
  79   2.0000      -0.992838       -27.0165
  80   2.0000      -0.984061       -26.7777
  81   2.0000      -0.980230       -26.6734
  82   2.0000      -0.948695       -25.8153
  83   2.0000      -0.907317       -24.6894
  84   2.0000      -0.905576       -24.6420
  85   2.0000      -0.903480       -24.5849
  86   2.0000      -0.892063       -24.2743
  87   2.0000      -0.886888       -24.1334
  88   2.0000      -0.882013       -24.0008
  89   2.0000      -0.875333       -23.8190
  90   2.0000      -0.868035       -23.6204
  91   2.0000      -0.867317       -23.6009
  92   2.0000      -0.862127       -23.4597
  93   2.0000      -0.859979       -23.4012
  94   2.0000      -0.849868       -23.1261
  95   2.0000      -0.835682       -22.7401
  96   2.0000      -0.832678       -22.6583
  97   2.0000      -0.827442       -22.5158
  98   2.0000      -0.818316       -22.2675
  99   2.0000      -0.804131       -21.8815
 100   2.0000      -0.793334       -21.5877
 101   2.0000      -0.784779       -21.3549
 102   2.0000      -0.779476       -21.2106
 103   2.0000      -0.768813       -20.9205
 104   2.0000      -0.760355       -20.6903
 105   2.0000      -0.739486       -20.1224
 106   2.0000      -0.732119       -19.9220
 107   2.0000      -0.717915       -19.5355
 108   2.0000      -0.708657       -19.2835
 109   2.0000      -0.700221       -19.0540
 110   2.0000      -0.691664       -18.8211
 111   2.0000      -0.689131       -18.7522
 112   2.0000      -0.679963       -18.5027
 113   2.0000      -0.678947       -18.4751
 114   2.0000      -0.671501       -18.2725
 115   2.0000      -0.665522       -18.1098
 116   2.0000      -0.661313       -17.9952
 117   2.0000      -0.650170       -17.6920
 118   2.0000      -0.648109       -17.6360
 119   2.0000      -0.635174       -17.2840
 120   2.0000      -0.627398       -17.0724
 121   2.0000      -0.620665       -16.8892
 122   2.0000      -0.618001       -16.8167
 123   2.0000      -0.607093       -16.5198
 124   2.0000      -0.590081       -16.0569
 125   2.0000      -0.586514       -15.9599
 126   2.0000      -0.582924       -15.8622
 127   2.0000      -0.579387       -15.7659
 128   2.0000      -0.558610       -15.2005
 129   2.0000      -0.550435       -14.9781
 130   2.0000      -0.546139       -14.8612
 131   2.0000      -0.543058       -14.7774
 132   2.0000      -0.534189       -14.5360
 133   2.0000      -0.532459       -14.4889
 134   2.0000      -0.528848       -14.3907
 135   2.0000      -0.522509       -14.2182
 136   2.0000      -0.521348       -14.1866
 137   2.0000      -0.519531       -14.1371
 138   2.0000      -0.518389       -14.1061
 139   2.0000      -0.517525       -14.0826
 140   2.0000      -0.514106       -13.9895
 141   2.0000      -0.513480       -13.9725
 142   2.0000      -0.512493       -13.9456
 143   2.0000      -0.508523       -13.8376
 144   2.0000      -0.504727       -13.7343
 145   2.0000      -0.503836       -13.7101
 146   2.0000      -0.499835       -13.6012
 147   2.0000      -0.498100       -13.5540
 148   2.0000      -0.493744       -13.4355
 149   2.0000      -0.490004       -13.3337
 150   2.0000      -0.487987       -13.2788
 151   2.0000      -0.481180       -13.0936
 152   2.0000      -0.480715       -13.0809
 153   2.0000      -0.479856       -13.0576
 154   2.0000      -0.477035       -12.9808
 155   2.0000      -0.475541       -12.9401
 156   2.0000      -0.471316       -12.8252
 157   2.0000      -0.463406       -12.6099
 158   2.0000      -0.462250       -12.5784
 159   2.0000      -0.461853       -12.5677
 160   2.0000      -0.454971       -12.3804
 161   2.0000      -0.450970       -12.2715
 162   2.0000      -0.443987       -12.0815
 163   2.0000      -0.440356       -11.9827
 164   2.0000      -0.439548       -11.9607
 165   2.0000      -0.434215       -11.8156
 166   2.0000      -0.434033       -11.8106
 167   2.0000      -0.433195       -11.7878
 168   2.0000      -0.425142       -11.5687
 169   2.0000      -0.423493       -11.5238
 170   2.0000      -0.421200       -11.4614
 171   2.0000      -0.417246       -11.3539
 172   2.0000      -0.415873       -11.3165
 173   2.0000      -0.411234       -11.1903
 174   2.0000      -0.405924       -11.0458
 175   2.0000      -0.401431       -10.9235
 176   2.0000      -0.399565       -10.8727
 177   2.0000      -0.397313       -10.8114
 178   2.0000      -0.391329       -10.6486
 179   2.0000      -0.385244       -10.4830
 180   2.0000      -0.380147       -10.3443
 181   2.0000      -0.369449       -10.0532
 182   2.0000      -0.368245       -10.0205
 183   2.0000      -0.350127        -9.5274
 184   2.0000      -0.346548        -9.4300
 185   2.0000      -0.341870        -9.3028
 186   2.0000      -0.339105        -9.2275
 187   2.0000      -0.327640        -8.9155
 188   2.0000      -0.325256        -8.8507
 189   2.0000      -0.323619        -8.8061
 190   2.0000      -0.319894        -8.7048
 191   2.0000      -0.319309        -8.6888
 192   2.0000      -0.312847        -8.5130
 193   2.0000      -0.291815        -7.9407
 194   2.0000      -0.280015        -7.6196
 195   2.0000      -0.269088        -7.3222
 196   2.0000      -0.267489        -7.2788
 197   2.0000      -0.247455        -6.7336
 198   2.0000      -0.230237        -6.2651
 199   2.0000      -0.202671        -5.5150
 200   0.0000      -0.058937        -1.6037
 201   0.0000      -0.022418        -0.6100
 202   0.0000      -0.014841        -0.4039
 203   0.0000       0.012338         0.3357
 204   0.0000       0.032801         0.8926

MULLIKEN ATOMIC CHARGES
-----------------------
   0 C :    0.008789
   1 C :    0.037037
   2 C :   -0.141471
   3 S :    0.000888
   4 C :   -0.097150
   5 S :    0.094531
   6 C :   -0.093342
   7 C :    0.059291
   8 C :    0.010812
   9 C :    0.089705
  10 N :   -0.044429
  11 C :   -0.015684
  12 C :   -0.003966
  13 C :   -0.050581
  14 C :    0.052279
  15 C :   -0.073030
  16 C :   -0.181391
  17 S :    0.164584
  18 C :   -0.139089
  19 C :    0.128224
  20 C :    0.127502
  21 C :   -0.006570
  22 C :   -0.124826
  23 S :   -0.027111
  24 C :   -0.100010
  25 C :    0.024790
  26 C :    0.025463
  27 S :    0.014403
  28 C :   -0.125414
  29 C :    0.028266
  30 C :   -0.086429
  31 C :    0.042244
  32 C :    0.036796
  33 C :    0.052011
  34 N :   -0.042628
  35 C :    0.001438
  36 C :   -0.014843
  37 C :   -0.031318
  38 C :    0.047311
  39 C :   -0.086623
  40 C :    0.045050
  41 C :   -0.011711
  42 C :   -0.128883
  43 S :    0.001097
  44 C :   -0.092930
  45 S :    0.130136
  46 C :   -0.127353
  47 C :    0.032535
  48 C :   -0.021476
  49 H :   -0.022358
  50 H :   -0.017883
  51 H :    0.065990
  52 H :    0.071258
  53 H :    0.071297
  54 H :   -0.021675
  55 H :   -0.036438
  56 H :    0.119249
  57 H :   -0.027690
  58 H :   -0.027367
  59 H :   -0.020472
  60 H :    0.046684
  61 H :    0.047734
  62 H :    0.017928
  63 H :    0.015719
  64 H :    0.030762
  65 H :    0.050663
  66 H :    0.056098
  67 H :    0.022189
  68 H :    0.020216
  69 H :    0.028524
  70 H :   -0.059358
  71 H :   -0.051606
  72 H :   -0.033359
  73 H :    0.121914
  74 H :   -0.027700
  75 H :   -0.032937
  76 H :   -0.029940
  77 H :    0.065698
  78 H :    0.070260
  79 H :    0.069701
  80 H :   -0.016351
  81 H :    0.028479
  82 H :    0.017845
Sum of atomic charges:   -0.0000000

LOEWDIN ATOMIC CHARGES
----------------------
   0 C :   -0.053109
   1 C :   -0.094818
   2 C :   -0.321458
   3 S :    0.291546
   4 C :   -0.161704
   5 S :    0.414607
   6 C :   -0.184179
   7 C :   -0.037341
   8 C :   -0.041947
   9 C :   -0.008692
  10 N :    0.100952
  11 C :   -0.042101
  12 C :   -0.039323
  13 C :   -0.067705
  14 C :   -0.039070
  15 C :   -0.064391
  16 C :   -0.195438
  17 S :    0.469848
  18 C :   -0.178668
  19 C :   -0.039266
  20 C :   -0.043209
  21 C :   -0.006435
  22 C :   -0.181401
  23 S :    0.254543
  24 C :   -0.128914
  25 C :   -0.073762
  26 C :   -0.155799
  27 S :    0.313174
  28 C :   -0.142693
  29 C :   -0.074151
  30 C :   -0.062956
  31 C :   -0.063086
  32 C :   -0.038001
  33 C :   -0.013199
  34 N :    0.099137
  35 C :   -0.030725
  36 C :   -0.047547
  37 C :   -0.064466
  38 C :   -0.054914
  39 C :   -0.024329
  40 C :   -0.072460
  41 C :   -0.090204
  42 C :   -0.317666
  43 S :    0.282459
  44 C :   -0.149791
  45 S :    0.422414
  46 C :   -0.164835
  47 C :   -0.046418
  48 C :   -0.039625
  49 H :    0.025986
  50 H :    0.028312
  51 H :    0.035060
  52 H :    0.024214
  53 H :    0.024166
  54 H :    0.027109
  55 H :    0.023879
  56 H :    0.091114
  57 H :    0.028624
  58 H :    0.023039
  59 H :    0.034363
  60 H :    0.024549
  61 H :    0.011479
  62 H :    0.023072
  63 H :    0.025635
  64 H :    0.025861
  65 H :    0.030253
  66 H :    0.021184
  67 H :    0.027467
  68 H :    0.026132
  69 H :    0.024123
  70 H :    0.020365
  71 H :    0.015328
  72 H :    0.031059
  73 H :    0.088365
  74 H :    0.027628
  75 H :    0.023078
  76 H :    0.026771
  77 H :    0.035291
  78 H :    0.027204
  79 H :    0.027940
  80 H :    0.026894
  81 H :    0.026986
  82 H :    0.024586

  Mayer bond orders larger than 0.100000
B(  0-C ,  1-C ) :   1.2846 B(  0-C ,  6-C ) :   1.5245 B(  0-C , 49-H ) :   0.9916
B(  1-C ,  2-C ) :   1.5499 B(  1-C , 50-H ) :   0.9929 B(  2-C ,  3-S ) :   1.0195
B(  2-C ,  5-S ) :   1.1214 B(  3-S ,  4-C ) :   1.0158 B(  4-C , 51-H ) :   0.9732
B(  4-C , 52-H ) :   0.9650 B(  4-C , 53-H ) :   0.9652 B(  5-S ,  6-C ) :   1.0947
B(  6-C ,  7-C ) :   1.1177 B(  7-C ,  8-C ) :   1.7222 B(  7-C , 54-H ) :   0.9628
B(  8-C ,  9-C ) :   1.0985 B(  8-C , 55-H ) :   0.9571 B(  9-C , 10-N ) :   1.2072
B(  9-C , 11-C ) :   0.1183 B(  9-C , 13-C ) :   1.4070 B( 10-N , 11-C ) :   1.2289
B( 10-N , 56-H ) :   0.9375 B( 11-C , 12-C ) :   1.4268 B( 11-C , 14-C ) :   0.8319
B( 12-C , 13-C ) :   1.3342 B( 12-C , 57-H ) :   1.0158 B( 13-C , 58-H ) :   1.0024
B( 14-C , 15-C ) :   2.2183 B( 15-C , 16-C ) :   0.9926 B( 16-C , 17-S ) :   1.1373
B( 16-C , 18-C ) :   0.1074 B( 16-C , 20-C ) :   1.3526 B( 17-S , 18-C ) :   1.1246
B( 18-C , 19-C ) :   1.3429 B( 18-C , 31-C ) :   1.1775 B( 19-C , 20-C ) :   1.2091
B( 19-C , 30-C ) :   1.2018 B( 20-C , 21-C ) :   1.1933 B( 21-C , 22-C ) :   1.5573
B( 21-C , 59-H ) :   0.9990 B( 22-C , 23-S ) :   1.0256 B( 22-C , 26-C ) :   1.2363
B( 23-S , 24-C ) :   0.9956 B( 24-C , 25-C ) :   1.0644 B( 24-C , 60-H ) :   0.9557
B( 24-C , 61-H ) :   0.9492 B( 25-C , 62-H ) :   0.9705 B( 25-C , 63-H ) :   0.9613
B( 25-C , 64-H ) :   0.9718 B( 26-C , 27-S ) :   1.0300 B( 26-C , 30-C ) :   1.5161
B( 27-S , 28-C ) :   1.0051 B( 28-C , 29-C ) :   1.0582 B( 28-C , 65-H ) :   0.9529
B( 28-C , 66-H ) :   0.9450 B( 29-C , 67-H ) :   0.9672 B( 29-C , 68-H ) :   0.9631
B( 29-C , 69-H ) :   0.9726 B( 30-C , 70-H ) :   0.9874 B( 31-C , 32-C ) :   1.6176
B( 31-C , 71-H ) :   0.9362 B( 32-C , 33-C ) :   1.1518 B( 32-C , 72-H ) :   0.9577
B( 33-C , 34-N ) :   1.2262 B( 33-C , 35-C ) :   0.1168 B( 33-C , 37-C ) :   1.3731
B( 34-N , 35-C ) :   1.2338 B( 34-N , 73-H ) :   0.9328 B( 35-C , 36-C ) :   1.4546
B( 35-C , 38-C ) :   0.8023 B( 36-C , 37-C ) :   1.3162 B( 36-C , 74-H ) :   1.0163
B( 37-C , 75-H ) :   1.0051 B( 38-C , 39-C ) :   2.2809 B( 39-C , 40-C ) :   0.9146
B( 40-C , 41-C ) :   1.2240 B( 40-C , 46-C ) :   1.5017 B( 41-C , 42-C ) :   1.5524
B( 41-C , 76-H ) :   1.0034 B( 42-C , 43-S ) :   1.0068 B( 42-C , 45-S ) :   1.1116
B( 43-S , 44-C ) :   1.0272 B( 44-C , 77-H ) :   0.9713 B( 44-C , 78-H ) :   0.9660
B( 44-C , 79-H ) :   0.9664 B( 45-S , 46-C ) :   1.1066 B( 46-C , 47-C ) :   1.1176
B( 47-C , 48-C ) :   1.9371 B( 47-C , 80-H ) :   0.9472 B( 48-C , 81-H ) :   0.9488
B( 48-C , 82-H ) :   0.9447

-----------------------------------------------------------------------------
         ABSORPTION SPECTRUM VIA TRANSITION ELECTRIC DIPOLE MOMENTS
-----------------------------------------------------------------------------
State   Energy  Wavelength   fosc         T2         TX        TY        TZ
        (cm-1)    (nm)                  (au**2)     (au)      (au)      (au)
-----------------------------------------------------------------------------
   0   17027.5    587.3   1.750650610  33.84737   3.05248   3.61687   3.38348
   1   24192.3    413.4   0.606672282   8.25568   1.02739  -2.54160   0.86048
   2   26108.5    383.0   0.628825248   7.92911  -1.24677   2.20471  -1.23042
   3   27230.2    367.2   0.448067767   5.41713  -0.91195  -1.81287  -1.13973
   4   28350.0    352.7   0.162709751   1.88946   0.34068   1.18959   0.59856
   5   30596.4    326.8   0.053573805   0.57645   0.38900  -0.50542   0.41192
   6   31080.0    321.8   0.003628398   0.03843  -0.14220   0.07567  -0.11174
   7   31746.3    315.0   0.007659848   0.07943  -0.24947   0.12723  -0.03177
   8   32732.0    305.5   0.063506159   0.63873  -0.62805   0.35672  -0.34212
   9   33557.8    298.0   0.087652696   0.85990   0.18438   0.88087   0.22356
  10   35014.8    285.6   0.194738844   1.83095   0.67754   0.71733   0.92592
  11   35265.8    283.6   0.006741042   0.06293  -0.05994  -0.16709  -0.17725
  12   36055.0    277.4   0.145602779   1.32948  -0.04562   1.15198   0.01809
  13   36816.7    271.6   0.218902924   1.95741  -0.63134   1.13321  -0.52407
  14   37029.8    270.1   0.205467505   1.82670   0.08365  -1.34759  -0.06083
  15   39371.3    254.0   0.056079002   0.46892  -0.29261   0.50460  -0.35871

FINAL SINGLE POINT ENERGY     -4438.425180587045

DIPOLE MOMENT
-------------
                                X             Y             Z
Electronic contribution:     -4.37274      25.24050     -19.27157
Nuclear contribution   :      4.19710     -24.05658      19.99224
                        -----------------------------------------
Total Dipole Moment    :     -0.17564       1.18393       0.72067
                        -----------------------------------------
Magnitude (a.u.)       :      1.39710
Magnitude (Debye)      :      3.55115

Rotational constants in cm-1:     0.001068     0.000422     0.000304
Rotational constants in MHz :    32.032172    12.639363     9.118164

                             ****ORCA TERMINATED NORMALLY****
TOTAL RUN TIME: 0 days 0 hours 7 minutes 17 seconds 162 msec
