                         Program Version 4.2.0 -  RELEASE  -
|  1> # ORCA input file
|  2> # SCF done       -195.247922784229          0.000596943870
|  3> ! CAM-B3LYP def2-SVP def2/J RIJCOSX Grid4 TightSCF
|  4> %maxcore 5000
|  5> %tddft
|  6>     Mode sTDDFT
|  7>     Ethresh 5.0
|  8>     maxcore 5000
|  9> end
| 10>
| 11> %pal
| 12>   nprocs 6
| 13>   end
| 14> * xyz 0 1
| 15>    C        0.58642         0.12712         1.22500
| 16>    O       -0.62637         0.61695         0.85187
| 17>    C       -1.30151        -0.43841         0.36053
| 18>    C       -2.55134        -0.80294        -0.20071
| 19>    C       -3.74505         0.05415        -0.33996
| 20>    O       -4.87245        -0.35859        -0.52333
| 21>    N       -3.46454         1.37303        -0.21824
| 22>    C       -2.41622        -2.16740        -0.45327
| 23>    O       -1.19686        -2.64091        -0.06555
| 24>    C       -0.52155        -1.58591         0.42340
| 25>    C        0.71638        -1.21202         0.99032
| 26>    C       -3.34396        -3.11774        -0.99939
| 27>    C       -3.49172        -4.40127        -0.56885
| 28>    C       -4.62146        -4.98673        -1.26097
| 29>    C       -5.05195        -6.30863        -1.09725
| 30>    N       -5.40332        -7.39284        -0.95660
| 31>    C       -5.17836        -4.04331        -2.08419
| 32>    C       -4.38027        -2.85297        -2.00668
| 33>    C       -4.44958        -1.77062        -2.84929
| 34>    C       -5.60669        -1.36109        -3.67649
| 35>    C       -5.19085        -0.33733        -4.48075
| 36>    C       -3.80131        -0.06706        -4.20102
| 37>    C       -3.36748        -0.90509        -3.20344
| 38>    C       -3.03804         0.91361        -4.84576
| 39>    N       -2.42062         1.72698        -5.37158
| 40>    C       -6.93089        -1.86133        -3.51099
| 41>    C       -7.90397        -1.76265        -4.44617
| 42>    C       -9.23590        -2.28867        -4.33821
| 43>    C      -10.00646        -2.39010        -5.48422
| 44>    C      -11.27601        -2.98432        -5.43948
| 45>    C      -12.19690        -3.26080        -6.44932
| 46>    C      -12.03634        -2.93273        -7.89200
| 47>    C      -11.84728        -4.20272        -8.74340
| 48>    N      -10.62749        -4.88435        -8.34750
| 49>    C      -13.20236        -2.08704        -8.43501
| 50>    N      -12.88070        -1.61420        -9.77066
| 51>    C      -13.29220        -3.96741        -5.83037
| 52>    C      -14.39027        -4.55997        -6.34090
| 53>    C      -15.33144        -5.33870        -5.48873
| 54>    C      -15.05088        -5.26162        -4.02254
| 55>    C      -13.95072        -4.66791        -3.52201
| 56>    C      -13.01775        -4.05230        -4.38787
| 57>    C      -11.78709        -3.46152        -4.16562
| 58>    C      -11.00990        -3.29545        -2.99827
| 59>    C       -9.77568        -2.73506        -3.08850
| 60>    C      -16.76181        -4.96014        -5.78294
| 61>    C      -17.63269        -5.79302        -6.35428
| 62>    C      -19.01107        -5.51581        -6.67326
| 63>    C      -19.66832        -6.06481        -7.73250
| 64>    C      -20.98028        -5.46056        -7.83343
| 65>    C      -21.94199        -5.80995        -8.78793
| 66>    N      -22.72012        -6.09851        -9.58194
| 67>    C      -21.10896        -4.51580        -6.85038
| 68>    C      -19.91496        -4.53402        -6.05076
| 69>    C      -19.76978        -3.91705        -4.82794
| 70>    C      -20.56307        -2.78925        -4.29079
| 71>    C      -20.30957        -2.71612        -2.94874
| 72>    C      -19.34668        -3.73106        -2.60372
| 73>    C      -18.99055        -4.41853        -3.73910
| 74>    C      -18.85600        -3.96676        -1.31388
| 75>    N      -18.44463        -4.15671        -0.25854
| 76>    C      -21.33799        -1.84107        -5.02074
| 77>    C      -21.20637        -1.54953        -6.33538
| 78>    C      -22.01676        -0.60587        -7.02682
| 79>    O      -23.04730         0.02417        -6.36896
| 80>    C      -23.62735         0.82124        -7.28053
| 81>    C      -24.68250         1.75321        -7.44459
| 82>    C      -25.67974         2.23695        -6.46717
| 83>    O      -26.52390         3.06408        -6.73211
| 84>    N      -25.55620         1.66660        -5.24531
| 85>    C      -24.58263         2.12790        -8.76650
| 86>    O      -23.57423         1.51672        -9.41927
| 87>    C      -22.98516         0.71363        -8.51289
| 88>    C      -21.94127        -0.21057        -8.35414
| 89>    H        1.27526         0.83233         1.64459
| 90>    H       -2.54116         1.70643        -0.00508
| 91>    H       -4.22515         2.03062        -0.24948
| 92>    H        1.56930        -1.82307         1.19579
| 93>    H       -2.90801        -4.90227         0.18012
| 94>    H       -5.98669        -4.21067        -2.76979
| 95>    H       -5.78305         0.22993        -5.17384
| 96>    H       -2.36388        -0.97287        -2.83151
| 97>    H       -7.13125        -2.34782        -2.56861
| 98>    H       -7.65521        -1.31820        -5.40173
| 99>    H       -9.60519        -2.04222        -6.42532
|100>    H      -11.12531        -2.33435        -8.00362
|101>    H      -11.86583        -3.89353        -9.80010
|102>    H      -12.67724        -4.89088        -8.57119
|103>    H       -9.81646        -4.31527        -8.56606
|104>    H      -10.53274        -5.76133        -8.84631
|105>    H      -13.40488        -1.27286        -7.71821
|106>    H      -14.10501        -2.69608        -8.51252
|107>    H      -12.09742        -0.96960        -9.73827
|108>    H      -13.66919        -1.12141       -10.17401
|109>    H      -14.62696        -4.53296        -7.39476
|110>    H      -15.21147        -6.39357        -5.79021
|111>    H      -15.77111        -5.73590        -3.37335
|112>    H      -13.76687        -4.65836        -2.45786
|113>    H      -11.39961        -3.62421        -2.04635
|114>    H       -9.18372        -2.60461        -2.19644
|115>    H      -17.04393        -3.95915        -5.49063
|116>    H      -17.28934        -6.76760        -6.68485
|117>    H      -19.29273        -6.80651        -8.41303
|118>    H      -21.99580        -3.95596        -6.62706
|119>    H      -20.71374        -2.00337        -2.25437
|120>    H      -18.35167        -5.27847        -3.77916
|121>    H      -22.04316        -1.26506        -4.43479
|122>    H      -20.45136        -2.03100        -6.93893
|123>    H      -24.85560         0.97388        -5.05058
|124>    H      -26.20134         1.93160        -4.52057
|125>    H      -25.18729         2.81899        -9.31923
|126>    H      -21.23416        -0.55633        -9.07815
|127> *
|128>
|129>                          ****END OF INPUT****

CARTESIAN COORDINATES (ANGSTROEM)
---------------------------------
  C      0.586420    0.127120    1.225000
  O     -0.626370    0.616950    0.851870
  C     -1.301510   -0.438410    0.360530
  C     -2.551340   -0.802940   -0.200710
  C     -3.745050    0.054150   -0.339960
  O     -4.872450   -0.358590   -0.523330
  N     -3.464540    1.373030   -0.218240
  C     -2.416220   -2.167400   -0.453270
  O     -1.196860   -2.640910   -0.065550
  C     -0.521550   -1.585910    0.423400
  C      0.716380   -1.212020    0.990320
  C     -3.343960   -3.117740   -0.999390
  C     -3.491720   -4.401270   -0.568850
  C     -4.621460   -4.986730   -1.260970
  C     -5.051950   -6.308630   -1.097250
  N     -5.403320   -7.392840   -0.956600
  C     -5.178360   -4.043310   -2.084190
  C     -4.380270   -2.852970   -2.006680
  C     -4.449580   -1.770620   -2.849290
  C     -5.606690   -1.361090   -3.676490
  C     -5.190850   -0.337330   -4.480750
  C     -3.801310   -0.067060   -4.201020
  C     -3.367480   -0.905090   -3.203440
  C     -3.038040    0.913610   -4.845760
  N     -2.420620    1.726980   -5.371580
  C     -6.930890   -1.861330   -3.510990
  C     -7.903970   -1.762650   -4.446170
  C     -9.235900   -2.288670   -4.338210
  C    -10.006460   -2.390100   -5.484220
  C    -11.276010   -2.984320   -5.439480
  C    -12.196900   -3.260800   -6.449320
  C    -12.036340   -2.932730   -7.892000
  C    -11.847280   -4.202720   -8.743400
  N    -10.627490   -4.884350   -8.347500
  C    -13.202360   -2.087040   -8.435010
  N    -12.880700   -1.614200   -9.770660
  C    -13.292200   -3.967410   -5.830370
  C    -14.390270   -4.559970   -6.340900
  C    -15.331440   -5.338700   -5.488730
  C    -15.050880   -5.261620   -4.022540
  C    -13.950720   -4.667910   -3.522010
  C    -13.017750   -4.052300   -4.387870
  C    -11.787090   -3.461520   -4.165620
  C    -11.009900   -3.295450   -2.998270
  C     -9.775680   -2.735060   -3.088500
  C    -16.761810   -4.960140   -5.782940
  C    -17.632690   -5.793020   -6.354280
  C    -19.011070   -5.515810   -6.673260
  C    -19.668320   -6.064810   -7.732500
  C    -20.980280   -5.460560   -7.833430
  C    -21.941990   -5.809950   -8.787930
  N    -22.720120   -6.098510   -9.581940
  C    -21.108960   -4.515800   -6.850380
  C    -19.914960   -4.534020   -6.050760
  C    -19.769780   -3.917050   -4.827940
  C    -20.563070   -2.789250   -4.290790
  C    -20.309570   -2.716120   -2.948740
  C    -19.346680   -3.731060   -2.603720
  C    -18.990550   -4.418530   -3.739100
  C    -18.856000   -3.966760   -1.313880
  N    -18.444630   -4.156710   -0.258540
  C    -21.337990   -1.841070   -5.020740
  C    -21.206370   -1.549530   -6.335380
  C    -22.016760   -0.605870   -7.026820
  O    -23.047300    0.024170   -6.368960
  C    -23.627350    0.821240   -7.280530
  C    -24.682500    1.753210   -7.444590
  C    -25.679740    2.236950   -6.467170
  O    -26.523900    3.064080   -6.732110
  N    -25.556200    1.666600   -5.245310
  C    -24.582630    2.127900   -8.766500
  O    -23.574230    1.516720   -9.419270
  C    -22.985160    0.713630   -8.512890
  C    -21.941270   -0.210570   -8.354140
  H      1.275260    0.832330    1.644590
  H     -2.541160    1.706430   -0.005080
  H     -4.225150    2.030620   -0.249480
  H      1.569300   -1.823070    1.195790
  H     -2.908010   -4.902270    0.180120
  H     -5.986690   -4.210670   -2.769790
  H     -5.783050    0.229930   -5.173840
  H     -2.363880   -0.972870   -2.831510
  H     -7.131250   -2.347820   -2.568610
  H     -7.655210   -1.318200   -5.401730
  H     -9.605190   -2.042220   -6.425320
  H    -11.125310   -2.334350   -8.003620
  H    -11.865830   -3.893530   -9.800100
  H    -12.677240   -4.890880   -8.571190
  H     -9.816460   -4.315270   -8.566060
  H    -10.532740   -5.761330   -8.846310
  H    -13.404880   -1.272860   -7.718210
  H    -14.105010   -2.696080   -8.512520
  H    -12.097420   -0.969600   -9.738270
  H    -13.669190   -1.121410  -10.174010
  H    -14.626960   -4.532960   -7.394760
  H    -15.211470   -6.393570   -5.790210
  H    -15.771110   -5.735900   -3.373350
  H    -13.766870   -4.658360   -2.457860
  H    -11.399610   -3.624210   -2.046350
  H     -9.183720   -2.604610   -2.196440
  H    -17.043930   -3.959150   -5.490630
  H    -17.289340   -6.767600   -6.684850
  H    -19.292730   -6.806510   -8.413030
  H    -21.995800   -3.955960   -6.627060
  H    -20.713740   -2.003370   -2.254370
  H    -18.351670   -5.278470   -3.779160
  H    -22.043160   -1.265060   -4.434790
  H    -20.451360   -2.031000   -6.938930
  H    -24.855600    0.973880   -5.050580
  H    -26.201340    1.931600   -4.520570
  H    -25.187290    2.818990   -9.319230
  H    -21.234160   -0.556330   -9.078150

 Total Charge           Charge          ....    0
 Multiplicity           Mult            ....    1
 Number of Electrons    NEL             ....  502
 Basis Dimension        Dim             .... 1226

ORBITAL ENERGIES
----------------

  NO   OCC          E(Eh)            E(eV)
   0   2.0000     -19.315859      -525.6112
   1   2.0000     -19.312596      -525.5225
   2   2.0000     -19.311696      -525.4980
   3   2.0000     -19.309042      -525.4257
   4   2.0000     -19.179174      -521.8919
   5   2.0000     -19.175916      -521.8032
   6   2.0000     -14.431812      -392.7096
   7   2.0000     -14.430705      -392.6794
   8   2.0000     -14.415859      -392.2755
   9   2.0000     -14.415444      -392.2642
  10   2.0000     -14.406784      -392.0285
  11   2.0000     -14.403379      -391.9359
  12   2.0000     -14.384434      -391.4204
  13   2.0000     -14.370954      -391.0535
  14   2.0000     -10.381229      -282.4876
  15   2.0000     -10.378007      -282.3999
  16   2.0000     -10.356770      -281.8220
  17   2.0000     -10.352511      -281.7062
  18   2.0000     -10.348241      -281.5900
  19   2.0000     -10.341761      -281.4136
  20   2.0000     -10.341202      -281.3984
  21   2.0000     -10.337585      -281.3000
  22   2.0000     -10.334262      -281.2096
  23   2.0000     -10.333517      -281.1893
  24   2.0000     -10.333068      -281.1771
  25   2.0000     -10.332294      -281.1560
  26   2.0000     -10.327105      -281.0148
  27   2.0000     -10.325703      -280.9767
  28   2.0000     -10.316217      -280.7185
  29   2.0000     -10.314142      -280.6621
  30   2.0000     -10.314045      -280.6594
  31   2.0000     -10.314018      -280.6587
  32   2.0000     -10.313453      -280.6433
  33   2.0000     -10.313440      -280.6430
  34   2.0000     -10.305514      -280.4273
  35   2.0000     -10.305286      -280.4211
  36   2.0000     -10.304447      -280.3983
  37   2.0000     -10.303305      -280.3672
  38   2.0000     -10.303000      -280.3589
  39   2.0000     -10.302819      -280.3540
  40   2.0000     -10.302592      -280.3478
  41   2.0000     -10.301521      -280.3186
  42   2.0000     -10.300619      -280.2941
  43   2.0000     -10.299708      -280.2693
  44   2.0000     -10.299622      -280.2670
  45   2.0000     -10.298104      -280.2257
  46   2.0000     -10.297911      -280.2204
  47   2.0000     -10.297373      -280.2058
  48   2.0000     -10.296330      -280.1774
  49   2.0000     -10.296061      -280.1701
  50   2.0000     -10.294729      -280.1338
  51   2.0000     -10.294276      -280.1215
  52   2.0000     -10.294177      -280.1188
  53   2.0000     -10.293935      -280.1122
  54   2.0000     -10.293472      -280.0996
  55   2.0000     -10.286769      -279.9172
  56   2.0000     -10.286728      -279.9161
  57   2.0000     -10.286451      -279.9086
  58   2.0000     -10.281587      -279.7762
  59   2.0000     -10.276645      -279.6417
  60   2.0000     -10.275523      -279.6112
  61   2.0000     -10.274753      -279.5902
  62   2.0000     -10.273633      -279.5598
  63   2.0000     -10.273362      -279.5524
  64   2.0000     -10.271898      -279.5125
  65   2.0000     -10.269892      -279.4580
  66   2.0000     -10.268169      -279.4111
  67   2.0000     -10.266661      -279.3701
  68   2.0000     -10.265851      -279.3480
  69   2.0000     -10.263470      -279.2832
  70   2.0000     -10.260943      -279.2144
  71   2.0000     -10.260322      -279.1976
  72   2.0000     -10.259144      -279.1655
  73   2.0000     -10.258890      -279.1586
  74   2.0000      -1.236393       -33.6440
  75   2.0000      -1.232254       -33.5313
  76   2.0000      -1.218727       -33.1633
  77   2.0000      -1.214515       -33.0486
  78   2.0000      -1.120414       -30.4880
  79   2.0000      -1.117040       -30.3962
  80   2.0000      -1.020563       -27.7709
  81   2.0000      -1.006820       -27.3970
  82   2.0000      -1.006326       -27.3835
  83   2.0000      -0.995151       -27.0794
  84   2.0000      -0.993723       -27.0406
  85   2.0000      -0.991301       -26.9747
  86   2.0000      -0.990022       -26.9399
  87   2.0000      -0.983521       -26.7630
  88   2.0000      -0.982507       -26.7354
  89   2.0000      -0.982006       -26.7217
  90   2.0000      -0.971192       -26.4275
  91   2.0000      -0.967473       -26.3263
  92   2.0000      -0.948699       -25.8154
  93   2.0000      -0.945830       -25.7374
  94   2.0000      -0.931659       -25.3517
  95   2.0000      -0.919954       -25.0332
  96   2.0000      -0.919308       -25.0156
  97   2.0000      -0.915835       -24.9212
  98   2.0000      -0.912644       -24.8343
  99   2.0000      -0.903921       -24.5969
 100   2.0000      -0.895012       -24.3545
 101   2.0000      -0.882806       -24.0224
 102   2.0000      -0.879839       -23.9416
 103   2.0000      -0.872612       -23.7450
 104   2.0000      -0.867011       -23.5926
 105   2.0000      -0.861084       -23.4313
 106   2.0000      -0.856486       -23.3062
 107   2.0000      -0.838900       -22.8276
 108   2.0000      -0.833788       -22.6885
 109   2.0000      -0.829414       -22.5695
 110   2.0000      -0.812770       -22.1166
 111   2.0000      -0.812491       -22.1090
 112   2.0000      -0.810238       -22.0477
 113   2.0000      -0.803760       -21.8714
 114   2.0000      -0.792188       -21.5565
 115   2.0000      -0.781581       -21.2679
 116   2.0000      -0.758909       -20.6510
 117   2.0000      -0.756712       -20.5912
 118   2.0000      -0.754647       -20.5350
 119   2.0000      -0.738961       -20.1082
 120   2.0000      -0.738736       -20.1020
 121   2.0000      -0.733192       -19.9512
 122   2.0000      -0.728488       -19.8232
 123   2.0000      -0.723959       -19.6999
 124   2.0000      -0.720305       -19.6005
 125   2.0000      -0.717289       -19.5184
 126   2.0000      -0.708777       -19.2868
 127   2.0000      -0.697826       -18.9888
 128   2.0000      -0.694411       -18.8959
 129   2.0000      -0.692157       -18.8345
 130   2.0000      -0.678549       -18.4643
 131   2.0000      -0.676024       -18.3955
 132   2.0000      -0.674658       -18.3584
 133   2.0000      -0.668101       -18.1800
 134   2.0000      -0.661542       -18.0015
 135   2.0000      -0.658526       -17.9194
 136   2.0000      -0.648540       -17.6477
 137   2.0000      -0.643109       -17.4999
 138   2.0000      -0.638124       -17.3642
 139   2.0000      -0.632375       -17.2078
 140   2.0000      -0.631504       -17.1841
 141   2.0000      -0.630966       -17.1694
 142   2.0000      -0.628201       -17.0942
 143   2.0000      -0.624984       -17.0067
 144   2.0000      -0.621958       -16.9243
 145   2.0000      -0.609737       -16.5918
 146   2.0000      -0.601915       -16.3789
 147   2.0000      -0.598730       -16.2923
 148   2.0000      -0.595871       -16.2145
 149   2.0000      -0.593971       -16.1628
 150   2.0000      -0.592993       -16.1362
 151   2.0000      -0.590417       -16.0661
 152   2.0000      -0.587087       -15.9754
 153   2.0000      -0.584357       -15.9012
 154   2.0000      -0.576271       -15.6811
 155   2.0000      -0.573410       -15.6033
 156   2.0000      -0.571728       -15.5575
 157   2.0000      -0.570991       -15.5375
 158   2.0000      -0.566174       -15.4064
 159   2.0000      -0.556078       -15.1316
 160   2.0000      -0.553550       -15.0629
 161   2.0000      -0.547130       -14.8882
 162   2.0000      -0.545044       -14.8314
 163   2.0000      -0.541297       -14.7294
 164   2.0000      -0.539614       -14.6836
 165   2.0000      -0.536768       -14.6062
 166   2.0000      -0.535790       -14.5796
 167   2.0000      -0.534461       -14.5434
 168   2.0000      -0.529102       -14.3976
 169   2.0000      -0.528428       -14.3793
 170   2.0000      -0.524692       -14.2776
 171   2.0000      -0.522610       -14.2210
 172   2.0000      -0.520128       -14.1534
 173   2.0000      -0.518427       -14.1071
 174   2.0000      -0.518218       -14.1014
 175   2.0000      -0.516405       -14.0521
 176   2.0000      -0.513298       -13.9676
 177   2.0000      -0.512237       -13.9387
 178   2.0000      -0.511794       -13.9266
 179   2.0000      -0.509207       -13.8562
 180   2.0000      -0.506602       -13.7853
 181   2.0000      -0.506234       -13.7753
 182   2.0000      -0.504522       -13.7288
 183   2.0000      -0.500380       -13.6160
 184   2.0000      -0.499900       -13.6030
 185   2.0000      -0.498627       -13.5683
 186   2.0000      -0.497712       -13.5434
 187   2.0000      -0.495360       -13.4794
 188   2.0000      -0.492712       -13.4074
 189   2.0000      -0.492318       -13.3967
 190   2.0000      -0.489075       -13.3084
 191   2.0000      -0.487092       -13.2544
 192   2.0000      -0.486506       -13.2385
 193   2.0000      -0.484661       -13.1883
 194   2.0000      -0.483690       -13.1619
 195   2.0000      -0.482652       -13.1336
 196   2.0000      -0.479127       -13.0377
 197   2.0000      -0.476743       -12.9728
 198   2.0000      -0.475026       -12.9261
 199   2.0000      -0.462756       -12.5922
 200   2.0000      -0.462286       -12.5794
 201   2.0000      -0.454769       -12.3749
 202   2.0000      -0.451346       -12.2818
 203   2.0000      -0.449857       -12.2412
 204   2.0000      -0.447696       -12.1824
 205   2.0000      -0.444035       -12.0828
 206   2.0000      -0.443713       -12.0740
 207   2.0000      -0.443035       -12.0556
 208   2.0000      -0.442542       -12.0422
 209   2.0000      -0.440323       -11.9818
 210   2.0000      -0.436279       -11.8717
 211   2.0000      -0.435447       -11.8491
 212   2.0000      -0.433454       -11.7949
 213   2.0000      -0.432186       -11.7604
 214   2.0000      -0.431988       -11.7550
 215   2.0000      -0.429831       -11.6963
 216   2.0000      -0.424870       -11.5613
 217   2.0000      -0.419010       -11.4019
 218   2.0000      -0.415470       -11.3055
 219   2.0000      -0.413476       -11.2513
 220   2.0000      -0.409757       -11.1501
 221   2.0000      -0.408446       -11.1144
 222   2.0000      -0.407448       -11.0872
 223   2.0000      -0.405485       -11.0338
 224   2.0000      -0.402409       -10.9501
 225   2.0000      -0.393265       -10.7013
 226   2.0000      -0.388849       -10.5811
 227   2.0000      -0.380742       -10.3605
 228   2.0000      -0.377644       -10.2762
 229   2.0000      -0.369695       -10.0599
 230   2.0000      -0.366259        -9.9664
 231   2.0000      -0.362633        -9.8678
 232   2.0000      -0.355075        -9.6621
 233   2.0000      -0.352710        -9.5977
 234   2.0000      -0.347248        -9.4491
 235   2.0000      -0.343593        -9.3496
 236   2.0000      -0.339818        -9.2469
 237   2.0000      -0.333422        -9.0729
 238   2.0000      -0.332802        -9.0560
 239   2.0000      -0.329721        -8.9722
 240   2.0000      -0.327904        -8.9227
 241   2.0000      -0.318855        -8.6765
 242   2.0000      -0.315730        -8.5914
 243   2.0000      -0.312296        -8.4980
 244   2.0000      -0.306915        -8.3516
 245   2.0000      -0.294027        -8.0009
 246   2.0000      -0.285508        -7.7691
 247   2.0000      -0.268623        -7.3096
 248   2.0000      -0.260092        -7.0775
 249   2.0000      -0.258645        -7.0381
 250   2.0000      -0.217632        -5.9221
 251   0.0000      -0.127511        -3.4698
 252   0.0000      -0.116371        -3.1666
 253   0.0000      -0.067775        -1.8443
 254   0.0000      -0.043603        -1.1865
 255   0.0000      -0.020499        -0.5578

MULLIKEN ATOMIC CHARGES
-----------------------
   0 C :    0.144581
   1 O :   -0.215300
   2 C :    0.065512
   3 C :   -0.078576
   4 C :    0.071303
   5 O :   -0.209013
   6 N :   -0.076948
   7 C :    0.062615
   8 O :   -0.185378
   9 C :    0.184050
  10 C :   -0.086734
  11 C :    0.071352
  12 C :   -0.008278
  13 C :   -0.107821
  14 C :   -0.136141
  15 N :    0.138840
  16 C :   -0.037601
  17 C :    0.083137
  18 C :    0.070349
  19 C :    0.098326
  20 C :   -0.038529
  21 C :   -0.110050
  22 C :   -0.023666
  23 C :   -0.133270
  24 N :    0.136429
  25 C :   -0.020032
  26 C :   -0.005930
  27 C :    0.120451
  28 C :   -0.103118
  29 C :    0.066693
  30 C :    0.040928
  31 C :   -0.079512
  32 C :    0.149407
  33 N :   -0.215864
  34 C :    0.144262
  35 N :   -0.214784
  36 C :    0.104759
  37 C :   -0.147509
  38 C :    0.148098
  39 C :   -0.066051
  40 C :    0.023089
  41 C :    0.007318
  42 C :    0.033520
  43 C :    0.003652
  44 C :   -0.016384
  45 C :   -0.070007
  46 C :   -0.009945
  47 C :    0.082283
  48 C :   -0.009466
  49 C :   -0.102768
  50 C :   -0.127259
  51 N :    0.139021
  52 C :   -0.036613
  53 C :    0.040604
  54 C :    0.035107
  55 C :    0.088929
  56 C :   -0.015447
  57 C :   -0.095963
  58 C :   -0.027633
  59 C :   -0.126869
  60 N :    0.142261
  61 C :   -0.011687
  62 C :   -0.023306
  63 C :    0.162459
  64 O :   -0.230141
  65 C :    0.105025
  66 C :   -0.077303
  67 C :    0.060334
  68 O :   -0.196829
  69 N :   -0.091923
  70 C :    0.121506
  71 O :   -0.172511
  72 C :    0.189047
  73 C :   -0.118262
  74 H :    0.019453
  75 H :    0.125298
  76 H :    0.132140
  77 H :    0.006505
  78 H :   -0.005237
  79 H :    0.010178
  80 H :   -0.014059
  81 H :    0.007932
  82 H :    0.008077
  83 H :   -0.025541
  84 H :   -0.050834
  85 H :   -0.038963
  86 H :   -0.001836
  87 H :   -0.028334
  88 H :    0.082865
  89 H :    0.089407
  90 H :   -0.003877
  91 H :   -0.024612
  92 H :    0.090442
  93 H :    0.090947
  94 H :   -0.002828
  95 H :    0.043101
  96 H :   -0.011858
  97 H :   -0.027237
  98 H :   -0.035308
  99 H :   -0.023262
 100 H :    0.021061
 101 H :   -0.006644
 102 H :   -0.009254
 103 H :    0.014230
 104 H :   -0.011109
 105 H :    0.004626
 106 H :   -0.002043
 107 H :    0.014069
 108 H :    0.122025
 109 H :    0.131756
 110 H :    0.033572
 111 H :    0.000329
Sum of atomic charges:   -0.0000000

LOEWDIN ATOMIC CHARGES
----------------------
   0 C :    0.051353
   1 O :    0.001124
   2 C :   -0.015119
   3 C :   -0.121483
   4 C :    0.063858
   5 O :   -0.216032
   6 N :    0.005821
   7 C :    0.070061
   8 O :    0.020025
   9 C :   -0.006180
  10 C :   -0.074860
  11 C :   -0.046661
  12 C :    0.027771
  13 C :   -0.064295
  14 C :   -0.031499
  15 N :   -0.048715
  16 C :    0.011473
  17 C :    0.038853
  18 C :    0.066097
  19 C :   -0.015537
  20 C :   -0.005387
  21 C :   -0.049797
  22 C :   -0.010215
  23 C :   -0.029482
  24 N :   -0.051570
  25 C :   -0.032449
  26 C :    0.002516
  27 C :   -0.027809
  28 C :   -0.005813
  29 C :   -0.014642
  30 C :   -0.020060
  31 C :   -0.040592
  32 C :    0.023581
  33 N :   -0.119121
  34 C :    0.025950
  35 N :   -0.115935
  36 C :   -0.009424
  37 C :    0.055612
  38 C :   -0.029110
  39 C :   -0.043164
  40 C :   -0.009058
  41 C :   -0.033779
  42 C :   -0.027678
  43 C :   -0.003650
  44 C :   -0.026058
  45 C :    0.001515
  46 C :   -0.037004
  47 C :   -0.031850
  48 C :    0.006807
  49 C :   -0.059975
  50 C :   -0.032065
  51 N :   -0.043351
  52 C :   -0.000474
  53 C :    0.036585
  54 C :    0.043091
  55 C :   -0.026916
  56 C :   -0.002744
  57 C :   -0.049931
  58 C :   -0.004048
  59 C :   -0.030085
  60 N :   -0.040712
  61 C :   -0.021574
  62 C :   -0.029122
  63 C :    0.034731
  64 O :   -0.005084
  65 C :   -0.001177
  66 C :   -0.126550
  67 C :    0.060767
  68 O :   -0.213529
  69 N :   -0.005184
  70 C :    0.097635
  71 O :    0.025608
  72 C :   -0.008608
  73 C :   -0.054377
  74 H :    0.027015
  75 H :    0.074608
  76 H :    0.083691
  77 H :    0.039770
  78 H :    0.035610
  79 H :    0.038287
  80 H :    0.029161
  81 H :    0.032664
  82 H :    0.030872
  83 H :    0.026541
  84 H :    0.019802
  85 H :    0.018911
  86 H :    0.000077
  87 H :    0.009776
  88 H :    0.048854
  89 H :    0.053965
  90 H :    0.003523
  91 H :    0.012428
  92 H :    0.052029
  93 H :    0.054872
  94 H :    0.025426
  95 H :    0.062424
  96 H :    0.023450
  97 H :    0.033134
  98 H :    0.028381
  99 H :    0.026788
 100 H :    0.028467
 101 H :    0.033857
 102 H :    0.033356
 103 H :    0.037510
 104 H :    0.032822
 105 H :    0.033905
 106 H :    0.035383
 107 H :    0.040051
 108 H :    0.072101
 109 H :    0.082637
 110 H :    0.036669
 111 H :    0.039887

  Mayer bond orders larger than 0.100000
B(  0-C ,  1-O ) :   1.1003 B(  0-C , 10-C ) :   1.5609 B(  0-C , 74-H ) :   1.0064
B(  1-O ,  2-C ) :   1.1243 B(  2-C ,  3-C ) :   1.1650 B(  2-C ,  9-C ) :   1.4244
B(  3-C ,  4-C ) :   0.8793 B(  3-C ,  7-C ) :   1.5050 B(  4-C ,  5-O ) :   2.1580
B(  4-C ,  6-N ) :   1.3019 B(  6-N , 75-H ) :   0.9368 B(  6-N , 76-H ) :   0.9337
B(  7-C ,  8-O ) :   1.1777 B(  7-C , 11-C ) :   1.0038 B(  8-O ,  9-C ) :   1.1254
B(  9-C , 10-C ) :   1.2083 B( 10-C , 77-H ) :   1.0194 B( 11-C , 12-C ) :   1.6057
B( 11-C , 17-C ) :   1.1085 B( 12-C , 13-C ) :   1.0879 B( 12-C , 78-H ) :   1.0297
B( 13-C , 14-C ) :   1.0602 B( 13-C , 16-C ) :   1.6148 B( 14-C , 15-N ) :   3.0410
B( 16-C , 17-C ) :   1.0910 B( 16-C , 79-H ) :   1.0182 B( 17-C , 18-C ) :   1.4597
B( 18-C , 19-C ) :   1.0456 B( 18-C , 22-C ) :   1.0985 B( 19-C , 20-C ) :   1.6045
B( 19-C , 25-C ) :   1.0847 B( 20-C , 21-C ) :   1.0965 B( 20-C , 80-H ) :   1.0147
B( 21-C , 22-C ) :   1.6251 B( 21-C , 23-C ) :   1.0547 B( 22-C , 81-H ) :   1.0138
B( 23-C , 24-N ) :   3.0414 B( 25-C , 26-C ) :   1.6695 B( 25-C , 82-H ) :   0.9534
B( 26-C , 27-C ) :   1.0860 B( 26-C , 83-H ) :   0.9875 B( 27-C , 28-C ) :   1.4931
B( 27-C , 44-C ) :   1.1207 B( 28-C , 29-C ) :   1.1300 B( 28-C , 84-H ) :   0.9984
B( 29-C , 30-C ) :   1.4884 B( 29-C , 42-C ) :   1.1184 B( 30-C , 31-C ) :   1.0081
B( 30-C , 36-C ) :   1.0988 B( 31-C , 32-C ) :   1.0349 B( 31-C , 34-C ) :   1.0388
B( 31-C , 85-H ) :   0.8920 B( 32-C , 33-N ) :   1.0833 B( 32-C , 86-H ) :   0.9351
B( 32-C , 87-H ) :   0.9339 B( 33-N , 88-H ) :   0.9725 B( 33-N , 89-H ) :   0.9697
B( 34-C , 35-N ) :   1.0830 B( 34-C , 90-H ) :   0.9470 B( 34-C , 91-H ) :   0.9285
B( 35-N , 92-H ) :   0.9707 B( 35-N , 93-H ) :   0.9677 B( 36-C , 37-C ) :   1.6249
B( 36-C , 41-C ) :   1.0477 B( 37-C , 38-C ) :   0.9712 B( 37-C , 94-H ) :   0.9735
B( 38-C , 39-C ) :   0.9727 B( 38-C , 45-C ) :   0.9734 B( 38-C , 95-H ) :   0.8553
B( 39-C , 40-C ) :   1.7045 B( 39-C , 96-H ) :   0.9783 B( 40-C , 41-C ) :   1.1325
B( 40-C , 97-H ) :   0.9910 B( 41-C , 42-C ) :   1.4413 B( 42-C , 43-C ) :   1.1390
B( 43-C , 44-C ) :   1.6181 B( 43-C , 98-H ) :   0.9906 B( 44-C , 99-H ) :   0.9830
B( 45-C , 46-C ) :   1.7989 B( 45-C ,100-H ) :   0.9718 B( 46-C , 47-C ) :   1.0563
B( 46-C ,101-H ) :   0.9632 B( 47-C , 48-C ) :   1.6104 B( 47-C , 53-C ) :   1.0555
B( 48-C , 49-C ) :   1.0867 B( 48-C ,102-H ) :   1.0226 B( 49-C , 50-C ) :   1.0632
B( 49-C , 52-C ) :   1.6196 B( 50-C , 51-N ) :   3.0378 B( 52-C , 53-C ) :   1.0971
B( 52-C ,103-H ) :   1.0140 B( 53-C , 54-C ) :   1.4718 B( 54-C , 55-C ) :   1.0309
B( 54-C , 58-C ) :   1.1224 B( 55-C , 56-C ) :   1.5731 B( 55-C , 61-C ) :   1.1102
B( 56-C , 57-C ) :   1.1050 B( 56-C ,104-H ) :   1.0226 B( 57-C , 58-C ) :   1.5969
B( 57-C , 59-C ) :   1.0626 B( 58-C ,105-H ) :   1.0131 B( 59-C , 60-N ) :   3.0387
B( 61-C , 62-C ) :   1.6341 B( 61-C ,106-H ) :   0.9710 B( 62-C , 63-C ) :   1.1774
B( 62-C ,107-H ) :   0.9497 B( 63-C , 64-O ) :   1.0980 B( 63-C , 73-C ) :   1.4412
B( 64-O , 65-C ) :   1.1183 B( 65-C , 66-C ) :   1.1758 B( 65-C , 72-C ) :   1.4068
B( 66-C , 67-C ) :   0.8879 B( 66-C , 70-C ) :   1.5317 B( 67-C , 68-O ) :   2.2356
B( 67-C , 69-N ) :   1.2772 B( 69-N ,108-H ) :   0.9389 B( 69-N ,109-H ) :   0.9345
B( 70-C , 71-O ) :   1.1502 B( 70-C ,110-H ) :   1.0045 B( 71-O , 72-C ) :   1.1388
B( 72-C , 73-C ) :   1.1926 B( 73-C ,111-H ) :   1.0303

-----------------------------------------------------------------------------
         ABSORPTION SPECTRUM VIA TRANSITION ELECTRIC DIPOLE MOMENTS
-----------------------------------------------------------------------------
State   Energy  Wavelength   fosc         T2         TX        TY        TZ
        (cm-1)    (nm)                  (au**2)     (au)      (au)      (au)
-----------------------------------------------------------------------------
   0    6750.9   1481.3   0.013990151   0.68224   0.80460   0.01298   0.18624
   1    8085.6   1236.8   0.110838816   4.51289  -1.90869  -0.12644  -0.92401
   2   10112.0    988.9   0.078527217   2.55657   0.90789  -1.29138   0.25425
   3   12771.1    783.0   0.025159411   0.64856   0.70978   0.15541   0.34729
   4   13828.1    723.2   0.040634027   0.96739   0.00784   0.11430  -0.97686
   5   14988.1    667.2   0.017591235   0.38639  -0.22582  -0.38876   0.42925
   6   15592.7    641.3   0.008802235   0.18584  -0.18123  -0.16299   0.35557
   7   19385.5    515.8   0.002328195   0.03954  -0.17410  -0.09550   0.01039
   8   22746.9    439.6   0.137505325   1.99009  -0.37641   1.02287  -0.89563
   9   22990.0    435.0   0.113085147   1.61936   0.66429  -0.62402   0.88807
  10   23234.8    430.4   0.001317713   0.01867  -0.04346   0.09078  -0.09242
  11   24251.2    412.4   0.000736952   0.01000   0.08269   0.01999   0.05260
  12   24482.9    408.4   0.013800799   0.18557  -0.39766  -0.15234  -0.06508
  13   24604.2    406.4   0.001047185   0.01401  -0.10361  -0.05435  -0.01795
  14   25209.0    396.7   0.191088941   2.49549  -1.38041  -0.44008  -0.62951
  15   25865.9    386.6   0.101330685   1.28970   1.02656   0.45850  -0.16018
  16   26112.3    383.0   0.050659686   0.63870   0.66022   0.02025   0.44989
  17   26603.7    375.9   0.198668995   2.45846  -1.53702   0.00231  -0.30986
  18   27609.8    362.2   0.167631039   1.99879  -0.45225   1.14563  -0.69412
  19   27676.3    361.3   0.358212169   4.26097   0.46382  -1.76655  -0.96185
  20   28195.0    354.7   0.000401983   0.00469   0.05731   0.03248   0.01884
  21   28539.3    350.4   0.025599279   0.29530   0.44666  -0.30917  -0.01459
  22   29439.0    339.7   0.800858317   8.95589  -2.68956  -0.71330  -1.10152
  23   29542.9    338.5   0.052445751   0.58443  -0.61626  -0.32714  -0.31246
  24   29938.0    334.0   0.013076896   0.14380  -0.32639  -0.10913  -0.15924
  25   30365.9    329.3   0.082446871   0.89385   0.09359  -0.32883   0.88145
  26   30662.8    326.1   0.041611107   0.44676   0.51220   0.41451  -0.11220
  27   30909.8    323.5   0.115158641   1.22652   0.51757   0.71903  -0.66456
  28   31595.9    316.5   0.003245517   0.03382   0.17878   0.01012  -0.04185
  29   31670.8    315.7   0.000219411   0.00228  -0.00517   0.00421  -0.04729
  30   31791.6    314.5   1.043566217  10.80644  -1.47010   0.90933  -2.79613
  31   32222.3    310.3   0.045701183   0.46692  -0.35388  -0.07712  -0.57943
  32   32438.8    308.3   0.010797548   0.10958  -0.32256  -0.06049   0.04336
  33   32778.6    305.1   0.002050776   0.02060   0.04866  -0.05810   0.12187
  34   32849.7    304.4   0.024751826   0.24806   0.37967   0.26379  -0.18526
  35   32910.4    303.9   0.015609687   0.15615   0.17352  -0.02307   0.35427
  36   33090.5    302.2   0.433264957   4.31048  -1.51872  -1.35275   0.41716
  37   33277.5    300.5   0.046387847   0.45891   0.31815   0.58935   0.10178
  38   34045.6    293.7   0.089358117   0.86407   0.80449   0.41920   0.20283
  39   34695.8    288.2   0.003070927   0.02914   0.05155   0.04266  -0.15704
  40   34840.0    287.0   0.002623915   0.02479   0.05172  -0.06052  -0.13585
  41   35259.1    283.6   0.026131094   0.24398   0.37935   0.13432   0.28641
  42   35713.7    280.0   0.002263744   0.02087  -0.11513  -0.00418   0.08715
  43   35844.8    279.0   0.501238356   4.60356   0.85371   1.96392   0.13329
  44   36341.2    275.2   0.032181917   0.29153   0.08873  -0.32383   0.42284
  45   36745.2    272.1   0.055621921   0.49833  -0.25609   0.35706  -0.55250
  46   36901.2    271.0   0.109346137   0.97552  -0.80477   0.50070  -0.27780
  47   37446.3    267.0   0.117328087   1.03150  -0.63804  -0.78927  -0.03832
  48   37519.1    266.5   0.035386640   0.31050  -0.39586  -0.36529  -0.14268
  49   37534.0    266.4   0.313758010   2.75198   1.14731   1.15470   0.31988
  50   37749.9    264.9   0.062535501   0.54536  -0.45936  -0.04312  -0.57662
  51   38035.1    262.9   0.002410592   0.02086  -0.06847  -0.01827  -0.12587
  52   38346.7    260.8   0.341919582   2.93543   0.87306  -0.43341   1.40903
  53   38686.2    258.5   0.009900504   0.08425   0.23512   0.11311  -0.12718
  54   39245.4    254.8   0.017777466   0.14913  -0.26674   0.27918   0.00601
  55   39459.8    253.4   0.556634878   4.64399  -1.75807  -1.22991  -0.20123
  56   39775.8    251.4   0.009592200   0.07939  -0.17279  -0.21595  -0.05386
  57   39814.8    251.2   0.000268496   0.00222  -0.01498  -0.03797   0.02353

FINAL SINGLE POINT ENERGY     -3194.256761056916

DIPOLE MOMENT
-------------
                                X             Y             Z
Electronic contribution:      7.91347       7.97599      27.62925
Nuclear contribution   :     -6.65418      -6.66358     -27.59376
                        -----------------------------------------
Total Dipole Moment    :      1.25928       1.31241       0.03548
                        -----------------------------------------
Magnitude (a.u.)       :      1.81919
Magnitude (Debye)      :      4.62402

Rotational constants in cm-1:     0.001649     0.000228     0.000223
Rotational constants in MHz :    49.429589     6.848898     6.680973

                             ****ORCA TERMINATED NORMALLY****
TOTAL RUN TIME: 0 days 0 hours 21 minutes 24 seconds 660 msec
