                         Program Version 4.2.0 -  RELEASE  -
|  1> # ORCA input file
|  2> # SCF done       -168.657122279562          0.000585181520
|  3> ! CAM-B3LYP def2-SVP def2/J RIJCOSX Grid4 TightSCF
|  4> %maxcore 5000
|  5> %tddft
|  6>     Mode sTDDFT
|  7>     Ethresh 5.0
|  8>     maxcore 5000
|  9> end
| 10>
| 11> %pal
| 12>   nprocs 6
| 13>   end
| 14> * xyz 0 1
| 15>    C       10.02988        -7.76843        -4.96332
| 16>    N        9.72092        -6.46586        -4.75791
| 17>    C       10.86385        -5.71285        -4.80854
| 18>    C       11.91949        -6.57483        -5.05312
| 19>    C       11.38632        -7.86738        -5.14938
| 20>    C       10.85994        -4.33078        -4.63199
| 21>    C       10.86138        -3.12799        -4.47725
| 22>    C       10.85731        -1.74509        -4.29930
| 23>    C       11.97897        -0.99969        -4.33720
| 24>    C       12.06741         0.43040        -4.15759
| 25>    C       10.94338         1.24212        -3.93983
| 26>    C       11.10422         2.59443        -3.76962
| 27>    C       12.38121         3.18041        -3.81232
| 28>    C       13.50120         2.39160        -4.03069
| 29>    C       13.33314         1.03246        -4.20022
| 30>    C       12.24369         4.60454        -3.59431
| 31>    C       10.88039         4.89701        -3.41188
| 32>    C       10.04520         3.64351        -3.52156
| 33>    C        9.26954         3.36886        -2.22045
| 34>    C       10.17911         3.26249        -1.00255
| 35>    C        9.05851         3.73485        -4.70081
| 36>    C        9.74971         4.01502        -6.02974
| 37>    C       10.46639         6.18216        -3.16955
| 38>    C       11.42005         7.20721        -3.10772
| 39>    C       12.77594         6.91043        -3.30184
| 40>    C       13.19194         5.61756        -3.54268
| 41>    C       11.02926         8.56015        -2.83341
| 42>    S        9.32491         8.96669        -2.48123
| 43>    C        9.82698        10.59180        -2.27753
| 44>    C       11.20098        10.70673        -2.48960
| 45>    N       11.83808         9.57656        -2.79207
| 46>    C       11.65163        12.12232        -2.30800
| 47>    C       10.35671        12.79222        -1.94908
| 48>    C        9.31345        11.86657        -1.94602
| 49>    S        7.81185        12.57824        -1.52709
| 50>    C        8.58619        14.14372        -1.34321
| 51>    C        9.94199        14.07656        -1.60976
| 52>    C        7.77915        15.24556        -0.93991
| 53>    C        8.22566        16.50038        -0.72803
| 54>    C        7.43682        17.62619        -0.29001
| 55>    C        6.05720        17.54103        -0.04313
| 56>    C        5.37411        18.64967         0.38849
| 57>    C        6.03561        19.87403         0.58713
| 58>    C        7.39696        19.97578         0.34226
| 59>    C        8.07897        18.85719        -0.09162
| 60>    C        5.06984        20.84967         1.04513
| 61>    C        3.81136        20.22991         1.12796
| 62>    C        3.90431        18.77932         0.71579
| 63>    C        3.50162        17.84229         1.86943
| 64>    C        4.32688        18.06902         3.13021
| 65>    C        3.02690        18.48763        -0.51538
| 66>    C        3.36760        19.37510        -1.70635
| 67>    C        2.70688        20.93410         1.53723
| 68>    C        2.83317        22.28851         1.88094
| 69>    C        4.09489        22.89097         1.79917
| 70>    C        5.20833        22.18627         1.38476
| 71>    C        1.66994        23.03003         2.31354
| 72>    N        1.64532        24.38960         2.41811
| 73>    C        0.41889        24.80776         2.84958
| 74>    C       -0.36466        23.67830         3.03711
| 75>    C        0.41605        22.57307         2.69998
| 76>    C        0.10987        26.15355         3.04065
| 77>    C       -0.16043        27.32178         3.21012
| 78>    C       -0.46401        28.67716         3.40406
| 79>    C       -1.66193        29.11917         3.78157
| 80>    H        9.27487        -8.53009        -4.96340
| 81>    H        8.79982        -6.09529        -4.59264
| 82>    H       12.94883        -6.29171        -5.14847
| 83>    H       11.93571        -8.76907        -5.33427
| 84>    H        9.88545        -1.30195        -4.12283
| 85>    H       12.91867        -1.50844        -4.51442
| 86>    H        9.95611         0.80695        -3.90549
| 87>    H       14.48727         2.83063        -4.06622
| 88>    H       14.19844         0.40682        -4.36882
| 89>    H        8.70857         2.43884        -2.33628
| 90>    H        8.54964         4.17541        -2.06595
| 91>    H       10.89102         2.44921        -1.12477
| 92>    H        9.58855         3.07271        -0.10914
| 93>    H       10.73549         4.18595        -0.85796
| 94>    H        8.33812         4.52885        -4.49250
| 95>    H        8.50809         2.79399        -4.77031
| 96>    H       10.28451         4.96149        -5.99201
| 97>    H        9.01532         4.06608        -6.83048
| 98>    H       10.46270         3.22793        -6.26538
| 99>    H        9.42106         6.41548        -3.02443
|100>    H       13.48523         7.72141        -3.25177
|101>    H       14.23952         5.39868        -3.68582
|102>    H       12.08701        12.52767        -3.22337
|103>    H       12.39771        12.21152        -1.51637
|104>    H       10.59338        14.92927        -1.55332
|105>    H        6.73480        15.00815        -0.79240
|106>    H        9.27611        16.70878        -0.88305
|107>    H        5.53586        16.60793        -0.19065
|108>    H        7.91648        20.91128         0.48914
|109>    H        9.14088        18.92466        -0.28336
|110>    H        3.62217        16.80832         1.53895
|111>    H        2.44468        17.99956         2.09506
|112>    H        5.38318        17.90035         2.93250
|113>    H        4.00938        17.38501         3.91406
|114>    H        4.20391        19.08786         3.49088
|115>    H        1.97988        18.63483        -0.24165
|116>    H        3.15460        17.43987        -0.79614
|117>    H        3.22601        20.42404        -1.45545
|118>    H        2.72566        19.13267        -2.55028
|119>    H        4.40283        19.23126        -2.00795
|120>    H        1.73933        20.45976         1.58850
|121>    H        4.21640        23.92749         2.08060
|122>    H        6.17131        22.67260         1.33172
|123>    H        2.40090        25.00901         2.17890
|124>    H       -1.38057        23.67179         3.37950
|125>    H        0.10222        21.54946         2.75186
|126>    H        0.35370        29.36671         3.22654
|127>    H       -2.48025        28.44205         3.96173
|128>    H       -1.85604        30.16852         3.92104
|129> *
|130>
|131>                          ****END OF INPUT****

CARTESIAN COORDINATES (ANGSTROEM)
---------------------------------
  C     10.029880   -7.768430   -4.963320
  N      9.720920   -6.465860   -4.757910
  C     10.863850   -5.712850   -4.808540
  C     11.919490   -6.574830   -5.053120
  C     11.386320   -7.867380   -5.149380
  C     10.859940   -4.330780   -4.631990
  C     10.861380   -3.127990   -4.477250
  C     10.857310   -1.745090   -4.299300
  C     11.978970   -0.999690   -4.337200
  C     12.067410    0.430400   -4.157590
  C     10.943380    1.242120   -3.939830
  C     11.104220    2.594430   -3.769620
  C     12.381210    3.180410   -3.812320
  C     13.501200    2.391600   -4.030690
  C     13.333140    1.032460   -4.200220
  C     12.243690    4.604540   -3.594310
  C     10.880390    4.897010   -3.411880
  C     10.045200    3.643510   -3.521560
  C      9.269540    3.368860   -2.220450
  C     10.179110    3.262490   -1.002550
  C      9.058510    3.734850   -4.700810
  C      9.749710    4.015020   -6.029740
  C     10.466390    6.182160   -3.169550
  C     11.420050    7.207210   -3.107720
  C     12.775940    6.910430   -3.301840
  C     13.191940    5.617560   -3.542680
  C     11.029260    8.560150   -2.833410
  S      9.324910    8.966690   -2.481230
  C      9.826980   10.591800   -2.277530
  C     11.200980   10.706730   -2.489600
  N     11.838080    9.576560   -2.792070
  C     11.651630   12.122320   -2.308000
  C     10.356710   12.792220   -1.949080
  C      9.313450   11.866570   -1.946020
  S      7.811850   12.578240   -1.527090
  C      8.586190   14.143720   -1.343210
  C      9.941990   14.076560   -1.609760
  C      7.779150   15.245560   -0.939910
  C      8.225660   16.500380   -0.728030
  C      7.436820   17.626190   -0.290010
  C      6.057200   17.541030   -0.043130
  C      5.374110   18.649670    0.388490
  C      6.035610   19.874030    0.587130
  C      7.396960   19.975780    0.342260
  C      8.078970   18.857190   -0.091620
  C      5.069840   20.849670    1.045130
  C      3.811360   20.229910    1.127960
  C      3.904310   18.779320    0.715790
  C      3.501620   17.842290    1.869430
  C      4.326880   18.069020    3.130210
  C      3.026900   18.487630   -0.515380
  C      3.367600   19.375100   -1.706350
  C      2.706880   20.934100    1.537230
  C      2.833170   22.288510    1.880940
  C      4.094890   22.890970    1.799170
  C      5.208330   22.186270    1.384760
  C      1.669940   23.030030    2.313540
  N      1.645320   24.389600    2.418110
  C      0.418890   24.807760    2.849580
  C     -0.364660   23.678300    3.037110
  C      0.416050   22.573070    2.699980
  C      0.109870   26.153550    3.040650
  C     -0.160430   27.321780    3.210120
  C     -0.464010   28.677160    3.404060
  C     -1.661930   29.119170    3.781570
  H      9.274870   -8.530090   -4.963400
  H      8.799820   -6.095290   -4.592640
  H     12.948830   -6.291710   -5.148470
  H     11.935710   -8.769070   -5.334270
  H      9.885450   -1.301950   -4.122830
  H     12.918670   -1.508440   -4.514420
  H      9.956110    0.806950   -3.905490
  H     14.487270    2.830630   -4.066220
  H     14.198440    0.406820   -4.368820
  H      8.708570    2.438840   -2.336280
  H      8.549640    4.175410   -2.065950
  H     10.891020    2.449210   -1.124770
  H      9.588550    3.072710   -0.109140
  H     10.735490    4.185950   -0.857960
  H      8.338120    4.528850   -4.492500
  H      8.508090    2.793990   -4.770310
  H     10.284510    4.961490   -5.992010
  H      9.015320    4.066080   -6.830480
  H     10.462700    3.227930   -6.265380
  H      9.421060    6.415480   -3.024430
  H     13.485230    7.721410   -3.251770
  H     14.239520    5.398680   -3.685820
  H     12.087010   12.527670   -3.223370
  H     12.397710   12.211520   -1.516370
  H     10.593380   14.929270   -1.553320
  H      6.734800   15.008150   -0.792400
  H      9.276110   16.708780   -0.883050
  H      5.535860   16.607930   -0.190650
  H      7.916480   20.911280    0.489140
  H      9.140880   18.924660   -0.283360
  H      3.622170   16.808320    1.538950
  H      2.444680   17.999560    2.095060
  H      5.383180   17.900350    2.932500
  H      4.009380   17.385010    3.914060
  H      4.203910   19.087860    3.490880
  H      1.979880   18.634830   -0.241650
  H      3.154600   17.439870   -0.796140
  H      3.226010   20.424040   -1.455450
  H      2.725660   19.132670   -2.550280
  H      4.402830   19.231260   -2.007950
  H      1.739330   20.459760    1.588500
  H      4.216400   23.927490    2.080600
  H      6.171310   22.672600    1.331720
  H      2.400900   25.009010    2.178900
  H     -1.380570   23.671790    3.379500
  H      0.102220   21.549460    2.751860
  H      0.353700   29.366710    3.226540
  H     -2.480250   28.442050    3.961730
  H     -1.856040   30.168520    3.921040

 Total Charge           Charge          ....    0
 Multiplicity           Mult            ....    1
 Number of Electrons    NEL             ....  462
 Basis Dimension        Dim             .... 1163

ORBITAL ENERGIES
----------------

  NO   OCC          E(Eh)            E(eV)
   0   2.0000     -88.957844     -2420.6660
   1   2.0000     -88.953920     -2420.5592
   2   2.0000     -14.453652      -393.3039
   3   2.0000     -14.452938      -393.2844
   4   2.0000     -14.401964      -391.8974
   5   2.0000     -10.325640      -280.9749
   6   2.0000     -10.300484      -280.2904
   7   2.0000     -10.296201      -280.1739
   8   2.0000     -10.295479      -280.1542
   9   2.0000     -10.295262      -280.1483
  10   2.0000     -10.294388      -280.1246
  11   2.0000     -10.294193      -280.1192
  12   2.0000     -10.293226      -280.0929
  13   2.0000     -10.285071      -279.8710
  14   2.0000     -10.282830      -279.8100
  15   2.0000     -10.280211      -279.7388
  16   2.0000     -10.279380      -279.7162
  17   2.0000     -10.279182      -279.7108
  18   2.0000     -10.277510      -279.6653
  19   2.0000     -10.274073      -279.5717
  20   2.0000     -10.273141      -279.5464
  21   2.0000     -10.272471      -279.5282
  22   2.0000     -10.271978      -279.5147
  23   2.0000     -10.271961      -279.5143
  24   2.0000     -10.271703      -279.5073
  25   2.0000     -10.270028      -279.4617
  26   2.0000     -10.269103      -279.4365
  27   2.0000     -10.269006      -279.4338
  28   2.0000     -10.268878      -279.4304
  29   2.0000     -10.268260      -279.4136
  30   2.0000     -10.267349      -279.3888
  31   2.0000     -10.266598      -279.3683
  32   2.0000     -10.266061      -279.3537
  33   2.0000     -10.265732      -279.3448
  34   2.0000     -10.265058      -279.3264
  35   2.0000     -10.264870      -279.3213
  36   2.0000     -10.264564      -279.3130
  37   2.0000     -10.264293      -279.3056
  38   2.0000     -10.264221      -279.3036
  39   2.0000     -10.264130      -279.3012
  40   2.0000     -10.263856      -279.2937
  41   2.0000     -10.263771      -279.2914
  42   2.0000     -10.263578      -279.2862
  43   2.0000     -10.263417      -279.2818
  44   2.0000     -10.263109      -279.2734
  45   2.0000     -10.262975      -279.2697
  46   2.0000     -10.262914      -279.2681
  47   2.0000     -10.262833      -279.2659
  48   2.0000     -10.262694      -279.2621
  49   2.0000     -10.261621      -279.2329
  50   2.0000     -10.260725      -279.2085
  51   2.0000     -10.260219      -279.1948
  52   2.0000     -10.259144      -279.1655
  53   2.0000     -10.259108      -279.1645
  54   2.0000     -10.258315      -279.1429
  55   2.0000     -10.258073      -279.1364
  56   2.0000     -10.258020      -279.1349
  57   2.0000     -10.250821      -278.9390
  58   2.0000     -10.247785      -278.8564
  59   2.0000     -10.246806      -278.8298
  60   2.0000     -10.243471      -278.7390
  61   2.0000     -10.241769      -278.6927
  62   2.0000     -10.241636      -278.6891
  63   2.0000     -10.240990      -278.6715
  64   2.0000     -10.240932      -278.6699
  65   2.0000      -8.052703      -219.1252
  66   2.0000      -8.049045      -219.0257
  67   2.0000      -6.021899      -163.8642
  68   2.0000      -6.018347      -163.7675
  69   2.0000      -6.018012      -163.7584
  70   2.0000      -6.014885      -163.6734
  71   2.0000      -6.014344      -163.6586
  72   2.0000      -6.011150      -163.5717
  73   2.0000      -1.072025       -29.1713
  74   2.0000      -1.067361       -29.0444
  75   2.0000      -1.057991       -28.7894
  76   2.0000      -0.988134       -26.8885
  77   2.0000      -0.982559       -26.7368
  78   2.0000      -0.981670       -26.7126
  79   2.0000      -0.941945       -25.6316
  80   2.0000      -0.940046       -25.5799
  81   2.0000      -0.923087       -25.1185
  82   2.0000      -0.914225       -24.8773
  83   2.0000      -0.909426       -24.7467
  84   2.0000      -0.891286       -24.2531
  85   2.0000      -0.886288       -24.1171
  86   2.0000      -0.885942       -24.1077
  87   2.0000      -0.881730       -23.9931
  88   2.0000      -0.868371       -23.6296
  89   2.0000      -0.863668       -23.5016
  90   2.0000      -0.862871       -23.4799
  91   2.0000      -0.857666       -23.3383
  92   2.0000      -0.846950       -23.0467
  93   2.0000      -0.841766       -22.9056
  94   2.0000      -0.832824       -22.6623
  95   2.0000      -0.831962       -22.6388
  96   2.0000      -0.831417       -22.6240
  97   2.0000      -0.826990       -22.5036
  98   2.0000      -0.826150       -22.4807
  99   2.0000      -0.824700       -22.4412
 100   2.0000      -0.822946       -22.3935
 101   2.0000      -0.816638       -22.2219
 102   2.0000      -0.806848       -21.9554
 103   2.0000      -0.783338       -21.3157
 104   2.0000      -0.778143       -21.1743
 105   2.0000      -0.767635       -20.8884
 106   2.0000      -0.757362       -20.6089
 107   2.0000      -0.755676       -20.5630
 108   2.0000      -0.754888       -20.5415
 109   2.0000      -0.738822       -20.1044
 110   2.0000      -0.724027       -19.7018
 111   2.0000      -0.710767       -19.3409
 112   2.0000      -0.706449       -19.2235
 113   2.0000      -0.699110       -19.0238
 114   2.0000      -0.684078       -18.6147
 115   2.0000      -0.678206       -18.4549
 116   2.0000      -0.675593       -18.3838
 117   2.0000      -0.673409       -18.3244
 118   2.0000      -0.671032       -18.2597
 119   2.0000      -0.669876       -18.2282
 120   2.0000      -0.669212       -18.2102
 121   2.0000      -0.669035       -18.2054
 122   2.0000      -0.661057       -17.9883
 123   2.0000      -0.655964       -17.8497
 124   2.0000      -0.650673       -17.7057
 125   2.0000      -0.648373       -17.6431
 126   2.0000      -0.643958       -17.5230
 127   2.0000      -0.640374       -17.4255
 128   2.0000      -0.639852       -17.4112
 129   2.0000      -0.638050       -17.3622
 130   2.0000      -0.624205       -16.9855
 131   2.0000      -0.613052       -16.6820
 132   2.0000      -0.608768       -16.5654
 133   2.0000      -0.591233       -16.0883
 134   2.0000      -0.588431       -16.0120
 135   2.0000      -0.586601       -15.9622
 136   2.0000      -0.578110       -15.7312
 137   2.0000      -0.573093       -15.5947
 138   2.0000      -0.568021       -15.4566
 139   2.0000      -0.564920       -15.3723
 140   2.0000      -0.555818       -15.1246
 141   2.0000      -0.547781       -14.9059
 142   2.0000      -0.546836       -14.8802
 143   2.0000      -0.542968       -14.7749
 144   2.0000      -0.538471       -14.6525
 145   2.0000      -0.537730       -14.6324
 146   2.0000      -0.535973       -14.5846
 147   2.0000      -0.532060       -14.4781
 148   2.0000      -0.530871       -14.4457
 149   2.0000      -0.523907       -14.2562
 150   2.0000      -0.523155       -14.2358
 151   2.0000      -0.519827       -14.1452
 152   2.0000      -0.517752       -14.0887
 153   2.0000      -0.517611       -14.0849
 154   2.0000      -0.513297       -13.9675
 155   2.0000      -0.513060       -13.9611
 156   2.0000      -0.512892       -13.9565
 157   2.0000      -0.511580       -13.9208
 158   2.0000      -0.511050       -13.9064
 159   2.0000      -0.509821       -13.8729
 160   2.0000      -0.508183       -13.8284
 161   2.0000      -0.506657       -13.7869
 162   2.0000      -0.500527       -13.6200
 163   2.0000      -0.497993       -13.5511
 164   2.0000      -0.490098       -13.3362
 165   2.0000      -0.486344       -13.2341
 166   2.0000      -0.484049       -13.1717
 167   2.0000      -0.481803       -13.1105
 168   2.0000      -0.476927       -12.9779
 169   2.0000      -0.474212       -12.9040
 170   2.0000      -0.471451       -12.8288
 171   2.0000      -0.470202       -12.7949
 172   2.0000      -0.467959       -12.7338
 173   2.0000      -0.465780       -12.6745
 174   2.0000      -0.465514       -12.6673
 175   2.0000      -0.465084       -12.6556
 176   2.0000      -0.464138       -12.6298
 177   2.0000      -0.459558       -12.5052
 178   2.0000      -0.459326       -12.4989
 179   2.0000      -0.458494       -12.4763
 180   2.0000      -0.456775       -12.4295
 181   2.0000      -0.454984       -12.3807
 182   2.0000      -0.448813       -12.2128
 183   2.0000      -0.444314       -12.0904
 184   2.0000      -0.442502       -12.0411
 185   2.0000      -0.441557       -12.0154
 186   2.0000      -0.439753       -11.9663
 187   2.0000      -0.439503       -11.9595
 188   2.0000      -0.437467       -11.9041
 189   2.0000      -0.434177       -11.8146
 190   2.0000      -0.426661       -11.6100
 191   2.0000      -0.425288       -11.5727
 192   2.0000      -0.420412       -11.4400
 193   2.0000      -0.419537       -11.4162
 194   2.0000      -0.417276       -11.3547
 195   2.0000      -0.416133       -11.3235
 196   2.0000      -0.414749       -11.2859
 197   2.0000      -0.413666       -11.2564
 198   2.0000      -0.412397       -11.2219
 199   2.0000      -0.409435       -11.1413
 200   2.0000      -0.407880       -11.0990
 201   2.0000      -0.402794       -10.9606
 202   2.0000      -0.401993       -10.9388
 203   2.0000      -0.397932       -10.8283
 204   2.0000      -0.390165       -10.6169
 205   2.0000      -0.387014       -10.5312
 206   2.0000      -0.383114       -10.4251
 207   2.0000      -0.382252       -10.4016
 208   2.0000      -0.377942       -10.2843
 209   2.0000      -0.376568       -10.2469
 210   2.0000      -0.374856       -10.2004
 211   2.0000      -0.363903        -9.9023
 212   2.0000      -0.347971        -9.4688
 213   2.0000      -0.341148        -9.2831
 214   2.0000      -0.337699        -9.1893
 215   2.0000      -0.336902        -9.1676
 216   2.0000      -0.334308        -9.0970
 217   2.0000      -0.327583        -8.9140
 218   2.0000      -0.321295        -8.7429
 219   2.0000      -0.315874        -8.5954
 220   2.0000      -0.315294        -8.5796
 221   2.0000      -0.314604        -8.5608
 222   2.0000      -0.314456        -8.5568
 223   2.0000      -0.309528        -8.4227
 224   2.0000      -0.309204        -8.4139
 225   2.0000      -0.307794        -8.3755
 226   2.0000      -0.287794        -7.8313
 227   2.0000      -0.268788        -7.3141
 228   2.0000      -0.240035        -6.5317
 229   2.0000      -0.231343        -6.2952
 230   2.0000      -0.217113        -5.9080
 231   0.0000      -0.050508        -1.3744
 232   0.0000      -0.031089        -0.8460
 233   0.0000      -0.012088        -0.3289
 234   0.0000       0.003188         0.0868
 235   0.0000       0.021633         0.5887

MULLIKEN ATOMIC CHARGES
-----------------------
   0 C :    0.045237
   1 N :   -0.047875
   2 C :   -0.011553
   3 C :   -0.023773
   4 C :   -0.003308
   5 C :    0.085718
   6 C :   -0.069985
   7 C :   -0.074292
   8 C :   -0.002811
   9 C :    0.113624
  10 C :   -0.086984
  11 C :    0.015425
  12 C :    0.107881
  13 C :   -0.047928
  14 C :   -0.017220
  15 C :    0.106751
  16 C :    0.013429
  17 C :   -0.137917
  18 C :    0.064711
  19 C :    0.027069
  20 C :    0.069155
  21 C :    0.024060
  22 C :   -0.112057
  23 C :    0.125204
  24 C :   -0.012648
  25 C :   -0.045679
  26 C :   -0.116997
  27 S :    0.092565
  28 C :   -0.045968
  29 C :   -0.220804
  30 N :   -0.006745
  31 C :    0.388740
  32 C :   -0.169919
  33 C :   -0.100046
  34 S :    0.136327
  35 C :   -0.075073
  36 C :   -0.019360
  37 C :    0.069338
  38 C :   -0.025536
  39 C :    0.133857
  40 C :   -0.091409
  41 C :    0.011712
  42 C :    0.109188
  43 C :   -0.050532
  44 C :   -0.025675
  45 C :    0.104218
  46 C :    0.024996
  47 C :   -0.142210
  48 C :    0.071450
  49 C :    0.024295
  50 C :    0.070421
  51 C :    0.025832
  52 C :   -0.116694
  53 C :    0.170246
  54 C :   -0.051433
  55 C :   -0.058593
  56 C :    0.052587
  57 N :   -0.037952
  58 C :    0.020216
  59 C :    0.000923
  60 C :   -0.061678
  61 C :    0.116185
  62 C :   -0.138876
  63 C :   -0.093864
  64 C :   -0.004270
  65 H :   -0.004142
  66 H :    0.122317
  67 H :   -0.029049
  68 H :   -0.022728
  69 H :    0.017365
  70 H :   -0.012504
  71 H :   -0.048185
  72 H :   -0.037344
  73 H :   -0.028151
  74 H :   -0.004511
  75 H :   -0.003011
  76 H :    0.023494
  77 H :    0.007587
  78 H :    0.021125
  79 H :   -0.003150
  80 H :   -0.004010
  81 H :    0.021899
  82 H :    0.008658
  83 H :    0.023263
  84 H :   -0.025982
  85 H :   -0.011522
  86 H :   -0.034336
  87 H :    0.032258
  88 H :    0.032832
  89 H :   -0.027689
  90 H :   -0.026407
  91 H :   -0.031734
  92 H :   -0.046979
  93 H :   -0.040020
  94 H :   -0.032319
  95 H :   -0.004615
  96 H :   -0.004952
  97 H :    0.022337
  98 H :    0.007519
  99 H :    0.021998
 100 H :   -0.002816
 101 H :   -0.005247
 102 H :    0.021501
 103 H :    0.007396
 104 H :    0.021609
 105 H :   -0.043463
 106 H :   -0.050439
 107 H :   -0.038747
 108 H :    0.120966
 109 H :   -0.031889
 110 H :   -0.031778
 111 H :    0.025690
 112 H :    0.027928
 113 H :    0.026282
Sum of atomic charges:   -0.0000000

LOEWDIN ATOMIC CHARGES
----------------------
   0 C :   -0.013764
   1 N :    0.100048
   2 C :   -0.046054
   3 C :   -0.050670
   4 C :   -0.080837
   5 C :   -0.051739
   6 C :   -0.041299
   7 C :   -0.045195
   8 C :   -0.002236
   9 C :   -0.025475
  10 C :   -0.018102
  11 C :    0.005003
  12 C :   -0.018760
  13 C :   -0.018886
  14 C :   -0.017464
  15 C :   -0.014978
  16 C :    0.003546
  17 C :   -0.035728
  18 C :   -0.012373
  19 C :   -0.057652
  20 C :   -0.011673
  21 C :   -0.057795
  22 C :   -0.028255
  23 C :   -0.051613
  24 C :    0.000944
  25 C :   -0.018134
  26 C :   -0.114200
  27 S :    0.401875
  28 C :   -0.215222
  29 C :   -0.042677
  30 N :   -0.086838
  31 C :   -0.012564
  32 C :   -0.049730
  33 C :   -0.203947
  34 S :    0.429936
  35 C :   -0.165817
  36 C :   -0.055598
  37 C :   -0.044888
  38 C :   -0.020439
  39 C :   -0.023135
  40 C :   -0.019730
  41 C :    0.004496
  42 C :   -0.019411
  43 C :   -0.021231
  44 C :   -0.021471
  45 C :   -0.022752
  46 C :    0.006732
  47 C :   -0.035592
  48 C :   -0.011498
  49 C :   -0.057840
  50 C :   -0.011514
  51 C :   -0.057621
  52 C :   -0.018404
  53 C :   -0.022305
  54 C :   -0.034764
  55 C :   -0.016306
  56 C :   -0.007315
  57 N :    0.103299
  58 C :   -0.038216
  59 C :   -0.044340
  60 C :   -0.071559
  61 C :   -0.050835
  62 C :   -0.041403
  63 C :   -0.043418
  64 C :   -0.025970
  65 H :    0.019365
  66 H :    0.092010
  67 H :    0.026229
  68 H :    0.023329
  69 H :    0.037134
  70 H :    0.032452
  71 H :    0.021443
  72 H :    0.026540
  73 H :    0.026319
  74 H :    0.019039
  75 H :    0.019406
  76 H :    0.026130
  77 H :    0.023459
  78 H :    0.025573
  79 H :    0.019409
  80 H :    0.019154
  81 H :    0.025717
  82 H :    0.023720
  83 H :    0.026146
  84 H :    0.016389
  85 H :    0.031938
  86 H :    0.027334
  87 H :    0.054517
  88 H :    0.054077
  89 H :    0.028514
  90 H :    0.022775
  91 H :    0.024459
  92 H :    0.021296
  93 H :    0.025391
  94 H :    0.024366
  95 H :    0.019008
  96 H :    0.019088
  97 H :    0.025835
  98 H :    0.023371
  99 H :    0.025717
 100 H :    0.019576
 101 H :    0.018927
 102 H :    0.025555
 103 H :    0.023348
 104 H :    0.025652
 105 H :    0.024718
 106 H :    0.017646
 107 H :    0.026154
 108 H :    0.088456
 109 H :    0.027250
 110 H :    0.021840
 111 H :    0.042278
 112 H :    0.028002
 113 H :    0.025306

  Mayer bond orders larger than 0.100000
B(  0-C ,  1-N ) :   1.2327 B(  0-C ,  2-C ) :   0.1073 B(  0-C ,  4-C ) :   1.4739
B(  0-C , 65-H ) :   0.9924 B(  1-N ,  2-C ) :   1.2394 B(  1-N , 66-H ) :   0.9426
B(  2-C ,  3-C ) :   1.4787 B(  2-C ,  5-C ) :   0.8280 B(  3-C ,  4-C ) :   1.3145
B(  3-C , 67-H ) :   1.0176 B(  4-C , 68-H ) :   1.0038 B(  5-C ,  6-C ) :   2.2471
B(  6-C ,  7-C ) :   0.9892 B(  7-C ,  8-C ) :   1.7314 B(  7-C , 69-H ) :   0.9484
B(  8-C ,  9-C ) :   1.0696 B(  8-C , 70-H ) :   0.9855 B(  9-C , 10-C ) :   1.2967
B(  9-C , 14-C ) :   1.3418 B( 10-C , 11-C ) :   1.4124 B( 10-C , 71-H ) :   0.9972
B( 11-C , 12-C ) :   1.3552 B( 11-C , 17-C ) :   0.9153 B( 12-C , 13-C ) :   1.3451
B( 12-C , 15-C ) :   0.9915 B( 13-C , 14-C ) :   1.3746 B( 13-C , 72-H ) :   0.9918
B( 14-C , 73-H ) :   0.9925 B( 15-C , 16-C ) :   1.3646 B( 15-C , 25-C ) :   1.3311
B( 16-C , 17-C ) :   0.9144 B( 16-C , 22-C ) :   1.4242 B( 17-C , 18-C ) :   1.0375
B( 17-C , 20-C ) :   1.0380 B( 18-C , 19-C ) :   1.1020 B( 18-C , 74-H ) :   0.9388
B( 18-C , 75-H ) :   0.9392 B( 19-C , 76-H ) :   0.9641 B( 19-C , 77-H ) :   0.9638
B( 19-C , 78-H ) :   0.9641 B( 20-C , 21-C ) :   1.1007 B( 20-C , 79-H ) :   0.9389
B( 20-C , 80-H ) :   0.9392 B( 21-C , 81-H ) :   0.9645 B( 21-C , 82-H ) :   0.9637
B( 21-C , 83-H ) :   0.9646 B( 22-C , 23-C ) :   1.2801 B( 22-C , 84-H ) :   0.9878
B( 23-C , 24-C ) :   1.3759 B( 23-C , 26-C ) :   1.0314 B( 24-C , 25-C ) :   1.3665
B( 24-C , 85-H ) :   0.9891 B( 25-C , 86-H ) :   0.9948 B( 26-C , 27-S ) :   1.0743
B( 26-C , 30-N ) :   1.7149 B( 27-S , 28-C ) :   1.0787 B( 28-C , 29-C ) :   1.5063
B( 28-C , 33-C ) :   1.1751 B( 29-C , 30-N ) :   1.4100 B( 29-C , 31-C ) :   1.0458
B( 31-C , 32-C ) :   0.9840 B( 31-C , 87-H ) :   0.8586 B( 31-C , 88-H ) :   0.8624
B( 32-C , 33-C ) :   1.5309 B( 32-C , 36-C ) :   1.3039 B( 33-C , 34-S ) :   1.0820
B( 34-S , 35-C ) :   1.1062 B( 35-C , 36-C ) :   1.4779 B( 35-C , 37-C ) :   1.1075
B( 36-C , 89-H ) :   0.9987 B( 37-C , 38-C ) :   1.7077 B( 37-C , 90-H ) :   0.9505
B( 38-C , 39-C ) :   1.0764 B( 38-C , 91-H ) :   0.9828 B( 39-C , 40-C ) :   1.2916
B( 39-C , 44-C ) :   1.3354 B( 40-C , 41-C ) :   1.4167 B( 40-C , 92-H ) :   0.9987
B( 41-C , 42-C ) :   1.3551 B( 41-C , 47-C ) :   0.9148 B( 42-C , 43-C ) :   1.3444
B( 42-C , 45-C ) :   0.9917 B( 43-C , 44-C ) :   1.3744 B( 43-C , 93-H ) :   0.9904
B( 44-C , 94-H ) :   0.9922 B( 45-C , 46-C ) :   1.3611 B( 45-C , 55-C ) :   1.3448
B( 46-C , 47-C ) :   0.9116 B( 46-C , 52-C ) :   1.3953 B( 47-C , 48-C ) :   1.0395
B( 47-C , 50-C ) :   1.0388 B( 48-C , 49-C ) :   1.1008 B( 48-C , 95-H ) :   0.9387
B( 48-C , 96-H ) :   0.9386 B( 49-C , 97-H ) :   0.9645 B( 49-C , 98-H ) :   0.9637
B( 49-C , 99-H ) :   0.9643 B( 50-C , 51-C ) :   1.1017 B( 50-C ,100-H ) :   0.9390
B( 50-C ,101-H ) :   0.9388 B( 51-C ,102-H ) :   0.9644 B( 51-C ,103-H ) :   0.9635
B( 51-C ,104-H ) :   0.9642 B( 52-C , 53-C ) :   1.3152 B( 52-C ,105-H ) :   1.0078
B( 53-C , 54-C ) :   1.3263 B( 53-C , 56-C ) :   0.9909 B( 54-C , 55-C ) :   1.3908
B( 54-C ,106-H ) :   0.9868 B( 55-C ,107-H ) :   0.9900 B( 56-C , 57-N ) :   1.2481
B( 56-C , 58-C ) :   0.1283 B( 56-C , 60-C ) :   1.4455 B( 57-N , 58-C ) :   1.2275
B( 57-N ,108-H ) :   0.9314 B( 58-C , 59-C ) :   1.4567 B( 58-C , 61-C ) :   0.8101
B( 59-C , 60-C ) :   1.3076 B( 59-C ,109-H ) :   1.0133 B( 60-C ,110-H ) :   1.0009
B( 61-C , 62-C ) :   2.2953 B( 62-C , 63-C ) :   1.0147 B( 63-C , 64-C ) :   1.9359
B( 63-C ,111-H ) :   0.9619 B( 64-C ,112-H ) :   0.9628 B( 64-C ,113-H ) :   0.9550

-----------------------------------------------------------------------------
         ABSORPTION SPECTRUM VIA TRANSITION ELECTRIC DIPOLE MOMENTS
-----------------------------------------------------------------------------
State   Energy  Wavelength   fosc         T2         TX        TY        TZ
        (cm-1)    (nm)                  (au**2)     (au)      (au)      (au)
-----------------------------------------------------------------------------
   0   22023.0    454.1   3.732248529  55.79178  -2.46347   6.82884   1.75783
   1   26971.9    370.8   0.447575006   5.46297  -2.06355  -0.97274   0.50844
   2   29350.3    340.7   0.571927682   6.41511   0.64405  -2.38761  -0.54739
   3   29784.2    335.7   0.107086779   1.18365  -0.17019   1.05601   0.19880
   4   32769.5    305.2   0.314184376   3.15639  -0.53875   1.65305   0.36548
   5   33658.6    297.1   0.176170957   1.72311  -1.30032  -0.12808   0.12597
   6   35164.7    284.4   0.148688791   1.39202   0.56638  -1.00188  -0.25976
   7   35792.1    279.4   0.126912865   1.16733  -0.22611   1.03431   0.21543
   8   37374.3    267.6   0.036980204   0.32574   0.08497   0.56243  -0.04678
   9   38517.2    259.6   0.006457319   0.05519   0.20971   0.10580  -0.00443
  10   38826.8    257.6   0.005079147   0.04307  -0.13277   0.15893  -0.01349
  11   39242.6    254.8   0.203489978   1.70711  -0.06920   1.29281   0.17594
  12   39883.3    250.7   0.031580787   0.26068  -0.41485  -0.28475   0.08661

FINAL SINGLE POINT ENERGY     -3272.983823158889

DIPOLE MOMENT
-------------
                                X             Y             Z
Electronic contribution:     22.35025      -6.41124      -5.81713
Nuclear contribution   :    -22.69277       6.49681       5.78353
                        -----------------------------------------
Total Dipole Moment    :     -0.34252       0.08557      -0.03359
                        -----------------------------------------
Magnitude (a.u.)       :      0.35464
Magnitude (Debye)      :      0.90142

Rotational constants in cm-1:     0.003806     0.000163     0.000158
Rotational constants in MHz :   114.090551     4.884278     4.730081

                             ****ORCA TERMINATED NORMALLY****
TOTAL RUN TIME: 0 days 0 hours 9 minutes 42 seconds 423 msec
