                         Program Version 4.2.0 -  RELEASE  -
|  1> # ORCA input file
|  2> # SCF done       -180.749979195936          0.000316759567
|  3> ! CAM-B3LYP def2-SVP def2/J RIJCOSX Grid4 TightSCF
|  4> %maxcore 5000
|  5> %tddft
|  6>     Mode sTDDFT
|  7>     Ethresh 5.0
|  8>     maxcore 5000
|  9> end
| 10>
| 11> %pal
| 12>   nprocs 6
| 13>   end
| 14> * xyz 0 1
| 15>    C        4.42463        -5.38420        -3.72649
| 16>    S        2.79185        -5.88132        -3.63002
| 17>    C        2.89696        -6.20992        -1.91170
| 18>    C        4.18367        -5.95155        -1.48070
| 19>    C        5.05917        -5.48084        -2.51292
| 20>    C        6.37490        -5.25450        -2.03252
| 21>    C        6.49469        -5.57913        -0.71578
| 22>    C        7.66993        -5.46298         0.14688
| 23>    O        7.67141        -5.69024         1.33345
| 24>    O        8.75426        -5.06292        -0.53535
| 25>    C        9.94195        -4.91807         0.22955
| 26>    S        5.01505        -6.16651         0.01953
| 27>    C        1.77038        -6.68124        -1.19516
| 28>    C        0.64923        -7.42858        -1.76678
| 29>    N       -0.22038        -7.84597        -0.89170
| 30>    C        0.23064        -7.40431         0.31563
| 31>    C        1.48156        -6.64253         0.15278
| 32>    C        1.87507        -6.08257         1.41141
| 33>    S        2.93456        -4.83885         1.65272
| 34>    C        0.96455        -6.66527         2.36469
| 35>    C       -0.07730        -7.41431         1.65453
| 36>    N       -1.02153        -7.86999         2.53433
| 37>    C       -0.63996        -7.44855         3.70487
| 38>    C        0.61271        -6.68886         3.69630
| 39>    C        1.34398        -6.16542         4.81307
| 40>    C        2.71609        -6.03766         4.69221
| 41>    C        3.45868        -5.45415         5.72357
| 42>    C        4.82130        -5.16793         5.80407
| 43>    C        5.82766        -5.48749         4.75599
| 44>    C        6.45506        -4.21319         4.16775
| 45>    N        5.40735        -3.23856         3.90478
| 46>    C        6.91030        -6.45217         5.27088
| 47>    N        6.29220        -7.71516         5.62691
| 48>    C        5.02283        -4.49577         7.06476
| 49>    C        6.11826        -3.94749         7.62620
| 50>    C        6.06991        -3.28758         8.95877
| 51>    C        4.71217        -3.23054         9.58160
| 52>    C        3.62303        -3.78030         9.00959
| 53>    C        3.72154        -4.41496         7.75091
| 54>    C        2.77852        -4.99988         6.92335
| 55>    C        1.38446        -5.19788         7.04564
| 56>    C        0.69326        -5.76819         6.02177
| 57>    C        6.97466        -4.03467         9.90938
| 58>    C        8.00127        -3.46684        10.55011
| 59>    C        8.84958        -4.12603        11.49378
| 60>    C        8.78192        -5.50624        11.97749
| 61>    N        9.69080        -5.81235        12.86118
| 62>    C       10.42690        -4.67657        13.03506
| 63>    C        9.92715        -3.60252        12.16972
| 64>    C       10.69950        -2.40114        12.37039
| 65>    S       10.46540        -0.94783        11.63053
| 66>    C       11.66206        -2.76156        13.37491
| 67>    C       11.47086        -4.16521        13.76596
| 68>    N       12.35633        -4.51936        14.74135
| 69>    C       13.04060        -3.44605        15.00133
| 70>    C       12.66327        -2.27548        14.19776
| 71>    C       13.25126        -0.99401        14.27687
| 72>    S       12.98940         0.18985        13.01947
| 73>    C       13.99509         1.35031        13.77835
| 74>    C       14.49447         0.87306        14.95369
| 75>    C       14.08806        -0.46284        15.26216
| 76>    C       14.61057        -0.88273        16.50599
| 77>    C       15.38559         0.07464        17.09550
| 78>    C       16.06779        -0.05141        18.38321
| 79>    O       16.02693        -1.03140        19.08582
| 80>    O       16.74717         1.06501        18.68416
| 81>    C       17.44700         1.05515        19.91809
| 82>    S       15.52261         1.55519        16.17807
| 83>    H        4.82860        -5.05779        -4.66373
| 84>    H        7.18472        -4.87450        -2.62711
| 85>    H       10.72170        -4.63600        -0.47275
| 86>    H       10.19145        -5.85876         0.72484
| 87>    H        9.81228        -4.14446         0.98953
| 88>    H        0.53316        -7.65099        -2.81359
| 89>    H       -1.21236        -7.69416         4.58263
| 90>    H        3.21201        -6.40312         3.80806
| 91>    H        5.31307        -6.00492         3.94211
| 92>    H        7.02784        -4.50504         3.27415
| 93>    H        7.14863        -3.76289         4.88456
| 94>    H        4.69897        -3.64667         3.30189
| 95>    H        5.79163        -2.43549         3.41825
| 96>    H        7.45970        -5.98328         6.10435
| 97>    H        7.61574        -6.64142         4.45797
| 98>    H        5.65474        -7.59153         6.40679
| 99>    H        6.99074        -8.40104         5.88744
|100>    H        7.08642        -3.97301         7.14793
|101>    H        6.46571        -2.26768         8.85494
|102>    H        4.65617        -2.73906        10.54083
|103>    H        2.65891        -3.72319         9.49391
|104>    H        0.87645        -4.88286         7.94535
|105>    H       -0.37554        -5.90305         6.09525
|106>    H        6.71368        -5.07105        10.06786
|107>    H        8.24270        -2.42564        10.37404
|108>    H        8.07131        -6.24823        11.65847
|109>    H       13.83620        -3.47494        15.72267
|110>    H       14.14598         2.31065        13.32885
|111>    H       14.43112        -1.82846        16.98205
|112>    H       17.95083         2.01550        19.98809
|113>    H       18.17054         0.23747        19.93666
|114>    H       16.74904         0.92506        20.74783
|115> *
|116>
|117>                          ****END OF INPUT****

CARTESIAN COORDINATES (ANGSTROEM)
---------------------------------
  C      4.424630   -5.384200   -3.726490
  S      2.791850   -5.881320   -3.630020
  C      2.896960   -6.209920   -1.911700
  C      4.183670   -5.951550   -1.480700
  C      5.059170   -5.480840   -2.512920
  C      6.374900   -5.254500   -2.032520
  C      6.494690   -5.579130   -0.715780
  C      7.669930   -5.462980    0.146880
  O      7.671410   -5.690240    1.333450
  O      8.754260   -5.062920   -0.535350
  C      9.941950   -4.918070    0.229550
  S      5.015050   -6.166510    0.019530
  C      1.770380   -6.681240   -1.195160
  C      0.649230   -7.428580   -1.766780
  N     -0.220380   -7.845970   -0.891700
  C      0.230640   -7.404310    0.315630
  C      1.481560   -6.642530    0.152780
  C      1.875070   -6.082570    1.411410
  S      2.934560   -4.838850    1.652720
  C      0.964550   -6.665270    2.364690
  C     -0.077300   -7.414310    1.654530
  N     -1.021530   -7.869990    2.534330
  C     -0.639960   -7.448550    3.704870
  C      0.612710   -6.688860    3.696300
  C      1.343980   -6.165420    4.813070
  C      2.716090   -6.037660    4.692210
  C      3.458680   -5.454150    5.723570
  C      4.821300   -5.167930    5.804070
  C      5.827660   -5.487490    4.755990
  C      6.455060   -4.213190    4.167750
  N      5.407350   -3.238560    3.904780
  C      6.910300   -6.452170    5.270880
  N      6.292200   -7.715160    5.626910
  C      5.022830   -4.495770    7.064760
  C      6.118260   -3.947490    7.626200
  C      6.069910   -3.287580    8.958770
  C      4.712170   -3.230540    9.581600
  C      3.623030   -3.780300    9.009590
  C      3.721540   -4.414960    7.750910
  C      2.778520   -4.999880    6.923350
  C      1.384460   -5.197880    7.045640
  C      0.693260   -5.768190    6.021770
  C      6.974660   -4.034670    9.909380
  C      8.001270   -3.466840   10.550110
  C      8.849580   -4.126030   11.493780
  C      8.781920   -5.506240   11.977490
  N      9.690800   -5.812350   12.861180
  C     10.426900   -4.676570   13.035060
  C      9.927150   -3.602520   12.169720
  C     10.699500   -2.401140   12.370390
  S     10.465400   -0.947830   11.630530
  C     11.662060   -2.761560   13.374910
  C     11.470860   -4.165210   13.765960
  N     12.356330   -4.519360   14.741350
  C     13.040600   -3.446050   15.001330
  C     12.663270   -2.275480   14.197760
  C     13.251260   -0.994010   14.276870
  S     12.989400    0.189850   13.019470
  C     13.995090    1.350310   13.778350
  C     14.494470    0.873060   14.953690
  C     14.088060   -0.462840   15.262160
  C     14.610570   -0.882730   16.505990
  C     15.385590    0.074640   17.095500
  C     16.067790   -0.051410   18.383210
  O     16.026930   -1.031400   19.085820
  O     16.747170    1.065010   18.684160
  C     17.447000    1.055150   19.918090
  S     15.522610    1.555190   16.178070
  H      4.828600   -5.057790   -4.663730
  H      7.184720   -4.874500   -2.627110
  H     10.721700   -4.636000   -0.472750
  H     10.191450   -5.858760    0.724840
  H      9.812280   -4.144460    0.989530
  H      0.533160   -7.650990   -2.813590
  H     -1.212360   -7.694160    4.582630
  H      3.212010   -6.403120    3.808060
  H      5.313070   -6.004920    3.942110
  H      7.027840   -4.505040    3.274150
  H      7.148630   -3.762890    4.884560
  H      4.698970   -3.646670    3.301890
  H      5.791630   -2.435490    3.418250
  H      7.459700   -5.983280    6.104350
  H      7.615740   -6.641420    4.457970
  H      5.654740   -7.591530    6.406790
  H      6.990740   -8.401040    5.887440
  H      7.086420   -3.973010    7.147930
  H      6.465710   -2.267680    8.854940
  H      4.656170   -2.739060   10.540830
  H      2.658910   -3.723190    9.493910
  H      0.876450   -4.882860    7.945350
  H     -0.375540   -5.903050    6.095250
  H      6.713680   -5.071050   10.067860
  H      8.242700   -2.425640   10.374040
  H      8.071310   -6.248230   11.658470
  H     13.836200   -3.474940   15.722670
  H     14.145980    2.310650   13.328850
  H     14.431120   -1.828460   16.982050
  H     17.950830    2.015500   19.988090
  H     18.170540    0.237470   19.936660
  H     16.749040    0.925060   20.747830

 Total Charge           Charge          ....    0
 Multiplicity           Mult            ....    1
 Number of Electrons    NEL             ....  514
 Basis Dimension        Dim             .... 1136

ORBITAL ENERGIES
----------------

  NO   OCC          E(Eh)            E(eV)
   0   2.0000     -88.975497     -2421.1464
   1   2.0000     -88.969869     -2420.9932
   2   2.0000     -88.960320     -2420.7334
   3   2.0000     -88.957861     -2420.6665
   4   2.0000     -88.895766     -2418.9768
   5   2.0000     -88.890287     -2418.8277
   6   2.0000     -19.267537      -524.2963
   7   2.0000     -19.265900      -524.2518
   8   2.0000     -19.213680      -522.8308
   9   2.0000     -19.207256      -522.6560
  10   2.0000     -14.416696      -392.2982
  11   2.0000     -14.412744      -392.1907
  12   2.0000     -14.406667      -392.0253
  13   2.0000     -14.402650      -391.9160
  14   2.0000     -14.365076      -390.8936
  15   2.0000     -14.357146      -390.6778
  16   2.0000     -10.411649      -283.3154
  17   2.0000     -10.407295      -283.1969
  18   2.0000     -10.339265      -281.3457
  19   2.0000     -10.335824      -281.2521
  20   2.0000     -10.331133      -281.1244
  21   2.0000     -10.328552      -281.0542
  22   2.0000     -10.327930      -281.0373
  23   2.0000     -10.326736      -281.0048
  24   2.0000     -10.325859      -280.9809
  25   2.0000     -10.325450      -280.9698
  26   2.0000     -10.324763      -280.9511
  27   2.0000     -10.322120      -280.8792
  28   2.0000     -10.318625      -280.7841
  29   2.0000     -10.317302      -280.7481
  30   2.0000     -10.316946      -280.7384
  31   2.0000     -10.315639      -280.7028
  32   2.0000     -10.315515      -280.6994
  33   2.0000     -10.313873      -280.6548
  34   2.0000     -10.313404      -280.6420
  35   2.0000     -10.311321      -280.5853
  36   2.0000     -10.308859      -280.5183
  37   2.0000     -10.307398      -280.4786
  38   2.0000     -10.306306      -280.4489
  39   2.0000     -10.302525      -280.3459
  40   2.0000     -10.300986      -280.3041
  41   2.0000     -10.297547      -280.2105
  42   2.0000     -10.297007      -280.1958
  43   2.0000     -10.296466      -280.1811
  44   2.0000     -10.295970      -280.1676
  45   2.0000     -10.293996      -280.1139
  46   2.0000     -10.293852      -280.1100
  47   2.0000     -10.291433      -280.0441
  48   2.0000     -10.290487      -280.0184
  49   2.0000     -10.289214      -279.9838
  50   2.0000     -10.286948      -279.9221
  51   2.0000     -10.283992      -279.8417
  52   2.0000     -10.281898      -279.7847
  53   2.0000     -10.273823      -279.5649
  54   2.0000     -10.272339      -279.5245
  55   2.0000     -10.271354      -279.4978
  56   2.0000     -10.269488      -279.4470
  57   2.0000     -10.267839      -279.4021
  58   2.0000     -10.265627      -279.3419
  59   2.0000     -10.264871      -279.3213
  60   2.0000     -10.264510      -279.3115
  61   2.0000     -10.263635      -279.2877
  62   2.0000     -10.263102      -279.2732
  63   2.0000     -10.258426      -279.1460
  64   2.0000     -10.255973      -279.0792
  65   2.0000     -10.255595      -279.0689
  66   2.0000     -10.254046      -279.0268
  67   2.0000     -10.250615      -278.9334
  68   2.0000      -8.070814      -219.6180
  69   2.0000      -8.064152      -219.4367
  70   2.0000      -8.054523      -219.1747
  71   2.0000      -8.053455      -219.1456
  72   2.0000      -7.991690      -217.4649
  73   2.0000      -7.985274      -217.2904
  74   2.0000      -6.040080      -164.3589
  75   2.0000      -6.035669      -164.2389
  76   2.0000      -6.033371      -164.1764
  77   2.0000      -6.033298      -164.1744
  78   2.0000      -6.028819      -164.0525
  79   2.0000      -6.026791      -163.9973
  80   2.0000      -6.024203      -163.9269
  81   2.0000      -6.023173      -163.8989
  82   2.0000      -6.019866      -163.8089
  83   2.0000      -6.019070      -163.7872
  84   2.0000      -6.015989      -163.7034
  85   2.0000      -6.014528      -163.6636
  86   2.0000      -5.960530      -162.1943
  87   2.0000      -5.959927      -162.1779
  88   2.0000      -5.954105      -162.0194
  89   2.0000      -5.953707      -162.0086
  90   2.0000      -5.951157      -161.9392
  91   2.0000      -5.944710      -161.7638
  92   2.0000      -1.199057       -32.6280
  93   2.0000      -1.196460       -32.5573
  94   2.0000      -1.105739       -30.0887
  95   2.0000      -1.101244       -29.9664
  96   2.0000      -1.081793       -29.4371
  97   2.0000      -1.071487       -29.1566
  98   2.0000      -1.062639       -28.9159
  99   2.0000      -1.052530       -28.6408
 100   2.0000      -1.013871       -27.5888
 101   2.0000      -1.012851       -27.5611
 102   2.0000      -0.977857       -26.6088
 103   2.0000      -0.961275       -26.1576
 104   2.0000      -0.954957       -25.9857
 105   2.0000      -0.953274       -25.9399
 106   2.0000      -0.951425       -25.8896
 107   2.0000      -0.950902       -25.8754
 108   2.0000      -0.942528       -25.6475
 109   2.0000      -0.935902       -25.4672
 110   2.0000      -0.916255       -24.9326
 111   2.0000      -0.895392       -24.3649
 112   2.0000      -0.894725       -24.3467
 113   2.0000      -0.892342       -24.2819
 114   2.0000      -0.867469       -23.6050
 115   2.0000      -0.859162       -23.3790
 116   2.0000      -0.857531       -23.3346
 117   2.0000      -0.856384       -23.3034
 118   2.0000      -0.849221       -23.1085
 119   2.0000      -0.844216       -22.9723
 120   2.0000      -0.842269       -22.9193
 121   2.0000      -0.837903       -22.8005
 122   2.0000      -0.830593       -22.6016
 123   2.0000      -0.825283       -22.4571
 124   2.0000      -0.817482       -22.2448
 125   2.0000      -0.807203       -21.9651
 126   2.0000      -0.804424       -21.8895
 127   2.0000      -0.794624       -21.6228
 128   2.0000      -0.790413       -21.5082
 129   2.0000      -0.784762       -21.3545
 130   2.0000      -0.769378       -20.9359
 131   2.0000      -0.762249       -20.7419
 132   2.0000      -0.751925       -20.4609
 133   2.0000      -0.739187       -20.1143
 134   2.0000      -0.731292       -19.8995
 135   2.0000      -0.723062       -19.6755
 136   2.0000      -0.719131       -19.5685
 137   2.0000      -0.717920       -19.5356
 138   2.0000      -0.703038       -19.1306
 139   2.0000      -0.699466       -19.0334
 140   2.0000      -0.692179       -18.8351
 141   2.0000      -0.684553       -18.6276
 142   2.0000      -0.680930       -18.5290
 143   2.0000      -0.679355       -18.4862
 144   2.0000      -0.669028       -18.2052
 145   2.0000      -0.665514       -18.1096
 146   2.0000      -0.656246       -17.8574
 147   2.0000      -0.649670       -17.6784
 148   2.0000      -0.647631       -17.6229
 149   2.0000      -0.642926       -17.4949
 150   2.0000      -0.642679       -17.4882
 151   2.0000      -0.632607       -17.2141
 152   2.0000      -0.627666       -17.0797
 153   2.0000      -0.623173       -16.9574
 154   2.0000      -0.613735       -16.7006
 155   2.0000      -0.608205       -16.5501
 156   2.0000      -0.606378       -16.5004
 157   2.0000      -0.596468       -16.2307
 158   2.0000      -0.586188       -15.9510
 159   2.0000      -0.578146       -15.7322
 160   2.0000      -0.577289       -15.7088
 161   2.0000      -0.575981       -15.6732
 162   2.0000      -0.575673       -15.6648
 163   2.0000      -0.574331       -15.6283
 164   2.0000      -0.571447       -15.5499
 165   2.0000      -0.570322       -15.5193
 166   2.0000      -0.565579       -15.3902
 167   2.0000      -0.563829       -15.3426
 168   2.0000      -0.560321       -15.2471
 169   2.0000      -0.559060       -15.2128
 170   2.0000      -0.553585       -15.0638
 171   2.0000      -0.547744       -14.9049
 172   2.0000      -0.544516       -14.8170
 173   2.0000      -0.542020       -14.7491
 174   2.0000      -0.536901       -14.6098
 175   2.0000      -0.534416       -14.5422
 176   2.0000      -0.532395       -14.4872
 177   2.0000      -0.526749       -14.3336
 178   2.0000      -0.523808       -14.2535
 179   2.0000      -0.519478       -14.1357
 180   2.0000      -0.516092       -14.0436
 181   2.0000      -0.515294       -14.0219
 182   2.0000      -0.513205       -13.9650
 183   2.0000      -0.512751       -13.9527
 184   2.0000      -0.511804       -13.9269
 185   2.0000      -0.506702       -13.7881
 186   2.0000      -0.505300       -13.7499
 187   2.0000      -0.501534       -13.6474
 188   2.0000      -0.498903       -13.5758
 189   2.0000      -0.496918       -13.5218
 190   2.0000      -0.495348       -13.4791
 191   2.0000      -0.493830       -13.4378
 192   2.0000      -0.490393       -13.3443
 193   2.0000      -0.489690       -13.3251
 194   2.0000      -0.488745       -13.2994
 195   2.0000      -0.485987       -13.2244
 196   2.0000      -0.481977       -13.1153
 197   2.0000      -0.480667       -13.0796
 198   2.0000      -0.478397       -13.0178
 199   2.0000      -0.477840       -13.0027
 200   2.0000      -0.473277       -12.8785
 201   2.0000      -0.470901       -12.8139
 202   2.0000      -0.468708       -12.7542
 203   2.0000      -0.465148       -12.6573
 204   2.0000      -0.462051       -12.5731
 205   2.0000      -0.458963       -12.4890
 206   2.0000      -0.457031       -12.4365
 207   2.0000      -0.455396       -12.3920
 208   2.0000      -0.448322       -12.1995
 209   2.0000      -0.445880       -12.1330
 210   2.0000      -0.441844       -12.0232
 211   2.0000      -0.440945       -11.9987
 212   2.0000      -0.438030       -11.9194
 213   2.0000      -0.432739       -11.7754
 214   2.0000      -0.428105       -11.6493
 215   2.0000      -0.427506       -11.6330
 216   2.0000      -0.426838       -11.6149
 217   2.0000      -0.424742       -11.5578
 218   2.0000      -0.420627       -11.4458
 219   2.0000      -0.418501       -11.3880
 220   2.0000      -0.417929       -11.3724
 221   2.0000      -0.414575       -11.2812
 222   2.0000      -0.413806       -11.2602
 223   2.0000      -0.406135       -11.0515
 224   2.0000      -0.402856       -10.9623
 225   2.0000      -0.401833       -10.9344
 226   2.0000      -0.393974       -10.7206
 227   2.0000      -0.387594       -10.5470
 228   2.0000      -0.384625       -10.4662
 229   2.0000      -0.383402       -10.4329
 230   2.0000      -0.382668       -10.4129
 231   2.0000      -0.380413       -10.3516
 232   2.0000      -0.375403       -10.2152
 233   2.0000      -0.366764        -9.9802
 234   2.0000      -0.360133        -9.7997
 235   2.0000      -0.359045        -9.7701
 236   2.0000      -0.355074        -9.6620
 237   2.0000      -0.350294        -9.5320
 238   2.0000      -0.345783        -9.4092
 239   2.0000      -0.344610        -9.3773
 240   2.0000      -0.336807        -9.1650
 241   2.0000      -0.332426        -9.0458
 242   2.0000      -0.330401        -8.9907
 243   2.0000      -0.323115        -8.7924
 244   2.0000      -0.316945        -8.6245
 245   2.0000      -0.314665        -8.5625
 246   2.0000      -0.312657        -8.5078
 247   2.0000      -0.299544        -8.1510
 248   2.0000      -0.290675        -7.9097
 249   2.0000      -0.288776        -7.8580
 250   2.0000      -0.281851        -7.6696
 251   2.0000      -0.278831        -7.5874
 252   2.0000      -0.277874        -7.5613
 253   2.0000      -0.273436        -7.4406
 254   2.0000      -0.259128        -7.0512
 255   2.0000      -0.255797        -6.9606
 256   2.0000      -0.212637        -5.7862
 257   0.0000      -0.110245        -2.9999
 258   0.0000      -0.101227        -2.7545
 259   0.0000      -0.079860        -2.1731
 260   0.0000      -0.072598        -1.9755
 261   0.0000      -0.054851        -1.4926

MULLIKEN ATOMIC CHARGES
-----------------------
   0 C :   -0.113913
   1 S :    0.155510
   2 C :   -0.210082
   3 C :    0.023576
   4 C :    0.112086
   5 C :    0.032691
   6 C :   -0.157669
   7 C :    0.220107
   8 O :   -0.200290
   9 O :   -0.301187
  10 C :    0.188269
  11 S :    0.212094
  12 C :    0.016267
  13 C :    0.040965
  14 N :   -0.022135
  15 C :    0.008993
  16 C :   -0.025928
  17 C :   -0.040430
  18 S :   -0.145250
  19 C :   -0.024365
  20 C :    0.001701
  21 N :   -0.039899
  22 C :    0.052118
  23 C :    0.021257
  24 C :    0.057192
  25 C :   -0.037163
  26 C :    0.033917
  27 C :    0.004990
  28 C :   -0.063493
  29 C :    0.144848
  30 N :   -0.218269
  31 C :    0.144020
  32 N :   -0.221913
  33 C :    0.110859
  34 C :   -0.141905
  35 C :    0.138299
  36 C :   -0.044423
  37 C :    0.019203
  38 C :    0.007086
  39 C :    0.051844
  40 C :   -0.009818
  41 C :   -0.017551
  42 C :   -0.038045
  43 C :   -0.003161
  44 C :   -0.000103
  45 C :    0.053548
  46 N :   -0.032772
  47 C :    0.014661
  48 C :   -0.006329
  49 C :   -0.004286
  50 S :   -0.140278
  51 C :   -0.047381
  52 C :   -0.001237
  53 N :   -0.019520
  54 C :    0.042836
  55 C :    0.022741
  56 C :   -0.164628
  57 S :    0.213988
  58 C :   -0.141864
  59 C :   -0.002267
  60 C :    0.133711
  61 C :   -0.015753
  62 C :   -0.140686
  63 C :    0.199792
  64 O :   -0.196619
  65 O :   -0.308310
  66 C :    0.188394
  67 S :    0.164449
  68 H :    0.028373
  69 H :   -0.002876
  70 H :    0.035869
  71 H :    0.036025
  72 H :    0.034921
  73 H :    0.004963
  74 H :    0.004785
  75 H :   -0.024746
  76 H :   -0.010738
  77 H :    0.002912
  78 H :   -0.032952
  79 H :    0.089885
  80 H :    0.081837
  81 H :   -0.037973
  82 H :    0.003123
  83 H :    0.094316
  84 H :    0.087872
  85 H :   -0.000124
  86 H :    0.032197
  87 H :   -0.011949
  88 H :   -0.036020
  89 H :   -0.039758
  90 H :   -0.032675
  91 H :    0.007183
  92 H :   -0.006712
  93 H :    0.008054
  94 H :    0.008783
  95 H :    0.028011
  96 H :    0.004454
  97 H :    0.037306
  98 H :    0.036605
  99 H :    0.035960
Sum of atomic charges:   -0.0000000

LOEWDIN ATOMIC CHARGES
----------------------
   0 C :   -0.169044
   1 S :    0.470880
   2 C :   -0.196585
   3 C :   -0.177243
   4 C :   -0.082242
   5 C :   -0.012243
   6 C :   -0.204767
   7 C :    0.072685
   8 O :   -0.175289
   9 O :   -0.091805
  10 C :    0.082602
  11 S :    0.472376
  12 C :   -0.063949
  13 C :    0.069492
  14 N :   -0.077894
  15 C :    0.025733
  16 C :   -0.042854
  17 C :   -0.154100
  18 S :    0.059896
  19 C :   -0.054824
  20 C :    0.040918
  21 N :   -0.085707
  22 C :    0.085886
  23 C :   -0.021188
  24 C :   -0.045457
  25 C :    0.035381
  26 C :   -0.023855
  27 C :    0.000804
  28 C :   -0.039114
  29 C :    0.022683
  30 N :   -0.122687
  31 C :    0.028109
  32 N :   -0.118709
  33 C :   -0.011979
  34 C :    0.070771
  35 C :   -0.027578
  36 C :   -0.038476
  37 C :   -0.013429
  38 C :   -0.038879
  39 C :   -0.026954
  40 C :   -0.013282
  41 C :   -0.028028
  42 C :    0.020136
  43 C :   -0.036516
  44 C :   -0.030661
  45 C :    0.085517
  46 N :   -0.080529
  47 C :    0.033181
  48 C :   -0.043205
  49 C :   -0.140044
  50 S :    0.033235
  51 C :   -0.059702
  52 C :    0.036153
  53 N :   -0.071738
  54 C :    0.084468
  55 C :   -0.044850
  56 C :   -0.183201
  57 S :    0.515940
  58 C :   -0.202659
  59 C :   -0.193406
  60 C :   -0.068074
  61 C :   -0.017686
  62 C :   -0.196183
  63 C :    0.067210
  64 O :   -0.173364
  65 O :   -0.098748
  66 C :    0.083238
  67 S :    0.416110
  68 H :    0.029373
  69 H :    0.038121
  70 H :    0.026814
  71 H :    0.024762
  72 H :    0.023961
  73 H :    0.020073
  74 H :    0.023634
  75 H :    0.023658
  76 H :    0.029408
  77 H :    0.002493
  78 H :    0.003437
  79 H :    0.035982
  80 H :    0.050939
  81 H :   -0.008913
  82 H :    0.021189
  83 H :    0.050129
  84 H :    0.052201
  85 H :    0.028413
  86 H :    0.056895
  87 H :    0.024743
  88 H :    0.030064
  89 H :    0.026040
  90 H :    0.023820
  91 H :    0.026451
  92 H :    0.028461
  93 H :    0.023906
  94 H :    0.025234
  95 H :    0.028928
  96 H :    0.037344
  97 H :    0.027538
  98 H :    0.025080
  99 H :    0.025144

  Mayer bond orders larger than 0.100000
B(  0-C ,  1-S ) :   1.1953 B(  0-C ,  2-C ) :   0.1029 B(  0-C ,  4-C ) :   1.4462
B(  0-C , 68-H ) :   0.9699 B(  1-S ,  2-C ) :   1.1384 B(  2-C ,  3-C ) :   1.5011
B(  2-C , 12-C ) :   1.1196 B(  3-C ,  4-C ) :   1.2220 B(  3-C , 11-S ) :   1.0763
B(  4-C ,  5-C ) :   1.1057 B(  5-C ,  6-C ) :   1.6140 B(  5-C , 69-H ) :   1.0055
B(  6-C ,  7-C ) :   0.9678 B(  6-C , 11-S ) :   1.0685 B(  7-C ,  8-O ) :   2.0668
B(  7-C ,  9-O ) :   1.2509 B(  9-O , 10-C ) :   0.9198 B( 10-C , 70-H ) :   0.9810
B( 10-C , 71-H ) :   0.9754 B( 10-C , 72-H ) :   0.9775 B( 12-C , 13-C ) :   1.0380
B( 12-C , 16-C ) :   1.5112 B( 13-C , 14-N ) :   1.7272 B( 13-C , 73-H ) :   0.9887
B( 14-N , 15-C ) :   1.2671 B( 15-C , 16-C ) :   1.0670 B( 15-C , 20-C ) :   1.5227
B( 16-C , 17-C ) :   1.0711 B( 17-C , 18-S ) :   1.6422 B( 17-C , 19-C ) :   1.0246
B( 19-C , 20-C ) :   1.0769 B( 19-C , 23-C ) :   1.5356 B( 20-C , 21-N ) :   1.2414
B( 21-N , 22-C ) :   1.7414 B( 22-C , 23-C ) :   1.0155 B( 22-C , 74-H ) :   0.9896
B( 23-C , 24-C ) :   1.0241 B( 24-C , 25-C ) :   1.4988 B( 24-C , 41-C ) :   1.1197
B( 25-C , 26-C ) :   1.1737 B( 25-C , 75-H ) :   0.9811 B( 26-C , 27-C ) :   1.4617
B( 26-C , 39-C ) :   1.1192 B( 27-C , 28-C ) :   1.0341 B( 27-C , 33-C ) :   1.0774
B( 28-C , 29-C ) :   1.0442 B( 28-C , 31-C ) :   1.0411 B( 28-C , 76-H ) :   0.8771
B( 29-C , 30-N ) :   1.0959 B( 29-C , 77-H ) :   0.9356 B( 29-C , 78-H ) :   0.9229
B( 30-N , 79-H ) :   0.9609 B( 30-N , 80-H ) :   0.9672 B( 31-C , 32-N ) :   1.0914
B( 31-C , 81-H ) :   0.9314 B( 31-C , 82-H ) :   0.9361 B( 32-N , 83-H ) :   0.9710
B( 32-N , 84-H ) :   0.9681 B( 33-C , 34-C ) :   1.6385 B( 33-C , 38-C ) :   1.0543
B( 34-C , 35-C ) :   0.9717 B( 34-C , 85-H ) :   0.9753 B( 35-C , 36-C ) :   0.9848
B( 35-C , 42-C ) :   0.9541 B( 35-C , 86-H ) :   0.8741 B( 36-C , 37-C ) :   1.6987
B( 36-C , 87-H ) :   0.9748 B( 37-C , 38-C ) :   1.1360 B( 37-C , 88-H ) :   0.9895
B( 38-C , 39-C ) :   1.4302 B( 39-C , 40-C ) :   1.1418 B( 40-C , 41-C ) :   1.6071
B( 40-C , 89-H ) :   0.9899 B( 41-C , 90-H ) :   0.9859 B( 42-C , 43-C ) :   1.7578
B( 42-C , 91-H ) :   0.9632 B( 43-C , 44-C ) :   1.0884 B( 43-C , 92-H ) :   0.9673
B( 44-C , 45-C ) :   1.0107 B( 44-C , 48-C ) :   1.5358 B( 45-C , 46-N ) :   1.7331
B( 45-C , 93-H ) :   0.9898 B( 46-N , 47-C ) :   1.2580 B( 47-C , 48-C ) :   1.0738
B( 47-C , 52-C ) :   1.5206 B( 48-C , 49-C ) :   1.0331 B( 49-C , 50-S ) :   1.6802
B( 49-C , 51-C ) :   1.0499 B( 51-C , 52-C ) :   1.0825 B( 51-C , 55-C ) :   1.4970
B( 52-C , 53-N ) :   1.2595 B( 53-N , 54-C ) :   1.7353 B( 54-C , 55-C ) :   1.0196
B( 54-C , 94-H ) :   0.9930 B( 55-C , 56-C ) :   1.1730 B( 56-C , 57-S ) :   1.1635
B( 56-C , 60-C ) :   1.3484 B( 57-S , 58-C ) :   1.1913 B( 58-C , 59-C ) :   1.5001
B( 58-C , 95-H ) :   0.9760 B( 59-C , 60-C ) :   1.2468 B( 59-C , 67-S ) :   1.0210
B( 60-C , 61-C ) :   1.1398 B( 61-C , 62-C ) :   1.6174 B( 61-C , 96-H ) :   1.0008
B( 62-C , 63-C ) :   0.9630 B( 62-C , 67-S ) :   1.0781 B( 63-C , 64-O ) :   2.1380
B( 63-C , 65-O ) :   1.2345 B( 65-O , 66-C ) :   0.9196 B( 66-C , 97-H ) :   0.9813
B( 66-C , 98-H ) :   0.9764 B( 66-C , 99-H ) :   0.9771

-----------------------------------------------------------------------------
         ABSORPTION SPECTRUM VIA TRANSITION ELECTRIC DIPOLE MOMENTS
-----------------------------------------------------------------------------
State   Energy  Wavelength   fosc         T2         TX        TY        TZ
        (cm-1)    (nm)                  (au**2)     (au)      (au)      (au)
-----------------------------------------------------------------------------
   0    8892.4   1124.6   0.107683622   3.98662   1.05430   0.44470   1.63625
   1   10925.9    915.3   0.044756291   1.34856  -0.96840  -0.20572  -0.60699
   2   13215.2    756.7   0.016417755   0.40899  -0.10878   0.35349   0.52174
   3   13679.3    731.0   0.013920616   0.33502  -0.44792   0.01231   0.36638
   4   14964.9    668.2   0.146300693   3.21845  -1.15865  -1.08231  -0.83939
   5   15715.6    636.3   0.080342333   1.68302  -0.83193  -0.64086  -0.76171
   6   16389.6    610.1   0.106048608   2.13016   0.20703   0.42433   1.38103
   7   17388.7    575.1   0.037192573   0.70415  -0.58952  -0.29627  -0.51850
   8   17479.8    572.1   0.125670576   2.36686   0.45223   0.45198   1.39931
   9   18013.3    555.1   0.009165469   0.16751  -0.21876  -0.24503  -0.24416
  10   18530.1    539.7   0.159186917   2.82817  -0.36239   0.01955   1.64209
  11   19298.2    518.2   0.028853693   0.49222  -0.43207  -0.05977   0.54951
  12   19416.2    515.0   0.023058926   0.39098  -0.53733  -0.00377  -0.31975
  13   21622.1    462.5   0.407370892   6.20251   1.66983   1.39747   1.20883
  14   22807.9    438.4   0.019344594   0.27922   0.11005   0.18024   0.48438
  15   23506.1    425.4   0.133859506   1.87476  -0.05224   0.09286   1.36507
  16   24376.2    410.2   0.052251795   0.70568   0.07212  -0.07383  -0.83369
  17   24621.9    406.1   0.238767926   3.19250  -0.63935  -0.11875   1.66422
  18   25023.7    399.6   0.143096438   1.88257   0.97226   0.75345   0.60794
  19   25323.4    394.9   0.027097477   0.35228  -0.54959   0.13734   0.17710
  20   25447.6    393.0   0.062914862   0.81392   0.52039   0.16923  -0.71727
  21   25684.4    389.3   0.011756131   0.15069  -0.36628  -0.12593  -0.02588
  22   25712.4    388.9   0.006162759   0.07891  -0.22521  -0.00961   0.16761
  23   26175.4    382.0   0.095370777   1.19949   0.76541   0.27603   0.73311
  24   26514.5    377.2   0.010783690   0.13389   0.01446  -0.01802   0.36518
  25   26622.4    375.6   0.030171031   0.37309  -0.47787  -0.20926  -0.31771
  26   26734.4    374.0   0.028198422   0.34724   0.57667   0.00975  -0.12083
  27   26801.7    373.1   0.086604634   1.06379  -0.72672  -0.27632  -0.67773
  28   27051.0    369.7   0.034736383   0.42274  -0.51631  -0.21121  -0.33401
  29   27311.2    366.2   0.014949195   0.18020  -0.11828   0.10874  -0.39292
  30   27603.1    362.3   0.000440406   0.00525   0.06749   0.00088   0.02640
  31   27813.1    359.5   0.191411474   2.26566  -1.20903  -0.54219  -0.71409
  32   28140.4    355.4   0.012983754   0.15190   0.31852   0.20786   0.08506
  33   28514.0    350.7   0.161441525   1.86394   1.11795   0.58572   0.52065
  34   28909.5    345.9   0.014905111   0.16973   0.29913   0.19554  -0.20499
  35   29122.4    343.4   0.000631345   0.00714  -0.07382  -0.04106  -0.00161
  36   29570.2    338.2   0.064394591   0.71692   0.15304   0.30510   0.77486
  37   29778.8    335.8   0.024047571   0.26585  -0.34421  -0.32758   0.20015
  38   29905.6    334.4   0.008140180   0.08961   0.23014   0.18182   0.05988
  39   30193.8    331.2   0.220824098   2.40771  -1.06435  -0.62947  -0.93735
  40   30297.6    330.1   0.038560137   0.41899  -0.40670  -0.04579  -0.50149
  41   30376.2    329.2   0.113190006   1.22673   0.70241   0.52597   0.67580
  42   30694.7    325.8   0.035863058   0.38464   0.42326   0.40073  -0.21192
  43   30954.8    323.1   0.001071966   0.01140  -0.07315  -0.02501  -0.07364
  44   31268.2    319.8   0.000589999   0.00621   0.03310   0.00818   0.07106
  45   31393.8    318.5   0.035848626   0.37593  -0.48659  -0.04759   0.36999
  46   31865.3    313.8   0.432829212   4.47171   1.46909   0.65254   1.37392
  47   32136.7    311.2   0.009443654   0.09674  -0.28066  -0.09854  -0.09089
  48   32466.3    308.0   0.143576364   1.45588  -0.08991  -0.15559  -1.19314
  49   32727.1    305.6   0.124678529   1.25418   0.60882   0.35051   0.87216
  50   32868.5    304.2   0.034335029   0.34390   0.41420   0.13899  -0.39118
  51   33147.1    301.7   0.070648590   0.70167  -0.67627  -0.40601  -0.28193
  52   33163.2    301.5   0.058724979   0.58296   0.26605  -0.39210   0.59869
  53   33273.0    300.5   0.033070355   0.32721   0.40546   0.20995   0.34458
  54   33450.8    298.9   0.037540459   0.36946   0.26557   0.07683  -0.54132
  55   33743.6    296.4   0.033545705   0.32728  -0.32604  -0.24402  -0.40179
  56   34032.2    293.8   0.003147501   0.03045  -0.16483  -0.01813  -0.05432
  57   34348.6    291.1   0.003168511   0.03037   0.13813   0.09994   0.03605
  58   34505.4    289.8   0.234684802   2.23910   1.06944   0.77365   0.70489
  59   34710.8    288.1   0.050829510   0.48209  -0.40846  -0.48771  -0.27818
  60   35031.1    285.5   0.067831822   0.63746   0.47037   0.06658   0.64171
  61   35188.3    284.2   0.044945788   0.42050   0.15714  -0.14904   0.61122
  62   35290.4    283.4   0.004562958   0.04257   0.10799   0.16840   0.05045
  63   35604.1    280.9   0.051076079   0.47227  -0.34466  -0.39989  -0.43997
  64   35674.8    280.3   0.033813291   0.31203   0.31015  -0.09694  -0.45436
  65   35682.7    280.2   0.031900379   0.29432   0.12766  -0.22350  -0.47756
  66   36124.8    276.8   0.004715836   0.04298   0.11119   0.11948   0.12781
  67   36148.8    276.6   0.048625610   0.44284  -0.55535  -0.27845  -0.23851
  68   36375.3    274.9   0.044133128   0.39942  -0.11560   0.00804  -0.62129
  69   36687.8    272.6   0.036148469   0.32437  -0.22024   0.01704   0.52495
  70   36843.7    271.4   0.027393779   0.24477   0.12154  -0.40001   0.26456
  71   36855.1    271.3   0.236356327   2.11127   0.69332  -0.92324   0.88216
  72   37045.9    269.9   0.084322980   0.74934  -0.23100  -0.80906   0.20347
  73   37199.6    268.8   0.030519679   0.27010   0.26979   0.36460   0.25372
  74   37380.6    267.5   0.039251191   0.34569  -0.53907  -0.22105   0.07892
  75   37540.3    266.4   0.008622523   0.07562   0.23729   0.04665  -0.13089
  76   37807.1    264.5   0.164130943   1.42920   1.08684   0.13594  -0.47905
  77   37965.6    263.4   0.000464706   0.00403  -0.05673   0.00450   0.02813
  78   38091.5    262.5   0.024373561   0.21065   0.08333  -0.14170   0.42852
  79   38383.9    260.5   0.020607774   0.17675  -0.12537  -0.06369  -0.39620
  80   39171.4    255.3   0.004037581   0.03393  -0.09683   0.06487  -0.14265
  81   39261.8    254.7   0.045443976   0.38105  -0.46232  -0.38957   0.12468
  82   39358.4    254.1   0.005664194   0.04738   0.17452   0.12113   0.04742
  83   39404.1    253.8   0.114095369   0.95324   0.66450   0.71454  -0.03349
  84   39533.3    253.0   0.028936174   0.24096  -0.08352   0.28777  -0.38882
  85   40206.2    248.7   0.050855901   0.41641  -0.46697   0.13369  -0.42482

FINAL SINGLE POINT ENERGY     -5015.098969643714

DIPOLE MOMENT
-------------
                                X             Y             Z
Electronic contribution:     -5.24391       5.02504      -3.42179
Nuclear contribution   :      7.89343      -2.96919       2.32224
                        -----------------------------------------
Total Dipole Moment    :      2.64952       2.05585      -1.09955
                        -----------------------------------------
Magnitude (a.u.)       :      3.52923
Magnitude (Debye)      :      8.97059

Rotational constants in cm-1:     0.002225     0.000234     0.000219
Rotational constants in MHz :    66.689362     7.019424     6.579717

                             ****ORCA TERMINATED NORMALLY****
TOTAL RUN TIME: 0 days 0 hours 18 minutes 59 seconds 199 msec
