                         Program Version 4.2.0 -  RELEASE  -
|  1> # ORCA input file
|  2> # SCF done       -192.977974761670          0.000432462701
|  3> ! CAM-B3LYP def2-SVP def2/J RIJCOSX Grid4 TightSCF
|  4> %maxcore 5000
|  5> %tddft
|  6>     Mode sTDDFT
|  7>     Ethresh 5.0
|  8>     maxcore 5000
|  9> end
| 10>
| 11> %pal
| 12>   nprocs 6
| 13>   end
| 14> * xyz 0 1
| 15>    C        0.20607        -2.51796         5.23810
| 16>    S        1.26180        -2.72564         3.90635
| 17>    C        0.24422        -3.94199         3.17437
| 18>    C       -0.86451        -4.14067         3.98255
| 19>    C       -0.89704        -3.33377         5.15716
| 20>    C       -2.06842        -3.59309         5.92032
| 21>    C       -2.84754        -4.53934         5.32936
| 22>    C       -4.12714        -5.03638         5.84872
| 23>    O       -4.64316        -4.66202         6.87275
| 24>    O       -4.64779        -5.95977         5.03373
| 25>    C       -5.89119        -6.51833         5.42810
| 26>    S       -2.21126        -5.17976         3.81321
| 27>    C        0.41952        -4.65209         1.97210
| 28>    N       -0.52634        -5.54523         1.66756
| 29>    C       -0.16193        -6.07488         0.49010
| 30>    C        1.09127        -5.48416         0.00393
| 31>    C        1.45696        -6.06652        -1.29012
| 32>    O        2.41461        -5.80466        -1.99758
| 33>    C        0.37955        -7.03571        -1.53476
| 34>    C       -0.59190        -7.00905        -0.42935
| 35>    N       -1.59278        -7.89170        -0.64786
| 36>    C       -1.30596        -8.45560        -1.80092
| 37>    C       -0.09090        -7.96913        -2.40786
| 38>    C        1.48273        -4.56601         0.95355
| 39>    C        2.60251        -3.69388         1.01516
| 40>    C        3.53458        -3.61225         0.03660
| 41>    C        4.66135        -2.72298         0.00268
| 42>    C        5.43023        -2.67871        -1.14639
| 43>    C        6.49887        -1.77427        -1.25000
| 44>    C        7.37434        -1.51189        -2.30168
| 45>    C        7.38006        -2.18930        -3.62247
| 46>    C        6.86661        -1.25542        -4.73348
| 47>    N        5.48315        -0.89439        -4.47734
| 48>    C        8.75453        -2.76788        -4.00427
| 49>    N        8.56639        -3.76390        -5.04181
| 50>    C        8.26579        -0.47137        -1.85069
| 51>    C        9.28481         0.16653        -2.45852
| 52>    C       10.14543         1.11565        -1.71204
| 53>    C        9.61077         1.54944        -0.38198
| 54>    C        8.56859         0.91969         0.20494
| 55>    C        7.88831        -0.11264        -0.47168
| 56>    C        6.80901        -0.90780        -0.12470
| 57>    C        6.03360        -0.99578         1.05209
| 58>    C        4.99449        -1.86878         1.10540
| 59>    C       11.40015         0.41780        -1.23959
| 60>    C       11.46065        -0.87300        -0.86561
| 61>    C       12.66019        -1.43884        -0.34922
| 62>    N       13.77873        -0.72828        -0.25835
| 63>    C       14.69222        -1.54653         0.29077
| 64>    C       14.12312        -2.86921         0.58453
| 65>    C       15.14132        -3.73673         1.19565
| 66>    O       15.02506        -4.88018         1.59146
| 67>    C       16.33338        -2.87394         1.22137
| 68>    C       16.01716        -1.54556         0.66831
| 69>    N       17.10876        -0.74552         0.68641
| 70>    C       18.06507        -1.48484         1.20292
| 71>    C       17.65117        -2.82240         1.55609
| 72>    C       12.81441        -2.82191         0.15964
| 73>    C       11.79967        -3.81904         0.18238
| 74>    C       11.98978        -5.01924         0.78557
| 75>    C       11.07022        -6.09258         0.87187
| 76>    S       11.47283        -7.39084         1.96725
| 77>    C       10.05026        -8.27554         1.59966
| 78>    C        9.30428        -7.61868         0.66847
| 79>    C        9.85911        -6.37014         0.23631
| 80>    C        9.05891        -5.77990        -0.76989
| 81>    C        7.96306        -6.53417        -1.07720
| 82>    C        6.97117        -6.26635        -2.11657
| 83>    O        6.99704        -5.30294        -2.85161
| 84>    O        6.06489        -7.23910        -2.17392
| 85>    C        5.05228        -7.14492        -3.16931
| 86>    S        7.81934        -8.00761        -0.14589
| 87>    H        0.45572        -1.80830         6.00179
| 88>    H       -2.32251        -3.11077         6.84626
| 89>    H       -6.16733        -7.22213         4.64758
| 90>    H       -6.64499        -5.73422         5.52526
| 91>    H       -5.78970        -7.02824         6.38841
| 92>    H       -1.95554        -9.20899        -2.21164
| 93>    H        0.31612        -8.29804        -3.34391
| 94>    H        2.66860        -3.06816         1.89389
| 95>    H        3.41787        -4.24933        -0.83073
| 96>    H        5.19700        -3.33371        -1.97199
| 97>    H        6.69600        -3.03994        -3.56508
| 98>    H        7.02236        -1.77672        -5.69080
| 99>    H        7.45071        -0.33080        -4.74174
|100>    H        4.89701        -1.72243        -4.50208
|101>    H        5.14649        -0.25547        -5.18883
|102>    H        9.22945        -3.17268        -3.09345
|103>    H        9.40814        -1.98894        -4.40567
|104>    H        7.99384        -4.51547        -4.66847
|105>    H        9.45839        -4.16163        -5.31695
|106>    H        9.57252        -0.04290        -3.47757
|107>    H       10.42060         1.96960        -2.33766
|108>    H       10.14676         2.34017         0.11792
|109>    H        8.22787         1.22072         1.18499
|110>    H        6.27104        -0.36544         1.89666
|111>    H        4.40243        -1.93177         2.00523
|112>    H       12.28542         1.02590        -1.12441
|113>    H       10.59136        -1.51064        -0.93903
|114>    H       19.05366        -1.07908         1.33110
|115>    H       18.27799        -3.57793         1.98721
|116>    H       10.85328        -3.58315        -0.28228
|117>    H       12.93647        -5.19594         1.28182
|118>    H        9.85231        -9.21333         2.07682
|119>    H        9.26889        -4.85427        -1.27343
|120>    H        4.16701        -6.66095        -2.75248
|121>    H        4.81499        -8.16374        -3.46855
|122>    H        5.41731        -6.56821        -4.02117
|123> *
|124>
|125>                          ****END OF INPUT****

CARTESIAN COORDINATES (ANGSTROEM)
---------------------------------
  C      0.206070   -2.517960    5.238100
  S      1.261800   -2.725640    3.906350
  C      0.244220   -3.941990    3.174370
  C     -0.864510   -4.140670    3.982550
  C     -0.897040   -3.333770    5.157160
  C     -2.068420   -3.593090    5.920320
  C     -2.847540   -4.539340    5.329360
  C     -4.127140   -5.036380    5.848720
  O     -4.643160   -4.662020    6.872750
  O     -4.647790   -5.959770    5.033730
  C     -5.891190   -6.518330    5.428100
  S     -2.211260   -5.179760    3.813210
  C      0.419520   -4.652090    1.972100
  N     -0.526340   -5.545230    1.667560
  C     -0.161930   -6.074880    0.490100
  C      1.091270   -5.484160    0.003930
  C      1.456960   -6.066520   -1.290120
  O      2.414610   -5.804660   -1.997580
  C      0.379550   -7.035710   -1.534760
  C     -0.591900   -7.009050   -0.429350
  N     -1.592780   -7.891700   -0.647860
  C     -1.305960   -8.455600   -1.800920
  C     -0.090900   -7.969130   -2.407860
  C      1.482730   -4.566010    0.953550
  C      2.602510   -3.693880    1.015160
  C      3.534580   -3.612250    0.036600
  C      4.661350   -2.722980    0.002680
  C      5.430230   -2.678710   -1.146390
  C      6.498870   -1.774270   -1.250000
  C      7.374340   -1.511890   -2.301680
  C      7.380060   -2.189300   -3.622470
  C      6.866610   -1.255420   -4.733480
  N      5.483150   -0.894390   -4.477340
  C      8.754530   -2.767880   -4.004270
  N      8.566390   -3.763900   -5.041810
  C      8.265790   -0.471370   -1.850690
  C      9.284810    0.166530   -2.458520
  C     10.145430    1.115650   -1.712040
  C      9.610770    1.549440   -0.381980
  C      8.568590    0.919690    0.204940
  C      7.888310   -0.112640   -0.471680
  C      6.809010   -0.907800   -0.124700
  C      6.033600   -0.995780    1.052090
  C      4.994490   -1.868780    1.105400
  C     11.400150    0.417800   -1.239590
  C     11.460650   -0.873000   -0.865610
  C     12.660190   -1.438840   -0.349220
  N     13.778730   -0.728280   -0.258350
  C     14.692220   -1.546530    0.290770
  C     14.123120   -2.869210    0.584530
  C     15.141320   -3.736730    1.195650
  O     15.025060   -4.880180    1.591460
  C     16.333380   -2.873940    1.221370
  C     16.017160   -1.545560    0.668310
  N     17.108760   -0.745520    0.686410
  C     18.065070   -1.484840    1.202920
  C     17.651170   -2.822400    1.556090
  C     12.814410   -2.821910    0.159640
  C     11.799670   -3.819040    0.182380
  C     11.989780   -5.019240    0.785570
  C     11.070220   -6.092580    0.871870
  S     11.472830   -7.390840    1.967250
  C     10.050260   -8.275540    1.599660
  C      9.304280   -7.618680    0.668470
  C      9.859110   -6.370140    0.236310
  C      9.058910   -5.779900   -0.769890
  C      7.963060   -6.534170   -1.077200
  C      6.971170   -6.266350   -2.116570
  O      6.997040   -5.302940   -2.851610
  O      6.064890   -7.239100   -2.173920
  C      5.052280   -7.144920   -3.169310
  S      7.819340   -8.007610   -0.145890
  H      0.455720   -1.808300    6.001790
  H     -2.322510   -3.110770    6.846260
  H     -6.167330   -7.222130    4.647580
  H     -6.644990   -5.734220    5.525260
  H     -5.789700   -7.028240    6.388410
  H     -1.955540   -9.208990   -2.211640
  H      0.316120   -8.298040   -3.343910
  H      2.668600   -3.068160    1.893890
  H      3.417870   -4.249330   -0.830730
  H      5.197000   -3.333710   -1.971990
  H      6.696000   -3.039940   -3.565080
  H      7.022360   -1.776720   -5.690800
  H      7.450710   -0.330800   -4.741740
  H      4.897010   -1.722430   -4.502080
  H      5.146490   -0.255470   -5.188830
  H      9.229450   -3.172680   -3.093450
  H      9.408140   -1.988940   -4.405670
  H      7.993840   -4.515470   -4.668470
  H      9.458390   -4.161630   -5.316950
  H      9.572520   -0.042900   -3.477570
  H     10.420600    1.969600   -2.337660
  H     10.146760    2.340170    0.117920
  H      8.227870    1.220720    1.184990
  H      6.271040   -0.365440    1.896660
  H      4.402430   -1.931770    2.005230
  H     12.285420    1.025900   -1.124410
  H     10.591360   -1.510640   -0.939030
  H     19.053660   -1.079080    1.331100
  H     18.277990   -3.577930    1.987210
  H     10.853280   -3.583150   -0.282280
  H     12.936470   -5.195940    1.281820
  H      9.852310   -9.213330    2.076820
  H      9.268890   -4.854270   -1.273430
  H      4.167010   -6.660950   -2.752480
  H      4.814990   -8.163740   -3.468550
  H      5.417310   -6.568210   -4.021170

 Total Charge           Charge          ....    0
 Multiplicity           Mult            ....    1
 Number of Electrons    NEL             ....  526
 Basis Dimension        Dim             .... 1204

ORBITAL ENERGIES
----------------

  NO   OCC          E(Eh)            E(eV)
   0   2.0000     -88.989456     -2421.5262
   1   2.0000     -88.965525     -2420.8750
   2   2.0000     -88.962175     -2420.7838
   3   2.0000     -88.952255     -2420.5139
   4   2.0000     -19.264918      -524.2251
   5   2.0000     -19.263307      -524.1812
   6   2.0000     -19.211238      -522.7644
   7   2.0000     -19.208795      -522.6979
   8   2.0000     -19.204487      -522.5806
   9   2.0000     -19.200573      -522.4742
  10   2.0000     -14.405717      -391.9995
  11   2.0000     -14.396127      -391.7385
  12   2.0000     -14.394018      -391.6811
  13   2.0000     -14.391282      -391.6067
  14   2.0000     -14.366337      -390.9279
  15   2.0000     -14.365187      -390.8966
  16   2.0000     -10.411021      -283.2983
  17   2.0000     -10.404419      -283.1186
  18   2.0000     -10.367701      -282.1195
  19   2.0000     -10.360391      -281.9206
  20   2.0000     -10.346233      -281.5353
  21   2.0000     -10.333677      -281.1937
  22   2.0000     -10.331091      -281.1233
  23   2.0000     -10.327432      -281.0237
  24   2.0000     -10.322911      -280.9007
  25   2.0000     -10.321129      -280.8522
  26   2.0000     -10.319315      -280.8028
  27   2.0000     -10.317920      -280.7649
  28   2.0000     -10.309581      -280.5379
  29   2.0000     -10.309426      -280.5338
  30   2.0000     -10.309366      -280.5321
  31   2.0000     -10.308986      -280.5218
  32   2.0000     -10.308551      -280.5099
  33   2.0000     -10.308357      -280.5046
  34   2.0000     -10.307544      -280.4825
  35   2.0000     -10.307436      -280.4796
  36   2.0000     -10.305704      -280.4325
  37   2.0000     -10.304934      -280.4115
  38   2.0000     -10.303636      -280.3762
  39   2.0000     -10.303095      -280.3615
  40   2.0000     -10.302151      -280.3358
  41   2.0000     -10.301856      -280.3278
  42   2.0000     -10.301464      -280.3171
  43   2.0000     -10.296422      -280.1799
  44   2.0000     -10.296315      -280.1770
  45   2.0000     -10.293242      -280.0933
  46   2.0000     -10.289179      -279.9828
  47   2.0000     -10.284578      -279.8576
  48   2.0000     -10.280623      -279.7500
  49   2.0000     -10.280014      -279.7334
  50   2.0000     -10.279972      -279.7323
  51   2.0000     -10.279288      -279.7137
  52   2.0000     -10.278062      -279.6803
  53   2.0000     -10.277291      -279.6593
  54   2.0000     -10.277057      -279.6529
  55   2.0000     -10.276960      -279.6503
  56   2.0000     -10.276317      -279.6328
  57   2.0000     -10.276290      -279.6321
  58   2.0000     -10.276141      -279.6280
  59   2.0000     -10.275419      -279.6084
  60   2.0000     -10.275003      -279.5970
  61   2.0000     -10.273940      -279.5681
  62   2.0000     -10.273800      -279.5643
  63   2.0000     -10.271684      -279.5067
  64   2.0000     -10.269419      -279.4451
  65   2.0000     -10.268801      -279.4283
  66   2.0000     -10.268714      -279.4259
  67   2.0000     -10.265635      -279.3421
  68   2.0000     -10.264407      -279.3087
  69   2.0000     -10.262004      -279.2433
  70   2.0000     -10.261562      -279.2313
  71   2.0000     -10.254916      -279.0504
  72   2.0000      -8.083561      -219.9649
  73   2.0000      -8.060808      -219.3457
  74   2.0000      -8.055886      -219.2118
  75   2.0000      -8.047837      -218.9928
  76   2.0000      -6.052925      -164.7085
  77   2.0000      -6.048486      -164.5877
  78   2.0000      -6.046102      -164.5228
  79   2.0000      -6.029978      -164.0840
  80   2.0000      -6.025584      -163.9645
  81   2.0000      -6.025583      -163.9644
  82   2.0000      -6.023456      -163.9066
  83   2.0000      -6.021088      -163.8421
  84   2.0000      -6.017585      -163.7468
  85   2.0000      -6.017469      -163.7437
  86   2.0000      -6.013490      -163.6354
  87   2.0000      -6.008842      -163.5089
  88   2.0000      -1.196653       -32.5626
  89   2.0000      -1.194581       -32.5062
  90   2.0000      -1.121506       -30.5177
  91   2.0000      -1.114261       -30.3206
  92   2.0000      -1.102490       -30.0003
  93   2.0000      -1.098687       -29.8968
  94   2.0000      -1.074635       -29.2423
  95   2.0000      -1.065572       -28.9957
  96   2.0000      -1.049257       -28.5517
  97   2.0000      -1.044798       -28.4304
  98   2.0000      -1.020867       -27.7792
  99   2.0000      -1.007365       -27.4118
 100   2.0000      -0.985822       -26.8256
 101   2.0000      -0.958726       -26.0883
 102   2.0000      -0.958592       -26.0846
 103   2.0000      -0.952642       -25.9227
 104   2.0000      -0.950245       -25.8575
 105   2.0000      -0.940144       -25.5826
 106   2.0000      -0.930412       -25.3178
 107   2.0000      -0.927112       -25.2280
 108   2.0000      -0.920062       -25.0362
 109   2.0000      -0.909708       -24.7544
 110   2.0000      -0.899526       -24.4773
 111   2.0000      -0.880251       -23.9528
 112   2.0000      -0.878869       -23.9152
 113   2.0000      -0.868118       -23.6227
 114   2.0000      -0.862923       -23.4813
 115   2.0000      -0.853951       -23.2372
 116   2.0000      -0.849408       -23.1136
 117   2.0000      -0.846958       -23.0469
 118   2.0000      -0.845738       -23.0137
 119   2.0000      -0.838996       -22.8303
 120   2.0000      -0.833883       -22.6911
 121   2.0000      -0.828079       -22.5332
 122   2.0000      -0.824042       -22.4233
 123   2.0000      -0.815792       -22.1988
 124   2.0000      -0.807383       -21.9700
 125   2.0000      -0.802560       -21.8388
 126   2.0000      -0.798071       -21.7166
 127   2.0000      -0.784147       -21.3377
 128   2.0000      -0.764714       -20.8089
 129   2.0000      -0.756972       -20.5983
 130   2.0000      -0.755577       -20.5603
 131   2.0000      -0.750218       -20.4145
 132   2.0000      -0.740097       -20.1391
 133   2.0000      -0.729291       -19.8450
 134   2.0000      -0.719905       -19.5896
 135   2.0000      -0.713449       -19.4139
 136   2.0000      -0.710019       -19.3206
 137   2.0000      -0.705562       -19.1993
 138   2.0000      -0.699725       -19.0405
 139   2.0000      -0.698832       -19.0162
 140   2.0000      -0.692739       -18.8504
 141   2.0000      -0.681640       -18.5484
 142   2.0000      -0.669401       -18.2153
 143   2.0000      -0.664312       -18.0768
 144   2.0000      -0.652855       -17.7651
 145   2.0000      -0.646797       -17.6002
 146   2.0000      -0.644374       -17.5343
 147   2.0000      -0.640720       -17.4349
 148   2.0000      -0.640283       -17.4230
 149   2.0000      -0.635630       -17.2964
 150   2.0000      -0.632420       -17.2090
 151   2.0000      -0.630143       -17.1471
 152   2.0000      -0.622845       -16.9485
 153   2.0000      -0.618047       -16.8179
 154   2.0000      -0.612123       -16.6567
 155   2.0000      -0.606734       -16.5101
 156   2.0000      -0.602414       -16.3925
 157   2.0000      -0.597242       -16.2518
 158   2.0000      -0.594081       -16.1658
 159   2.0000      -0.592043       -16.1103
 160   2.0000      -0.583974       -15.8907
 161   2.0000      -0.581318       -15.8185
 162   2.0000      -0.574753       -15.6398
 163   2.0000      -0.573686       -15.6108
 164   2.0000      -0.573247       -15.5988
 165   2.0000      -0.570984       -15.5373
 166   2.0000      -0.569904       -15.5079
 167   2.0000      -0.567518       -15.4429
 168   2.0000      -0.565179       -15.3793
 169   2.0000      -0.556497       -15.1430
 170   2.0000      -0.555711       -15.1217
 171   2.0000      -0.552287       -15.0285
 172   2.0000      -0.545990       -14.8571
 173   2.0000      -0.543496       -14.7893
 174   2.0000      -0.542188       -14.7537
 175   2.0000      -0.541590       -14.7374
 176   2.0000      -0.537145       -14.6165
 177   2.0000      -0.533624       -14.5207
 178   2.0000      -0.533037       -14.5047
 179   2.0000      -0.526571       -14.3287
 180   2.0000      -0.524542       -14.2735
 181   2.0000      -0.520994       -14.1770
 182   2.0000      -0.519334       -14.1318
 183   2.0000      -0.517135       -14.0720
 184   2.0000      -0.515874       -14.0376
 185   2.0000      -0.511964       -13.9312
 186   2.0000      -0.511379       -13.9153
 187   2.0000      -0.508578       -13.8391
 188   2.0000      -0.505801       -13.7635
 189   2.0000      -0.505020       -13.7423
 190   2.0000      -0.503262       -13.6945
 191   2.0000      -0.501212       -13.6387
 192   2.0000      -0.499702       -13.5976
 193   2.0000      -0.498389       -13.5619
 194   2.0000      -0.495983       -13.4964
 195   2.0000      -0.492234       -13.3944
 196   2.0000      -0.489912       -13.3312
 197   2.0000      -0.487897       -13.2764
 198   2.0000      -0.485040       -13.1986
 199   2.0000      -0.482511       -13.1298
 200   2.0000      -0.479843       -13.0572
 201   2.0000      -0.477145       -12.9838
 202   2.0000      -0.476326       -12.9615
 203   2.0000      -0.474686       -12.9169
 204   2.0000      -0.473793       -12.8926
 205   2.0000      -0.472507       -12.8576
 206   2.0000      -0.469306       -12.7705
 207   2.0000      -0.465040       -12.6544
 208   2.0000      -0.463379       -12.6092
 209   2.0000      -0.461218       -12.5504
 210   2.0000      -0.457558       -12.4508
 211   2.0000      -0.455316       -12.3898
 212   2.0000      -0.454648       -12.3716
 213   2.0000      -0.450695       -12.2640
 214   2.0000      -0.447516       -12.1775
 215   2.0000      -0.445360       -12.1189
 216   2.0000      -0.442040       -12.0285
 217   2.0000      -0.441071       -12.0021
 218   2.0000      -0.436935       -11.8896
 219   2.0000      -0.434844       -11.8327
 220   2.0000      -0.431086       -11.7305
 221   2.0000      -0.430553       -11.7159
 222   2.0000      -0.426737       -11.6121
 223   2.0000      -0.425808       -11.5868
 224   2.0000      -0.423969       -11.5368
 225   2.0000      -0.420728       -11.4486
 226   2.0000      -0.420293       -11.4368
 227   2.0000      -0.413023       -11.2389
 228   2.0000      -0.409446       -11.1416
 229   2.0000      -0.408095       -11.1048
 230   2.0000      -0.398809       -10.8521
 231   2.0000      -0.393419       -10.7055
 232   2.0000      -0.390718       -10.6320
 233   2.0000      -0.387392       -10.5415
 234   2.0000      -0.382753       -10.4153
 235   2.0000      -0.379555       -10.3282
 236   2.0000      -0.378126       -10.2893
 237   2.0000      -0.376112       -10.2345
 238   2.0000      -0.364321        -9.9137
 239   2.0000      -0.361756        -9.8439
 240   2.0000      -0.359092        -9.7714
 241   2.0000      -0.358698        -9.7607
 242   2.0000      -0.350695        -9.5429
 243   2.0000      -0.349002        -9.4968
 244   2.0000      -0.343826        -9.3560
 245   2.0000      -0.340765        -9.2727
 246   2.0000      -0.336276        -9.1505
 247   2.0000      -0.328302        -8.9335
 248   2.0000      -0.325253        -8.8506
 249   2.0000      -0.325103        -8.8465
 250   2.0000      -0.321357        -8.7446
 251   2.0000      -0.320458        -8.7201
 252   2.0000      -0.318332        -8.6622
 253   2.0000      -0.317214        -8.6318
 254   2.0000      -0.309117        -8.4115
 255   2.0000      -0.307234        -8.3603
 256   2.0000      -0.300641        -8.1809
 257   2.0000      -0.292017        -7.9462
 258   2.0000      -0.279959        -7.6181
 259   2.0000      -0.279325        -7.6008
 260   2.0000      -0.265486        -7.2242
 261   2.0000      -0.247112        -6.7243
 262   2.0000      -0.218738        -5.9522
 263   0.0000      -0.108671        -2.9571
 264   0.0000      -0.103901        -2.8273
 265   0.0000      -0.073107        -1.9893
 266   0.0000      -0.058461        -1.5908
 267   0.0000      -0.045354        -1.2341

MULLIKEN ATOMIC CHARGES
-----------------------
   0 C :   -0.087362
   1 S :    0.152786
   2 C :   -0.193329
   3 C :   -0.005539
   4 C :    0.135015
   5 C :    0.006777
   6 C :   -0.131767
   7 C :    0.199408
   8 O :   -0.197713
   9 O :   -0.302043
  10 C :    0.187027
  11 S :    0.252714
  12 C :    0.051592
  13 N :   -0.087623
  14 C :    0.082138
  15 C :   -0.186243
  16 C :    0.233264
  17 O :   -0.168069
  18 C :   -0.017180
  19 C :   -0.056418
  20 N :   -0.058247
  21 C :    0.080146
  22 C :   -0.100852
  23 C :    0.064733
  24 C :   -0.030376
  25 C :    0.006505
  26 C :    0.109507
  27 C :   -0.083860
  28 C :    0.055727
  29 C :    0.043732
  30 C :   -0.088665
  31 C :    0.152698
  32 N :   -0.219226
  33 C :    0.143077
  34 N :   -0.221030
  35 C :    0.070090
  36 C :   -0.113229
  37 C :    0.142302
  38 C :   -0.038872
  39 C :    0.024351
  40 C :    0.005792
  41 C :    0.049415
  42 C :   -0.004668
  43 C :   -0.002399
  44 C :   -0.022175
  45 C :   -0.019251
  46 C :    0.039951
  47 N :   -0.046140
  48 C :    0.068036
  49 C :   -0.169747
  50 C :    0.215386
  51 O :   -0.154858
  52 C :   -0.005626
  53 C :   -0.051286
  54 N :   -0.057137
  55 C :    0.082495
  56 C :   -0.102854
  57 C :    0.050148
  58 C :   -0.050643
  59 C :    0.085160
  60 C :   -0.151867
  61 S :    0.169683
  62 C :   -0.149206
  63 C :   -0.008691
  64 C :    0.132098
  65 C :    0.006506
  66 C :   -0.133658
  67 C :    0.223887
  68 O :   -0.223820
  69 O :   -0.297121
  70 C :    0.162465
  71 S :    0.162337
  72 H :    0.038905
  73 H :    0.003454
  74 H :    0.041806
  75 H :    0.035692
  76 H :    0.034977
  77 H :    0.000598
  78 H :   -0.016799
  79 H :   -0.035252
  80 H :   -0.006900
  81 H :   -0.024926
  82 H :   -0.005754
  83 H :   -0.000521
  84 H :   -0.028253
  85 H :    0.086390
  86 H :    0.088429
  87 H :   -0.014476
  88 H :   -0.023519
  89 H :    0.097025
  90 H :    0.084683
  91 H :    0.004811
  92 H :    0.021802
  93 H :   -0.002781
  94 H :   -0.033088
  95 H :   -0.040114
  96 H :   -0.034008
  97 H :    0.040640
  98 H :    0.008281
  99 H :    0.000608
 100 H :   -0.012042
 101 H :   -0.041792
 102 H :   -0.003258
 103 H :    0.026139
 104 H :   -0.015151
 105 H :    0.052495
 106 H :    0.030219
 107 H :    0.033525
Sum of atomic charges:   -0.0000000

LOEWDIN ATOMIC CHARGES
----------------------
   0 C :   -0.144110
   1 S :    0.487545
   2 C :   -0.228469
   3 C :   -0.149264
   4 C :   -0.084097
   5 C :   -0.008318
   6 C :   -0.202082
   7 C :    0.065596
   8 O :   -0.174877
   9 O :   -0.093729
  10 C :    0.083746
  11 S :    0.499849
  12 C :    0.061472
  13 N :   -0.129781
  14 C :    0.056111
  15 C :   -0.064018
  16 C :    0.080083
  17 O :   -0.160541
  18 C :   -0.048501
  19 C :    0.000669
  20 N :   -0.098123
  21 C :    0.055403
  22 C :   -0.043876
  23 C :   -0.014393
  24 C :   -0.068790
  25 C :    0.037355
  26 C :   -0.039919
  27 C :    0.024008
  28 C :   -0.020446
  29 C :    0.008083
  30 C :   -0.041686
  31 C :    0.026593
  32 N :   -0.121370
  33 C :    0.028569
  34 N :   -0.119436
  35 C :   -0.016870
  36 C :    0.070367
  37 C :   -0.030879
  38 C :   -0.029244
  39 C :   -0.012176
  40 C :   -0.046824
  41 C :   -0.019033
  42 C :   -0.011533
  43 C :   -0.018740
  44 C :    0.091834
  45 C :   -0.065360
  46 C :    0.077986
  47 N :   -0.114943
  48 C :    0.051203
  49 C :   -0.058816
  50 C :    0.068457
  51 O :   -0.153401
  52 C :   -0.043498
  53 C :    0.006618
  54 N :   -0.100494
  55 C :    0.060452
  56 C :   -0.043084
  57 C :   -0.022161
  58 C :   -0.046915
  59 C :   -0.002418
  60 C :   -0.173561
  61 S :    0.489180
  62 C :   -0.209242
  63 C :   -0.189092
  64 C :   -0.072290
  65 C :   -0.010364
  66 C :   -0.198441
  67 C :    0.079976
  68 O :   -0.188656
  69 O :   -0.083219
  70 C :    0.075758
  71 S :    0.413469
  72 H :    0.033841
  73 H :    0.041014
  74 H :    0.029217
  75 H :    0.024828
  76 H :    0.024837
  77 H :    0.019883
  78 H :    0.029528
  79 H :    0.006856
  80 H :    0.032436
  81 H :    0.029765
  82 H :    0.027052
  83 H :    0.002256
  84 H :    0.007904
  85 H :    0.050420
  86 H :    0.053520
  87 H :   -0.005867
  88 H :    0.009213
  89 H :    0.046551
  90 H :    0.052666
  91 H :    0.030505
  92 H :    0.049222
  93 H :    0.027678
  94 H :    0.031150
  95 H :    0.026543
  96 H :    0.023377
  97 H :    0.040890
  98 H :    0.031409
  99 H :    0.020006
 100 H :    0.031407
 101 H :    0.024143
 102 H :    0.032523
 103 H :    0.027768
 104 H :    0.034992
 105 H :    0.024188
 106 H :    0.024755
 107 H :    0.020219

  Mayer bond orders larger than 0.100000
B(  0-C ,  1-S ) :   1.2186 B(  0-C ,  4-C ) :   1.4228 B(  0-C , 72-H ) :   0.9680
B(  1-S ,  2-C ) :   1.1068 B(  2-C ,  3-C ) :   1.4363 B(  2-C , 12-C ) :   1.1983
B(  3-C ,  4-C ) :   1.2354 B(  3-C , 11-S ) :   1.1311 B(  4-C ,  5-C ) :   1.0935
B(  5-C ,  6-C ) :   1.6532 B(  5-C , 73-H ) :   1.0132 B(  6-C ,  7-C ) :   0.9560
B(  6-C , 11-S ) :   1.0141 B(  7-C ,  8-O ) :   2.1464 B(  7-C ,  9-O ) :   1.2416
B(  9-O , 10-C ) :   0.9181 B( 10-C , 74-H ) :   0.9813 B( 10-C , 75-H ) :   0.9763
B( 10-C , 76-H ) :   0.9772 B( 12-C , 13-N ) :   1.5354 B( 12-C , 14-C ) :   0.1168
B( 12-C , 23-C ) :   1.0170 B( 13-N , 14-C ) :   1.3917 B( 14-C , 15-C ) :   1.0626
B( 14-C , 19-C ) :   1.3852 B( 15-C , 16-C ) :   0.9216 B( 15-C , 23-C ) :   1.5180
B( 16-C , 17-O ) :   2.0560 B( 16-C , 18-C ) :   0.9489 B( 17-O , 80-H ) :   0.1046
B( 18-C , 19-C ) :   1.0861 B( 18-C , 22-C ) :   1.5658 B( 19-C , 20-N ) :   1.3334
B( 20-N , 21-C ) :   1.6340 B( 21-C , 22-C ) :   1.0982 B( 21-C , 77-H ) :   0.9901
B( 22-C , 78-H ) :   1.0111 B( 23-C , 24-C ) :   1.1391 B( 24-C , 25-C ) :   1.6273
B( 24-C , 79-H ) :   0.9491 B( 25-C , 26-C ) :   1.0875 B( 25-C , 80-H ) :   0.9742
B( 26-C , 27-C ) :   1.4737 B( 26-C , 43-C ) :   1.1176 B( 27-C , 28-C ) :   1.1300
B( 27-C , 81-H ) :   1.0035 B( 28-C , 29-C ) :   1.4819 B( 28-C , 41-C ) :   1.1191
B( 29-C , 30-C ) :   1.0062 B( 29-C , 35-C ) :   1.0903 B( 30-C , 31-C ) :   1.0379
B( 30-C , 33-C ) :   1.0364 B( 30-C , 82-H ) :   0.8953 B( 31-C , 32-N ) :   1.0806
B( 31-C , 83-H ) :   0.9358 B( 31-C , 84-H ) :   0.9317 B( 32-N , 85-H ) :   0.9710
B( 32-N , 86-H ) :   0.9695 B( 33-C , 34-N ) :   1.0913 B( 33-C , 87-H ) :   0.9453
B( 33-C , 88-H ) :   0.9208 B( 34-N , 89-H ) :   0.9654 B( 34-N , 90-H ) :   0.9648
B( 35-C , 36-C ) :   1.6542 B( 35-C , 40-C ) :   1.0360 B( 36-C , 37-C ) :   0.9936
B( 36-C , 91-H ) :   0.9773 B( 37-C , 38-C ) :   0.9750 B( 37-C , 44-C ) :   0.9441
B( 37-C , 92-H ) :   0.8894 B( 38-C , 39-C ) :   1.6980 B( 38-C , 93-H ) :   0.9632
B( 39-C , 40-C ) :   1.1594 B( 39-C , 94-H ) :   0.9853 B( 40-C , 41-C ) :   1.4269
B( 41-C , 42-C ) :   1.1404 B( 42-C , 43-C ) :   1.6212 B( 42-C , 95-H ) :   0.9888
B( 43-C , 96-H ) :   0.9812 B( 44-C , 45-C ) :   1.7276 B( 44-C , 97-H ) :   0.9652
B( 45-C , 46-C ) :   1.1540 B( 45-C , 98-H ) :   0.9479 B( 46-C , 47-N ) :   1.5832
B( 46-C , 48-C ) :   0.1126 B( 46-C , 57-C ) :   0.9932 B( 47-N , 48-C ) :   1.3677
B( 48-C , 49-C ) :   1.0576 B( 48-C , 53-C ) :   1.3962 B( 49-C , 50-C ) :   0.9043
B( 49-C , 57-C ) :   1.5323 B( 50-C , 51-O ) :   2.1603 B( 50-C , 52-C ) :   0.9405
B( 51-O ,102-H ) :   0.1162 B( 52-C , 53-C ) :   1.0832 B( 52-C , 56-C ) :   1.5789
B( 53-C , 54-N ) :   1.3265 B( 54-N , 55-C ) :   1.6415 B( 55-C , 56-C ) :   1.0890
B( 55-C , 99-H ) :   0.9898 B( 56-C ,100-H ) :   1.0110 B( 57-C , 58-C ) :   1.1507
B( 58-C , 59-C ) :   1.6454 B( 58-C ,101-H ) :   0.9651 B( 59-C , 60-C ) :   1.1539
B( 59-C ,102-H ) :   0.9240 B( 60-C , 61-S ) :   1.1705 B( 60-C , 64-C ) :   1.3516
B( 61-S , 62-C ) :   1.1821 B( 62-C , 63-C ) :   1.5186 B( 62-C ,103-H ) :   0.9763
B( 63-C , 64-C ) :   1.2350 B( 63-C , 71-S ) :   1.0241 B( 64-C , 65-C ) :   1.1555
B( 65-C , 66-C ) :   1.6096 B( 65-C ,104-H ) :   1.0051 B( 66-C , 67-C ) :   0.9653
B( 66-C , 71-S ) :   1.0735 B( 67-C , 68-O ) :   2.0096 B( 67-C , 69-O ) :   1.2779
B( 69-O , 70-C ) :   0.8898 B( 70-C ,105-H ) :   0.9629 B( 70-C ,106-H ) :   0.9771
B( 70-C ,107-H ) :   0.9614

-----------------------------------------------------------------------------
         ABSORPTION SPECTRUM VIA TRANSITION ELECTRIC DIPOLE MOMENTS
-----------------------------------------------------------------------------
State   Energy  Wavelength   fosc         T2         TX        TY        TZ
        (cm-1)    (nm)                  (au**2)     (au)      (au)      (au)
-----------------------------------------------------------------------------
   0   10602.0    943.2   0.245778817   7.63188   2.73531   0.38272  -0.05897
   1   11532.6    867.1   0.047111136   1.34485  -0.60694   0.85042  -0.50326
   2   13637.5    733.3   0.057825498   1.39592   0.53382   0.70515   0.78340
   3   14957.5    668.6   0.219148116   4.82342  -1.88061  -1.11455  -0.21093
   4   18616.2    537.2   0.024938884   0.44102   0.09226   0.49226   0.43610
   5   19816.6    504.6   0.101811775   1.69139  -1.19543   0.28427   0.42607
   6   20081.5    498.0   0.002915497   0.04780   0.06464  -0.02597  -0.20723
   7   20177.1    495.6   0.569586222   9.29344  -0.58132   1.26510   2.71202
   8   22208.7    450.3   0.002731955   0.04050  -0.19409  -0.00542   0.05288
   9   22733.8    439.9   0.378107541   5.47544   1.67063   1.55418   0.51860
  10   23032.0    434.2   0.000943316   0.01348   0.09165  -0.01812   0.06895
  11   23561.4    424.4   0.819111943  11.44504  -2.58838  -2.13658  -0.42463
  12   23775.8    420.6   0.001870891   0.02591  -0.10962  -0.08432  -0.08234
  13   23851.9    419.3   0.224235028   3.09497   1.69777  -0.44721   0.11196
  14   24335.0    410.9   0.005029975   0.06805   0.07851   0.24850  -0.01140
  15   24659.6    405.5   0.020605380   0.27509  -0.49103  -0.14752  -0.11050
  16   25318.5    395.0   0.509587125   6.62606   2.29620   1.10629  -0.36010
  17   25575.0    391.0   0.065903690   0.84834  -0.84301  -0.08201   0.36186
  18   25688.8    389.3   0.020870806   0.26747  -0.36856  -0.32466   0.16196
  19   26063.7    383.7   0.024230348   0.30605  -0.22986   0.42720  -0.26593
  20   26117.0    382.9   0.086228995   1.08694  -0.47725   0.75181  -0.54217
  21   26523.4    377.0   0.000009000   0.00011   0.00586  -0.00752  -0.00456
  22   27566.2    362.8   0.190425439   2.27417   1.30929   0.58279  -0.46934
  23   27709.4    360.9   0.004589365   0.05453  -0.05618   0.08395  -0.21053
  24   27740.3    360.5   0.048704914   0.57801  -0.67967   0.00110  -0.34068
  25   27902.2    358.4   0.002625344   0.03098   0.10731  -0.03648  -0.13465
  26   28160.7    355.1   0.006138307   0.07176  -0.13889   0.08034   0.21451
  27   28508.4    350.8   0.040459511   0.46722  -0.65706  -0.18699  -0.02305
  28   28786.0    347.4   0.004359654   0.04986  -0.19319  -0.11195  -0.00139
  29   29004.6    344.8   0.002654893   0.03013  -0.10980   0.10871  -0.07912
  30   29535.3    338.6   0.071551656   0.79754  -0.75531  -0.21254   0.42647
  31   29712.5    336.6   0.115216502   1.27659   0.73011   0.79172   0.34164
  32   29909.8    334.3   0.006669741   0.07341   0.20013   0.18196  -0.01579
  33   30075.3    332.5   0.042770568   0.46818   0.10209   0.51882   0.43426
  34   30332.8    329.7   0.033305273   0.36147  -0.38030  -0.46446   0.03354
  35   30512.3    327.7   0.098400363   1.06169  -0.94722  -0.33949  -0.22186
  36   30591.5    326.9   0.060176863   0.64760   0.67017  -0.05807   0.44170
  37   31266.3    319.8   0.030436214   0.32047  -0.16054  -0.54115  -0.04310
  38   31394.6    318.5   0.026590586   0.27884  -0.44384  -0.28501   0.02477
  39   31637.1    316.1   0.054590636   0.56806  -0.47861  -0.58084   0.04036
  40   32031.1    312.2   0.000448158   0.00461  -0.02561   0.05266   0.03431
  41   32262.3    310.0   0.046951558   0.47910   0.48184   0.48088   0.12526
  42   32443.7    308.2   0.002669380   0.02709  -0.07128  -0.12779  -0.07534
  43   32650.0    306.3   0.013921569   0.14037  -0.03564   0.34476   0.14227
  44   32778.6    305.1   0.016127673   0.16198   0.09039   0.36376   0.14658
  45   32882.5    304.1   0.039598479   0.39645  -0.13701  -0.60947  -0.07892
  46   33157.6    301.6   0.006878268   0.06829   0.06629   0.09142  -0.23567
  47   33271.1    300.6   0.125899962   1.24576   0.19117   0.74069   0.81276
  48   33558.5    298.0   0.004280987   0.04200  -0.18147   0.05273  -0.07928
  49   33892.6    295.0   0.061709289   0.59941  -0.15341  -0.71800  -0.24566
  50   34192.9    292.5   0.051482404   0.49568  -0.10612  -0.28695   0.63410
  51   34732.3    287.9   0.290064599   2.74940  -1.56169  -0.55650   0.02866
  52   34972.6    285.9   0.178034102   1.67591   0.89801  -0.92195   0.13966
  53   35171.4    284.3   0.023564927   0.22057  -0.35482   0.26864   0.15003
  54   35253.5    283.7   0.089160012   0.83261   0.73523  -0.25931   0.47414
  55   35919.8    278.4   0.106607707   0.97708  -0.00029   0.30302   0.94088
  56   36357.2    275.0   0.156969124   1.42134   0.59400  -0.20639  -1.01287
  57   36701.6    272.5   0.125908058   1.12939  -0.85224  -0.57078  -0.27801
  58   36876.7    271.2   0.002312597   0.02065  -0.09549   0.07606   0.07577
  59   37079.7    269.7   0.039118068   0.34731   0.54020   0.12747   0.19811
  60   37330.2    267.9   0.009698321   0.08553  -0.24612  -0.10670  -0.11648
  61   37395.6    267.4   0.001329117   0.01170   0.00684  -0.01784   0.10647
  62   37440.3    267.1   0.017829876   0.15678  -0.28691   0.25907   0.08570
  63   38069.7    262.7   0.068745878   0.59449   0.16889  -0.45242   0.60107
  64   38129.3    262.3   0.010124110   0.08741  -0.02856  -0.28140   0.08609
  65   38324.7    260.9   0.062843696   0.53983   0.24316  -0.55268   0.41863
  66   38341.2    260.8   0.051170027   0.43937   0.16374  -0.35790   0.53335
  67   38363.8    260.7   0.097257571   0.83460  -0.39954   0.48546  -0.66279
  68   38669.6    258.6   0.018875112   0.16069   0.31207  -0.25110   0.01592
  69   38913.9    257.0   0.001021457   0.00864  -0.06946  -0.02657   0.05577
  70   39039.0    256.2   0.200293680   1.68905   1.11130   0.11212  -0.66445
  71   39293.7    254.5   0.046209219   0.38715   0.15323   0.04610  -0.60129
  72   39427.4    253.6   0.003219490   0.02688  -0.05100  -0.11978  -0.09967
  73   39462.9    253.4   0.025941336   0.21641   0.25695   0.26859  -0.27973
  74   39684.3    252.0   0.087831299   0.72863   0.50684   0.63432   0.26339
  75   39947.0    250.3   0.000027696   0.00023   0.00932   0.00513   0.01073
  76   40075.4    249.5   0.004156046   0.03414  -0.16696   0.04133   0.06750
  77   40120.6    249.2   0.106437523   0.87338  -0.65094  -0.09111   0.66435
  78   40171.0    248.9   0.016669667   0.13661   0.17913  -0.27687   0.16694

FINAL SINGLE POINT ENERGY     -4523.890822278391

DIPOLE MOMENT
-------------
                                X             Y             Z
Electronic contribution:     -6.63421     -22.16280      40.53112
Nuclear contribution   :      5.64513      22.28845     -40.40500
                        -----------------------------------------
Total Dipole Moment    :     -0.98909       0.12564       0.12611
                        -----------------------------------------
Magnitude (a.u.)       :      1.00498
Magnitude (Debye)      :      2.55445

Rotational constants in cm-1:     0.001415     0.000367     0.000361
Rotational constants in MHz :    42.422586    10.987445    10.830579

                             ****ORCA TERMINATED NORMALLY****
TOTAL RUN TIME: 0 days 0 hours 12 minutes 41 seconds 32 msec
