                         Program Version 4.2.0 -  RELEASE  -
|  1> # ORCA input file
|  2> # SCF done       -175.982719113921          0.000770812708
|  3> ! CAM-B3LYP def2-SVP def2/J RIJCOSX Grid4 TightSCF
|  4> %maxcore 5000
|  5> %tddft
|  6>     Mode sTDDFT
|  7>     Ethresh 5.0
|  8>     maxcore 5000
|  9> end
| 10>
| 11> %pal
| 12>   nprocs 6
| 13>   end
| 14> * xyz 0 1
| 15>    C       11.03310        -9.09204        11.67140
| 16>    S        9.50992        -9.78659        12.02898
| 17>    C        8.70045        -8.73273        10.90168
| 18>    C        9.61395        -7.88838        10.29023
| 19>    C       10.93839        -8.10187        10.73681
| 20>    S       12.38916        -7.24457        10.22302
| 21>    C       11.94709        -6.03760         9.01386
| 22>    O       12.83528        -5.36438         8.56819
| 23>    C       10.53245        -5.81557         8.52134
| 24>    O       10.32914        -4.97813         7.68492
| 25>    S        9.11613        -6.70394         9.09309
| 26>    C        7.29316        -8.83616        10.74056
| 27>    S        6.38770        -7.82374         9.65086
| 28>    C        4.89619        -8.59985        10.10311
| 29>    C        5.11728        -9.58407        11.04450
| 30>    C        6.45657        -9.71549        11.39960
| 31>    C        3.66666        -8.19779         9.52236
| 32>    C        3.45590        -7.22888         8.56404
| 33>    C        2.11782        -7.08051         8.20766
| 34>    C        1.26944        -7.93276         8.88788
| 35>    S        2.16147        -8.93945         9.99182
| 36>    C       -0.14040        -8.04088         8.76141
| 37>    S       -1.06483        -9.14293         9.73957
| 38>    C       -2.55545        -8.66187         8.97544
| 39>    C       -2.31188        -7.69302         8.01935
| 40>    C       -0.96934        -7.34621         7.90117
| 41>    C       -3.77376        -9.26964         9.37754
| 42>    C       -4.98115        -9.03582         8.80755
| 43>    C       -6.20097        -9.64316         9.20171
| 44>    N       -7.36847        -9.38753         8.50709
| 45>    C       -8.37868       -10.09407         9.07746
| 46>    C       -9.73761       -10.38230         8.99395
| 47>    C      -10.01095       -11.26916        10.04098
| 48>    N       -8.84705       -11.51253        10.74594
| 49>    C       -7.83494       -10.81061        10.17224
| 50>    C       -6.47374       -10.53048        10.24870
| 51>    C      -11.23090       -11.88442        10.42349
| 52>    C      -12.40620       -11.75069         9.76186
| 53>    C      -13.63157       -12.35843        10.14150
| 54>    S      -15.03918       -12.13310         9.13928
| 55>    C      -16.02071       -13.10068        10.20010
| 56>    C      -15.27204       -13.55985        11.26683
| 57>    C      -13.94267       -13.14810        11.23298
| 58>    C      -17.39510       -13.33319         9.93020
| 59>    C      -18.30778       -14.03014        10.69841
| 60>    C      -19.58524       -14.06908        10.14488
| 61>    C      -19.68349       -13.40579         8.93763
| 62>    S      -18.14809       -12.71887         8.48860
| 63>    C      -20.82874       -13.25344         8.11231
| 64>    S      -20.74403       -12.42447         6.58998
| 65>    C      -22.44190       -12.68544         6.29123
| 66>    C      -23.01322       -13.38384         7.33926
| 67>    C      -22.11568       -13.70181         8.35300
| 68>    C      -23.02257       -12.19395         5.09483
| 69>    C      -24.32944       -12.29876         4.75875
| 70>    C      -24.88045       -11.79664         3.55105
| 71>    S      -23.92195       -11.00860         2.33089
| 72>    C      -25.29281       -10.76260         1.33434
| 73>    C      -26.43583       -11.25568         1.89762
| 74>    C      -26.20975       -11.84601         3.15880
| 75>    S      -27.42162       -12.58890         4.19215
| 76>    C      -29.00314       -12.43830         3.42705
| 77>    O      -29.93828       -12.88982         4.03176
| 78>    C      -29.24588       -11.79503         2.07509
| 79>    O      -30.36703       -11.74569         1.64873
| 80>    S      -27.97594       -11.11502         1.05407
| 81>    H       11.91985        -9.43917        12.16013
| 82>    H        4.32164       -10.18156        11.45242
| 83>    H        6.82261       -10.42850        12.11724
| 84>    H        4.26080        -6.65273         8.14256
| 85>    H        1.77263        -6.37191         7.47753
| 86>    H       -3.08844        -7.24533         7.42622
| 87>    H       -0.60433        -6.61104         7.20701
| 88>    H       -3.70294        -9.97509        10.19258
| 89>    H       -5.04669        -8.34391         7.97798
| 90>    H       -7.43348        -8.78481         7.70523
| 91>    H      -10.44808       -10.00940         8.28491
| 92>    H       -8.78020       -12.12467        11.54046
| 93>    H       -5.76250       -10.90239        10.95755
| 94>    H      -11.19024       -12.50569        11.30864
| 95>    H      -12.44041       -11.14379         8.86881
| 96>    H      -15.68333       -14.17828        12.04406
| 97>    H      -13.22526       -13.41520        11.98755
| 98>    H      -18.05199       -14.49264        11.63409
| 99>    H      -20.41715       -14.56781        10.60781
|100>    H      -24.05284       -13.65569         7.36366
|101>    H      -22.38811       -14.24078         9.24206
|102>    H      -22.34985       -11.69419         4.40863
|103>    H      -25.03163       -12.78344         5.42194
|104>    H      -25.19762       -10.27125         0.38815
|105> *
|106>
|107>                          ****END OF INPUT****

CARTESIAN COORDINATES (ANGSTROEM)
---------------------------------
  C     11.033100   -9.092040   11.671400
  S      9.509920   -9.786590   12.028980
  C      8.700450   -8.732730   10.901680
  C      9.613950   -7.888380   10.290230
  C     10.938390   -8.101870   10.736810
  S     12.389160   -7.244570   10.223020
  C     11.947090   -6.037600    9.013860
  O     12.835280   -5.364380    8.568190
  C     10.532450   -5.815570    8.521340
  O     10.329140   -4.978130    7.684920
  S      9.116130   -6.703940    9.093090
  C      7.293160   -8.836160   10.740560
  S      6.387700   -7.823740    9.650860
  C      4.896190   -8.599850   10.103110
  C      5.117280   -9.584070   11.044500
  C      6.456570   -9.715490   11.399600
  C      3.666660   -8.197790    9.522360
  C      3.455900   -7.228880    8.564040
  C      2.117820   -7.080510    8.207660
  C      1.269440   -7.932760    8.887880
  S      2.161470   -8.939450    9.991820
  C     -0.140400   -8.040880    8.761410
  S     -1.064830   -9.142930    9.739570
  C     -2.555450   -8.661870    8.975440
  C     -2.311880   -7.693020    8.019350
  C     -0.969340   -7.346210    7.901170
  C     -3.773760   -9.269640    9.377540
  C     -4.981150   -9.035820    8.807550
  C     -6.200970   -9.643160    9.201710
  N     -7.368470   -9.387530    8.507090
  C     -8.378680  -10.094070    9.077460
  C     -9.737610  -10.382300    8.993950
  C    -10.010950  -11.269160   10.040980
  N     -8.847050  -11.512530   10.745940
  C     -7.834940  -10.810610   10.172240
  C     -6.473740  -10.530480   10.248700
  C    -11.230900  -11.884420   10.423490
  C    -12.406200  -11.750690    9.761860
  C    -13.631570  -12.358430   10.141500
  S    -15.039180  -12.133100    9.139280
  C    -16.020710  -13.100680   10.200100
  C    -15.272040  -13.559850   11.266830
  C    -13.942670  -13.148100   11.232980
  C    -17.395100  -13.333190    9.930200
  C    -18.307780  -14.030140   10.698410
  C    -19.585240  -14.069080   10.144880
  C    -19.683490  -13.405790    8.937630
  S    -18.148090  -12.718870    8.488600
  C    -20.828740  -13.253440    8.112310
  S    -20.744030  -12.424470    6.589980
  C    -22.441900  -12.685440    6.291230
  C    -23.013220  -13.383840    7.339260
  C    -22.115680  -13.701810    8.353000
  C    -23.022570  -12.193950    5.094830
  C    -24.329440  -12.298760    4.758750
  C    -24.880450  -11.796640    3.551050
  S    -23.921950  -11.008600    2.330890
  C    -25.292810  -10.762600    1.334340
  C    -26.435830  -11.255680    1.897620
  C    -26.209750  -11.846010    3.158800
  S    -27.421620  -12.588900    4.192150
  C    -29.003140  -12.438300    3.427050
  O    -29.938280  -12.889820    4.031760
  C    -29.245880  -11.795030    2.075090
  O    -30.367030  -11.745690    1.648730
  S    -27.975940  -11.115020    1.054070
  H     11.919850   -9.439170   12.160130
  H      4.321640  -10.181560   11.452420
  H      6.822610  -10.428500   12.117240
  H      4.260800   -6.652730    8.142560
  H      1.772630   -6.371910    7.477530
  H     -3.088440   -7.245330    7.426220
  H     -0.604330   -6.611040    7.207010
  H     -3.702940   -9.975090   10.192580
  H     -5.046690   -8.343910    7.977980
  H     -7.433480   -8.784810    7.705230
  H    -10.448080  -10.009400    8.284910
  H     -8.780200  -12.124670   11.540460
  H     -5.762500  -10.902390   10.957550
  H    -11.190240  -12.505690   11.308640
  H    -12.440410  -11.143790    8.868810
  H    -15.683330  -14.178280   12.044060
  H    -13.225260  -13.415200   11.987550
  H    -18.051990  -14.492640   11.634090
  H    -20.417150  -14.567810   10.607810
  H    -24.052840  -13.655690    7.363660
  H    -22.388110  -14.240780    9.242060
  H    -22.349850  -11.694190    4.408630
  H    -25.031630  -12.783440    5.421940
  H    -25.197620  -10.271250    0.388150

 Total Charge           Charge          ....    0
 Multiplicity           Mult            ....    1
 Number of Electrons    NEL             ....  550
 Basis Dimension        Dim             .... 1092

ORBITAL ENERGIES
----------------

  NO   OCC          E(Eh)            E(eV)
   0   2.0000     -88.975965     -2421.1591
   1   2.0000     -88.973062     -2421.0801
   2   2.0000     -88.967745     -2420.9354
   3   2.0000     -88.965960     -2420.8868
   4   2.0000     -88.965667     -2420.8789
   5   2.0000     -88.964045     -2420.8347
   6   2.0000     -88.963836     -2420.8291
   7   2.0000     -88.958764     -2420.6910
   8   2.0000     -88.957130     -2420.6466
   9   2.0000     -88.957069     -2420.6449
  10   2.0000     -88.952335     -2420.5161
  11   2.0000     -88.952086     -2420.5093
  12   2.0000     -19.237895      -523.4897
  13   2.0000     -19.236208      -523.4438
  14   2.0000     -19.235312      -523.4195
  15   2.0000     -19.234610      -523.4003
  16   2.0000     -14.452836      -393.2817
  17   2.0000     -14.452702      -393.2780
  18   2.0000     -10.402823      -283.0752
  19   2.0000     -10.402068      -283.0547
  20   2.0000     -10.401240      -283.0321
  21   2.0000     -10.400549      -283.0133
  22   2.0000     -10.329005      -281.0665
  23   2.0000     -10.327467      -281.0247
  24   2.0000     -10.326447      -280.9969
  25   2.0000     -10.325407      -280.9686
  26   2.0000     -10.323153      -280.9073
  27   2.0000     -10.320659      -280.8394
  28   2.0000     -10.313772      -280.6520
  29   2.0000     -10.313355      -280.6406
  30   2.0000     -10.312270      -280.6111
  31   2.0000     -10.310785      -280.5707
  32   2.0000     -10.310514      -280.5634
  33   2.0000     -10.307175      -280.4725
  34   2.0000     -10.306977      -280.4671
  35   2.0000     -10.305562      -280.4286
  36   2.0000     -10.304991      -280.4131
  37   2.0000     -10.303264      -280.3661
  38   2.0000     -10.301993      -280.3315
  39   2.0000     -10.301736      -280.3245
  40   2.0000     -10.300041      -280.2784
  41   2.0000     -10.299958      -280.2761
  42   2.0000     -10.298557      -280.2380
  43   2.0000     -10.298543      -280.2376
  44   2.0000     -10.295077      -280.1433
  45   2.0000     -10.290542      -280.0199
  46   2.0000     -10.286921      -279.9213
  47   2.0000     -10.286454      -279.9086
  48   2.0000     -10.282676      -279.8058
  49   2.0000     -10.279693      -279.7247
  50   2.0000     -10.279627      -279.7229
  51   2.0000     -10.278273      -279.6860
  52   2.0000     -10.278048      -279.6799
  53   2.0000     -10.276515      -279.6382
  54   2.0000     -10.276129      -279.6277
  55   2.0000     -10.275981      -279.6237
  56   2.0000     -10.275968      -279.6233
  57   2.0000     -10.275718      -279.6165
  58   2.0000     -10.273509      -279.5564
  59   2.0000     -10.273101      -279.5453
  60   2.0000     -10.272889      -279.5395
  61   2.0000     -10.272723      -279.5350
  62   2.0000     -10.269035      -279.4347
  63   2.0000     -10.268686      -279.4252
  64   2.0000     -10.258083      -279.1366
  65   2.0000     -10.257877      -279.1310
  66   2.0000      -8.071533      -219.6376
  67   2.0000      -8.068707      -219.5607
  68   2.0000      -8.064171      -219.4372
  69   2.0000      -8.062542      -219.3929
  70   2.0000      -8.062514      -219.3922
  71   2.0000      -8.060972      -219.3502
  72   2.0000      -8.058804      -219.2912
  73   2.0000      -8.054754      -219.1810
  74   2.0000      -8.052888      -219.1302
  75   2.0000      -8.052695      -219.1250
  76   2.0000      -8.048172      -219.0019
  77   2.0000      -8.047968      -218.9964
  78   2.0000      -6.040997      -164.3839
  79   2.0000      -6.038006      -164.3025
  80   2.0000      -6.036665      -164.2660
  81   2.0000      -6.034095      -164.1961
  82   2.0000      -6.033868      -164.1899
  83   2.0000      -6.033457      -164.1787
  84   2.0000      -6.032419      -164.1505
  85   2.0000      -6.032353      -164.1487
  86   2.0000      -6.030854      -164.1079
  87   2.0000      -6.030757      -164.1052
  88   2.0000      -6.029409      -164.0686
  89   2.0000      -6.028299      -164.0383
  90   2.0000      -6.027896      -164.0274
  91   2.0000      -6.027837      -164.0258
  92   2.0000      -6.026356      -163.9855
  93   2.0000      -6.024981      -163.9481
  94   2.0000      -6.023995      -163.9212
  95   2.0000      -6.023971      -163.9206
  96   2.0000      -6.023374      -163.9043
  97   2.0000      -6.023266      -163.9014
  98   2.0000      -6.022232      -163.8733
  99   2.0000      -6.022109      -163.8699
 100   2.0000      -6.021644      -163.8573
 101   2.0000      -6.020714      -163.8319
 102   2.0000      -6.019942      -163.8109
 103   2.0000      -6.018124      -163.7615
 104   2.0000      -6.017962      -163.7571
 105   2.0000      -6.017442      -163.7429
 106   2.0000      -6.017224      -163.7370
 107   2.0000      -6.016854      -163.7269
 108   2.0000      -6.014854      -163.6725
 109   2.0000      -6.014614      -163.6660
 110   2.0000      -6.013373      -163.6322
 111   2.0000      -6.013189      -163.6272
 112   2.0000      -6.010279      -163.5480
 113   2.0000      -6.010059      -163.5420
 114   2.0000      -1.175406       -31.9844
 115   2.0000      -1.173365       -31.9289
 116   2.0000      -1.142722       -31.0951
 117   2.0000      -1.140465       -31.0336
 118   2.0000      -1.083864       -29.4934
 119   2.0000      -1.047735       -28.5103
 120   2.0000      -1.019738       -27.7485
 121   2.0000      -1.014154       -27.5965
 122   2.0000      -0.998654       -27.1748
 123   2.0000      -0.997670       -27.1480
 124   2.0000      -0.984799       -26.7977
 125   2.0000      -0.984552       -26.7910
 126   2.0000      -0.967215       -26.3193
 127   2.0000      -0.967132       -26.3170
 128   2.0000      -0.930576       -25.3222
 129   2.0000      -0.930122       -25.3099
 130   2.0000      -0.915266       -24.9056
 131   2.0000      -0.909155       -24.7394
 132   2.0000      -0.900111       -24.4933
 133   2.0000      -0.898567       -24.4513
 134   2.0000      -0.891729       -24.2652
 135   2.0000      -0.874969       -23.8091
 136   2.0000      -0.867072       -23.5942
 137   2.0000      -0.859137       -23.3783
 138   2.0000      -0.855597       -23.2820
 139   2.0000      -0.846224       -23.0269
 140   2.0000      -0.843103       -22.9420
 141   2.0000      -0.839242       -22.8369
 142   2.0000      -0.835512       -22.7354
 143   2.0000      -0.834512       -22.7082
 144   2.0000      -0.829314       -22.5668
 145   2.0000      -0.828599       -22.5473
 146   2.0000      -0.826856       -22.4999
 147   2.0000      -0.821808       -22.3625
 148   2.0000      -0.817229       -22.2379
 149   2.0000      -0.808000       -21.9868
 150   2.0000      -0.799898       -21.7663
 151   2.0000      -0.783220       -21.3125
 152   2.0000      -0.771438       -20.9919
 153   2.0000      -0.752963       -20.4892
 154   2.0000      -0.748013       -20.3545
 155   2.0000      -0.745489       -20.2858
 156   2.0000      -0.736260       -20.0347
 157   2.0000      -0.721435       -19.6312
 158   2.0000      -0.708160       -19.2700
 159   2.0000      -0.694394       -18.8954
 160   2.0000      -0.691248       -18.8098
 161   2.0000      -0.688313       -18.7300
 162   2.0000      -0.679472       -18.4894
 163   2.0000      -0.677889       -18.4463
 164   2.0000      -0.674985       -18.3673
 165   2.0000      -0.672955       -18.3120
 166   2.0000      -0.668818       -18.1995
 167   2.0000      -0.654861       -17.8197
 168   2.0000      -0.647271       -17.6131
 169   2.0000      -0.643874       -17.5207
 170   2.0000      -0.634287       -17.2598
 171   2.0000      -0.629139       -17.1197
 172   2.0000      -0.628393       -17.0995
 173   2.0000      -0.625280       -17.0147
 174   2.0000      -0.622813       -16.9476
 175   2.0000      -0.619948       -16.8696
 176   2.0000      -0.616947       -16.7880
 177   2.0000      -0.613969       -16.7070
 178   2.0000      -0.610787       -16.6204
 179   2.0000      -0.601266       -16.3613
 180   2.0000      -0.600886       -16.3509
 181   2.0000      -0.597397       -16.2560
 182   2.0000      -0.580926       -15.8078
 183   2.0000      -0.578520       -15.7423
 184   2.0000      -0.572887       -15.5891
 185   2.0000      -0.570270       -15.5178
 186   2.0000      -0.567085       -15.4312
 187   2.0000      -0.565226       -15.3806
 188   2.0000      -0.554184       -15.0801
 189   2.0000      -0.548660       -14.9298
 190   2.0000      -0.548270       -14.9192
 191   2.0000      -0.546174       -14.8622
 192   2.0000      -0.543595       -14.7920
 193   2.0000      -0.541458       -14.7338
 194   2.0000      -0.537339       -14.6217
 195   2.0000      -0.529669       -14.4130
 196   2.0000      -0.529056       -14.3964
 197   2.0000      -0.528041       -14.3687
 198   2.0000      -0.525720       -14.3056
 199   2.0000      -0.519953       -14.1486
 200   2.0000      -0.519477       -14.1357
 201   2.0000      -0.515655       -14.0317
 202   2.0000      -0.512955       -13.9582
 203   2.0000      -0.509185       -13.8556
 204   2.0000      -0.507652       -13.8139
 205   2.0000      -0.504601       -13.7309
 206   2.0000      -0.499985       -13.6053
 207   2.0000      -0.499531       -13.5929
 208   2.0000      -0.497073       -13.5260
 209   2.0000      -0.493384       -13.4257
 210   2.0000      -0.492262       -13.3951
 211   2.0000      -0.490735       -13.3536
 212   2.0000      -0.489900       -13.3308
 213   2.0000      -0.488225       -13.2853
 214   2.0000      -0.482888       -13.1400
 215   2.0000      -0.482282       -13.1236
 216   2.0000      -0.480211       -13.0672
 217   2.0000      -0.479934       -13.0597
 218   2.0000      -0.476933       -12.9780
 219   2.0000      -0.475606       -12.9419
 220   2.0000      -0.471121       -12.8198
 221   2.0000      -0.469656       -12.7800
 222   2.0000      -0.469340       -12.7714
 223   2.0000      -0.467719       -12.7273
 224   2.0000      -0.465335       -12.6624
 225   2.0000      -0.459270       -12.4974
 226   2.0000      -0.456649       -12.4260
 227   2.0000      -0.456324       -12.4172
 228   2.0000      -0.452973       -12.3260
 229   2.0000      -0.450438       -12.2571
 230   2.0000      -0.445946       -12.1348
 231   2.0000      -0.443163       -12.0591
 232   2.0000      -0.442083       -12.0297
 233   2.0000      -0.439405       -11.9568
 234   2.0000      -0.437289       -11.8992
 235   2.0000      -0.434681       -11.8283
 236   2.0000      -0.433758       -11.8031
 237   2.0000      -0.429859       -11.6971
 238   2.0000      -0.427603       -11.6357
 239   2.0000      -0.426725       -11.6118
 240   2.0000      -0.420618       -11.4456
 241   2.0000      -0.419064       -11.4033
 242   2.0000      -0.418590       -11.3904
 243   2.0000      -0.411593       -11.2000
 244   2.0000      -0.405946       -11.0464
 245   2.0000      -0.402141       -10.9428
 246   2.0000      -0.401957       -10.9378
 247   2.0000      -0.396756       -10.7963
 248   2.0000      -0.394724       -10.7410
 249   2.0000      -0.391376       -10.6499
 250   2.0000      -0.388607       -10.5745
 251   2.0000      -0.386054       -10.5051
 252   2.0000      -0.384088       -10.4516
 253   2.0000      -0.376795       -10.2531
 254   2.0000      -0.362726        -9.8703
 255   2.0000      -0.352558        -9.5936
 256   2.0000      -0.338116        -9.2006
 257   2.0000      -0.336772        -9.1640
 258   2.0000      -0.336758        -9.1636
 259   2.0000      -0.332932        -9.0595
 260   2.0000      -0.332757        -9.0548
 261   2.0000      -0.326761        -8.8916
 262   2.0000      -0.325453        -8.8560
 263   2.0000      -0.322232        -8.7684
 264   2.0000      -0.318100        -8.6559
 265   2.0000      -0.317222        -8.6320
 266   2.0000      -0.305797        -8.3211
 267   2.0000      -0.300494        -8.1769
 268   2.0000      -0.298987        -8.1359
 269   2.0000      -0.286992        -7.8094
 270   2.0000      -0.282078        -7.6757
 271   2.0000      -0.268020        -7.2932
 272   2.0000      -0.244172        -6.6443
 273   2.0000      -0.229897        -6.2558
 274   2.0000      -0.202001        -5.4967
 275   0.0000      -0.066102        -1.7987
 276   0.0000      -0.060560        -1.6479
 277   0.0000      -0.052616        -1.4318
 278   0.0000      -0.048814        -1.3283
 279   0.0000      -0.035968        -0.9787

MULLIKEN ATOMIC CHARGES
-----------------------
   0 C :   -0.096463
   1 S :    0.149358
   2 C :   -0.090061
   3 C :   -0.031005
   4 C :   -0.039705
   5 S :    0.098333
   6 C :    0.066460
   7 O :   -0.134242
   8 C :    0.090021
   9 O :   -0.133200
  10 S :    0.069574
  11 C :   -0.080948
  12 S :    0.117371
  13 C :   -0.013635
  14 C :   -0.008413
  15 C :   -0.009942
  16 C :   -0.044108
  17 C :   -0.008128
  18 C :   -0.005849
  19 C :   -0.025054
  20 S :    0.119888
  21 C :   -0.052000
  22 S :    0.116765
  23 C :   -0.063303
  24 C :    0.003468
  25 C :   -0.000745
  26 C :    0.043110
  27 C :    0.007307
  28 C :    0.105182
  29 N :   -0.038297
  30 C :    0.113358
  31 C :   -0.182806
  32 C :    0.104345
  33 N :   -0.038379
  34 C :    0.113104
  35 C :   -0.182233
  36 C :    0.007632
  37 C :    0.045977
  38 C :   -0.063721
  39 S :    0.117108
  40 C :   -0.050894
  41 C :   -0.000165
  42 C :    0.001638
  43 C :   -0.024282
  44 C :   -0.007921
  45 C :    0.000726
  46 C :   -0.037352
  47 S :    0.121813
  48 C :   -0.038943
  49 S :    0.127130
  50 C :   -0.085327
  51 C :    0.018427
  52 C :   -0.005730
  53 C :    0.061359
  54 C :   -0.014956
  55 C :   -0.123069
  56 S :    0.143018
  57 C :   -0.097792
  58 C :   -0.037080
  59 C :   -0.012304
  60 S :    0.075693
  61 C :    0.077294
  62 O :   -0.136031
  63 C :    0.065870
  64 O :   -0.135619
  65 S :    0.098823
  66 H :    0.031618
  67 H :   -0.009812
  68 H :   -0.007631
  69 H :   -0.008083
  70 H :   -0.020282
  71 H :   -0.025378
  72 H :   -0.022942
  73 H :   -0.023362
  74 H :   -0.035972
  75 H :    0.117639
  76 H :   -0.038281
  77 H :    0.117401
  78 H :   -0.038740
  79 H :   -0.036627
  80 H :   -0.023720
  81 H :   -0.024022
  82 H :   -0.025820
  83 H :   -0.022787
  84 H :   -0.021080
  85 H :   -0.015923
  86 H :   -0.020369
  87 H :   -0.010265
  88 H :    0.003628
  89 H :    0.030360
Sum of atomic charges:   -0.0000000

LOEWDIN ATOMIC CHARGES
----------------------
   0 C :   -0.205837
   1 S :    0.466977
   2 C :   -0.191156
   3 C :   -0.233121
   4 C :   -0.220454
   5 S :    0.381903
   6 C :   -0.115121
   7 O :   -0.106709
   8 C :   -0.111658
   9 O :   -0.104775
  10 S :    0.381697
  11 C :   -0.201125
  12 S :    0.440579
  13 C :   -0.174804
  14 C :   -0.064799
  15 C :   -0.055238
  16 C :   -0.190868
  17 C :   -0.055273
  18 C :   -0.057825
  19 C :   -0.176772
  20 S :    0.426430
  21 C :   -0.195044
  22 S :    0.421555
  23 C :   -0.163608
  24 C :   -0.063992
  25 C :   -0.049355
  26 C :   -0.052458
  27 C :   -0.028684
  28 C :   -0.004721
  29 N :    0.067883
  30 C :   -0.022294
  31 C :   -0.096467
  32 C :   -0.004541
  33 N :    0.067586
  34 C :   -0.022434
  35 C :   -0.096372
  36 C :   -0.028974
  37 C :   -0.052095
  38 C :   -0.163683
  39 S :    0.422311
  40 C :   -0.194637
  41 C :   -0.050362
  42 C :   -0.064174
  43 C :   -0.178673
  44 C :   -0.058620
  45 C :   -0.049126
  46 C :   -0.191620
  47 S :    0.420722
  48 C :   -0.178846
  49 S :    0.430538
  50 C :   -0.179486
  51 C :   -0.044428
  52 C :   -0.055971
  53 C :   -0.031636
  54 C :   -0.053932
  55 C :   -0.181923
  56 S :    0.460952
  57 C :   -0.203702
  58 C :   -0.221836
  59 C :   -0.227423
  60 S :    0.384237
  61 C :   -0.113398
  62 O :   -0.108015
  63 C :   -0.114246
  64 O :   -0.107315
  65 S :    0.380175
  66 H :    0.029081
  67 H :    0.028260
  68 H :    0.026054
  69 H :    0.028268
  70 H :    0.029490
  71 H :    0.025908
  72 H :    0.028532
  73 H :    0.025892
  74 H :    0.024607
  75 H :    0.086974
  76 H :    0.021795
  77 H :    0.086855
  78 H :    0.021709
  79 H :    0.024464
  80 H :    0.025930
  81 H :    0.028102
  82 H :    0.025811
  83 H :    0.028860
  84 H :    0.029484
  85 H :    0.030744
  86 H :    0.029635
  87 H :    0.023125
  88 H :    0.028033
  89 H :    0.028472

  Mayer bond orders larger than 0.100000
B(  0-C ,  1-S ) :   1.1571 B(  0-C ,  4-C ) :   1.6025 B(  0-C , 66-H ) :   0.9709
B(  1-S ,  2-C ) :   1.1567 B(  2-C ,  3-C ) :   1.5541 B(  2-C , 11-C ) :   1.1585
B(  3-C ,  4-C ) :   1.2650 B(  3-C , 10-S ) :   0.9628 B(  4-C ,  5-S ) :   0.9546
B(  5-S ,  6-C ) :   1.0610 B(  5-S ,  7-O ) :   0.1427 B(  6-C ,  7-O ) :   2.1535
B(  6-C ,  8-C ) :   0.7704 B(  8-C ,  9-O ) :   2.1569 B(  8-C , 10-S ) :   1.0596
B(  9-O , 10-S ) :   0.1365 B( 11-C , 12-S ) :   1.1123 B( 11-C , 15-C ) :   1.4933
B( 12-S , 13-C ) :   1.1251 B( 13-C , 14-C ) :   1.4891 B( 13-C , 16-C ) :   1.1596
B( 14-C , 15-C ) :   1.2839 B( 14-C , 67-H ) :   0.9922 B( 15-C , 68-H ) :   0.9911
B( 16-C , 17-C ) :   1.4961 B( 16-C , 19-C ) :   0.1062 B( 16-C , 20-S ) :   1.1122
B( 17-C , 18-C ) :   1.2716 B( 17-C , 69-H ) :   0.9917 B( 18-C , 19-C ) :   1.5174
B( 18-C , 70-H ) :   0.9961 B( 19-C , 20-S ) :   1.1176 B( 19-C , 21-C ) :   1.1200
B( 21-C , 22-S ) :   1.1143 B( 21-C , 23-C ) :   0.1042 B( 21-C , 25-C ) :   1.5062
B( 22-S , 23-C ) :   1.1167 B( 23-C , 24-C ) :   1.4834 B( 23-C , 26-C ) :   1.1208
B( 24-C , 25-C ) :   1.2863 B( 24-C , 71-H ) :   0.9917 B( 25-C , 72-H ) :   0.9953
B( 26-C , 27-C ) :   1.6887 B( 26-C , 73-H ) :   0.9637 B( 27-C , 28-C ) :   1.1189
B( 27-C , 74-H ) :   0.9613 B( 28-C , 29-N ) :   1.1654 B( 28-C , 35-C ) :   1.4056
B( 29-N , 30-C ) :   1.1667 B( 29-N , 75-H ) :   0.9376 B( 30-C , 31-C ) :   1.2581
B( 30-C , 34-C ) :   1.3151 B( 31-C , 32-C ) :   1.4059 B( 31-C , 76-H ) :   1.0310
B( 32-C , 33-N ) :   1.1655 B( 32-C , 36-C ) :   1.1194 B( 33-N , 34-C ) :   1.1658
B( 33-N , 77-H ) :   0.9378 B( 34-C , 35-C ) :   1.2586 B( 35-C , 78-H ) :   1.0311
B( 36-C , 37-C ) :   1.6892 B( 36-C , 79-H ) :   0.9613 B( 37-C , 38-C ) :   1.1207
B( 37-C , 80-H ) :   0.9620 B( 38-C , 39-S ) :   1.1164 B( 38-C , 40-C ) :   0.1050
B( 38-C , 42-C ) :   1.4868 B( 39-S , 40-C ) :   1.1158 B( 40-C , 41-C ) :   1.5083
B( 40-C , 43-C ) :   1.1184 B( 41-C , 42-C ) :   1.2842 B( 41-C , 81-H ) :   0.9949
B( 42-C , 82-H ) :   0.9912 B( 43-C , 44-C ) :   1.5134 B( 43-C , 46-C ) :   0.1138
B( 43-C , 47-S ) :   1.1208 B( 44-C , 45-C ) :   1.2714 B( 44-C , 83-H ) :   0.9955
B( 45-C , 46-C ) :   1.5156 B( 45-C , 84-H ) :   0.9953 B( 46-C , 47-S ) :   1.1106
B( 46-C , 48-C ) :   1.1185 B( 48-C , 49-S ) :   1.1336 B( 48-C , 50-C ) :   0.1059
B( 48-C , 52-C ) :   1.4986 B( 49-S , 50-C ) :   1.1069 B( 50-C , 51-C ) :   1.4878
B( 50-C , 53-C ) :   1.1310 B( 51-C , 52-C ) :   1.2910 B( 51-C , 85-H ) :   0.9916
B( 52-C , 86-H ) :   0.9950 B( 53-C , 54-C ) :   1.6959 B( 53-C , 87-H ) :   0.9597
B( 54-C , 55-C ) :   1.1670 B( 54-C , 88-H ) :   0.9608 B( 55-C , 56-S ) :   1.1385
B( 55-C , 59-C ) :   1.5422 B( 56-S , 57-C ) :   1.1633 B( 57-C , 58-C ) :   1.5948
B( 57-C , 89-H ) :   0.9699 B( 58-C , 59-C ) :   1.2741 B( 58-C , 65-S ) :   0.9531
B( 59-C , 60-S ) :   0.9652 B( 60-S , 61-C ) :   1.0583 B( 60-S , 62-O ) :   0.1400
B( 61-C , 62-O ) :   2.1508 B( 61-C , 63-C ) :   0.7736 B( 63-C , 64-O ) :   2.1533
B( 63-C , 65-S ) :   1.0600 B( 64-O , 65-S ) :   0.1415

-----------------------------------------------------------------------------
         ABSORPTION SPECTRUM VIA TRANSITION ELECTRIC DIPOLE MOMENTS
-----------------------------------------------------------------------------
State   Energy  Wavelength   fosc         T2         TX        TY        TZ
        (cm-1)    (nm)                  (au**2)     (au)      (au)      (au)
-----------------------------------------------------------------------------
   0   16857.6    593.2   3.784063604  73.89911   8.41574   1.38631   1.07358
   1   20256.3    493.7   0.151380135   2.46028  -0.77234  -0.44797   1.28961
   2   23094.4    433.0   0.231296261   3.29714  -0.20975   0.97562  -1.51701
   3   24142.5    414.2   0.233449339   3.18336  -0.79485   0.67135  -1.44943
   4   24800.6    403.2   0.028272462   0.37530  -0.44152  -0.15322  -0.39608
   5   25602.2    390.6   0.203958961   2.62266   0.21106  -0.97147   1.27842
   6   25961.7    385.2   0.708701209   8.98682  -2.75778   0.25108  -1.14824
   7   27883.5    358.6   0.025518302   0.30129   0.39564  -0.19797   0.32491
   8   28621.8    349.4   0.017051600   0.19613   0.06986   0.17387  -0.40127
   9   28730.4    348.1   0.029875473   0.34233  -0.57945  -0.06995  -0.04102
  10   30295.2    330.1   0.019823751   0.21542   0.03836  -0.15823   0.43464
  11   30720.2    325.5   0.069248085   0.74209  -0.50646  -0.37924   0.58461
  12   32110.8    311.4   0.010441872   0.10705   0.27702  -0.07967   0.15482
  13   32385.6    308.8   0.015791376   0.16053   0.09808   0.27886  -0.27045
  14   33153.1    301.6   0.051509263   0.51149   0.67175   0.05077   0.24013
  15   34126.5    293.0   0.162691464   1.56946   0.98515  -0.27188   0.72457
  16   34340.3    291.2   0.003374554   0.03235   0.03677  -0.14915   0.09355
  17   34698.7    288.2   0.004381330   0.04157  -0.18150   0.05256  -0.07657
  18   34863.8    286.8   0.004172275   0.03940  -0.18615  -0.03210   0.06095
  19   34996.3    285.7   0.018373692   0.17284   0.13996   0.31851  -0.22761
  20   35214.1    284.0   0.009341460   0.08733  -0.18968   0.09696  -0.20483
  21   35392.6    282.5   0.035989549   0.33476   0.46090   0.29752  -0.18390
  22   35961.9    278.1   0.476842167   4.36523  -0.18698  -1.54084   1.39860
  23   37469.2    266.9   0.013326442   0.11709  -0.31736   0.03391  -0.12339
  24   37698.6    265.3   0.005826054   0.05088   0.21984   0.05016  -0.00548
  25   38079.8    262.6   0.084246002   0.72833   0.66815   0.36137  -0.38899
  26   38340.9    260.8   0.315981232   2.71316   1.54659   0.45752  -0.33449
  27   38665.7    258.6   0.041764780   0.35560  -0.58027  -0.13265   0.03587
  28   38887.1    257.2   0.055802991   0.47242  -0.67745  -0.09518  -0.06653
  29   39006.0    256.4   0.011038928   0.09317   0.29684   0.05619   0.04359
  30   39328.1    254.3   0.002656723   0.02224  -0.10109   0.04190  -0.10131
  31   40000.1    250.0   0.004125658   0.03396   0.17614   0.05359  -0.00754

FINAL SINGLE POINT ENERGY     -7027.892779422954

DIPOLE MOMENT
-------------
                                X             Y             Z
Electronic contribution:     22.19968      11.41462     -19.05525
Nuclear contribution   :    -21.10472     -12.69925      20.81592
                        -----------------------------------------
Total Dipole Moment    :      1.09496      -1.28463       1.76067
                        -----------------------------------------
Magnitude (a.u.)       :      2.43909
Magnitude (Debye)      :      6.19967

Rotational constants in cm-1:     0.002659     0.000077     0.000075
Rotational constants in MHz :    79.721713     2.311173     2.250554

                             ****ORCA TERMINATED NORMALLY****
TOTAL RUN TIME: 0 days 0 hours 7 minutes 3 seconds 540 msec
