                         Program Version 4.2.0 -  RELEASE  -
|  1> # ORCA input file
|  2> # SCF done       -202.286588199335          0.000876416877
|  3> ! CAM-B3LYP def2-SVP def2/J RIJCOSX Grid4 TightSCF
|  4> %maxcore 5000
|  5> %tddft
|  6>     Mode sTDDFT
|  7>     Ethresh 5.0
|  8>     maxcore 5000
|  9> end
| 10>
| 11> %pal
| 12>   nprocs 6
| 13>   end
| 14> * xyz 0 1
| 15>    C        3.11470         1.74620         1.34763
| 16>    S        3.94799         0.36720         1.89855
| 17>    C        3.31243        -0.61666         0.60822
| 18>    C        2.49807         0.14154        -0.21586
| 19>    C        2.38670         1.49572         0.21195
| 20>    C        1.62973         2.50087        -0.42690
| 21>    N        1.02245         3.33117        -0.92988
| 22>    C        1.83903        -0.35785        -1.45653
| 23>    F        0.79526        -1.17789        -1.21179
| 24>    F        1.35502         0.62294        -2.22617
| 25>    F        2.67655        -1.05708        -2.24814
| 26>    C        3.71946        -1.98515         0.58281
| 27>    C        3.14462        -3.01605        -0.07630
| 28>    C        3.69344        -4.33116         0.01557
| 29>    N        4.60551        -4.63234         0.93082
| 30>    C        4.81055        -5.96070         0.82935
| 31>    C        3.95597        -6.54834        -0.20679
| 32>    C        4.18000        -7.99801        -0.31255
| 33>    O        3.64389        -8.79374        -1.05164
| 34>    C        5.22406        -8.23065         0.70748
| 35>    C        5.57676        -6.96244         1.38002
| 36>    N        6.55440        -7.16148         2.29641
| 37>    C        6.82916        -8.44238         2.23030
| 38>    C        6.04309        -9.16675         1.25157
| 39>    C        3.26646        -5.50752        -0.77532
| 40>    C        2.36629        -5.56917        -1.88137
| 41>    C        2.14116        -4.55842        -2.74676
| 42>    C        1.24335        -4.56813        -3.87186
| 43>    C        1.10914        -3.40481        -4.60541
| 44>    C        0.21467        -3.33858        -5.68699
| 45>    C       -0.12180        -2.29637        -6.54750
| 46>    C        0.35901        -0.88759        -6.53635
| 47>    C        0.09675        -0.21798        -5.17036
| 48>    N       -0.07358         1.20654        -5.36058
| 49>    C        1.84678        -0.80660        -6.92750
| 50>    N        2.25472         0.58062        -7.07949
| 51>    C       -1.10924        -2.81563        -7.46201
| 52>    C       -1.76288        -2.23261        -8.48453
| 53>    C       -2.81307        -2.95620        -9.24463
| 54>    C       -2.95545        -4.40788        -8.89622
| 55>    C       -2.28610        -4.97638        -7.87181
| 56>    C       -1.36079        -4.22242        -7.11803
| 57>    C       -0.54953        -4.52727        -6.03858
| 58>    C       -0.37865        -5.71185        -5.28829
| 59>    C        0.48417        -5.72569        -4.23917
| 60>    C       -4.17988        -2.40280        -8.93153
| 61>    C       -4.48920        -1.76377        -7.79220
| 62>    C       -5.81355        -1.30614        -7.52317
| 63>    N       -6.81117        -1.50376        -8.37229
| 64>    C       -7.89978        -0.95758        -7.79798
| 65>    C       -7.57684        -0.37303        -6.48685
| 66>    C       -8.77856         0.22192        -5.87655
| 67>    O       -8.87906         0.78397        -4.80791
| 68>    C       -9.81554        -0.03835        -6.88994
| 69>    C       -9.23788        -0.76109        -8.04313
| 70>    N      -10.18563        -1.00054        -8.98076
| 71>    C      -11.28761        -0.48163        -8.49298
| 72>    C      -11.12759         0.13625        -7.19326
| 73>    C       -6.23309        -0.58089        -6.29986
| 74>    C       -5.38314        -0.22061        -5.21670
| 75>    C       -5.83048         0.34942        -4.07400
| 76>    C       -4.98480         0.70127        -2.98832
| 77>    S       -3.25221         0.55996        -3.04502
| 78>    C       -3.07977         1.11800        -1.41283
| 79>    C       -4.30523         1.42765        -0.86756
| 80>    C       -5.39037         1.18654        -1.75160
| 81>    C       -6.74762         1.35981        -1.41643
| 82>    N       -7.85379         1.46750        -1.13975
| 83>    C       -4.49642         2.00928         0.49753
| 84>    F       -3.50261         2.84088         0.85381
| 85>    F       -5.62366         2.71766         0.60811
| 86>    F       -4.55049         1.06066         1.45768
| 87>    C       -1.75341         1.17533        -0.83795
| 88>    C       -1.45988         0.85829         0.41715
| 89>    H        3.18737         2.68112         1.86741
| 90>    H        4.58258        -2.22259         1.19190
| 91>    H        2.24346        -2.90716        -0.65606
| 92>    H        7.57954        -8.87046         2.87211
| 93>    H        6.12179       -10.21493         1.04087
| 94>    H        1.91128        -6.53907        -2.02942
| 95>    H        2.69282        -3.63575        -2.62097
| 96>    H        1.69353        -2.53887        -4.33577
| 97>    H       -0.20983        -0.31205        -7.27344
| 98>    H        0.92082        -0.47161        -4.49039
| 99>    H       -0.82944        -0.61648        -4.74081
|100>    H        0.78229         1.58447        -5.75769
|101>    H       -0.24224         1.66649        -4.47293
|102>    H        1.99803        -1.40678        -7.84195
|103>    H        2.45859        -1.24929        -6.13810
|104>    H        1.79306         0.99593        -7.88273
|105>    H        3.25542         0.64081        -7.23159
|106>    H       -1.59725        -1.19986        -8.75918
|107>    H       -2.63348        -2.84119       -10.32136
|108>    H       -3.66613        -4.96919        -9.48170
|109>    H       -2.43423        -6.01927        -7.63263
|110>    H       -0.93938        -6.59547        -5.55451
|111>    H        0.61322        -6.63121        -3.66839
|112>    H       -4.96399        -2.59281        -9.64976
|113>    H       -3.73173        -1.57153        -7.04582
|114>    H      -12.20617        -0.53774        -9.05099
|115>    H      -11.90319         0.61460        -6.62879
|116>    H       -4.32434        -0.42423        -5.32148
|117>    H       -6.88632         0.55466        -3.94117
|118>    H       -0.97305         1.46219        -1.52966
|119>    H       -2.19944         0.52276         1.12257
|120>    H       -0.45077         0.92149         0.78383
|121> *
|122>
|123>                          ****END OF INPUT****

CARTESIAN COORDINATES (ANGSTROEM)
---------------------------------
  C      3.114700    1.746200    1.347630
  S      3.947990    0.367200    1.898550
  C      3.312430   -0.616660    0.608220
  C      2.498070    0.141540   -0.215860
  C      2.386700    1.495720    0.211950
  C      1.629730    2.500870   -0.426900
  N      1.022450    3.331170   -0.929880
  C      1.839030   -0.357850   -1.456530
  F      0.795260   -1.177890   -1.211790
  F      1.355020    0.622940   -2.226170
  F      2.676550   -1.057080   -2.248140
  C      3.719460   -1.985150    0.582810
  C      3.144620   -3.016050   -0.076300
  C      3.693440   -4.331160    0.015570
  N      4.605510   -4.632340    0.930820
  C      4.810550   -5.960700    0.829350
  C      3.955970   -6.548340   -0.206790
  C      4.180000   -7.998010   -0.312550
  O      3.643890   -8.793740   -1.051640
  C      5.224060   -8.230650    0.707480
  C      5.576760   -6.962440    1.380020
  N      6.554400   -7.161480    2.296410
  C      6.829160   -8.442380    2.230300
  C      6.043090   -9.166750    1.251570
  C      3.266460   -5.507520   -0.775320
  C      2.366290   -5.569170   -1.881370
  C      2.141160   -4.558420   -2.746760
  C      1.243350   -4.568130   -3.871860
  C      1.109140   -3.404810   -4.605410
  C      0.214670   -3.338580   -5.686990
  C     -0.121800   -2.296370   -6.547500
  C      0.359010   -0.887590   -6.536350
  C      0.096750   -0.217980   -5.170360
  N     -0.073580    1.206540   -5.360580
  C      1.846780   -0.806600   -6.927500
  N      2.254720    0.580620   -7.079490
  C     -1.109240   -2.815630   -7.462010
  C     -1.762880   -2.232610   -8.484530
  C     -2.813070   -2.956200   -9.244630
  C     -2.955450   -4.407880   -8.896220
  C     -2.286100   -4.976380   -7.871810
  C     -1.360790   -4.222420   -7.118030
  C     -0.549530   -4.527270   -6.038580
  C     -0.378650   -5.711850   -5.288290
  C      0.484170   -5.725690   -4.239170
  C     -4.179880   -2.402800   -8.931530
  C     -4.489200   -1.763770   -7.792200
  C     -5.813550   -1.306140   -7.523170
  N     -6.811170   -1.503760   -8.372290
  C     -7.899780   -0.957580   -7.797980
  C     -7.576840   -0.373030   -6.486850
  C     -8.778560    0.221920   -5.876550
  O     -8.879060    0.783970   -4.807910
  C     -9.815540   -0.038350   -6.889940
  C     -9.237880   -0.761090   -8.043130
  N    -10.185630   -1.000540   -8.980760
  C    -11.287610   -0.481630   -8.492980
  C    -11.127590    0.136250   -7.193260
  C     -6.233090   -0.580890   -6.299860
  C     -5.383140   -0.220610   -5.216700
  C     -5.830480    0.349420   -4.074000
  C     -4.984800    0.701270   -2.988320
  S     -3.252210    0.559960   -3.045020
  C     -3.079770    1.118000   -1.412830
  C     -4.305230    1.427650   -0.867560
  C     -5.390370    1.186540   -1.751600
  C     -6.747620    1.359810   -1.416430
  N     -7.853790    1.467500   -1.139750
  C     -4.496420    2.009280    0.497530
  F     -3.502610    2.840880    0.853810
  F     -5.623660    2.717660    0.608110
  F     -4.550490    1.060660    1.457680
  C     -1.753410    1.175330   -0.837950
  C     -1.459880    0.858290    0.417150
  H      3.187370    2.681120    1.867410
  H      4.582580   -2.222590    1.191900
  H      2.243460   -2.907160   -0.656060
  H      7.579540   -8.870460    2.872110
  H      6.121790  -10.214930    1.040870
  H      1.911280   -6.539070   -2.029420
  H      2.692820   -3.635750   -2.620970
  H      1.693530   -2.538870   -4.335770
  H     -0.209830   -0.312050   -7.273440
  H      0.920820   -0.471610   -4.490390
  H     -0.829440   -0.616480   -4.740810
  H      0.782290    1.584470   -5.757690
  H     -0.242240    1.666490   -4.472930
  H      1.998030   -1.406780   -7.841950
  H      2.458590   -1.249290   -6.138100
  H      1.793060    0.995930   -7.882730
  H      3.255420    0.640810   -7.231590
  H     -1.597250   -1.199860   -8.759180
  H     -2.633480   -2.841190  -10.321360
  H     -3.666130   -4.969190   -9.481700
  H     -2.434230   -6.019270   -7.632630
  H     -0.939380   -6.595470   -5.554510
  H      0.613220   -6.631210   -3.668390
  H     -4.963990   -2.592810   -9.649760
  H     -3.731730   -1.571530   -7.045820
  H    -12.206170   -0.537740   -9.050990
  H    -11.903190    0.614600   -6.628790
  H     -4.324340   -0.424230   -5.321480
  H     -6.886320    0.554660   -3.941170
  H     -0.973050    1.462190   -1.529660
  H     -2.199440    0.522760    1.122570
  H     -0.450770    0.921490    0.783830

 Total Charge           Charge          ....    0
 Multiplicity           Mult            ....    1
 Number of Electrons    NEL             ....  526
 Basis Dimension        Dim             .... 1204

ORBITAL ENERGIES
----------------

  NO   OCC          E(Eh)            E(eV)
   0   2.0000     -89.011112     -2422.1155
   1   2.0000     -88.978126     -2421.2179
   2   2.0000     -24.834908      -675.7922
   3   2.0000     -24.830743      -675.6789
   4   2.0000     -24.826729      -675.5696
   5   2.0000     -24.794614      -674.6957
   6   2.0000     -24.791788      -674.6188
   7   2.0000     -24.791019      -674.5979
   8   2.0000     -19.208770      -522.6972
   9   2.0000     -19.206494      -522.6353
  10   2.0000     -14.428406      -392.6169
  11   2.0000     -14.416160      -392.2836
  12   2.0000     -14.407444      -392.0465
  13   2.0000     -14.404409      -391.9639
  14   2.0000     -14.399690      -391.8355
  15   2.0000     -14.397316      -391.7709
  16   2.0000     -14.394357      -391.6904
  17   2.0000     -14.360356      -390.7652
  18   2.0000     -10.553976      -287.1883
  19   2.0000     -10.517219      -286.1881
  20   2.0000     -10.369852      -282.1780
  21   2.0000     -10.366185      -282.0782
  22   2.0000     -10.360285      -281.9177
  23   2.0000     -10.354680      -281.7652
  24   2.0000     -10.352292      -281.7002
  25   2.0000     -10.349451      -281.6229
  26   2.0000     -10.343867      -281.4709
  27   2.0000     -10.340456      -281.3781
  28   2.0000     -10.334874      -281.2262
  29   2.0000     -10.329834      -281.0891
  30   2.0000     -10.329682      -281.0849
  31   2.0000     -10.328384      -281.0496
  32   2.0000     -10.327520      -281.0261
  33   2.0000     -10.327466      -281.0246
  34   2.0000     -10.326636      -281.0020
  35   2.0000     -10.325756      -280.9781
  36   2.0000     -10.322035      -280.8769
  37   2.0000     -10.318305      -280.7754
  38   2.0000     -10.316949      -280.7384
  39   2.0000     -10.312743      -280.6240
  40   2.0000     -10.311248      -280.5833
  41   2.0000     -10.310022      -280.5500
  42   2.0000     -10.308744      -280.5152
  43   2.0000     -10.308214      -280.5008
  44   2.0000     -10.306873      -280.4643
  45   2.0000     -10.302754      -280.3522
  46   2.0000     -10.297563      -280.2109
  47   2.0000     -10.293908      -280.1115
  48   2.0000     -10.292472      -280.0724
  49   2.0000     -10.291601      -280.0487
  50   2.0000     -10.291265      -280.0396
  51   2.0000     -10.290067      -280.0069
  52   2.0000     -10.289590      -279.9940
  53   2.0000     -10.289158      -279.9822
  54   2.0000     -10.288132      -279.9543
  55   2.0000     -10.287993      -279.9505
  56   2.0000     -10.286906      -279.9209
  57   2.0000     -10.285126      -279.8725
  58   2.0000     -10.284832      -279.8645
  59   2.0000     -10.283493      -279.8281
  60   2.0000     -10.283188      -279.8198
  61   2.0000     -10.282199      -279.7929
  62   2.0000     -10.281931      -279.7856
  63   2.0000     -10.280352      -279.7426
  64   2.0000     -10.280164      -279.7375
  65   2.0000     -10.277747      -279.6717
  66   2.0000     -10.276078      -279.6263
  67   2.0000     -10.275558      -279.6121
  68   2.0000     -10.273094      -279.5451
  69   2.0000     -10.272143      -279.5192
  70   2.0000     -10.270833      -279.4836
  71   2.0000     -10.270744      -279.4811
  72   2.0000     -10.269751      -279.4541
  73   2.0000     -10.268729      -279.4263
  74   2.0000      -8.107116      -220.6058
  75   2.0000      -8.073476      -219.6905
  76   2.0000      -6.076209      -165.3421
  77   2.0000      -6.071766      -165.2212
  78   2.0000      -6.069726      -165.1656
  79   2.0000      -6.042640      -164.4286
  80   2.0000      -6.038468      -164.3151
  81   2.0000      -6.035827      -164.2432
  82   2.0000      -1.421379       -38.6777
  83   2.0000      -1.383810       -37.6554
  84   2.0000      -1.324481       -36.0410
  85   2.0000      -1.317788       -35.8588
  86   2.0000      -1.286464       -35.0065
  87   2.0000      -1.282409       -34.8961
  88   2.0000      -1.123121       -30.5617
  89   2.0000      -1.121362       -30.5138
  90   2.0000      -1.081872       -29.4392
  91   2.0000      -1.073558       -29.2130
  92   2.0000      -1.062184       -28.9035
  93   2.0000      -1.053549       -28.6685
  94   2.0000      -1.046216       -28.4690
  95   2.0000      -1.016296       -27.6548
  96   2.0000      -1.009815       -27.4785
  97   2.0000      -0.992526       -27.0080
  98   2.0000      -0.977929       -26.6108
  99   2.0000      -0.976873       -26.5821
 100   2.0000      -0.958916       -26.0934
 101   2.0000      -0.946951       -25.7678
 102   2.0000      -0.942417       -25.6445
 103   2.0000      -0.935879       -25.4666
 104   2.0000      -0.929888       -25.3035
 105   2.0000      -0.927081       -25.2272
 106   2.0000      -0.924932       -25.1687
 107   2.0000      -0.916981       -24.9523
 108   2.0000      -0.906417       -24.6649
 109   2.0000      -0.899062       -24.4647
 110   2.0000      -0.888497       -24.1772
 111   2.0000      -0.882914       -24.0253
 112   2.0000      -0.880494       -23.9595
 113   2.0000      -0.873417       -23.7669
 114   2.0000      -0.857542       -23.3349
 115   2.0000      -0.854332       -23.2475
 116   2.0000      -0.852468       -23.1968
 117   2.0000      -0.846013       -23.0212
 118   2.0000      -0.842312       -22.9205
 119   2.0000      -0.832549       -22.6548
 120   2.0000      -0.824056       -22.4237
 121   2.0000      -0.816546       -22.2193
 122   2.0000      -0.811049       -22.0698
 123   2.0000      -0.786451       -21.4004
 124   2.0000      -0.776032       -21.1169
 125   2.0000      -0.768102       -20.9011
 126   2.0000      -0.762419       -20.7465
 127   2.0000      -0.757801       -20.6208
 128   2.0000      -0.748607       -20.3706
 129   2.0000      -0.747916       -20.3518
 130   2.0000      -0.737353       -20.0644
 131   2.0000      -0.734277       -19.9807
 132   2.0000      -0.725962       -19.7544
 133   2.0000      -0.725914       -19.7531
 134   2.0000      -0.724261       -19.7082
 135   2.0000      -0.722894       -19.6710
 136   2.0000      -0.707896       -19.2628
 137   2.0000      -0.704924       -19.1819
 138   2.0000      -0.702850       -19.1255
 139   2.0000      -0.700282       -19.0557
 140   2.0000      -0.693778       -18.8787
 141   2.0000      -0.681079       -18.5331
 142   2.0000      -0.678457       -18.4617
 143   2.0000      -0.673054       -18.3147
 144   2.0000      -0.668263       -18.1844
 145   2.0000      -0.667555       -18.1651
 146   2.0000      -0.666118       -18.1260
 147   2.0000      -0.661233       -17.9931
 148   2.0000      -0.658117       -17.9083
 149   2.0000      -0.647239       -17.6123
 150   2.0000      -0.644400       -17.5350
 151   2.0000      -0.638228       -17.3671
 152   2.0000      -0.634226       -17.2582
 153   2.0000      -0.628544       -17.1036
 154   2.0000      -0.623730       -16.9725
 155   2.0000      -0.615194       -16.7403
 156   2.0000      -0.609320       -16.5804
 157   2.0000      -0.608333       -16.5536
 158   2.0000      -0.603968       -16.4348
 159   2.0000      -0.603171       -16.4131
 160   2.0000      -0.591763       -16.1027
 161   2.0000      -0.588723       -16.0200
 162   2.0000      -0.583014       -15.8646
 163   2.0000      -0.580950       -15.8085
 164   2.0000      -0.578479       -15.7412
 165   2.0000      -0.576078       -15.6759
 166   2.0000      -0.572641       -15.5823
 167   2.0000      -0.569628       -15.5004
 168   2.0000      -0.568404       -15.4671
 169   2.0000      -0.565781       -15.3957
 170   2.0000      -0.560877       -15.2622
 171   2.0000      -0.554003       -15.0752
 172   2.0000      -0.551619       -15.0103
 173   2.0000      -0.548839       -14.9347
 174   2.0000      -0.548212       -14.9176
 175   2.0000      -0.545303       -14.8384
 176   2.0000      -0.544507       -14.8168
 177   2.0000      -0.543134       -14.7794
 178   2.0000      -0.542114       -14.7517
 179   2.0000      -0.541157       -14.7256
 180   2.0000      -0.537922       -14.6376
 181   2.0000      -0.536514       -14.5993
 182   2.0000      -0.532616       -14.4932
 183   2.0000      -0.529695       -14.4137
 184   2.0000      -0.527029       -14.3412
 185   2.0000      -0.526253       -14.3201
 186   2.0000      -0.525349       -14.2955
 187   2.0000      -0.522022       -14.2049
 188   2.0000      -0.519646       -14.1403
 189   2.0000      -0.518762       -14.1162
 190   2.0000      -0.516297       -14.0491
 191   2.0000      -0.515513       -14.0278
 192   2.0000      -0.515099       -14.0165
 193   2.0000      -0.514558       -14.0018
 194   2.0000      -0.510090       -13.8803
 195   2.0000      -0.507701       -13.8153
 196   2.0000      -0.505420       -13.7532
 197   2.0000      -0.503888       -13.7115
 198   2.0000      -0.502250       -13.6669
 199   2.0000      -0.498617       -13.5681
 200   2.0000      -0.495932       -13.4950
 201   2.0000      -0.494289       -13.4503
 202   2.0000      -0.493869       -13.4389
 203   2.0000      -0.488895       -13.3035
 204   2.0000      -0.486341       -13.2340
 205   2.0000      -0.485559       -13.2127
 206   2.0000      -0.484337       -13.1795
 207   2.0000      -0.483163       -13.1475
 208   2.0000      -0.478756       -13.0276
 209   2.0000      -0.474558       -12.9134
 210   2.0000      -0.474172       -12.9029
 211   2.0000      -0.472094       -12.8463
 212   2.0000      -0.471783       -12.8379
 213   2.0000      -0.468994       -12.7620
 214   2.0000      -0.468146       -12.7389
 215   2.0000      -0.466379       -12.6908
 216   2.0000      -0.463233       -12.6052
 217   2.0000      -0.462409       -12.5828
 218   2.0000      -0.459950       -12.5159
 219   2.0000      -0.458967       -12.4891
 220   2.0000      -0.455725       -12.4009
 221   2.0000      -0.454819       -12.3762
 222   2.0000      -0.446935       -12.1617
 223   2.0000      -0.445634       -12.1263
 224   2.0000      -0.442955       -12.0534
 225   2.0000      -0.439852       -11.9690
 226   2.0000      -0.436124       -11.8675
 227   2.0000      -0.432581       -11.7711
 228   2.0000      -0.430368       -11.7109
 229   2.0000      -0.427905       -11.6439
 230   2.0000      -0.423078       -11.5125
 231   2.0000      -0.418572       -11.3899
 232   2.0000      -0.416598       -11.3362
 233   2.0000      -0.414717       -11.2850
 234   2.0000      -0.413790       -11.2598
 235   2.0000      -0.402966       -10.9653
 236   2.0000      -0.398579       -10.8459
 237   2.0000      -0.394210       -10.7270
 238   2.0000      -0.390572       -10.6280
 239   2.0000      -0.387154       -10.5350
 240   2.0000      -0.373601       -10.1662
 241   2.0000      -0.370376       -10.0785
 242   2.0000      -0.370153       -10.0724
 243   2.0000      -0.365206        -9.9378
 244   2.0000      -0.356367        -9.6972
 245   2.0000      -0.355677        -9.6785
 246   2.0000      -0.353751        -9.6261
 247   2.0000      -0.348305        -9.4779
 248   2.0000      -0.342724        -9.3260
 249   2.0000      -0.340001        -9.2519
 250   2.0000      -0.335498        -9.1294
 251   2.0000      -0.331057        -9.0085
 252   2.0000      -0.330050        -8.9811
 253   2.0000      -0.328877        -8.9492
 254   2.0000      -0.324780        -8.8377
 255   2.0000      -0.324333        -8.8255
 256   2.0000      -0.316540        -8.6135
 257   2.0000      -0.304144        -8.2762
 258   2.0000      -0.302375        -8.2280
 259   2.0000      -0.289277        -7.8716
 260   2.0000      -0.280297        -7.6273
 261   2.0000      -0.268347        -7.3021
 262   2.0000      -0.227605        -6.1935
 263   0.0000      -0.123710        -3.3663
 264   0.0000      -0.110215        -2.9991
 265   0.0000      -0.080927        -2.2021
 266   0.0000      -0.061370        -1.6700
 267   0.0000      -0.055717        -1.5161

MULLIKEN ATOMIC CHARGES
-----------------------
   0 C :   -0.049589
   1 S :    0.209445
   2 C :   -0.147029
   3 C :    0.008292
   4 C :   -0.110427
   5 C :   -0.192683
   6 N :    0.163409
   7 C :    0.542092
   8 F :   -0.155725
   9 F :   -0.139507
  10 F :   -0.161325
  11 C :    0.083487
  12 C :   -0.043216
  13 C :    0.002482
  14 N :   -0.048246
  15 C :    0.066160
  16 C :   -0.129279
  17 C :    0.203340
  18 O :   -0.130591
  19 C :   -0.038081
  20 C :   -0.024906
  21 N :   -0.056020
  22 C :    0.091022
  23 C :   -0.092396
  24 C :    0.044363
  25 C :   -0.019429
  26 C :   -0.015668
  27 C :    0.114193
  28 C :   -0.093688
  29 C :    0.048238
  30 C :   -0.019786
  31 C :   -0.065978
  32 C :    0.147927
  33 N :   -0.221868
  34 C :    0.140101
  35 N :   -0.214954
  36 C :    0.105477
  37 C :   -0.150247
  38 C :    0.153988
  39 C :   -0.040794
  40 C :    0.026722
  41 C :    0.011002
  42 C :    0.035509
  43 C :    0.004177
  44 C :   -0.009883
  45 C :   -0.033772
  46 C :   -0.020533
  47 C :    0.048964
  48 N :   -0.040111
  49 C :    0.077351
  50 C :   -0.161260
  51 C :    0.218682
  52 O :   -0.129690
  53 C :   -0.009527
  54 C :   -0.047171
  55 N :   -0.057894
  56 C :    0.086516
  57 C :   -0.094690
  58 C :    0.054545
  59 C :   -0.052024
  60 C :    0.016854
  61 C :   -0.054927
  62 S :    0.156006
  63 C :   -0.129302
  64 C :   -0.024146
  65 C :   -0.054563
  66 C :   -0.236084
  67 N :    0.167289
  68 C :    0.510892
  69 F :   -0.157028
  70 F :   -0.141081
  71 F :   -0.164802
  72 C :    0.008005
  73 C :   -0.003990
  74 H :    0.054007
  75 H :    0.029369
  76 H :    0.022149
  77 H :    0.010187
  78 H :   -0.003552
  79 H :    0.011898
  80 H :   -0.016310
  81 H :   -0.046972
  82 H :   -0.034669
  83 H :   -0.029796
  84 H :   -0.008704
  85 H :    0.082447
  86 H :    0.081068
  87 H :   -0.006533
  88 H :   -0.006817
  89 H :    0.100773
  90 H :    0.097994
  91 H :    0.003148
  92 H :    0.036079
  93 H :   -0.001130
  94 H :   -0.029903
  95 H :   -0.033954
  96 H :   -0.020400
  97 H :    0.039934
  98 H :    0.006538
  99 H :    0.007096
 100 H :   -0.004717
 101 H :   -0.014986
 102 H :    0.037104
 103 H :    0.014181
 104 H :    0.039861
 105 H :    0.021987
Sum of atomic charges:   -0.0000000

LOEWDIN ATOMIC CHARGES
----------------------
   0 C :   -0.137156
   1 S :    0.520739
   2 C :   -0.143558
   3 C :   -0.100261
   4 C :   -0.095089
   5 C :   -0.041897
   6 N :   -0.033395
   7 C :    0.178356
   8 F :   -0.054075
   9 F :   -0.024640
  10 F :   -0.052896
  11 C :    0.006437
  12 C :   -0.023525
  13 C :    0.069384
  14 N :   -0.103404
  15 C :    0.043618
  16 C :   -0.050728
  17 C :    0.064529
  18 O :   -0.141805
  19 C :   -0.039422
  20 C :    0.025038
  21 N :   -0.099559
  22 C :    0.076516
  23 C :   -0.036423
  24 C :   -0.022378
  25 C :   -0.033085
  26 C :    0.000713
  27 C :   -0.029249
  28 C :   -0.004732
  29 C :   -0.021776
  30 C :   -0.022299
  31 C :   -0.042285
  32 C :    0.027525
  33 N :   -0.127372
  34 C :    0.027810
  35 N :   -0.104165
  36 C :   -0.017033
  37 C :    0.065097
  38 C :   -0.031774
  39 C :   -0.026739
  40 C :   -0.012403
  41 C :   -0.040167
  42 C :   -0.023363
  43 C :   -0.004877
  44 C :   -0.019806
  45 C :    0.085489
  46 C :   -0.064239
  47 C :    0.076643
  48 N :   -0.110031
  49 C :    0.047424
  50 C :   -0.041431
  51 C :    0.067052
  52 O :   -0.131306
  53 C :   -0.039505
  54 C :    0.018208
  55 N :   -0.098589
  56 C :    0.071088
  57 C :   -0.036019
  58 C :   -0.029631
  59 C :   -0.031388
  60 C :   -0.001060
  61 C :   -0.139549
  62 S :    0.485856
  63 C :   -0.135004
  64 C :   -0.106061
  65 C :   -0.083027
  66 C :   -0.044103
  67 N :   -0.032090
  68 C :    0.172754
  69 F :   -0.054887
  70 F :   -0.036396
  71 F :   -0.068149
  72 C :   -0.051192
  73 C :   -0.008262
  74 H :    0.042935
  75 H :    0.043707
  76 H :    0.030015
  77 H :    0.023830
  78 H :    0.034783
  79 H :    0.038178
  80 H :    0.025432
  81 H :    0.018505
  82 H :    0.019803
  83 H :   -0.008962
  84 H :    0.007843
  85 H :    0.037929
  86 H :    0.045883
  87 H :    0.002653
  88 H :    0.016411
  89 H :    0.056398
  90 H :    0.058060
  91 H :    0.032532
  92 H :    0.057106
  93 H :    0.028240
  94 H :    0.032693
  95 H :    0.029189
  96 H :    0.028973
  97 H :    0.041042
  98 H :    0.031638
  99 H :    0.022624
 100 H :    0.034736
 101 H :    0.022163
 102 H :    0.045693
 103 H :    0.026909
 104 H :    0.024554
 105 H :    0.021485

  Mayer bond orders larger than 0.100000
B(  0-C ,  1-S ) :   1.1982 B(  0-C ,  4-C ) :   1.5469 B(  0-C , 74-H ) :   0.9722
B(  1-S ,  2-C ) :   1.1842 B(  2-C ,  3-C ) :   1.4908 B(  2-C , 11-C ) :   1.0720
B(  3-C ,  4-C ) :   1.3007 B(  3-C ,  7-C ) :   0.9386 B(  4-C ,  5-C ) :   1.1134
B(  5-C ,  6-N ) :   3.0038 B(  7-C ,  8-F ) :   1.1366 B(  7-C ,  9-F ) :   1.1269
B(  7-C , 10-F ) :   1.1202 B( 11-C , 12-C ) :   1.7071 B( 11-C , 75-H ) :   0.9480
B( 12-C , 13-C ) :   1.1230 B( 12-C , 76-H ) :   0.9497 B( 13-C , 14-N ) :   1.6086
B( 13-C , 15-C ) :   0.1010 B( 13-C , 24-C ) :   1.0047 B( 14-N , 15-C ) :   1.3418
B( 15-C , 16-C ) :   1.0501 B( 15-C , 20-C ) :   1.4207 B( 16-C , 17-C ) :   0.8956
B( 16-C , 24-C ) :   1.5636 B( 17-C , 18-O ) :   2.2873 B( 17-C , 19-C ) :   0.8990
B( 19-C , 20-C ) :   1.0542 B( 19-C , 23-C ) :   1.6210 B( 20-C , 21-N ) :   1.3138
B( 21-N , 22-C ) :   1.6544 B( 22-C , 23-C ) :   1.0693 B( 22-C , 77-H ) :   0.9894
B( 23-C , 78-H ) :   1.0095 B( 24-C , 25-C ) :   1.1119 B( 25-C , 26-C ) :   1.6501
B( 25-C , 79-H ) :   0.9563 B( 26-C , 27-C ) :   1.0925 B( 26-C , 80-H ) :   0.9830
B( 27-C , 28-C ) :   1.5016 B( 27-C , 44-C ) :   1.1239 B( 28-C , 29-C ) :   1.1181
B( 28-C , 81-H ) :   0.9947 B( 29-C , 30-C ) :   1.4618 B( 29-C , 42-C ) :   1.1207
B( 30-C , 31-C ) :   1.0226 B( 30-C , 36-C ) :   1.1170 B( 31-C , 32-C ) :   1.0176
B( 31-C , 34-C ) :   1.0489 B( 31-C , 82-H ) :   0.8772 B( 32-C , 33-N ) :   1.1185
B( 32-C , 83-H ) :   0.9178 B( 32-C , 84-H ) :   0.9452 B( 33-N , 85-H ) :   0.9441
B( 33-N , 86-H ) :   0.9662 B( 34-C , 35-N ) :   1.0845 B( 34-C , 87-H ) :   0.9460
B( 34-C , 88-H ) :   0.9334 B( 35-N , 89-H ) :   0.9635 B( 35-N , 90-H ) :   0.9679
B( 36-C , 37-C ) :   1.6542 B( 36-C , 41-C ) :   1.0416 B( 37-C , 38-C ) :   0.9804
B( 37-C , 91-H ) :   0.9782 B( 38-C , 39-C ) :   0.9757 B( 38-C , 45-C ) :   0.9441
B( 38-C , 92-H ) :   0.8728 B( 39-C , 40-C ) :   1.7206 B( 39-C , 93-H ) :   0.9642
B( 40-C , 41-C ) :   1.1421 B( 40-C , 94-H ) :   0.9867 B( 41-C , 42-C ) :   1.4355
B( 42-C , 43-C ) :   1.1418 B( 43-C , 44-C ) :   1.6192 B( 43-C , 95-H ) :   0.9903
B( 44-C , 96-H ) :   0.9828 B( 45-C , 46-C ) :   1.7749 B( 45-C , 97-H ) :   0.9658
B( 46-C , 47-C ) :   1.1167 B( 46-C , 98-H ) :   0.9439 B( 47-C , 48-N ) :   1.6046
B( 47-C , 49-C ) :   0.1119 B( 47-C , 58-C ) :   1.0022 B( 48-N , 49-C ) :   1.3547
B( 49-C , 50-C ) :   1.0529 B( 49-C , 54-C ) :   1.4092 B( 50-C , 51-C ) :   0.8930
B( 50-C , 58-C ) :   1.5571 B( 51-C , 52-O ) :   2.1934 B( 51-C , 53-C ) :   0.9271
B( 52-O ,102-H ) :   0.1023 B( 53-C , 54-C ) :   1.0733 B( 53-C , 57-C ) :   1.5986
B( 54-C , 55-N ) :   1.3169 B( 55-N , 56-C ) :   1.6517 B( 56-C , 57-C ) :   1.0753
B( 56-C , 99-H ) :   0.9894 B( 57-C ,100-H ) :   1.0112 B( 58-C , 59-C ) :   1.1226
B( 59-C , 60-C ) :   1.6475 B( 59-C ,101-H ) :   0.9654 B( 60-C , 61-C ) :   1.1606
B( 60-C ,102-H ) :   0.9443 B( 61-C , 62-S ) :   1.1106 B( 61-C , 65-C ) :   1.4934
B( 62-S , 63-C ) :   1.1582 B( 63-C , 64-C ) :   1.5615 B( 63-C , 72-C ) :   1.0526
B( 64-C , 65-C ) :   1.2726 B( 64-C , 68-C ) :   0.9328 B( 65-C , 66-C ) :   1.1244
B( 66-C , 67-N ) :   3.0131 B( 68-C , 69-F ) :   1.1672 B( 68-C , 70-F ) :   1.1738
B( 68-C , 71-F ) :   1.1506 B( 72-C , 73-C ) :   1.9613 B( 72-C ,103-H ) :   0.9405
B( 73-C ,104-H ) :   0.9532 B( 73-C ,105-H ) :   0.9508

-----------------------------------------------------------------------------
         ABSORPTION SPECTRUM VIA TRANSITION ELECTRIC DIPOLE MOMENTS
-----------------------------------------------------------------------------
State   Energy  Wavelength   fosc         T2         TX        TY        TZ
        (cm-1)    (nm)                  (au**2)     (au)      (au)      (au)
-----------------------------------------------------------------------------
   0    9963.7   1003.6   0.076492729   2.52741   0.93376  -0.82005   0.99147
   1   12180.3    821.0   0.120213857   3.24915   1.64881  -0.68789   0.23958
   2   13731.8    728.2   0.039286854   0.94188  -0.68987  -0.66812  -0.13991
   3   17413.7    574.3   0.152239311   2.87814   1.26318   0.11884   1.12624
   4   17781.0    562.4   0.030593352   0.56643  -0.25506   0.63457  -0.31416
   5   20906.2    478.3   0.001940807   0.03056   0.01995   0.17080  -0.03148
   6   21766.8    459.4   0.000444984   0.00673   0.03246  -0.05471   0.05180
   7   22191.9    450.6   0.079469230   1.17891   0.93585   0.11058   0.53932
   8   22328.5    447.9   0.000482240   0.00711   0.06692   0.04334   0.02744
   9   22890.4    436.9   0.325470511   4.68094   0.48979  -2.05854  -0.45108
  10   23631.4    423.2   0.688285040   9.58860  -1.61675   2.30521  -1.28870
  11   24192.8    413.3   0.041242759   0.56123   0.52723  -0.36509   0.38724
  12   24570.4    407.0   0.394621807   5.28743   2.08827  -0.57611   0.77114
  13   24790.6    403.4   0.124552222   1.65402  -0.44708   1.19791  -0.13836
  14   25184.4    397.1   0.015241777   0.19924  -0.07444   0.42858   0.10009
  15   25657.4    389.8   0.286826025   3.68029  -1.51435   0.81219  -0.85286
  16   25992.7    384.7   0.063931564   0.80973  -0.68764   0.31474  -0.48767
  17   26051.8    383.9   0.223695493   2.82680   1.26374  -0.65487   0.89493
  18   26251.6    380.9   0.033009570   0.41396   0.07810   0.48136  -0.41971
  19   26349.2    379.5   0.109124430   1.36342   0.96085   0.45881   0.47925
  20   26407.6    378.7   0.097778535   1.21896   1.06034  -0.12810   0.27969
  21   26890.4    371.9   0.201950495   2.47243   0.17671  -1.54547  -0.22962
  22   27180.5    367.9   0.362960404   4.39621  -0.87083  -0.19971  -1.89684
  23   27566.6    362.8   0.420874615   5.02625  -0.91452   0.15220  -2.04126
  24   27622.9    362.0   0.041581305   0.49557   0.36593  -0.13285   0.58653
  25   27661.0    361.5   0.127063151   1.51226  -0.64577   0.06976  -1.04421
  26   30005.9    333.3   0.050294392   0.55181  -0.14183   0.72917   0.00146
  27   30503.7    327.8   0.015742483   0.16990  -0.25445   0.14456  -0.29027
  28   30646.6    326.3   0.036739570   0.39466   0.23381  -0.55806   0.16902
  29   30831.9    324.3   0.043837148   0.46808  -0.61834   0.08122  -0.28131
  30   30964.0    323.0   0.082662254   0.87887   0.78322  -0.05506   0.51226
  31   31003.6    322.5   0.000609116   0.00647  -0.04727  -0.05220  -0.03885
  32   31530.2    317.2   0.018420403   0.19233   0.02694   0.15871  -0.40794
  33   32042.4    312.1   0.081412201   0.83645  -0.61025   0.05917  -0.67863
  34   32341.5    309.2   0.054357497   0.55332   0.40796  -0.10908   0.61236
  35   32798.3    304.9   0.178286813   1.78955   0.95953  -0.00665   0.93210
  36   33093.1    302.2   0.003537670   0.03519  -0.07363   0.13456  -0.10800
  37   33518.6    298.3   0.124723102   1.22500   0.90092  -0.36639   0.52830
  38   33748.4    296.3   0.006040236   0.05892   0.13278   0.08509   0.18453
  39   33874.7    295.2   0.017275926   0.16790  -0.26834   0.26755  -0.15591
  40   34043.5    293.7   0.047759806   0.46185   0.02970  -0.55506  -0.39099
  41   34083.2    293.4   0.011008233   0.10633   0.05850  -0.17767  -0.26710
  42   34211.4    292.3   0.057523532   0.55354   0.35793  -0.55018   0.35032
  43   34391.9    290.8   0.024655994   0.23602   0.33204   0.06007   0.34951
  44   34547.1    289.5   0.245858157   2.34287  -1.14849   0.66795  -0.76006
  45   34679.7    288.4   0.295884096   2.80881   0.05550  -1.62345  -0.41248
  46   34925.4    286.3   0.076124672   0.71756  -0.24847  -0.12523   0.80009
  47   34982.2    285.9   0.100238489   0.94333   0.49299  -0.53867   0.64041
  48   35218.3    283.9   0.032574489   0.30450  -0.37034   0.38679  -0.13320
  49   35499.4    281.7   0.016629337   0.15422   0.34869  -0.05045   0.17346
  50   36142.6    276.7   0.097429388   0.88745  -0.03614  -0.21736   0.91592
  51   36231.1    276.0   0.238397590   2.16619  -1.05250   1.02390  -0.10023
  52   36725.6    272.3   0.063373939   0.56809   0.49608  -0.48025   0.30225
  53   36827.2    271.5   0.158101537   1.41333   0.94048  -0.25509  -0.68099
  54   36848.8    271.4   0.011818575   0.10559  -0.25700   0.05479   0.19115
  55   37010.4    270.2   0.000507216   0.00451   0.01923  -0.02735   0.05826
  56   37147.2    269.2   0.000487078   0.00432  -0.01424   0.02782  -0.05779
  57   38295.5    261.1   0.000705274   0.00606   0.02981  -0.00003   0.07193
  58   38322.7    260.9   0.004855265   0.04171   0.13355  -0.00474  -0.15443
  59   38830.9    257.5   0.021379326   0.18126   0.07740   0.07918   0.41109
  60   38941.3    256.8   0.126147230   1.06645   0.33984   0.61713   0.75506
  61   39379.9    253.9   0.027770575   0.23216   0.24342  -0.39481   0.13050
  62   39406.6    253.8   0.006420924   0.05364   0.16568  -0.10492   0.12322
  63   39724.3    251.7   0.028686377   0.23774   0.30113   0.12771   0.36159
  64   39807.9    251.2   0.000989562   0.00818   0.06844   0.02528  -0.05349
  65   40310.9    248.1   0.001656643   0.01353   0.10458  -0.04689   0.01986

FINAL SINGLE POINT ENERGY     -4132.534547215869

DIPOLE MOMENT
-------------
                                X             Y             Z
Electronic contribution:    -15.83076      23.17020      57.63955
Nuclear contribution   :     19.73738     -23.78444     -58.64261
                        -----------------------------------------
Total Dipole Moment    :      3.90661      -0.61424      -1.00305
                        -----------------------------------------
Magnitude (a.u.)       :      4.07983
Magnitude (Debye)      :     10.37011

Rotational constants in cm-1:     0.001158     0.000492     0.000406
Rotational constants in MHz :    34.728070    14.743289    12.170091

                             ****ORCA TERMINATED NORMALLY****
TOTAL RUN TIME: 0 days 0 hours 11 minutes 5 seconds 978 msec
