                         Program Version 4.2.0 -  RELEASE  -
|  1> # ORCA input file
|  2> # SCF done       -177.697991490551          0.000354701475
|  3> ! CAM-B3LYP def2-SVP def2/J RIJCOSX Grid4 TightSCF
|  4> %maxcore 5000
|  5> %tddft
|  6>     Mode sTDDFT
|  7>     Ethresh 5.0
|  8>     maxcore 5000
|  9> end
| 10>
| 11> %pal
| 12>   nprocs 6
| 13>   end
| 14> * xyz 0 1
| 15>    C       -1.64339         0.33869         1.33189
| 16>    O       -1.84727        -0.58321         0.59278
| 17>    N       -1.54198         1.64915         0.88808
| 18>    C       -1.97212         2.09058        -0.34867
| 19>    N       -1.73713         3.34402        -0.52129
| 20>    C       -1.10382         3.77575         0.61386
| 21>    C       -0.97615         2.75625         1.49893
| 22>    N       -1.51900         0.19458         2.71965
| 23>    C       -2.14608         0.98055         3.67330
| 24>    C       -2.01572         0.32437         4.85645
| 25>    N       -1.32078        -0.82909         4.68342
| 26>    C       -1.03680        -0.91170         3.41091
| 27>    C       -0.25907        -1.96002         2.83144
| 28>    C        0.51986        -1.95030         1.69513
| 29>    C        1.14785        -3.18063         1.49253
| 30>    C        0.83932        -4.12378         2.48968
| 31>    S       -0.20397        -3.48847         3.68192
| 32>    C        1.49368        -5.34376         2.18013
| 33>    C        2.21761        -5.16373         0.98474
| 34>    C        2.03307        -3.79672         0.52096
| 35>    C        2.57662        -3.21230        -0.58571
| 36>    C        2.33236        -1.86079        -0.90784
| 37>    N        2.14519        -0.75775        -1.16063
| 38>    C        3.42714        -3.90936        -1.46938
| 39>    N        4.11801        -4.46480        -2.19679
| 40>    C        2.87921        -6.31462         0.57700
| 41>    C        2.66178        -7.37395         1.44906
| 42>    S        1.63277        -6.93282         2.80105
| 43>    C        3.14654        -8.70092         1.32195
| 44>    C        2.81131        -9.68668         2.27935
| 45>    C        3.23153       -11.04879         2.15521
| 46>    N        2.87211       -11.94172         3.09302
| 47>    C        2.14582       -11.54977         4.10311
| 48>    C        1.73129       -10.20864         4.22492
| 49>    N        2.06164        -9.31728         3.33175
| 50>    C        4.01055       -11.50412         1.06592
| 51>    C        4.37781       -10.51842         0.12307
| 52>    C        3.95375        -9.14046         0.24928
| 53>    N        4.41405        -8.39489        -0.75768
| 54>    S        5.27934        -9.30956        -1.74788
| 55>    N        5.12350       -10.70050        -0.96895
| 56>    C        4.36108       -12.87359         0.94898
| 57>    C        5.08671       -13.46858        -0.07552
| 58>    C        5.21703       -14.83857         0.10990
| 59>    C        4.58949       -15.29321         1.28681
| 60>    S        3.83915       -14.02858         2.16329
| 61>    C        4.76908       -16.69765         1.37061
| 62>    C        5.50349       -17.12625         0.24952
| 63>    C        5.80566       -15.97554        -0.58214
| 64>    C        6.47985       -15.96900        -1.76838
| 65>    C        6.71903       -14.78428        -2.49599
| 66>    N        6.91973       -13.82891        -3.09761
| 67>    C        6.96462       -17.15662        -2.35569
| 68>    N        7.34236       -18.12333        -2.84381
| 69>    C        5.73142       -18.50349         0.24185
| 70>    C        5.17990       -19.11467         1.34718
| 71>    S        4.35310       -17.98993         2.40508
| 72>    C        5.12655       -20.49282         1.71302
| 73>    N        4.24983       -20.97791         2.55381
| 74>    C        4.45127       -22.31834         2.60370
| 75>    C        5.45456       -22.67677         1.75899
| 76>    N        5.90831       -21.50658         1.17223
| 77>    C        7.08890       -21.38056         0.42695
| 78>    O        7.89109       -20.50889         0.61023
| 79>    N        7.25998       -22.37320        -0.52658
| 80>    C        8.45746       -22.65611        -1.15600
| 81>    N        8.33550       -23.60100        -2.02099
| 82>    C        7.01483       -23.96472        -2.00894
| 83>    C        6.33206       -23.22989        -1.09658
| 84>    H       -2.45596         1.43369        -1.04238
| 85>    H       -0.78589         4.79414         0.70871
| 86>    H       -0.51314         2.70697         2.46228
| 87>    H       -2.65581         1.88589         3.41668
| 88>    H       -2.37131         0.60935         5.82570
| 89>    H        0.63622        -1.09799         1.05175
| 90>    H        3.48806        -6.41737        -0.30235
| 91>    H        1.88092       -12.29894         4.83526
| 92>    H        1.12959        -9.86924         5.05572
| 93>    H        5.47986       -12.90047        -0.89841
| 94>    H        6.26381       -19.02176        -0.53337
| 95>    H        3.85499       -22.93945         3.24069
| 96>    H        5.91129       -23.62402         1.55991
| 97>    H        9.35946       -22.13441        -0.90898
| 98>    H        6.65316       -24.73267        -2.66217
| 99>    H        5.29508       -23.21176        -0.83356
|100> *
|101>
|102>                          ****END OF INPUT****

CARTESIAN COORDINATES (ANGSTROEM)
---------------------------------
  C     -1.643390    0.338690    1.331890
  O     -1.847270   -0.583210    0.592780
  N     -1.541980    1.649150    0.888080
  C     -1.972120    2.090580   -0.348670
  N     -1.737130    3.344020   -0.521290
  C     -1.103820    3.775750    0.613860
  C     -0.976150    2.756250    1.498930
  N     -1.519000    0.194580    2.719650
  C     -2.146080    0.980550    3.673300
  C     -2.015720    0.324370    4.856450
  N     -1.320780   -0.829090    4.683420
  C     -1.036800   -0.911700    3.410910
  C     -0.259070   -1.960020    2.831440
  C      0.519860   -1.950300    1.695130
  C      1.147850   -3.180630    1.492530
  C      0.839320   -4.123780    2.489680
  S     -0.203970   -3.488470    3.681920
  C      1.493680   -5.343760    2.180130
  C      2.217610   -5.163730    0.984740
  C      2.033070   -3.796720    0.520960
  C      2.576620   -3.212300   -0.585710
  C      2.332360   -1.860790   -0.907840
  N      2.145190   -0.757750   -1.160630
  C      3.427140   -3.909360   -1.469380
  N      4.118010   -4.464800   -2.196790
  C      2.879210   -6.314620    0.577000
  C      2.661780   -7.373950    1.449060
  S      1.632770   -6.932820    2.801050
  C      3.146540   -8.700920    1.321950
  C      2.811310   -9.686680    2.279350
  C      3.231530  -11.048790    2.155210
  N      2.872110  -11.941720    3.093020
  C      2.145820  -11.549770    4.103110
  C      1.731290  -10.208640    4.224920
  N      2.061640   -9.317280    3.331750
  C      4.010550  -11.504120    1.065920
  C      4.377810  -10.518420    0.123070
  C      3.953750   -9.140460    0.249280
  N      4.414050   -8.394890   -0.757680
  S      5.279340   -9.309560   -1.747880
  N      5.123500  -10.700500   -0.968950
  C      4.361080  -12.873590    0.948980
  C      5.086710  -13.468580   -0.075520
  C      5.217030  -14.838570    0.109900
  C      4.589490  -15.293210    1.286810
  S      3.839150  -14.028580    2.163290
  C      4.769080  -16.697650    1.370610
  C      5.503490  -17.126250    0.249520
  C      5.805660  -15.975540   -0.582140
  C      6.479850  -15.969000   -1.768380
  C      6.719030  -14.784280   -2.495990
  N      6.919730  -13.828910   -3.097610
  C      6.964620  -17.156620   -2.355690
  N      7.342360  -18.123330   -2.843810
  C      5.731420  -18.503490    0.241850
  C      5.179900  -19.114670    1.347180
  S      4.353100  -17.989930    2.405080
  C      5.126550  -20.492820    1.713020
  N      4.249830  -20.977910    2.553810
  C      4.451270  -22.318340    2.603700
  C      5.454560  -22.676770    1.758990
  N      5.908310  -21.506580    1.172230
  C      7.088900  -21.380560    0.426950
  O      7.891090  -20.508890    0.610230
  N      7.259980  -22.373200   -0.526580
  C      8.457460  -22.656110   -1.156000
  N      8.335500  -23.601000   -2.020990
  C      7.014830  -23.964720   -2.008940
  C      6.332060  -23.229890   -1.096580
  H     -2.455960    1.433690   -1.042380
  H     -0.785890    4.794140    0.708710
  H     -0.513140    2.706970    2.462280
  H     -2.655810    1.885890    3.416680
  H     -2.371310    0.609350    5.825700
  H      0.636220   -1.097990    1.051750
  H      3.488060   -6.417370   -0.302350
  H      1.880920  -12.298940    4.835260
  H      1.129590   -9.869240    5.055720
  H      5.479860  -12.900470   -0.898410
  H      6.263810  -19.021760   -0.533370
  H      3.854990  -22.939450    3.240690
  H      5.911290  -23.624020    1.559910
  H      9.359460  -22.134410   -0.908980
  H      6.653160  -24.732670   -2.662170
  H      5.295080  -23.211760   -0.833560

 Total Charge           Charge          ....    0
 Multiplicity           Mult            ....    1
 Number of Electrons    NEL             ....  500
 Basis Dimension        Dim             .... 1066

ORBITAL ENERGIES
----------------

  NO   OCC          E(Eh)            E(eV)
   0   2.0000     -89.041039     -2422.9299
   1   2.0000     -88.983319     -2421.3592
   2   2.0000     -88.982624     -2421.3403
   3   2.0000     -88.975487     -2421.1461
   4   2.0000     -88.975456     -2421.1453
   5   2.0000     -19.242883      -523.6255
   6   2.0000     -19.241738      -523.5943
   7   2.0000     -14.501947      -394.6180
   8   2.0000     -14.501926      -394.6175
   9   2.0000     -14.499597      -394.5541
  10   2.0000     -14.499287      -394.5456
  11   2.0000     -14.450946      -393.2302
  12   2.0000     -14.450807      -393.2265
  13   2.0000     -14.448911      -393.1749
  14   2.0000     -14.448840      -393.1729
  15   2.0000     -14.422632      -392.4598
  16   2.0000     -14.422271      -392.4500
  17   2.0000     -14.420806      -392.4101
  18   2.0000     -14.420694      -392.4070
  19   2.0000     -14.408727      -392.0814
  20   2.0000     -14.408506      -392.0754
  21   2.0000     -14.402568      -391.9138
  22   2.0000     -14.402396      -391.9091
  23   2.0000     -10.458704      -284.5958
  24   2.0000     -10.458188      -284.5818
  25   2.0000     -10.359357      -281.8924
  26   2.0000     -10.358911      -281.8803
  27   2.0000     -10.354446      -281.7588
  28   2.0000     -10.354317      -281.7553
  29   2.0000     -10.344760      -281.4952
  30   2.0000     -10.344472      -281.4874
  31   2.0000     -10.342727      -281.4399
  32   2.0000     -10.342503      -281.4338
  33   2.0000     -10.339354      -281.3481
  34   2.0000     -10.339106      -281.3414
  35   2.0000     -10.338635      -281.3286
  36   2.0000     -10.338542      -281.3260
  37   2.0000     -10.337771      -281.3051
  38   2.0000     -10.337490      -281.2974
  39   2.0000     -10.324366      -280.9403
  40   2.0000     -10.324061      -280.9320
  41   2.0000     -10.323535      -280.9177
  42   2.0000     -10.323094      -280.9057
  43   2.0000     -10.321425      -280.8602
  44   2.0000     -10.321340      -280.8579
  45   2.0000     -10.320734      -280.8414
  46   2.0000     -10.320575      -280.8371
  47   2.0000     -10.319500      -280.8079
  48   2.0000     -10.319068      -280.7961
  49   2.0000     -10.315886      -280.7095
  50   2.0000     -10.315753      -280.7059
  51   2.0000     -10.314745      -280.6785
  52   2.0000     -10.314560      -280.6734
  53   2.0000     -10.314089      -280.6606
  54   2.0000     -10.314042      -280.6594
  55   2.0000     -10.313974      -280.6575
  56   2.0000     -10.313920      -280.6560
  57   2.0000     -10.302310      -280.3401
  58   2.0000     -10.302290      -280.3396
  59   2.0000     -10.298097      -280.2255
  60   2.0000     -10.297731      -280.2155
  61   2.0000     -10.297158      -280.1999
  62   2.0000     -10.296947      -280.1942
  63   2.0000     -10.295028      -280.1420
  64   2.0000     -10.294726      -280.1337
  65   2.0000     -10.290048      -280.0064
  66   2.0000     -10.289974      -280.0044
  67   2.0000     -10.287518      -279.9376
  68   2.0000     -10.287434      -279.9353
  69   2.0000      -8.132047      -221.2842
  70   2.0000      -8.077581      -219.8022
  71   2.0000      -8.076797      -219.7808
  72   2.0000      -8.067792      -219.5358
  73   2.0000      -8.067786      -219.5356
  74   2.0000      -6.103115      -166.0742
  75   2.0000      -6.095200      -165.8588
  76   2.0000      -6.095007      -165.8536
  77   2.0000      -6.046861      -164.5435
  78   2.0000      -6.046084      -164.5223
  79   2.0000      -6.042538      -164.4258
  80   2.0000      -6.041770      -164.4049
  81   2.0000      -6.040024      -164.3574
  82   2.0000      -6.039225      -164.3357
  83   2.0000      -6.037410      -164.2863
  84   2.0000      -6.037389      -164.2857
  85   2.0000      -6.032510      -164.1529
  86   2.0000      -6.032500      -164.1527
  87   2.0000      -6.030289      -164.0925
  88   2.0000      -6.030281      -164.0923
  89   2.0000      -1.202712       -32.7275
  90   2.0000      -1.202200       -32.7135
  91   2.0000      -1.137950       -30.9652
  92   2.0000      -1.131825       -30.7985
  93   2.0000      -1.131624       -30.7931
  94   2.0000      -1.126522       -30.6542
  95   2.0000      -1.126083       -30.6423
  96   2.0000      -1.107757       -30.1436
  97   2.0000      -1.038099       -28.2481
  98   2.0000      -1.034320       -28.1453
  99   2.0000      -1.031300       -28.0631
 100   2.0000      -1.016755       -27.6673
 101   2.0000      -1.016434       -27.6586
 102   2.0000      -1.012696       -27.5569
 103   2.0000      -1.012346       -27.5473
 104   2.0000      -0.999416       -27.1955
 105   2.0000      -0.999170       -27.1888
 106   2.0000      -0.994731       -27.0680
 107   2.0000      -0.991494       -26.9799
 108   2.0000      -0.983173       -26.7535
 109   2.0000      -0.981100       -26.6971
 110   2.0000      -0.980159       -26.6715
 111   2.0000      -0.968338       -26.3498
 112   2.0000      -0.949378       -25.8339
 113   2.0000      -0.944603       -25.7040
 114   2.0000      -0.911980       -24.8162
 115   2.0000      -0.905452       -24.6386
 116   2.0000      -0.885990       -24.1090
 117   2.0000      -0.882997       -24.0276
 118   2.0000      -0.870159       -23.6782
 119   2.0000      -0.867112       -23.5953
 120   2.0000      -0.856603       -23.3094
 121   2.0000      -0.854637       -23.2559
 122   2.0000      -0.854208       -23.2442
 123   2.0000      -0.848692       -23.0941
 124   2.0000      -0.843435       -22.9510
 125   2.0000      -0.842685       -22.9306
 126   2.0000      -0.816293       -22.2125
 127   2.0000      -0.807752       -21.9801
 128   2.0000      -0.805935       -21.9306
 129   2.0000      -0.793329       -21.5876
 130   2.0000      -0.781977       -21.2787
 131   2.0000      -0.771602       -20.9964
 132   2.0000      -0.768675       -20.9167
 133   2.0000      -0.759446       -20.6656
 134   2.0000      -0.748270       -20.3615
 135   2.0000      -0.733280       -19.9536
 136   2.0000      -0.731427       -19.9031
 137   2.0000      -0.716886       -19.5075
 138   2.0000      -0.715307       -19.4645
 139   2.0000      -0.711984       -19.3741
 140   2.0000      -0.711347       -19.3567
 141   2.0000      -0.700453       -19.0603
 142   2.0000      -0.694974       -18.9112
 143   2.0000      -0.685715       -18.6593
 144   2.0000      -0.685198       -18.6452
 145   2.0000      -0.677380       -18.4324
 146   2.0000      -0.673507       -18.3271
 147   2.0000      -0.672081       -18.2883
 148   2.0000      -0.667428       -18.1616
 149   2.0000      -0.665013       -18.0959
 150   2.0000      -0.663640       -18.0586
 151   2.0000      -0.646773       -17.5996
 152   2.0000      -0.642712       -17.4891
 153   2.0000      -0.641072       -17.4444
 154   2.0000      -0.623922       -16.9778
 155   2.0000      -0.623413       -16.9639
 156   2.0000      -0.616945       -16.7879
 157   2.0000      -0.611218       -16.6321
 158   2.0000      -0.604128       -16.4392
 159   2.0000      -0.603195       -16.4138
 160   2.0000      -0.599441       -16.3116
 161   2.0000      -0.587148       -15.9771
 162   2.0000      -0.584463       -15.9040
 163   2.0000      -0.582987       -15.8639
 164   2.0000      -0.582274       -15.8445
 165   2.0000      -0.573588       -15.6081
 166   2.0000      -0.570609       -15.5270
 167   2.0000      -0.569324       -15.4921
 168   2.0000      -0.564520       -15.3614
 169   2.0000      -0.562991       -15.3198
 170   2.0000      -0.555513       -15.1163
 171   2.0000      -0.554025       -15.0758
 172   2.0000      -0.553622       -15.0648
 173   2.0000      -0.547713       -14.9040
 174   2.0000      -0.547192       -14.8899
 175   2.0000      -0.542592       -14.7647
 176   2.0000      -0.542086       -14.7509
 177   2.0000      -0.539163       -14.6714
 178   2.0000      -0.538002       -14.6398
 179   2.0000      -0.533440       -14.5156
 180   2.0000      -0.532966       -14.5027
 181   2.0000      -0.525318       -14.2946
 182   2.0000      -0.525147       -14.2900
 183   2.0000      -0.517898       -14.0927
 184   2.0000      -0.517078       -14.0704
 185   2.0000      -0.514316       -13.9952
 186   2.0000      -0.512529       -13.9466
 187   2.0000      -0.504177       -13.7193
 188   2.0000      -0.504034       -13.7155
 189   2.0000      -0.502432       -13.6719
 190   2.0000      -0.497508       -13.5379
 191   2.0000      -0.496504       -13.5106
 192   2.0000      -0.495005       -13.4698
 193   2.0000      -0.492815       -13.4102
 194   2.0000      -0.485958       -13.2236
 195   2.0000      -0.485379       -13.2078
 196   2.0000      -0.484122       -13.1736
 197   2.0000      -0.481541       -13.1034
 198   2.0000      -0.481028       -13.0894
 199   2.0000      -0.476952       -12.9785
 200   2.0000      -0.471778       -12.8377
 201   2.0000      -0.465817       -12.6755
 202   2.0000      -0.464972       -12.6525
 203   2.0000      -0.454910       -12.3787
 204   2.0000      -0.453875       -12.3506
 205   2.0000      -0.452772       -12.3206
 206   2.0000      -0.450253       -12.2520
 207   2.0000      -0.448890       -12.2149
 208   2.0000      -0.448683       -12.2093
 209   2.0000      -0.448248       -12.1974
 210   2.0000      -0.440290       -11.9809
 211   2.0000      -0.439153       -11.9500
 212   2.0000      -0.436991       -11.8911
 213   2.0000      -0.432238       -11.7618
 214   2.0000      -0.431961       -11.7543
 215   2.0000      -0.430439       -11.7128
 216   2.0000      -0.430088       -11.7033
 217   2.0000      -0.421668       -11.4742
 218   2.0000      -0.419343       -11.4109
 219   2.0000      -0.418912       -11.3992
 220   2.0000      -0.407762       -11.0958
 221   2.0000      -0.407309       -11.0834
 222   2.0000      -0.405136       -11.0243
 223   2.0000      -0.402210       -10.9447
 224   2.0000      -0.401913       -10.9366
 225   2.0000      -0.385281       -10.4840
 226   2.0000      -0.385135       -10.4801
 227   2.0000      -0.379565       -10.3285
 228   2.0000      -0.379423       -10.3246
 229   2.0000      -0.376732       -10.2514
 230   2.0000      -0.374529       -10.1915
 231   2.0000      -0.373367       -10.1598
 232   2.0000      -0.369966       -10.0673
 233   2.0000      -0.367199        -9.9920
 234   2.0000      -0.366414        -9.9706
 235   2.0000      -0.354899        -9.6573
 236   2.0000      -0.354762        -9.6536
 237   2.0000      -0.349645        -9.5143
 238   2.0000      -0.343025        -9.3342
 239   2.0000      -0.336731        -9.1629
 240   2.0000      -0.336058        -9.1446
 241   2.0000      -0.334291        -9.0965
 242   2.0000      -0.327522        -8.9123
 243   2.0000      -0.322543        -8.7768
 244   2.0000      -0.321151        -8.7390
 245   2.0000      -0.312562        -8.5053
 246   2.0000      -0.311474        -8.4756
 247   2.0000      -0.295461        -8.0399
 248   2.0000      -0.266958        -7.2643
 249   2.0000      -0.230842        -6.2815
 250   0.0000      -0.119089        -3.2406
 251   0.0000      -0.093082        -2.5329
 252   0.0000      -0.087988        -2.3943
 253   0.0000      -0.040764        -1.1092
 254   0.0000      -0.039612        -1.0779

MULLIKEN ATOMIC CHARGES
-----------------------
   0 C :    0.222310
   1 O :   -0.141572
   2 N :   -0.183863
   3 C :    0.118103
   4 N :   -0.107986
   5 C :    0.019985
   6 C :    0.054198
   7 N :   -0.195440
   8 C :    0.063053
   9 C :    0.034373
  10 N :   -0.099725
  11 C :    0.065045
  12 C :   -0.094967
  13 C :   -0.010959
  14 C :   -0.015226
  15 C :   -0.099326
  16 S :    0.236533
  17 C :   -0.068191
  18 C :    0.035750
  19 C :    0.311296
  20 C :   -0.305487
  21 C :   -0.186115
  22 N :    0.162939
  23 C :   -0.188722
  24 N :    0.171203
  25 C :   -0.067671
  26 C :   -0.174337
  27 S :    0.192348
  28 C :    0.178029
  29 C :   -0.050847
  30 C :   -0.052084
  31 N :   -0.080627
  32 C :    0.044905
  33 C :    0.045672
  34 N :   -0.079827
  35 C :    0.179024
  36 C :   -0.009470
  37 C :   -0.012643
  38 N :   -0.285205
  39 S :    0.573822
  40 N :   -0.288437
  41 C :   -0.173680
  42 C :   -0.070876
  43 C :    0.038330
  44 C :   -0.068059
  45 S :    0.192779
  46 C :   -0.098536
  47 C :   -0.019171
  48 C :    0.313594
  49 C :   -0.307320
  50 C :   -0.188477
  51 N :    0.169251
  52 C :   -0.184879
  53 N :    0.165658
  54 C :   -0.019211
  55 C :   -0.095436
  56 S :    0.237134
  57 C :    0.073307
  58 N :   -0.105463
  59 C :    0.032668
  60 C :    0.064918
  61 N :   -0.196605
  62 C :    0.224952
  63 O :   -0.141771
  64 N :   -0.183730
  65 C :    0.120635
  66 N :   -0.107262
  67 C :    0.020171
  68 C :    0.051497
  69 H :    0.039955
  70 H :    0.011196
  71 H :    0.035270
  72 H :    0.033803
  73 H :    0.002421
  74 H :    0.008855
  75 H :    0.019286
  76 H :    0.021352
  77 H :    0.020597
  78 H :    0.018207
  79 H :    0.010053
  80 H :    0.003497
  81 H :    0.032201
  82 H :    0.039640
  83 H :    0.011394
  84 H :    0.037994
Sum of atomic charges:   -0.0000000

LOEWDIN ATOMIC CHARGES
----------------------
   0 C :    0.115872
   1 O :   -0.126284
   2 N :    0.025344
   3 C :    0.054079
   4 N :   -0.089526
   5 C :   -0.020291
   6 C :   -0.025709
   7 N :    0.021144
   8 C :   -0.019436
   9 C :   -0.022345
  10 N :   -0.108645
  11 C :    0.010959
  12 C :   -0.187296
  13 C :   -0.018834
  14 C :   -0.071066
  15 C :   -0.175794
  16 S :    0.513661
  17 C :   -0.185349
  18 C :   -0.075329
  19 C :    0.084061
  20 C :   -0.107596
  21 C :   -0.014401
  22 N :   -0.040762
  23 C :   -0.017041
  24 N :   -0.035759
  25 C :   -0.012706
  26 C :   -0.165231
  27 S :    0.504292
  28 C :   -0.043088
  29 C :   -0.018405
  30 C :   -0.018383
  31 N :   -0.046103
  32 C :    0.019120
  33 C :    0.019287
  34 N :   -0.046108
  35 C :   -0.043162
  36 C :   -0.039126
  37 C :   -0.039457
  38 N :   -0.276106
  39 S :    0.695493
  40 N :   -0.276564
  41 C :   -0.165262
  42 C :   -0.012904
  43 C :   -0.074962
  44 C :   -0.185635
  45 S :    0.504464
  46 C :   -0.175600
  47 C :   -0.071911
  48 C :    0.083728
  49 C :   -0.107505
  50 C :   -0.016919
  51 N :   -0.035940
  52 C :   -0.015046
  53 N :   -0.039772
  54 C :   -0.020573
  55 C :   -0.186888
  56 S :    0.514514
  57 C :    0.011658
  58 N :   -0.111882
  59 C :   -0.023024
  60 C :   -0.019629
  61 N :    0.021368
  62 C :    0.116317
  63 O :   -0.124462
  64 N :    0.025338
  65 C :    0.055182
  66 N :   -0.089129
  67 C :   -0.020138
  68 C :   -0.025885
  69 H :    0.028762
  70 H :    0.025833
  71 H :    0.030231
  72 H :    0.030709
  73 H :    0.025916
  74 H :    0.036219
  75 H :    0.037662
  76 H :    0.031058
  77 H :    0.030933
  78 H :    0.037527
  79 H :    0.036213
  80 H :    0.026103
  81 H :    0.030399
  82 H :    0.029033
  83 H :    0.025873
  84 H :    0.030615

  Mayer bond orders larger than 0.100000
B(  0-C ,  1-O ) :   2.1988 B(  0-C ,  2-N ) :   1.0200 B(  0-C ,  7-N ) :   0.9725
B(  2-N ,  3-C ) :   1.1013 B(  2-N ,  6-C ) :   1.0801 B(  3-C ,  4-N ) :   1.7606
B(  3-C , 69-H ) :   0.9816 B(  4-N ,  5-C ) :   1.3234 B(  5-C ,  6-C ) :   1.6009
B(  5-C , 70-H ) :   1.0007 B(  6-C , 71-H ) :   0.9841 B(  7-N ,  8-C ) :   1.0762
B(  7-N , 11-C ) :   1.1303 B(  8-C ,  9-C ) :   1.5707 B(  8-C , 72-H ) :   0.9809
B(  9-C , 10-N ) :   1.3401 B(  9-C , 73-H ) :   0.9993 B( 10-N , 11-C ) :   1.7788
B( 11-C , 12-C ) :   1.0435 B( 12-C , 13-C ) :   1.4860 B( 12-C , 16-S ) :   1.1189
B( 13-C , 14-C ) :   1.3060 B( 13-C , 74-H ) :   0.9794 B( 14-C , 15-C ) :   1.4325
B( 14-C , 19-C ) :   0.9959 B( 15-C , 16-S ) :   1.1262 B( 15-C , 17-C ) :   1.1898
B( 17-C , 18-C ) :   1.4172 B( 17-C , 27-S ) :   1.0754 B( 18-C , 19-C ) :   0.9868
B( 18-C , 25-C ) :   1.2706 B( 19-C , 20-C ) :   1.7059 B( 20-C , 21-C ) :   1.1361
B( 20-C , 23-C ) :   1.1390 B( 21-C , 22-N ) :   2.9817 B( 23-C , 24-N ) :   2.9891
B( 25-C , 26-C ) :   1.4227 B( 25-C , 75-H ) :   0.9836 B( 26-C , 27-S ) :   1.0888
B( 26-C , 28-C ) :   1.1950 B( 28-C , 29-C ) :   1.2722 B( 28-C , 35-C ) :   0.1333
B( 28-C , 37-C ) :   1.2047 B( 29-C , 30-C ) :   1.1315 B( 29-C , 34-N ) :   1.3966
B( 30-C , 31-N ) :   1.3979 B( 30-C , 35-C ) :   1.2728 B( 31-N , 32-C ) :   1.6547
B( 32-C , 33-C ) :   1.2017 B( 32-C , 76-H ) :   0.9740 B( 33-C , 34-N ) :   1.6555
B( 33-C , 77-H ) :   0.9744 B( 35-C , 36-C ) :   1.2031 B( 35-C , 41-C ) :   1.1954
B( 36-C , 37-C ) :   1.0984 B( 36-C , 40-N ) :   1.5055 B( 37-C , 38-N ) :   1.5073
B( 38-N , 39-S ) :   1.2863 B( 38-N , 40-N ) :   0.1517 B( 39-S , 40-N ) :   1.2851
B( 41-C , 42-C ) :   1.4228 B( 41-C , 45-S ) :   1.0889 B( 42-C , 43-C ) :   1.2725
B( 42-C , 78-H ) :   0.9830 B( 43-C , 44-C ) :   1.4150 B( 43-C , 48-C ) :   0.9871
B( 44-C , 45-S ) :   1.0757 B( 44-C , 46-C ) :   1.1896 B( 46-C , 47-C ) :   1.4353
B( 46-C , 56-S ) :   1.1231 B( 47-C , 48-C ) :   0.9978 B( 47-C , 54-C ) :   1.3029
B( 48-C , 49-C ) :   1.7049 B( 49-C , 50-C ) :   1.1412 B( 49-C , 52-C ) :   1.1337
B( 50-C , 51-N ) :   2.9872 B( 52-C , 53-N ) :   2.9824 B( 54-C , 55-C ) :   1.4854
B( 54-C , 79-H ) :   0.9784 B( 55-C , 56-S ) :   1.1171 B( 55-C , 57-C ) :   1.0518
B( 57-C , 58-N ) :   1.7758 B( 57-C , 61-N ) :   1.1325 B( 58-N , 59-C ) :   1.3446
B( 59-C , 60-C ) :   1.5673 B( 59-C , 80-H ) :   0.9990 B( 60-C , 61-N ) :   1.0787
B( 60-C , 81-H ) :   0.9808 B( 61-N , 62-C ) :   0.9678 B( 62-C , 63-O ) :   2.1975
B( 62-C , 64-N ) :   1.0238 B( 64-N , 65-C ) :   1.0995 B( 64-N , 68-C ) :   1.0786
B( 65-C , 66-N ) :   1.7615 B( 65-C , 82-H ) :   0.9821 B( 66-N , 67-C ) :   1.3210
B( 67-C , 68-C ) :   1.6021 B( 67-C , 83-H ) :   1.0010 B( 68-C , 84-H ) :   0.9837

-----------------------------------------------------------------------------
         ABSORPTION SPECTRUM VIA TRANSITION ELECTRIC DIPOLE MOMENTS
-----------------------------------------------------------------------------
State   Energy  Wavelength   fosc         T2         TX        TY        TZ
        (cm-1)    (nm)                  (au**2)     (au)      (au)      (au)
-----------------------------------------------------------------------------
   0    9126.6   1095.7   0.694784187  25.06216  -1.48422   4.76277   0.41868
   1   12948.7    772.3   0.003075162   0.07818   0.22677   0.06137  -0.15164
   2   13730.0    728.3   0.005263795   0.12621  -0.09597   0.34111   0.02544
   3   18084.1    553.0   0.005259919   0.09575   0.27762   0.09348  -0.09971
   4   22790.5    438.8   0.010343108   0.14941  -0.10452   0.37155   0.02079
   5   24045.7    415.9   0.000969610   0.01328   0.09082   0.04969   0.05057
   6   24208.2    413.1   0.002221486   0.03021   0.14511   0.08994  -0.03260
   7   25196.7    396.9   0.463474470   6.05561   0.75216  -2.33453  -0.19955
   8   26290.8    380.4   0.185567133   2.32366  -0.33566   1.47984  -0.14513
   9   26374.2    379.2   0.052631453   0.65696  -0.43671  -0.00026   0.68282
  10   26429.2    378.4   0.106329324   1.32448   0.44429  -1.04413  -0.19203
  11   27388.7    365.1   0.589767008   7.08899  -0.75037   2.55329   0.08138
  12   27821.1    359.4   0.083537103   0.98851  -0.75814   0.32157   0.55707
  13   29951.2    333.9   0.024834598   0.27297  -0.28317  -0.15330   0.41144
  14   30580.5    327.0   0.010698184   0.11517   0.21465   0.04366  -0.25921
  15   31054.0    322.0   0.533780977   5.65875  -0.69925   2.25943   0.25449
  16   31203.1    320.5   0.142561818   1.50412   0.27906  -1.17151  -0.23196
  17   31406.0    318.4   0.105238546   1.10316   0.53535   0.35340  -0.83167
  18   31781.1    314.7   0.002786159   0.02886  -0.07060   0.14493   0.05359
  19   32232.3    310.2   0.660089368   6.74197   1.25019   0.49802  -2.22058
  20   32386.7    308.8   0.281018222   2.85656  -0.33613   1.65015  -0.14350
  21   32684.6    306.0   0.088230183   0.88869   0.39815   0.12760  -0.84492
  22   32739.9    305.4   0.247550026   2.48921   0.67234   0.27098  -1.40133
  23   33720.8    296.6   0.002539428   0.02479   0.07234  -0.13066   0.04987
  24   33848.6    295.4   0.000987339   0.00960  -0.05755   0.06534   0.04496
  25   34362.3    291.0   0.077178977   0.73942  -0.26528  -0.20625   0.79152
  26   34604.9    289.0   0.020891745   0.19875   0.04036  -0.35643   0.26473
  27   34656.5    288.5   0.031207513   0.29645   0.26249  -0.39247  -0.27114
  28   34961.2    286.0   0.011336200   0.10675  -0.19451  -0.09874   0.24323
  29   35502.2    281.7   0.139875970   1.29707   0.35336  -1.07961  -0.08157
  30   36098.6    277.0   0.736153527   6.71356   1.27637   0.60245  -2.17290
  31   36318.6    275.3   0.005969136   0.05411  -0.18584  -0.10965  -0.08687
  32   36454.4    274.3   0.000032400   0.00029   0.01164  -0.00177  -0.01241
  33   36699.3    272.5   0.079236149   0.71079  -0.44130  -0.40911   0.59049
  34   36852.1    271.4   0.003680536   0.03288   0.03742  -0.16258   0.07104
  35   37256.3    268.4   0.154017746   1.36096   0.51995  -1.02188  -0.21534
  36   37475.5    266.8   0.278368954   2.44540  -0.77811  -0.66908   1.17995
  37   37793.3    264.6   0.061201773   0.53312  -0.31481  -0.10893   0.64973
  38   37894.6    263.9   0.184800107   1.60546   0.52857  -1.11524  -0.28691
  39   38504.3    259.7   0.008129515   0.06951  -0.13782   0.21330   0.07083
  40   38565.1    259.3   0.002728175   0.02329   0.02125   0.14902  -0.02513
  41   38766.3    258.0   0.004780994   0.04060  -0.15307   0.10003   0.08464
  42   38862.2    257.3   0.002461349   0.02085   0.03629   0.10409  -0.09327
  43   40174.4    248.9   0.002715838   0.02226  -0.11789  -0.00786   0.09108

FINAL SINGLE POINT ENERGY     -4775.761866500637

DIPOLE MOMENT
-------------
                                X             Y             Z
Electronic contribution:      6.97424       2.08635      -1.71292
Nuclear contribution   :     -9.23026      -3.02568       5.63855
                        -----------------------------------------
Total Dipole Moment    :     -2.25602      -0.93934       3.92563
                        -----------------------------------------
Magnitude (a.u.)       :      4.62412
Magnitude (Debye)      :     11.75359

Rotational constants in cm-1:     0.003392     0.000240     0.000227
Rotational constants in MHz :   101.688614     7.190860     6.794383

                             ****ORCA TERMINATED NORMALLY****
TOTAL RUN TIME: 0 days 0 hours 7 minutes 23 seconds 309 msec
