                         Program Version 4.2.0 -  RELEASE  -
|  1> # ORCA input file
|  2> # SCF done       -186.150913950118          0.000719694741
|  3> ! CAM-B3LYP def2-SVP def2/J RIJCOSX Grid4 TightSCF
|  4> %maxcore 5000
|  5> %tddft
|  6>     Mode sTDDFT
|  7>     Ethresh 5.0
|  8>     maxcore 5000
|  9> end
| 10>
| 11> %pal
| 12>   nprocs 6
| 13>   end
| 14> * xyz 0 1
| 15>    C       -7.64238       -12.22345        -3.67965
| 16>    O       -6.92294       -11.26492        -3.72160
| 17>    N       -9.01850       -12.13665        -3.82282
| 18>    C       -9.68129       -11.03914        -4.33932
| 19>    N      -10.95742       -11.20320        -4.33908
| 20>    C      -11.18640       -12.43428        -3.78376
| 21>    C      -10.01237       -13.03223        -3.46290
| 22>    N       -7.16370       -13.53015        -3.51327
| 23>    C       -7.54440       -14.63697        -4.25395
| 24>    C       -6.62446       -15.60441        -3.99699
| 25>    N       -5.69460       -15.15139        -3.11703
| 26>    C       -6.00932       -13.91520        -2.83987
| 27>    C       -5.30927       -13.08794        -1.90757
| 28>    C       -5.79337       -12.05718        -1.13214
| 29>    C       -4.79020       -11.49765        -0.33891
| 30>    C       -3.54101       -12.11889        -0.51914
| 31>    S       -3.61006       -13.40143        -1.64343
| 32>    C       -2.58233       -11.44975         0.28515
| 33>    C       -3.23494       -10.40728         0.97458
| 34>    C       -4.64479       -10.41384         0.61592
| 35>    C       -5.62351        -9.57984         1.07206
| 36>    C       -6.96341        -9.70682         0.64911
| 37>    N       -8.05287        -9.82235         0.30971
| 38>    C       -5.36618        -8.54658         1.99758
| 39>    N       -5.17251        -7.70717         2.75433
| 40>    C       -2.37072        -9.65686         1.75985
| 41>    C       -1.06021       -10.11170         1.67225
| 42>    S       -0.90839       -11.50678         0.61635
| 43>    C        0.08352        -9.52960         2.28093
| 44>    C        1.37784       -10.05781         2.08509
| 45>    C        2.55655        -9.41991         2.59537
| 46>    N        3.76153        -9.97325         2.35400
| 47>    C        3.84010       -11.06967         1.67202
| 48>    C        2.67376       -11.70010         1.16566
| 49>    N        1.50077       -11.19595         1.37372
| 50>    F        2.75298       -12.82689         0.46463
| 51>    F        5.04593       -11.58828         1.46147
| 52>    C        2.51020        -8.21549         3.33024
| 53>    C        1.21092        -7.71728         3.59174
| 54>    C        0.02237        -8.36115         3.07822
| 55>    N       -1.08115        -7.70524         3.44034
| 56>    S       -0.68255        -6.43114         4.32572
| 57>    N        0.90691        -6.62814         4.29917
| 58>    C        3.69343        -7.53773         3.72775
| 59>    C        3.76937        -6.32991         4.41179
| 60>    C        5.08070        -5.90353         4.56969
| 61>    C        6.01730        -6.79454         4.00663
| 62>    S        5.27771        -8.15936         3.29517
| 63>    C        7.31370        -6.24615         4.18146
| 64>    C        7.19343        -5.01258         4.84833
| 65>    C        5.78973        -4.75643         5.11636
| 66>    C        5.25028        -3.66139         5.72567
| 67>    C        3.86163        -3.52031         5.93252
| 68>    N        2.73524        -3.39247         6.10491
| 69>    C        6.04693        -2.58443         6.16891
| 70>    N        6.69082        -1.69918         6.51081
| 71>    C        8.42110        -4.37821         5.04516
| 72>    C        9.46309        -5.12314         4.53472
| 73>    S        8.93337        -6.61973         3.79503
| 74>    C       10.85867        -4.84023         4.44628
| 75>    N       11.66101        -5.48692         3.63949
| 76>    C       12.88334        -4.91272         3.75310
| 77>    C       12.83476        -3.87089         4.62636
| 78>    N       11.53102        -3.80846         5.08861
| 79>    C       11.09472        -3.02347         6.16637
| 80>    O       10.41715        -3.45086         7.05772
| 81>    N       11.53802        -1.71070         6.11798
| 82>    C       11.51004        -0.83336         7.18609
| 83>    N       11.94544         0.33319         6.86221
| 84>    C       12.25996         0.27032         5.53024
| 85>    C       12.02413        -0.97500         5.04881
| 86>    H       -9.15125       -10.18232        -4.70237
| 87>    H      -12.18533       -12.79902        -3.65646
| 88>    H       -9.79904       -13.96702        -2.98812
| 89>    H       -8.38557       -14.61617        -4.91523
| 90>    H       -6.57232       -16.60198        -4.38312
| 91>    H       -6.81789       -11.73364        -1.13330
| 92>    H       -2.64120        -8.81178         2.36548
| 93>    H        2.89173        -5.81234         4.75235
| 94>    H        8.53552        -3.42697         5.52944
| 95>    H       13.71803        -5.28230         3.19307
| 96>    H       13.59598        -3.21253         4.99063
| 97>    H       11.17111        -1.13798         8.15517
| 98>    H       12.63418         1.13183         5.01546
| 99>    H       12.12021        -1.38472         4.06505
|100> *
|101>
|102>                          ****END OF INPUT****

CARTESIAN COORDINATES (ANGSTROEM)
---------------------------------
  C     -7.642380  -12.223450   -3.679650
  O     -6.922940  -11.264920   -3.721600
  N     -9.018500  -12.136650   -3.822820
  C     -9.681290  -11.039140   -4.339320
  N    -10.957420  -11.203200   -4.339080
  C    -11.186400  -12.434280   -3.783760
  C    -10.012370  -13.032230   -3.462900
  N     -7.163700  -13.530150   -3.513270
  C     -7.544400  -14.636970   -4.253950
  C     -6.624460  -15.604410   -3.996990
  N     -5.694600  -15.151390   -3.117030
  C     -6.009320  -13.915200   -2.839870
  C     -5.309270  -13.087940   -1.907570
  C     -5.793370  -12.057180   -1.132140
  C     -4.790200  -11.497650   -0.338910
  C     -3.541010  -12.118890   -0.519140
  S     -3.610060  -13.401430   -1.643430
  C     -2.582330  -11.449750    0.285150
  C     -3.234940  -10.407280    0.974580
  C     -4.644790  -10.413840    0.615920
  C     -5.623510   -9.579840    1.072060
  C     -6.963410   -9.706820    0.649110
  N     -8.052870   -9.822350    0.309710
  C     -5.366180   -8.546580    1.997580
  N     -5.172510   -7.707170    2.754330
  C     -2.370720   -9.656860    1.759850
  C     -1.060210  -10.111700    1.672250
  S     -0.908390  -11.506780    0.616350
  C      0.083520   -9.529600    2.280930
  C      1.377840  -10.057810    2.085090
  C      2.556550   -9.419910    2.595370
  N      3.761530   -9.973250    2.354000
  C      3.840100  -11.069670    1.672020
  C      2.673760  -11.700100    1.165660
  N      1.500770  -11.195950    1.373720
  F      2.752980  -12.826890    0.464630
  F      5.045930  -11.588280    1.461470
  C      2.510200   -8.215490    3.330240
  C      1.210920   -7.717280    3.591740
  C      0.022370   -8.361150    3.078220
  N     -1.081150   -7.705240    3.440340
  S     -0.682550   -6.431140    4.325720
  N      0.906910   -6.628140    4.299170
  C      3.693430   -7.537730    3.727750
  C      3.769370   -6.329910    4.411790
  C      5.080700   -5.903530    4.569690
  C      6.017300   -6.794540    4.006630
  S      5.277710   -8.159360    3.295170
  C      7.313700   -6.246150    4.181460
  C      7.193430   -5.012580    4.848330
  C      5.789730   -4.756430    5.116360
  C      5.250280   -3.661390    5.725670
  C      3.861630   -3.520310    5.932520
  N      2.735240   -3.392470    6.104910
  C      6.046930   -2.584430    6.168910
  N      6.690820   -1.699180    6.510810
  C      8.421100   -4.378210    5.045160
  C      9.463090   -5.123140    4.534720
  S      8.933370   -6.619730    3.795030
  C     10.858670   -4.840230    4.446280
  N     11.661010   -5.486920    3.639490
  C     12.883340   -4.912720    3.753100
  C     12.834760   -3.870890    4.626360
  N     11.531020   -3.808460    5.088610
  C     11.094720   -3.023470    6.166370
  O     10.417150   -3.450860    7.057720
  N     11.538020   -1.710700    6.117980
  C     11.510040   -0.833360    7.186090
  N     11.945440    0.333190    6.862210
  C     12.259960    0.270320    5.530240
  C     12.024130   -0.975000    5.048810
  H     -9.151250  -10.182320   -4.702370
  H    -12.185330  -12.799020   -3.656460
  H     -9.799040  -13.967020   -2.988120
  H     -8.385570  -14.616170   -4.915230
  H     -6.572320  -16.601980   -4.383120
  H     -6.817890  -11.733640   -1.133300
  H     -2.641200   -8.811780    2.365480
  H      2.891730   -5.812340    4.752350
  H      8.535520   -3.426970    5.529440
  H     13.718030   -5.282300    3.193070
  H     13.595980   -3.212530    4.990630
  H     11.171110   -1.137980    8.155170
  H     12.634180    1.131830    5.015460
  H     12.120210   -1.384720    4.065050

 Total Charge           Charge          ....    0
 Multiplicity           Mult            ....    1
 Number of Electrons    NEL             ....  516
 Basis Dimension        Dim             .... 1084

ORBITAL ENERGIES
----------------

  NO   OCC          E(Eh)            E(eV)
   0   2.0000     -89.043946     -2423.0090
   1   2.0000     -88.986664     -2421.4502
   2   2.0000     -88.984969     -2421.4041
   3   2.0000     -88.980521     -2421.2831
   4   2.0000     -88.980348     -2421.2784
   5   2.0000     -24.825708      -675.5419
   6   2.0000     -24.825579      -675.5383
   7   2.0000     -19.245142      -523.6869
   8   2.0000     -19.242651      -523.6192
   9   2.0000     -14.503689      -394.6655
  10   2.0000     -14.503135      -394.6504
  11   2.0000     -14.501302      -394.6005
  12   2.0000     -14.500450      -394.5773
  13   2.0000     -14.467194      -393.6724
  14   2.0000     -14.467040      -393.6682
  15   2.0000     -14.452663      -393.2770
  16   2.0000     -14.452590      -393.2750
  17   2.0000     -14.425462      -392.5368
  18   2.0000     -14.424585      -392.5129
  19   2.0000     -14.423794      -392.4914
  20   2.0000     -14.423445      -392.4819
  21   2.0000     -14.410181      -392.1210
  22   2.0000     -14.410038      -392.1171
  23   2.0000     -14.403982      -391.9523
  24   2.0000     -14.403533      -391.9401
  25   2.0000     -10.460669      -284.6493
  26   2.0000     -10.459287      -284.6117
  27   2.0000     -10.442159      -284.1456
  28   2.0000     -10.441867      -284.1376
  29   2.0000     -10.361166      -281.9416
  30   2.0000     -10.359887      -281.9068
  31   2.0000     -10.357799      -281.8501
  32   2.0000     -10.357365      -281.8382
  33   2.0000     -10.351256      -281.6720
  34   2.0000     -10.350985      -281.6646
  35   2.0000     -10.345953      -281.5277
  36   2.0000     -10.345389      -281.5123
  37   2.0000     -10.344016      -281.4750
  38   2.0000     -10.343776      -281.4685
  39   2.0000     -10.340064      -281.3674
  40   2.0000     -10.339805      -281.3604
  41   2.0000     -10.327366      -281.0219
  42   2.0000     -10.326817      -281.0070
  43   2.0000     -10.326294      -280.9927
  44   2.0000     -10.325268      -280.9648
  45   2.0000     -10.324364      -280.9402
  46   2.0000     -10.324034      -280.9312
  47   2.0000     -10.322294      -280.8839
  48   2.0000     -10.322267      -280.8832
  49   2.0000     -10.321941      -280.8743
  50   2.0000     -10.321570      -280.8642
  51   2.0000     -10.321114      -280.8518
  52   2.0000     -10.320927      -280.8467
  53   2.0000     -10.320823      -280.8439
  54   2.0000     -10.320355      -280.8311
  55   2.0000     -10.319761      -280.8150
  56   2.0000     -10.319643      -280.8118
  57   2.0000     -10.317297      -280.7479
  58   2.0000     -10.317014      -280.7402
  59   2.0000     -10.303580      -280.3747
  60   2.0000     -10.303373      -280.3690
  61   2.0000     -10.300382      -280.2876
  62   2.0000     -10.299637      -280.2674
  63   2.0000     -10.298567      -280.2383
  64   2.0000     -10.298324      -280.2316
  65   2.0000     -10.298077      -280.2249
  66   2.0000     -10.297600      -280.2119
  67   2.0000     -10.294113      -280.1170
  68   2.0000     -10.294085      -280.1163
  69   2.0000     -10.291347      -280.0418
  70   2.0000     -10.291219      -280.0383
  71   2.0000      -8.135078      -221.3667
  72   2.0000      -8.080814      -219.8901
  73   2.0000      -8.078969      -219.8399
  74   2.0000      -8.073364      -219.6874
  75   2.0000      -8.073186      -219.6826
  76   2.0000      -6.106174      -166.1574
  77   2.0000      -6.098235      -165.9414
  78   2.0000      -6.097948      -165.9336
  79   2.0000      -6.050084      -164.6311
  80   2.0000      -6.048253      -164.5813
  81   2.0000      -6.045777      -164.5140
  82   2.0000      -6.043947      -164.4642
  83   2.0000      -6.043304      -164.4467
  84   2.0000      -6.042836      -164.4339
  85   2.0000      -6.042649      -164.4288
  86   2.0000      -6.041429      -164.3957
  87   2.0000      -6.038124      -164.3057
  88   2.0000      -6.037943      -164.3008
  89   2.0000      -6.035872      -164.2444
  90   2.0000      -6.035709      -164.2400
  91   2.0000      -1.354107       -36.8471
  92   2.0000      -1.340082       -36.4655
  93   2.0000      -1.204671       -32.7808
  94   2.0000      -1.203390       -32.7459
  95   2.0000      -1.142234       -31.0818
  96   2.0000      -1.133711       -30.8499
  97   2.0000      -1.132992       -30.8303
  98   2.0000      -1.128228       -30.7006
  99   2.0000      -1.127115       -30.6704
 100   2.0000      -1.125501       -30.6264
 101   2.0000      -1.053046       -28.6548
 102   2.0000      -1.038039       -28.2465
 103   2.0000      -1.037249       -28.2250
 104   2.0000      -1.018653       -27.7190
 105   2.0000      -1.017842       -27.6969
 106   2.0000      -1.015563       -27.6349
 107   2.0000      -1.015152       -27.6237
 108   2.0000      -1.002392       -27.2765
 109   2.0000      -1.001781       -27.2599
 110   2.0000      -0.999764       -27.2050
 111   2.0000      -0.996452       -27.1148
 112   2.0000      -0.986787       -26.8518
 113   2.0000      -0.982689       -26.7403
 114   2.0000      -0.982161       -26.7260
 115   2.0000      -0.973977       -26.5033
 116   2.0000      -0.953183       -25.9374
 117   2.0000      -0.948617       -25.8132
 118   2.0000      -0.916114       -24.9287
 119   2.0000      -0.908507       -24.7217
 120   2.0000      -0.891949       -24.2712
 121   2.0000      -0.888209       -24.1694
 122   2.0000      -0.872715       -23.7478
 123   2.0000      -0.870379       -23.6842
 124   2.0000      -0.859532       -23.3890
 125   2.0000      -0.856055       -23.2944
 126   2.0000      -0.855617       -23.2825
 127   2.0000      -0.852004       -23.1842
 128   2.0000      -0.848055       -23.0767
 129   2.0000      -0.846910       -23.0456
 130   2.0000      -0.823761       -22.4157
 131   2.0000      -0.813396       -22.1336
 132   2.0000      -0.809560       -22.0293
 133   2.0000      -0.801630       -21.8134
 134   2.0000      -0.789062       -21.4715
 135   2.0000      -0.774741       -21.0818
 136   2.0000      -0.772036       -21.0082
 137   2.0000      -0.768073       -20.9003
 138   2.0000      -0.759856       -20.6767
 139   2.0000      -0.744085       -20.2476
 140   2.0000      -0.735119       -20.0036
 141   2.0000      -0.732050       -19.9201
 142   2.0000      -0.718282       -19.5454
 143   2.0000      -0.714081       -19.4311
 144   2.0000      -0.712734       -19.3945
 145   2.0000      -0.704961       -19.1830
 146   2.0000      -0.699947       -19.0465
 147   2.0000      -0.689424       -18.7602
 148   2.0000      -0.688488       -18.7347
 149   2.0000      -0.686185       -18.6720
 150   2.0000      -0.685216       -18.6457
 151   2.0000      -0.680804       -18.5256
 152   2.0000      -0.676830       -18.4175
 153   2.0000      -0.670353       -18.2412
 154   2.0000      -0.666868       -18.1464
 155   2.0000      -0.665466       -18.1083
 156   2.0000      -0.659832       -17.9549
 157   2.0000      -0.658098       -17.9078
 158   2.0000      -0.634591       -17.2681
 159   2.0000      -0.634502       -17.2657
 160   2.0000      -0.629319       -17.1246
 161   2.0000      -0.626070       -17.0362
 162   2.0000      -0.625484       -17.0203
 163   2.0000      -0.621317       -16.9069
 164   2.0000      -0.613772       -16.7016
 165   2.0000      -0.607091       -16.5198
 166   2.0000      -0.606394       -16.5008
 167   2.0000      -0.593284       -16.1441
 168   2.0000      -0.588667       -16.0185
 169   2.0000      -0.586306       -15.9542
 170   2.0000      -0.584196       -15.8968
 171   2.0000      -0.582166       -15.8416
 172   2.0000      -0.581124       -15.8132
 173   2.0000      -0.569869       -15.5069
 174   2.0000      -0.568501       -15.4697
 175   2.0000      -0.564723       -15.3669
 176   2.0000      -0.562588       -15.3088
 177   2.0000      -0.558474       -15.1968
 178   2.0000      -0.555624       -15.1193
 179   2.0000      -0.554261       -15.0822
 180   2.0000      -0.553529       -15.0623
 181   2.0000      -0.548751       -14.9323
 182   2.0000      -0.547828       -14.9072
 183   2.0000      -0.541575       -14.7370
 184   2.0000      -0.541375       -14.7316
 185   2.0000      -0.536905       -14.6099
 186   2.0000      -0.535897       -14.5825
 187   2.0000      -0.529032       -14.3957
 188   2.0000      -0.528112       -14.3707
 189   2.0000      -0.527389       -14.3510
 190   2.0000      -0.525451       -14.2983
 191   2.0000      -0.524817       -14.2810
 192   2.0000      -0.519639       -14.1401
 193   2.0000      -0.517581       -14.0841
 194   2.0000      -0.515343       -14.0232
 195   2.0000      -0.514350       -13.9962
 196   2.0000      -0.505545       -13.7566
 197   2.0000      -0.505160       -13.7461
 198   2.0000      -0.500796       -13.6273
 199   2.0000      -0.499208       -13.5841
 200   2.0000      -0.497572       -13.5396
 201   2.0000      -0.495349       -13.4791
 202   2.0000      -0.489687       -13.3251
 203   2.0000      -0.488476       -13.2921
 204   2.0000      -0.486974       -13.2512
 205   2.0000      -0.485210       -13.2032
 206   2.0000      -0.484566       -13.1857
 207   2.0000      -0.481213       -13.0945
 208   2.0000      -0.473289       -12.8788
 209   2.0000      -0.470584       -12.8053
 210   2.0000      -0.468249       -12.7417
 211   2.0000      -0.460066       -12.5190
 212   2.0000      -0.457026       -12.4363
 213   2.0000      -0.456036       -12.4094
 214   2.0000      -0.455458       -12.3937
 215   2.0000      -0.453743       -12.3470
 216   2.0000      -0.452575       -12.3152
 217   2.0000      -0.451629       -12.2895
 218   2.0000      -0.443067       -12.0565
 219   2.0000      -0.440940       -11.9986
 220   2.0000      -0.436748       -11.8845
 221   2.0000      -0.434918       -11.8347
 222   2.0000      -0.434276       -11.8173
 223   2.0000      -0.433343       -11.7919
 224   2.0000      -0.432693       -11.7742
 225   2.0000      -0.426661       -11.6100
 226   2.0000      -0.422312       -11.4917
 227   2.0000      -0.421576       -11.4717
 228   2.0000      -0.409590       -11.1455
 229   2.0000      -0.408764       -11.1230
 230   2.0000      -0.408671       -11.1205
 231   2.0000      -0.405672       -11.0389
 232   2.0000      -0.404674       -11.0117
 233   2.0000      -0.392390       -10.6775
 234   2.0000      -0.387154       -10.5350
 235   2.0000      -0.386982       -10.5303
 236   2.0000      -0.381121       -10.3708
 237   2.0000      -0.380646       -10.3579
 238   2.0000      -0.378061       -10.2876
 239   2.0000      -0.376371       -10.2416
 240   2.0000      -0.371867       -10.1190
 241   2.0000      -0.369418       -10.0524
 242   2.0000      -0.368102       -10.0166
 243   2.0000      -0.367392        -9.9972
 244   2.0000      -0.356252        -9.6941
 245   2.0000      -0.355960        -9.6862
 246   2.0000      -0.348370        -9.4796
 247   2.0000      -0.346189        -9.4203
 248   2.0000      -0.340263        -9.2590
 249   2.0000      -0.339588        -9.2407
 250   2.0000      -0.329745        -8.9728
 251   2.0000      -0.324000        -8.8165
 252   2.0000      -0.322665        -8.7802
 253   2.0000      -0.316004        -8.5989
 254   2.0000      -0.314655        -8.5622
 255   2.0000      -0.298772        -8.1300
 256   2.0000      -0.269851        -7.3430
 257   2.0000      -0.235591        -6.4108
 258   0.0000      -0.121870        -3.3163
 259   0.0000      -0.096361        -2.6221
 260   0.0000      -0.091489        -2.4895
 261   0.0000      -0.043346        -1.1795
 262   0.0000      -0.041055        -1.1172

MULLIKEN ATOMIC CHARGES
-----------------------
   0 C :    0.219021
   1 O :   -0.140635
   2 N :   -0.184086
   3 C :    0.119200
   4 N :   -0.108009
   5 C :    0.018842
   6 C :    0.056445
   7 N :   -0.196256
   8 C :    0.063222
   9 C :    0.035287
  10 N :   -0.096963
  11 C :    0.066374
  12 C :   -0.101169
  13 C :   -0.005770
  14 C :   -0.014058
  15 C :   -0.097560
  16 S :    0.242658
  17 C :   -0.067979
  18 C :    0.036855
  19 C :    0.309261
  20 C :   -0.303819
  21 C :   -0.184359
  22 N :    0.163258
  23 C :   -0.187389
  24 N :    0.169852
  25 C :   -0.061819
  26 C :   -0.181211
  27 S :    0.200362
  28 C :    0.185109
  29 C :   -0.061893
  30 C :   -0.061208
  31 N :   -0.047013
  32 C :    0.149183
  33 C :    0.148829
  34 N :   -0.045428
  35 F :   -0.135701
  36 F :   -0.136145
  37 C :    0.182772
  38 C :   -0.011202
  39 C :   -0.014479
  40 N :   -0.287292
  41 S :    0.576641
  42 N :   -0.287201
  43 C :   -0.182825
  44 C :   -0.060271
  45 C :    0.034854
  46 C :   -0.070691
  47 S :    0.200540
  48 C :   -0.097049
  49 C :   -0.013401
  50 C :    0.312506
  51 C :   -0.305183
  52 C :   -0.186506
  53 N :    0.169493
  54 C :   -0.187470
  55 N :    0.166583
  56 C :   -0.026299
  57 C :   -0.090938
  58 S :    0.243307
  59 C :    0.073787
  60 N :   -0.108296
  61 C :    0.035485
  62 C :    0.063371
  63 N :   -0.197035
  64 C :    0.229028
  65 O :   -0.142792
  66 N :   -0.182821
  67 C :    0.118928
  68 N :   -0.107431
  69 C :    0.021919
  70 C :    0.051896
  71 H :    0.039072
  72 H :    0.011622
  73 H :    0.035629
  74 H :    0.034663
  75 H :    0.003577
  76 H :    0.009318
  77 H :    0.019611
  78 H :    0.019892
  79 H :    0.011977
  80 H :    0.003805
  81 H :    0.033805
  82 H :    0.041128
  83 H :    0.011811
  84 H :    0.036873
Sum of atomic charges:   -0.0000000

LOEWDIN ATOMIC CHARGES
----------------------
   0 C :    0.115353
   1 O :   -0.126995
   2 N :    0.025408
   3 C :    0.054290
   4 N :   -0.089300
   5 C :   -0.019572
   6 C :   -0.025287
   7 N :    0.021266
   8 C :   -0.018624
   9 C :   -0.021976
  10 N :   -0.105471
  11 C :    0.009727
  12 C :   -0.185903
  13 C :   -0.018694
  14 C :   -0.069025
  15 C :   -0.177832
  16 S :    0.517965
  17 C :   -0.181275
  18 C :   -0.074901
  19 C :    0.083672
  20 C :   -0.106158
  21 C :   -0.014185
  22 N :   -0.039574
  23 C :   -0.016997
  24 N :   -0.034956
  25 C :   -0.011389
  26 C :   -0.168678
  27 S :    0.508058
  28 C :   -0.043068
  29 C :   -0.018857
  30 C :   -0.018698
  31 N :   -0.055105
  32 C :    0.062106
  33 C :    0.062010
  34 N :   -0.055117
  35 F :   -0.025322
  36 F :   -0.025395
  37 C :   -0.043012
  38 C :   -0.038618
  39 C :   -0.038554
  40 N :   -0.274191
  41 S :    0.695919
  42 N :   -0.274036
  43 C :   -0.168451
  44 C :   -0.011550
  45 C :   -0.074160
  46 C :   -0.182274
  47 S :    0.508180
  48 C :   -0.176796
  49 C :   -0.071082
  50 C :    0.082782
  51 C :   -0.106076
  52 C :   -0.016761
  53 N :   -0.035457
  54 C :   -0.015735
  55 N :   -0.037089
  56 C :   -0.021822
  57 C :   -0.185021
  58 S :    0.519395
  59 C :    0.011094
  60 N :   -0.112497
  61 C :   -0.022414
  62 C :   -0.019273
  63 N :    0.022032
  64 C :    0.117153
  65 O :   -0.123288
  66 N :    0.025305
  67 C :    0.055329
  68 N :   -0.088651
  69 C :   -0.019811
  70 C :   -0.025414
  71 H :    0.028570
  72 H :    0.026019
  73 H :    0.030243
  74 H :    0.030934
  75 H :    0.026356
  76 H :    0.036448
  77 H :    0.037440
  78 H :    0.037424
  79 H :    0.036529
  80 H :    0.026468
  81 H :    0.030850
  82 H :    0.029459
  83 H :    0.026032
  84 H :    0.030571

  Mayer bond orders larger than 0.100000
B(  0-C ,  1-O ) :   2.1991 B(  0-C ,  2-N ) :   1.0225 B(  0-C ,  7-N ) :   0.9707
B(  2-N ,  3-C ) :   1.1012 B(  2-N ,  6-C ) :   1.0786 B(  3-C ,  4-N ) :   1.7601
B(  3-C , 71-H ) :   0.9817 B(  4-N ,  5-C ) :   1.3224 B(  5-C ,  6-C ) :   1.6011
B(  5-C , 72-H ) :   1.0015 B(  6-C , 73-H ) :   0.9839 B(  7-N ,  8-C ) :   1.0778
B(  7-N , 11-C ) :   1.1299 B(  8-C ,  9-C ) :   1.5717 B(  8-C , 74-H ) :   0.9806
B(  9-C , 10-N ) :   1.3397 B(  9-C , 75-H ) :   0.9985 B( 10-N , 11-C ) :   1.7791
B( 11-C , 12-C ) :   1.0377 B( 12-C , 13-C ) :   1.4875 B( 12-C , 16-S ) :   1.1238
B( 13-C , 14-C ) :   1.3041 B( 13-C , 76-H ) :   0.9802 B( 14-C , 15-C ) :   1.4358
B( 14-C , 19-C ) :   0.9970 B( 15-C , 16-S ) :   1.1275 B( 15-C , 17-C ) :   1.1845
B( 17-C , 18-C ) :   1.4141 B( 17-C , 27-S ) :   1.0950 B( 18-C , 19-C ) :   0.9892
B( 18-C , 25-C ) :   1.2729 B( 19-C , 20-C ) :   1.7069 B( 20-C , 21-C ) :   1.1341
B( 20-C , 23-C ) :   1.1392 B( 21-C , 22-N ) :   2.9819 B( 23-C , 24-N ) :   2.9865
B( 25-C , 26-C ) :   1.4231 B( 25-C , 77-H ) :   0.9817 B( 26-C , 27-S ) :   1.0877
B( 26-C , 28-C ) :   1.1895 B( 28-C , 29-C ) :   1.2974 B( 28-C , 37-C ) :   0.1269
B( 28-C , 39-C ) :   1.1944 B( 29-C , 30-C ) :   1.1190 B( 29-C , 34-N ) :   1.3784
B( 30-C , 31-N ) :   1.3770 B( 30-C , 37-C ) :   1.2951 B( 31-N , 32-C ) :   1.6556
B( 32-C , 33-C ) :   1.1090 B( 32-C , 36-F ) :   1.1856 B( 33-C , 34-N ) :   1.6544
B( 33-C , 35-F ) :   1.1864 B( 37-C , 38-C ) :   1.1947 B( 37-C , 43-C ) :   1.1910
B( 38-C , 39-C ) :   1.1031 B( 38-C , 42-N ) :   1.5111 B( 39-C , 40-N ) :   1.5111
B( 40-N , 41-S ) :   1.2827 B( 40-N , 42-N ) :   0.1490 B( 41-S , 42-N ) :   1.2832
B( 43-C , 44-C ) :   1.4213 B( 43-C , 47-S ) :   1.0885 B( 44-C , 45-C ) :   1.2742
B( 44-C , 78-H ) :   0.9816 B( 45-C , 46-C ) :   1.4141 B( 45-C , 50-C ) :   0.9872
B( 46-C , 47-S ) :   1.0941 B( 46-C , 48-C ) :   1.1869 B( 48-C , 49-C ) :   1.4328
B( 48-C , 58-S ) :   1.1244 B( 49-C , 50-C ) :   0.9985 B( 49-C , 56-C ) :   1.3020
B( 50-C , 51-C ) :   1.7065 B( 51-C , 52-C ) :   1.1373 B( 51-C , 54-C ) :   1.1358
B( 52-C , 53-N ) :   2.9871 B( 54-C , 55-N ) :   2.9823 B( 56-C , 57-C ) :   1.4861
B( 56-C , 79-H ) :   0.9780 B( 57-C , 58-S ) :   1.1178 B( 57-C , 59-C ) :   1.0537
B( 59-C , 60-N ) :   1.7758 B( 59-C , 63-N ) :   1.1339 B( 60-N , 61-C ) :   1.3474
B( 61-C , 62-C ) :   1.5634 B( 61-C , 80-H ) :   0.9993 B( 62-C , 63-N ) :   1.0804
B( 62-C , 81-H ) :   0.9811 B( 63-N , 64-C ) :   0.9650 B( 64-C , 65-O ) :   2.1927
B( 64-C , 66-N ) :   1.0252 B( 66-N , 67-C ) :   1.0987 B( 66-N , 70-C ) :   1.0772
B( 67-C , 68-N ) :   1.7628 B( 67-C , 82-H ) :   0.9818 B( 68-N , 69-C ) :   1.3196
B( 69-C , 70-C ) :   1.6032 B( 69-C , 83-H ) :   1.0004 B( 70-C , 84-H ) :   0.9845

-----------------------------------------------------------------------------
         ABSORPTION SPECTRUM VIA TRANSITION ELECTRIC DIPOLE MOMENTS
-----------------------------------------------------------------------------
State   Energy  Wavelength   fosc         T2         TX        TY        TZ
        (cm-1)    (nm)                  (au**2)     (au)      (au)      (au)
-----------------------------------------------------------------------------
   0    9533.5   1048.9   0.718821387  24.82242   4.10628   2.21058   1.75336
   1   13185.1    758.4   0.004648415   0.11606   0.09857  -0.00772  -0.32602
   2   13946.1    717.0   0.004602865   0.10866   0.27981   0.13931   0.10468
   3   18200.4    549.4   0.010462260   0.18924  -0.07395  -0.16782   0.39447
   4   22985.6    435.1   0.008324638   0.11923   0.29371   0.14585   0.10812
   5   24272.7    412.0   0.004984931   0.06761  -0.12497  -0.18355   0.13528
   6   25090.6    398.6   0.525834245   6.89943   2.16986   1.14741   0.93518
   7   26003.2    384.6   0.023447003   0.29685   0.49354   0.17591   0.14943
   8   26607.4    375.8   0.061492570   0.76084  -0.73945   0.39692   0.23773
   9   26737.2    374.0   0.151584942   1.86645  -1.08041  -0.65055  -0.52529
  10   27704.5    361.0   0.584871251   6.95002   2.32319   1.03962   0.68701
  11   28328.1    353.0   0.195990798   2.27769   0.51395   0.76197   1.19705
  12   29840.0    335.1   0.079054102   0.87217   0.55982  -0.58697  -0.46286
  13   30579.3    327.0   0.008415475   0.09060  -0.08139  -0.13544  -0.25619
  14   31032.0    322.2   0.298988373   3.17190  -1.45547  -0.80791  -0.63309
  15   31143.4    321.1   0.004146594   0.04383  -0.14869   0.13684   0.05476
  16   31273.4    319.8   0.242977988   2.55780   1.15895   0.94029   0.57489
  17   31494.4    317.5   0.114649968   1.19844  -0.83516   0.49633   0.50458
  18   32020.3    312.3   0.009380603   0.09645  -0.21357  -0.17906  -0.13701
  19   32190.0    310.7   0.607298446   6.21094   1.31741  -1.79644  -1.11720
  20   32393.6    308.7   0.334142736   3.39585   1.77150   0.34493   0.37237
  21   32832.7    304.6   0.260407337   2.61110   0.74124  -1.30383  -0.60141
  22   32873.8    304.2   0.183450461   1.83715   0.65059  -1.09438  -0.46500
  23   33756.1    296.2   0.000796057   0.00776   0.05584  -0.05078   0.04546
  24   34246.2    292.0   0.007367829   0.07083   0.01570  -0.24256  -0.10839
  25   34294.0    291.6   0.117153059   1.12463  -0.79190   0.70522  -0.01401
  26   34446.0    290.3   0.077743086   0.74302  -0.05181   0.80875   0.29368
  27   34940.3    286.2   0.051189881   0.48232   0.38362  -0.43151  -0.38595
  28   35465.8    282.0   0.157083019   1.45813  -1.03385  -0.47686  -0.40235
  29   36003.6    277.7   0.090991181   0.83201   0.48439  -0.69290  -0.34245
  30   36447.6    274.4   0.565239194   5.10551  -1.38489   1.39061   1.11973
  31   36867.3    271.2   0.041173048   0.36766   0.26879  -0.38976  -0.37881
  32   37193.6    268.9   0.013020128   0.11525  -0.24109   0.18541   0.15081
  33   37282.9    268.2   0.152841823   1.34961   0.34171  -0.87477  -0.68383
  34   37571.4    266.2   0.209543530   1.83609  -1.33130   0.07474   0.24115
  35   37715.4    265.1   0.017111030   0.14936   0.00509  -0.06071   0.38164
  36   38002.5    263.1   0.234213898   2.02897   0.86513   0.83797   0.76047
  37   38171.9    262.0   0.003792778   0.03271   0.01548   0.10720   0.14485
  38   38452.7    260.1   0.001447528   0.01239  -0.01760   0.09452   0.05611
  39   38573.5    259.2   0.048873419   0.41712   0.37211   0.31952   0.42019
  40   38699.7    258.4   0.006546274   0.05569   0.19559   0.02607  -0.12943
  41   39860.6    250.9   0.004000964   0.03304  -0.00264   0.10683   0.14705
  42   40137.6    249.1   0.007209617   0.05913   0.12477   0.04108   0.20464
  43   40252.1    248.4   0.000507128   0.00415   0.02868   0.05721   0.00718

FINAL SINGLE POINT ENERGY     -4974.055023584010

DIPOLE MOMENT
-------------
                                X             Y             Z
Electronic contribution:      7.14910     -18.25529       7.25059
Nuclear contribution   :     -5.29974      15.75531      -9.06203
                        -----------------------------------------
Total Dipole Moment    :      1.84936      -2.49997      -1.81144
                        -----------------------------------------
Magnitude (a.u.)       :      3.59880
Magnitude (Debye)      :      9.14741

Rotational constants in cm-1:     0.002613     0.000244     0.000230
Rotational constants in MHz :    78.322819     7.305104     6.889844

                             ****ORCA TERMINATED NORMALLY****
TOTAL RUN TIME: 0 days 0 hours 12 minutes 47 seconds 955 msec
