                         Program Version 4.2.0 -  RELEASE  -
|  1> # ORCA input file
|  2> # SCF done       -176.513330783667          0.000695448631
|  3> ! CAM-B3LYP def2-SVP def2/J RIJCOSX Grid4 TightSCF
|  4> %maxcore 5000
|  5> %tddft
|  6>     Mode sTDDFT
|  7>     Ethresh 5.0
|  8>     maxcore 5000
|  9> end
| 10>
| 11> %pal
| 12>   nprocs 6
| 13>   end
| 14> * xyz 0 1
| 15>    C       -5.86907       -17.32217         2.62057
| 16>    O       -5.07362       -16.95411         3.44109
| 17>    N       -5.70473       -18.50921         1.91144
| 18>    C       -4.87429       -19.53959         2.29961
| 19>    N       -4.86672       -20.50305         1.44387
| 20>    C       -5.69352       -20.11454         0.42444
| 21>    C       -6.22611       -18.89480         0.68859
| 22>    N       -7.03696       -16.62983         2.31159
| 23>    C       -8.27948       -17.20975         2.09793
| 24>    C       -9.17256       -16.18824         2.03964
| 25>    N       -8.54182       -14.99652         2.18628
| 26>    C       -7.26882       -15.25539         2.36614
| 27>    C       -6.29692       -14.22194         2.48786
| 28>    C       -6.64162       -12.87690         2.54431
| 29>    C       -5.52946       -12.05365         2.58829
| 30>    C       -4.32911       -12.76962         2.55281
| 31>    S       -4.56957       -14.46623         2.49254
| 32>    C       -3.24559       -11.86669         2.57933
| 33>    C       -3.75191       -10.56118         2.63634
| 34>    C       -5.26327       -10.56781         2.65461
| 35>    C       -5.83900        -9.84306         1.43524
| 36>    C       -5.80870        -9.96287         3.95094
| 37>    C       -2.75608        -9.60493         2.65035
| 38>    C       -1.47961       -10.16476         2.60000
| 39>    S       -1.53079       -11.91558         2.54251
| 40>    C       -0.24243        -9.47149         2.57016
| 41>    C        0.99096       -10.15617         2.48761
| 42>    C        2.25152        -9.47685         2.40577
| 43>    N        3.38316       -10.20213         2.32059
| 44>    C        3.32262       -11.49445         2.31375
| 45>    C        2.07725       -12.16558         2.39359
| 46>    N        0.96922       -11.50263         2.47616
| 47>    F        2.01033       -13.49513         2.38627
| 48>    F        4.46506       -12.17277         2.23045
| 49>    C        2.36139        -8.06811         2.40224
| 50>    C        1.13212        -7.37187         2.51984
| 51>    C       -0.14097        -8.05782         2.60058
| 52>    N       -1.15434        -7.19807         2.69834
| 53>    S       -0.58362        -5.69669         2.69291
| 54>    N        0.97803        -6.04890         2.56311
| 55>    C        3.61491        -7.41769         2.26543
| 56>    C        3.84986        -6.04356         2.23437
| 57>    C        5.18406        -5.74159         2.04492
| 58>    C        5.98583        -6.88451         1.93234
| 59>    S        5.09097        -8.34180         2.06762
| 60>    C        7.32194        -6.48211         1.71553
| 61>    C        7.38114        -5.08606         1.68619
| 62>    C        6.01310        -4.48495         1.91142
| 63>    C        5.56528        -3.64300         0.71394
| 64>    C        5.97695        -3.65562         3.19843
| 65>    C        8.66206        -4.60241         1.45877
| 66>    C        9.58235        -5.62640         1.31493
| 67>    S        8.85429        -7.21201         1.47564
| 68>    C       10.98661        -5.64793         1.07805
| 69>    N       11.66336        -6.76535         1.16045
| 70>    C       12.94711        -6.48994         0.82591
| 71>    C       13.07385        -5.18082         0.49021
| 72>    N       11.81718        -4.60776         0.64662
| 73>    C       11.54063        -3.26169         0.44711
| 74>    O       10.77938        -2.61362         1.11308
| 75>    N       12.24728        -2.69753        -0.61738
| 76>    C       12.73321        -3.28868        -1.76575
| 77>    N       13.22091        -2.42034        -2.58407
| 78>    C       13.06997        -1.19874        -1.98535
| 79>    C       12.45547        -1.34067        -0.78479
| 80>    H       -4.33232       -19.50871         3.22285
| 81>    H       -5.84457       -20.74505        -0.42822
| 82>    H       -6.87746       -18.26611         0.11786
| 83>    H       -8.41199       -18.27110         2.06497
| 84>    H      -10.23326       -16.23269         1.89513
| 85>    H       -7.66980       -12.56719         2.54650
| 86>    H       -5.56718        -8.79096         1.46512
| 87>    H       -6.92268        -9.92873         1.42794
| 88>    H       -5.44834       -10.27866         0.51855
| 89>    H       -5.39805       -10.48435         4.81226
| 90>    H       -6.89212       -10.04859         3.97504
| 91>    H       -5.53501        -8.91285         4.01554
| 92>    H       -2.90322        -8.54210         2.69055
| 93>    H        3.05212        -5.33344         2.34385
| 94>    H        5.59145        -4.23767        -0.19637
| 95>    H        6.22482        -2.78738         0.59209
| 96>    H        4.54992        -3.28674         0.86865
| 97>    H        6.29196        -4.26075         4.04539
| 98>    H        4.96706        -3.29711         3.38177
| 99>    H        6.64520        -2.80264         3.11133
|100>    H        8.92394        -3.56223         1.41872
|101>    H       13.69673        -7.25473         0.84754
|102>    H       13.92904        -4.59930         0.21494
|103>    H       12.67036        -4.34174        -1.95345
|104>    H       13.41305        -0.30730        -2.46927
|105>    H       12.16003        -0.64063        -0.03203
|106> *
|107>
|108>                          ****END OF INPUT****

CARTESIAN COORDINATES (ANGSTROEM)
---------------------------------
  C     -5.869070  -17.322170    2.620570
  O     -5.073620  -16.954110    3.441090
  N     -5.704730  -18.509210    1.911440
  C     -4.874290  -19.539590    2.299610
  N     -4.866720  -20.503050    1.443870
  C     -5.693520  -20.114540    0.424440
  C     -6.226110  -18.894800    0.688590
  N     -7.036960  -16.629830    2.311590
  C     -8.279480  -17.209750    2.097930
  C     -9.172560  -16.188240    2.039640
  N     -8.541820  -14.996520    2.186280
  C     -7.268820  -15.255390    2.366140
  C     -6.296920  -14.221940    2.487860
  C     -6.641620  -12.876900    2.544310
  C     -5.529460  -12.053650    2.588290
  C     -4.329110  -12.769620    2.552810
  S     -4.569570  -14.466230    2.492540
  C     -3.245590  -11.866690    2.579330
  C     -3.751910  -10.561180    2.636340
  C     -5.263270  -10.567810    2.654610
  C     -5.839000   -9.843060    1.435240
  C     -5.808700   -9.962870    3.950940
  C     -2.756080   -9.604930    2.650350
  C     -1.479610  -10.164760    2.600000
  S     -1.530790  -11.915580    2.542510
  C     -0.242430   -9.471490    2.570160
  C      0.990960  -10.156170    2.487610
  C      2.251520   -9.476850    2.405770
  N      3.383160  -10.202130    2.320590
  C      3.322620  -11.494450    2.313750
  C      2.077250  -12.165580    2.393590
  N      0.969220  -11.502630    2.476160
  F      2.010330  -13.495130    2.386270
  F      4.465060  -12.172770    2.230450
  C      2.361390   -8.068110    2.402240
  C      1.132120   -7.371870    2.519840
  C     -0.140970   -8.057820    2.600580
  N     -1.154340   -7.198070    2.698340
  S     -0.583620   -5.696690    2.692910
  N      0.978030   -6.048900    2.563110
  C      3.614910   -7.417690    2.265430
  C      3.849860   -6.043560    2.234370
  C      5.184060   -5.741590    2.044920
  C      5.985830   -6.884510    1.932340
  S      5.090970   -8.341800    2.067620
  C      7.321940   -6.482110    1.715530
  C      7.381140   -5.086060    1.686190
  C      6.013100   -4.484950    1.911420
  C      5.565280   -3.643000    0.713940
  C      5.976950   -3.655620    3.198430
  C      8.662060   -4.602410    1.458770
  C      9.582350   -5.626400    1.314930
  S      8.854290   -7.212010    1.475640
  C     10.986610   -5.647930    1.078050
  N     11.663360   -6.765350    1.160450
  C     12.947110   -6.489940    0.825910
  C     13.073850   -5.180820    0.490210
  N     11.817180   -4.607760    0.646620
  C     11.540630   -3.261690    0.447110
  O     10.779380   -2.613620    1.113080
  N     12.247280   -2.697530   -0.617380
  C     12.733210   -3.288680   -1.765750
  N     13.220910   -2.420340   -2.584070
  C     13.069970   -1.198740   -1.985350
  C     12.455470   -1.340670   -0.784790
  H     -4.332320  -19.508710    3.222850
  H     -5.844570  -20.745050   -0.428220
  H     -6.877460  -18.266110    0.117860
  H     -8.411990  -18.271100    2.064970
  H    -10.233260  -16.232690    1.895130
  H     -7.669800  -12.567190    2.546500
  H     -5.567180   -8.790960    1.465120
  H     -6.922680   -9.928730    1.427940
  H     -5.448340  -10.278660    0.518550
  H     -5.398050  -10.484350    4.812260
  H     -6.892120  -10.048590    3.975040
  H     -5.535010   -8.912850    4.015540
  H     -2.903220   -8.542100    2.690550
  H      3.052120   -5.333440    2.343850
  H      5.591450   -4.237670   -0.196370
  H      6.224820   -2.787380    0.592090
  H      4.549920   -3.286740    0.868650
  H      6.291960   -4.260750    4.045390
  H      4.967060   -3.297110    3.381770
  H      6.645200   -2.802640    3.111330
  H      8.923940   -3.562230    1.418720
  H     13.696730   -7.254730    0.847540
  H     13.929040   -4.599300    0.214940
  H     12.670360   -4.341740   -1.953450
  H     13.413050   -0.307300   -2.469270
  H     12.160030   -0.640630   -0.032030

 Total Charge           Charge          ....    0
 Multiplicity           Mult            ....    1
 Number of Electrons    NEL             ....  488
 Basis Dimension        Dim             .... 1060

ORBITAL ENERGIES
----------------

  NO   OCC          E(Eh)            E(eV)
   0   2.0000     -89.031230     -2422.6629
   1   2.0000     -88.957431     -2420.6547
   2   2.0000     -88.952055     -2420.5085
   3   2.0000     -88.948528     -2420.4125
   4   2.0000     -88.947835     -2420.3937
   5   2.0000     -24.807991      -675.0598
   6   2.0000     -24.807636      -675.0501
   7   2.0000     -19.242211      -523.6072
   8   2.0000     -19.238698      -523.5116
   9   2.0000     -14.498332      -394.5197
  10   2.0000     -14.497217      -394.4893
  11   2.0000     -14.495465      -394.4417
  12   2.0000     -14.494515      -394.4158
  13   2.0000     -14.447838      -393.1457
  14   2.0000     -14.447614      -393.1396
  15   2.0000     -14.442233      -392.9931
  16   2.0000     -14.442078      -392.9889
  17   2.0000     -14.402396      -391.9091
  18   2.0000     -14.399921      -391.8418
  19   2.0000     -14.396987      -391.7619
  20   2.0000     -14.394835      -391.7034
  21   2.0000     -10.457311      -284.5579
  22   2.0000     -10.453804      -284.4625
  23   2.0000     -10.423165      -283.6287
  24   2.0000     -10.422845      -283.6200
  25   2.0000     -10.352330      -281.7012
  26   2.0000     -10.349710      -281.6299
  27   2.0000     -10.340215      -281.3716
  28   2.0000     -10.335757      -281.2502
  29   2.0000     -10.332658      -281.1659
  30   2.0000     -10.332387      -281.1585
  31   2.0000     -10.330636      -281.1109
  32   2.0000     -10.330392      -281.1043
  33   2.0000     -10.312701      -280.6229
  34   2.0000     -10.311257      -280.5836
  35   2.0000     -10.311109      -280.5795
  36   2.0000     -10.309440      -280.5341
  37   2.0000     -10.301796      -280.3261
  38   2.0000     -10.301554      -280.3195
  39   2.0000     -10.299513      -280.2640
  40   2.0000     -10.299100      -280.2528
  41   2.0000     -10.296662      -280.1864
  42   2.0000     -10.296286      -280.1762
  43   2.0000     -10.294981      -280.1407
  44   2.0000     -10.294364      -280.1239
  45   2.0000     -10.294093      -280.1165
  46   2.0000     -10.293986      -280.1136
  47   2.0000     -10.293242      -280.0934
  48   2.0000     -10.292600      -280.0759
  49   2.0000     -10.287593      -279.9396
  50   2.0000     -10.286655      -279.9141
  51   2.0000     -10.285399      -279.8799
  52   2.0000     -10.284475      -279.8548
  53   2.0000     -10.271118      -279.4913
  54   2.0000     -10.270780      -279.4821
  55   2.0000     -10.265124      -279.3282
  56   2.0000     -10.264458      -279.3101
  57   2.0000     -10.263996      -279.2975
  58   2.0000     -10.263564      -279.2858
  59   2.0000     -10.261580      -279.2318
  60   2.0000     -10.260974      -279.2153
  61   2.0000     -10.257489      -279.1205
  62   2.0000     -10.257209      -279.1128
  63   2.0000     -10.257025      -279.1078
  64   2.0000     -10.256481      -279.0930
  65   2.0000      -8.122779      -221.0320
  66   2.0000      -8.051668      -219.0970
  67   2.0000      -8.046462      -218.9554
  68   2.0000      -8.041760      -218.8274
  69   2.0000      -8.041148      -218.8108
  70   2.0000      -6.094002      -165.8262
  71   2.0000      -6.086117      -165.6117
  72   2.0000      -6.085333      -165.5903
  73   2.0000      -6.021047      -163.8410
  74   2.0000      -6.016811      -163.7258
  75   2.0000      -6.015898      -163.7009
  76   2.0000      -6.013796      -163.6437
  77   2.0000      -6.011639      -163.5850
  78   2.0000      -6.011354      -163.5773
  79   2.0000      -6.010724      -163.5601
  80   2.0000      -6.008491      -163.4993
  81   2.0000      -6.006762      -163.4523
  82   2.0000      -6.006144      -163.4355
  83   2.0000      -6.003873      -163.3737
  84   2.0000      -6.003249      -163.3567
  85   2.0000      -1.335617       -36.3440
  86   2.0000      -1.321655       -35.9641
  87   2.0000      -1.199842       -32.6494
  88   2.0000      -1.198488       -32.6125
  89   2.0000      -1.129317       -30.7303
  90   2.0000      -1.125668       -30.6310
  91   2.0000      -1.124220       -30.5916
  92   2.0000      -1.124029       -30.5864
  93   2.0000      -1.121411       -30.5152
  94   2.0000      -1.106958       -30.1218
  95   2.0000      -1.033599       -28.1256
  96   2.0000      -1.012305       -27.5462
  97   2.0000      -1.010147       -27.4875
  98   2.0000      -1.001616       -27.2554
  99   2.0000      -1.000215       -27.2172
 100   2.0000      -0.985286       -26.8110
 101   2.0000      -0.978685       -26.6314
 102   2.0000      -0.974747       -26.5242
 103   2.0000      -0.972585       -26.4654
 104   2.0000      -0.961528       -26.1645
 105   2.0000      -0.950982       -25.8775
 106   2.0000      -0.918926       -25.0052
 107   2.0000      -0.912305       -24.8251
 108   2.0000      -0.878070       -23.8935
 109   2.0000      -0.875960       -23.8361
 110   2.0000      -0.871769       -23.7220
 111   2.0000      -0.868662       -23.6375
 112   2.0000      -0.853803       -23.2332
 113   2.0000      -0.851341       -23.1662
 114   2.0000      -0.843249       -22.9460
 115   2.0000      -0.831116       -22.6158
 116   2.0000      -0.821158       -22.3448
 117   2.0000      -0.818447       -22.2711
 118   2.0000      -0.813096       -22.1255
 119   2.0000      -0.811892       -22.0927
 120   2.0000      -0.806351       -21.9419
 121   2.0000      -0.800256       -21.7761
 122   2.0000      -0.796614       -21.6770
 123   2.0000      -0.782422       -21.2908
 124   2.0000      -0.768913       -20.9232
 125   2.0000      -0.768367       -20.9083
 126   2.0000      -0.767553       -20.8862
 127   2.0000      -0.750993       -20.4356
 128   2.0000      -0.744694       -20.2641
 129   2.0000      -0.733941       -19.9715
 130   2.0000      -0.727787       -19.8041
 131   2.0000      -0.721416       -19.6307
 132   2.0000      -0.707713       -19.2578
 133   2.0000      -0.705914       -19.2089
 134   2.0000      -0.699602       -19.0371
 135   2.0000      -0.693062       -18.8592
 136   2.0000      -0.689749       -18.7690
 137   2.0000      -0.683086       -18.5877
 138   2.0000      -0.681263       -18.5381
 139   2.0000      -0.673183       -18.3182
 140   2.0000      -0.670459       -18.2441
 141   2.0000      -0.663183       -18.0461
 142   2.0000      -0.662181       -18.0189
 143   2.0000      -0.658905       -17.9297
 144   2.0000      -0.651527       -17.7290
 145   2.0000      -0.636906       -17.3311
 146   2.0000      -0.622194       -16.9308
 147   2.0000      -0.618775       -16.8377
 148   2.0000      -0.616684       -16.7808
 149   2.0000      -0.614518       -16.7219
 150   2.0000      -0.611312       -16.6347
 151   2.0000      -0.611002       -16.6262
 152   2.0000      -0.604605       -16.4521
 153   2.0000      -0.603235       -16.4149
 154   2.0000      -0.594002       -16.1636
 155   2.0000      -0.584992       -15.9184
 156   2.0000      -0.583045       -15.8654
 157   2.0000      -0.580598       -15.7989
 158   2.0000      -0.578098       -15.7308
 159   2.0000      -0.570716       -15.5300
 160   2.0000      -0.563128       -15.3235
 161   2.0000      -0.555855       -15.1256
 162   2.0000      -0.555616       -15.1191
 163   2.0000      -0.554173       -15.0798
 164   2.0000      -0.551231       -14.9998
 165   2.0000      -0.548889       -14.9360
 166   2.0000      -0.546340       -14.8667
 167   2.0000      -0.545055       -14.8317
 168   2.0000      -0.542656       -14.7664
 169   2.0000      -0.539303       -14.6752
 170   2.0000      -0.538274       -14.6472
 171   2.0000      -0.536194       -14.5906
 172   2.0000      -0.532086       -14.4788
 173   2.0000      -0.527052       -14.3418
 174   2.0000      -0.522958       -14.2304
 175   2.0000      -0.521936       -14.2026
 176   2.0000      -0.519647       -14.1403
 177   2.0000      -0.517500       -14.0819
 178   2.0000      -0.516832       -14.0637
 179   2.0000      -0.513573       -13.9750
 180   2.0000      -0.511751       -13.9255
 181   2.0000      -0.508806       -13.8453
 182   2.0000      -0.504056       -13.7161
 183   2.0000      -0.502580       -13.6759
 184   2.0000      -0.501539       -13.6476
 185   2.0000      -0.500411       -13.6169
 186   2.0000      -0.498468       -13.5640
 187   2.0000      -0.496241       -13.5034
 188   2.0000      -0.495123       -13.4730
 189   2.0000      -0.492151       -13.3921
 190   2.0000      -0.489095       -13.3089
 191   2.0000      -0.487370       -13.2620
 192   2.0000      -0.475983       -12.9521
 193   2.0000      -0.474053       -12.8996
 194   2.0000      -0.467952       -12.7336
 195   2.0000      -0.467204       -12.7133
 196   2.0000      -0.465300       -12.6615
 197   2.0000      -0.463548       -12.6138
 198   2.0000      -0.460365       -12.5272
 199   2.0000      -0.454535       -12.3685
 200   2.0000      -0.451548       -12.2873
 201   2.0000      -0.446842       -12.1592
 202   2.0000      -0.445731       -12.1289
 203   2.0000      -0.438990       -11.9455
 204   2.0000      -0.435024       -11.8376
 205   2.0000      -0.430205       -11.7065
 206   2.0000      -0.428035       -11.6474
 207   2.0000      -0.426905       -11.6167
 208   2.0000      -0.419825       -11.4240
 209   2.0000      -0.416088       -11.3223
 210   2.0000      -0.413113       -11.2414
 211   2.0000      -0.411578       -11.1996
 212   2.0000      -0.409640       -11.1469
 213   2.0000      -0.407140       -11.0789
 214   2.0000      -0.405559       -11.0358
 215   2.0000      -0.401202       -10.9173
 216   2.0000      -0.396958       -10.8018
 217   2.0000      -0.393448       -10.7063
 218   2.0000      -0.389253       -10.5921
 219   2.0000      -0.380897       -10.3647
 220   2.0000      -0.379847       -10.3362
 221   2.0000      -0.376228       -10.2377
 222   2.0000      -0.374540       -10.1917
 223   2.0000      -0.366850        -9.9825
 224   2.0000      -0.363856        -9.9010
 225   2.0000      -0.362588        -9.8665
 226   2.0000      -0.358561        -9.7569
 227   2.0000      -0.356855        -9.7105
 228   2.0000      -0.354944        -9.6585
 229   2.0000      -0.352544        -9.5932
 230   2.0000      -0.350231        -9.5303
 231   2.0000      -0.343816        -9.3557
 232   2.0000      -0.334218        -9.0945
 233   2.0000      -0.330875        -9.0036
 234   2.0000      -0.321310        -8.7433
 235   2.0000      -0.319369        -8.6905
 236   2.0000      -0.314786        -8.5658
 237   2.0000      -0.314045        -8.5456
 238   2.0000      -0.310904        -8.4601
 239   2.0000      -0.307819        -8.3762
 240   2.0000      -0.305842        -8.3224
 241   2.0000      -0.279861        -7.6154
 242   2.0000      -0.245265        -6.6740
 243   2.0000      -0.209471        -5.7000
 244   0.0000      -0.103714        -2.8222
 245   0.0000      -0.040807        -1.1104
 246   0.0000      -0.038447        -1.0462
 247   0.0000      -0.016279        -0.4430
 248   0.0000      -0.013199        -0.3592

MULLIKEN ATOMIC CHARGES
-----------------------
   0 C :    0.227405
   1 O :   -0.155976
   2 N :   -0.181497
   3 C :    0.112776
   4 N :   -0.110395
   5 C :    0.014659
   6 C :    0.053430
   7 N :   -0.192484
   8 C :    0.052990
   9 C :    0.036972
  10 N :   -0.102357
  11 C :    0.043423
  12 C :   -0.064813
  13 C :   -0.076296
  14 C :    0.042888
  15 C :   -0.085570
  16 S :    0.173914
  17 C :   -0.048389
  18 C :    0.030670
  19 C :   -0.104399
  20 C :    0.102723
  21 C :    0.106042
  22 C :   -0.062757
  23 C :   -0.189507
  24 S :    0.160989
  25 C :    0.184904
  26 C :   -0.064584
  27 C :   -0.068569
  28 N :   -0.034308
  29 C :    0.144559
  30 C :    0.144518
  31 N :   -0.040869
  32 F :   -0.141475
  33 F :   -0.140248
  34 C :    0.188642
  35 C :   -0.018204
  36 C :   -0.022898
  37 N :   -0.289633
  38 S :    0.528159
  39 N :   -0.292100
  40 C :   -0.189283
  41 C :   -0.064946
  42 C :    0.034226
  43 C :   -0.055757
  44 S :    0.160807
  45 C :   -0.083906
  46 C :   -0.002393
  47 C :   -0.096101
  48 C :    0.103326
  49 C :    0.107646
  50 C :   -0.055203
  51 C :   -0.105122
  52 S :    0.197115
  53 C :    0.085099
  54 N :   -0.117333
  55 C :    0.036809
  56 C :    0.052308
  57 N :   -0.194312
  58 C :    0.249508
  59 O :   -0.159950
  60 N :   -0.188956
  61 C :    0.085812
  62 N :   -0.114790
  63 C :    0.017645
  64 C :    0.078978
  65 H :    0.037176
  66 H :    0.009361
  67 H :    0.038723
  68 H :    0.031169
  69 H :    0.000485
  70 H :   -0.007265
  71 H :    0.010335
  72 H :    0.011523
  73 H :    0.019006
  74 H :    0.020158
  75 H :    0.011098
  76 H :    0.010150
  77 H :   -0.014001
  78 H :   -0.015165
  79 H :    0.019050
  80 H :    0.009575
  81 H :    0.008802
  82 H :    0.019196
  83 H :    0.008431
  84 H :    0.011356
  85 H :   -0.006058
  86 H :    0.003449
  87 H :    0.032659
  88 H :    0.050168
  89 H :    0.009715
  90 H :    0.027342
Sum of atomic charges:   -0.0000000

LOEWDIN ATOMIC CHARGES
----------------------
   0 C :    0.109923
   1 O :   -0.138428
   2 N :    0.025198
   3 C :    0.049098
   4 N :   -0.093195
   5 C :   -0.024612
   6 C :   -0.024704
   7 N :    0.017598
   8 C :   -0.031004
   9 C :   -0.022459
  10 N :   -0.109272
  11 C :    0.024574
  12 C :   -0.202459
  13 C :   -0.021761
  14 C :   -0.039163
  15 C :   -0.191793
  16 S :    0.466008
  17 C :   -0.194822
  18 C :   -0.041759
  19 C :   -0.034833
  20 C :   -0.025146
  21 C :   -0.024826
  22 C :   -0.039910
  23 C :   -0.168299
  24 S :    0.469109
  25 C :   -0.049068
  26 C :   -0.020093
  27 C :   -0.020032
  28 N :   -0.051887
  29 C :    0.058976
  30 C :    0.059150
  31 N :   -0.052434
  32 F :   -0.030223
  33 F :   -0.029839
  34 C :   -0.049140
  35 C :   -0.038156
  36 C :   -0.038553
  37 N :   -0.279876
  38 S :    0.651694
  39 N :   -0.279869
  40 C :   -0.168125
  41 C :   -0.040212
  42 C :   -0.041291
  43 C :   -0.195227
  44 S :    0.469438
  45 C :   -0.190214
  46 C :   -0.041952
  47 C :   -0.034963
  48 C :   -0.025544
  49 C :   -0.024471
  50 C :   -0.046498
  51 C :   -0.194141
  52 S :    0.477530
  53 C :    0.021875
  54 N :   -0.118223
  55 C :   -0.020450
  56 C :   -0.029776
  57 N :    0.022033
  58 C :    0.125189
  59 O :   -0.133660
  60 N :    0.024226
  61 C :    0.028478
  62 N :   -0.093816
  63 C :   -0.025242
  64 C :   -0.006097
  65 H :    0.027592
  66 H :    0.024813
  67 H :    0.031084
  68 H :    0.028597
  69 H :    0.024753
  70 H :    0.035896
  71 H :    0.023436
  72 H :    0.023611
  73 H :    0.029196
  74 H :    0.029777
  75 H :    0.023514
  76 H :    0.023355
  77 H :    0.026762
  78 H :    0.026484
  79 H :    0.029056
  80 H :    0.022972
  81 H :    0.023084
  82 H :    0.029670
  83 H :    0.022869
  84 H :    0.023569
  85 H :    0.028650
  86 H :    0.026372
  87 H :    0.028713
  88 H :    0.026190
  89 H :    0.024649
  90 H :    0.032759

  Mayer bond orders larger than 0.100000
B(  0-C ,  1-O ) :   2.1671 B(  0-C ,  2-N ) :   1.0093 B(  0-C ,  7-N ) :   0.9979
B(  2-N ,  3-C ) :   1.1101 B(  2-N ,  6-C ) :   1.0841 B(  3-C ,  4-N ) :   1.7549
B(  3-C , 65-H ) :   0.9823 B(  4-N ,  5-C ) :   1.3273 B(  5-C ,  6-C ) :   1.5955
B(  5-C , 66-H ) :   1.0014 B(  6-C , 67-H ) :   0.9845 B(  7-N ,  8-C ) :   1.0614
B(  7-N , 11-C ) :   1.0989 B(  8-C ,  9-C ) :   1.5680 B(  8-C , 68-H ) :   0.9807
B(  9-C , 10-N ) :   1.3387 B(  9-C , 69-H ) :   0.9984 B( 10-N , 11-C ) :   1.7685
B( 11-C , 12-C ) :   1.0836 B( 12-C , 13-C ) :   1.4499 B( 12-C , 16-S ) :   1.1053
B( 13-C , 14-C ) :   1.2825 B( 13-C , 70-H ) :   1.0213 B( 14-C , 15-C ) :   1.4929
B( 14-C , 19-C ) :   0.9382 B( 15-C , 16-S ) :   1.0941 B( 15-C , 17-C ) :   1.1838
B( 17-C , 18-C ) :   1.4846 B( 17-C , 24-S ) :   1.0503 B( 18-C , 19-C ) :   0.9386
B( 18-C , 22-C ) :   1.3093 B( 19-C , 20-C ) :   1.0352 B( 19-C , 21-C ) :   1.0341
B( 20-C , 71-H ) :   0.9649 B( 20-C , 72-H ) :   0.9649 B( 20-C , 73-H ) :   0.9644
B( 21-C , 74-H ) :   0.9638 B( 21-C , 75-H ) :   0.9647 B( 21-C , 76-H ) :   0.9648
B( 22-C , 23-C ) :   1.4094 B( 22-C , 77-H ) :   0.9925 B( 23-C , 24-S ) :   1.0907
B( 23-C , 25-C ) :   1.2040 B( 25-C , 26-C ) :   1.2837 B( 25-C , 34-C ) :   0.1203
B( 25-C , 36-C ) :   1.1891 B( 26-C , 27-C ) :   1.1161 B( 26-C , 31-N ) :   1.3865
B( 27-C , 28-N ) :   1.3889 B( 27-C , 34-C ) :   1.2862 B( 28-N , 29-C ) :   1.6522
B( 29-C , 30-C ) :   1.1141 B( 29-C , 33-F ) :   1.1817 B( 30-C , 31-N ) :   1.6540
B( 30-C , 32-F ) :   1.1791 B( 34-C , 35-C ) :   1.1870 B( 34-C , 40-C ) :   1.2011
B( 35-C , 36-C ) :   1.0983 B( 35-C , 39-N ) :   1.5190 B( 36-C , 37-N ) :   1.5230
B( 37-N , 38-S ) :   1.2657 B( 37-N , 39-N ) :   0.1506 B( 38-S , 39-N ) :   1.2668
B( 40-C , 41-C ) :   1.4107 B( 40-C , 44-S ) :   1.0920 B( 41-C , 42-C ) :   1.3088
B( 41-C , 78-H ) :   0.9924 B( 42-C , 43-C ) :   1.4911 B( 42-C , 47-C ) :   0.9363
B( 43-C , 44-S ) :   1.0503 B( 43-C , 45-C ) :   1.1805 B( 45-C , 46-C ) :   1.5197
B( 45-C , 52-S ) :   1.0785 B( 46-C , 47-C ) :   0.9405 B( 46-C , 50-C ) :   1.2955
B( 47-C , 48-C ) :   1.0356 B( 47-C , 49-C ) :   1.0349 B( 48-C , 79-H ) :   0.9645
B( 48-C , 80-H ) :   0.9648 B( 48-C , 81-H ) :   0.9646 B( 49-C , 82-H ) :   0.9637
B( 49-C , 83-H ) :   0.9642 B( 49-C , 84-H ) :   0.9646 B( 50-C , 51-C ) :   1.4710
B( 50-C , 85-H ) :   0.9959 B( 51-C , 52-S ) :   1.1145 B( 51-C , 53-C ) :   1.0722
B( 53-C , 54-N ) :   1.7685 B( 53-C , 57-N ) :   1.0976 B( 54-N , 55-C ) :   1.3418
B( 55-C , 56-C ) :   1.5728 B( 55-C , 86-H ) :   0.9990 B( 56-C , 57-N ) :   1.0614
B( 56-C , 87-H ) :   0.9802 B( 57-N , 58-C ) :   1.0043 B( 58-C , 59-O ) :   2.1322
B( 58-C , 60-N ) :   1.0023 B( 60-N , 61-C ) :   1.0942 B( 60-N , 64-C ) :   1.1022
B( 61-C , 62-N ) :   1.7612 B( 61-C , 88-H ) :   0.9737 B( 62-N , 63-C ) :   1.3227
B( 63-C , 64-C ) :   1.5871 B( 63-C , 89-H ) :   0.9999 B( 64-C , 90-H ) :   0.9942

-----------------------------------------------------------------------------
         ABSORPTION SPECTRUM VIA TRANSITION ELECTRIC DIPOLE MOMENTS
-----------------------------------------------------------------------------
State   Energy  Wavelength   fosc         T2         TX        TY        TZ
        (cm-1)    (nm)                  (au**2)     (au)      (au)      (au)
-----------------------------------------------------------------------------
   0    8166.5   1224.5   0.640771763  25.83099   4.44055   2.45164  -0.31928
   1   16980.0    588.9   0.011103698   0.21528  -0.16013   0.32712   0.28746
   2   22312.3    448.2   1.395324700  20.58759   3.77682   2.50305  -0.24081
   3   23539.8    424.8   0.213927482   2.99184  -1.65695  -0.00415   0.49633
   4   23672.3    422.4   0.003492745   0.04857  -0.00064   0.20424   0.08283
   5   24679.2    405.2   0.080215875   1.07005  -0.87987  -0.54167   0.04979
   6   26615.8    375.7   0.001788748   0.02213   0.14852   0.00803   0.00108
   7   26741.9    373.9   0.001941054   0.02390   0.07802  -0.13251   0.01576
   8   28181.8    354.8   0.277795316   3.24512   1.68997   0.62094  -0.05965
   9   28806.7    347.1   0.016839630   0.19245   0.17788   0.38993   0.09363
  10   29968.6    333.7   0.001715384   0.01884  -0.09082   0.09300   0.04412
  11   30442.7    328.5   0.065045247   0.70341  -0.40035   0.73598   0.03826
  12   31340.4    319.1   0.014331483   0.15054  -0.26715   0.25675  -0.11513
  13   32289.6    309.7   0.015291551   0.15591  -0.11724   0.37584   0.03008
  14   32432.7    308.3   0.032908660   0.33404  -0.12645   0.51585   0.22794
  15   32647.3    306.3   0.046774400   0.47167   0.55007   0.40607   0.06475
  16   33021.1    302.8   0.000021658   0.00022   0.01287  -0.00270  -0.00656
  17   33234.9    300.9   0.179190617   1.77499  -1.23758  -0.43546   0.23186
  18   34106.5    293.2   0.034154962   0.32968  -0.23372   0.52292   0.04017
  19   34673.3    288.4   0.006998135   0.06645  -0.25468  -0.03856  -0.00987
  20   35398.6    282.5   0.152249645   1.41594   0.56944  -1.04119  -0.08718
  21   35445.5    282.1   0.700999947   6.51077  -1.11665   2.28642   0.19008
  22   36258.5    275.8   0.021693062   0.19696   0.33292   0.29287  -0.01886
  23   37485.1    266.8   0.002002974   0.01759   0.06173   0.10932  -0.04277
  24   37546.6    266.3   0.023495743   0.20601  -0.24645   0.38103   0.00963
  25   38447.8    260.1   0.013236084   0.11333   0.30995   0.09677   0.08890
  26   38613.7    259.0   0.006891601   0.05876   0.07785   0.12375  -0.19335
  27   39751.8    251.6   0.048618440   0.40264  -0.11933   0.62197   0.03937
  28   39947.0    250.3   0.026556570   0.21886   0.41320  -0.21904  -0.01222

FINAL SINGLE POINT ENERGY     -4686.514432475029

DIPOLE MOMENT
-------------
                                X             Y             Z
Electronic contribution:     16.69535     -33.88008       7.53528
Nuclear contribution   :    -17.60143      35.55979      -7.77855
                        -----------------------------------------
Total Dipole Moment    :     -0.90608       1.67971      -0.24327
                        -----------------------------------------
Magnitude (a.u.)       :      1.92395
Magnitude (Debye)      :      4.89029

Rotational constants in cm-1:     0.002784     0.000272     0.000253
Rotational constants in MHz :    83.458998     8.149204     7.594620

                             ****ORCA TERMINATED NORMALLY****
TOTAL RUN TIME: 0 days 0 hours 13 minutes 44 seconds 170 msec
