                         Program Version 4.2.0 -  RELEASE  -
|  1> # ORCA input file
|  2> # SCF done       -129.509079806313          0.000444267876
|  3> ! CAM-B3LYP def2-SVP def2/J RIJCOSX Grid4 TightSCF
|  4> %maxcore 5000
|  5> %tddft
|  6>     Mode sTDDFT
|  7>     Ethresh 5.0
|  8>     maxcore 5000
|  9> end
| 10>
| 11> %pal
| 12>   nprocs 6
| 13>   end
| 14> * xyz 0 1
| 15>    C        4.48556        -0.41774        -0.79871
| 16>    O        4.63133        -1.44596        -1.40374
| 17>    N        5.56854         0.26700        -0.24933
| 18>    C        6.88302         0.04652        -0.60248
| 19>    N        7.69788         0.76206         0.09356
| 20>    C        6.92528         1.47854         0.96714
| 21>    C        5.61211         1.19659         0.77479
| 22>    N        3.25355         0.18921        -0.59129
| 23>    C        2.95262         1.54112        -0.64786
| 24>    C        1.60080         1.62835        -0.57097
| 25>    N        1.04888         0.38754        -0.45316
| 26>    C        2.02743        -0.46573        -0.47584
| 27>    C        1.91013        -1.90972        -0.40739
| 28>    C        0.96263        -2.52764        -1.17838
| 29>    C        0.88634        -3.93015        -1.25297
| 30>    C        1.75828        -4.73646        -0.56896
| 31>    C        2.74662        -4.14890         0.29153
| 32>    C        3.65918        -4.82043         1.06640
| 33>   Si        4.90462        -3.52901         1.57494
| 34>    C        3.60128        -2.20946         1.41756
| 35>    C        2.77492        -2.68938         0.42612
| 36>    C        1.66068        -6.17713        -0.72514
| 37>    C        1.63543        -7.17655         0.21173
| 38>    F        1.68102        -6.97115         1.53732
| 39>    C        1.49327        -8.46990        -0.33755
| 40>    F        1.49736        -9.57558         0.42853
| 41>    C        1.40833        -8.49085        -1.70498
| 42>    S        1.50210        -6.86688        -2.31188
| 43>    C        1.34416        -9.62586        -2.60696
| 44>    C        2.13440        -9.64061        -3.72646
| 45>    C        2.16920       -10.75275        -4.58749
| 46>    C        1.41388       -11.86596        -4.34247
| 47>    C        0.53573       -11.90622        -3.21135
| 48>    C       -0.33591       -12.92085        -2.88925
| 49>   Si       -0.85084       -12.56636        -1.13077
| 50>    C       -0.54184       -10.75321        -1.40438
| 51>    C        0.46362       -10.72769        -2.34269
| 52>    C        1.47501       -12.97934        -5.27604
| 53>    N        2.54511       -13.61507        -5.64700
| 54>    C        2.14437       -14.58616        -6.51632
| 55>    C        0.79548       -14.56099        -6.66632
| 56>    N        0.34212       -13.52349        -5.86958
| 57>    C       -0.93943       -12.97686        -5.81432
| 58>    O       -1.15434       -11.79836        -5.78038
| 59>    N       -1.96630       -13.91977        -5.81795
| 60>    C       -3.29008       -13.62049        -6.05748
| 61>    N       -4.04825       -14.65774        -5.95303
| 62>    C       -3.22559       -15.69726        -5.61201
| 63>    C       -1.94036       -15.27138        -5.52477
| 64>    H        7.14741        -0.63639        -1.38377
| 65>    H        7.37381         2.14825         1.67244
| 66>    H        4.73434         1.53733         1.28316
| 67>    H        3.70682         2.28678        -0.79188
| 68>    H        0.98168         2.50242        -0.58807
| 69>    H        0.28661        -1.92624        -1.76584
| 70>    H        0.13027        -4.37809        -1.88139
| 71>    H        3.80904        -5.88278         0.97709
| 72>    H        3.71608        -1.14936         1.58794
| 73>    H        2.76364        -8.79021        -3.94558
| 74>    H        2.80727       -10.72731        -5.45714
| 75>    H       -0.27743       -13.88553        -3.36993
| 76>    H       -0.67260        -9.95073        -0.69823
| 77>    H        2.85970       -15.24130        -6.97101
| 78>    H        0.13744       -15.13017        -7.28987
| 79>    H       -3.60477       -12.62902        -6.31183
| 80>    H       -3.62154       -16.67997        -5.45434
| 81>    H       -1.04229       -15.78880        -5.25880
| 82> *
| 83>
| 84>                          ****END OF INPUT****

CARTESIAN COORDINATES (ANGSTROEM)
---------------------------------
  C      4.485560   -0.417740   -0.798710
  O      4.631330   -1.445960   -1.403740
  N      5.568540    0.267000   -0.249330
  C      6.883020    0.046520   -0.602480
  N      7.697880    0.762060    0.093560
  C      6.925280    1.478540    0.967140
  C      5.612110    1.196590    0.774790
  N      3.253550    0.189210   -0.591290
  C      2.952620    1.541120   -0.647860
  C      1.600800    1.628350   -0.570970
  N      1.048880    0.387540   -0.453160
  C      2.027430   -0.465730   -0.475840
  C      1.910130   -1.909720   -0.407390
  C      0.962630   -2.527640   -1.178380
  C      0.886340   -3.930150   -1.252970
  C      1.758280   -4.736460   -0.568960
  C      2.746620   -4.148900    0.291530
  C      3.659180   -4.820430    1.066400
  Si     4.904620   -3.529010    1.574940
  C      3.601280   -2.209460    1.417560
  C      2.774920   -2.689380    0.426120
  C      1.660680   -6.177130   -0.725140
  C      1.635430   -7.176550    0.211730
  F      1.681020   -6.971150    1.537320
  C      1.493270   -8.469900   -0.337550
  F      1.497360   -9.575580    0.428530
  C      1.408330   -8.490850   -1.704980
  S      1.502100   -6.866880   -2.311880
  C      1.344160   -9.625860   -2.606960
  C      2.134400   -9.640610   -3.726460
  C      2.169200  -10.752750   -4.587490
  C      1.413880  -11.865960   -4.342470
  C      0.535730  -11.906220   -3.211350
  C     -0.335910  -12.920850   -2.889250
  Si    -0.850840  -12.566360   -1.130770
  C     -0.541840  -10.753210   -1.404380
  C      0.463620  -10.727690   -2.342690
  C      1.475010  -12.979340   -5.276040
  N      2.545110  -13.615070   -5.647000
  C      2.144370  -14.586160   -6.516320
  C      0.795480  -14.560990   -6.666320
  N      0.342120  -13.523490   -5.869580
  C     -0.939430  -12.976860   -5.814320
  O     -1.154340  -11.798360   -5.780380
  N     -1.966300  -13.919770   -5.817950
  C     -3.290080  -13.620490   -6.057480
  N     -4.048250  -14.657740   -5.953030
  C     -3.225590  -15.697260   -5.612010
  C     -1.940360  -15.271380   -5.524770
  H      7.147410   -0.636390   -1.383770
  H      7.373810    2.148250    1.672440
  H      4.734340    1.537330    1.283160
  H      3.706820    2.286780   -0.791880
  H      0.981680    2.502420   -0.588070
  H      0.286610   -1.926240   -1.765840
  H      0.130270   -4.378090   -1.881390
  H      3.809040   -5.882780    0.977090
  H      3.716080   -1.149360    1.587940
  H      2.763640   -8.790210   -3.945580
  H      2.807270  -10.727310   -5.457140
  H     -0.277430  -13.885530   -3.369930
  H     -0.672600   -9.950730   -0.698230
  H      2.859700  -15.241300   -6.971010
  H      0.137440  -15.130170   -7.289870
  H     -3.604770  -12.629020   -6.311830
  H     -3.621540  -16.679970   -5.454340
  H     -1.042290  -15.788800   -5.258800

 Total Charge           Charge          ....    0
 Multiplicity           Mult            ....    1
 Number of Electrons    NEL             ....  356
 Basis Dimension        Dim             ....  788

ORBITAL ENERGIES
----------------

  NO   OCC          E(Eh)            E(eV)
   0   2.0000     -88.971526     -2421.0383
   1   2.0000     -66.196679     -1801.3032
   2   2.0000     -66.196241     -1801.2913
   3   2.0000     -24.792469      -674.6374
   4   2.0000     -24.792372      -674.6347
   5   2.0000     -19.237980      -523.4921
   6   2.0000     -19.236041      -523.4393
   7   2.0000     -14.497099      -394.4861
   8   2.0000     -14.496853      -394.4794
   9   2.0000     -14.496036      -394.4572
  10   2.0000     -14.494078      -394.4039
  11   2.0000     -14.403169      -391.9301
  12   2.0000     -14.400870      -391.8676
  13   2.0000     -14.400815      -391.8661
  14   2.0000     -14.400621      -391.8608
  15   2.0000     -10.454860      -284.4912
  16   2.0000     -10.452265      -284.4206
  17   2.0000     -10.367238      -282.1069
  18   2.0000     -10.366831      -282.0958
  19   2.0000     -10.348481      -281.5965
  20   2.0000     -10.345282      -281.5094
  21   2.0000     -10.336488      -281.2701
  22   2.0000     -10.336060      -281.2585
  23   2.0000     -10.317669      -280.7580
  24   2.0000     -10.315686      -280.7041
  25   2.0000     -10.314694      -280.6771
  26   2.0000     -10.314656      -280.6761
  27   2.0000     -10.314154      -280.6624
  28   2.0000     -10.313615      -280.6477
  29   2.0000     -10.302656      -280.3495
  30   2.0000     -10.301975      -280.3310
  31   2.0000     -10.298231      -280.2291
  32   2.0000     -10.298015      -280.2232
  33   2.0000     -10.297917      -280.2206
  34   2.0000     -10.296203      -280.1739
  35   2.0000     -10.295616      -280.1580
  36   2.0000     -10.295471      -280.1540
  37   2.0000     -10.295097      -280.1438
  38   2.0000     -10.294031      -280.1148
  39   2.0000     -10.293901      -280.1113
  40   2.0000     -10.292737      -280.0796
  41   2.0000     -10.289121      -279.9812
  42   2.0000     -10.289099      -279.9806
  43   2.0000     -10.287949      -279.9493
  44   2.0000     -10.287946      -279.9492
  45   2.0000     -10.254032      -279.0264
  46   2.0000     -10.253668      -279.0165
  47   2.0000     -10.251696      -278.9628
  48   2.0000     -10.250382      -278.9271
  49   2.0000      -8.066604      -219.5035
  50   2.0000      -6.036006      -164.2481
  51   2.0000      -6.032092      -164.1416
  52   2.0000      -6.028247      -164.0369
  53   2.0000      -5.365775      -146.0102
  54   2.0000      -5.365144      -145.9930
  55   2.0000      -3.733083      -101.5823
  56   2.0000      -3.732408      -101.5640
  57   2.0000      -3.724993      -101.3622
  58   2.0000      -3.724380      -101.3455
  59   2.0000      -3.723028      -101.3087
  60   2.0000      -3.722447      -101.2929
  61   2.0000      -1.310031       -35.6477
  62   2.0000      -1.298076       -35.3224
  63   2.0000      -1.198325       -32.6081
  64   2.0000      -1.196713       -32.5642
  65   2.0000      -1.127543       -30.6820
  66   2.0000      -1.126189       -30.6452
  67   2.0000      -1.122833       -30.5538
  68   2.0000      -1.121958       -30.5300
  69   2.0000      -1.012175       -27.5427
  70   2.0000      -1.009901       -27.4808
  71   2.0000      -1.006819       -27.3969
  72   2.0000      -0.979339       -26.6492
  73   2.0000      -0.977623       -26.6025
  74   2.0000      -0.975900       -26.5556
  75   2.0000      -0.971248       -26.4290
  76   2.0000      -0.911150       -24.7937
  77   2.0000      -0.898100       -24.4385
  78   2.0000      -0.896142       -24.3853
  79   2.0000      -0.892271       -24.2799
  80   2.0000      -0.854361       -23.2483
  81   2.0000      -0.852482       -23.1972
  82   2.0000      -0.851917       -23.1818
  83   2.0000      -0.843097       -22.9418
  84   2.0000      -0.833305       -22.6754
  85   2.0000      -0.815212       -22.1830
  86   2.0000      -0.801013       -21.7967
  87   2.0000      -0.798344       -21.7240
  88   2.0000      -0.782518       -21.2934
  89   2.0000      -0.780556       -21.2400
  90   2.0000      -0.762692       -20.7539
  91   2.0000      -0.751930       -20.4611
  92   2.0000      -0.729839       -19.8599
  93   2.0000      -0.727662       -19.8007
  94   2.0000      -0.720132       -19.5958
  95   2.0000      -0.708308       -19.2740
  96   2.0000      -0.706589       -19.2273
  97   2.0000      -0.705091       -19.1865
  98   2.0000      -0.688335       -18.7306
  99   2.0000      -0.680912       -18.5286
 100   2.0000      -0.676757       -18.4155
 101   2.0000      -0.664859       -18.0917
 102   2.0000      -0.662919       -18.0389
 103   2.0000      -0.657340       -17.8871
 104   2.0000      -0.651440       -17.7266
 105   2.0000      -0.650518       -17.7015
 106   2.0000      -0.638112       -17.3639
 107   2.0000      -0.628791       -17.1103
 108   2.0000      -0.625038       -17.0082
 109   2.0000      -0.608145       -16.5485
 110   2.0000      -0.606640       -16.5075
 111   2.0000      -0.591321       -16.0907
 112   2.0000      -0.588867       -16.0239
 113   2.0000      -0.581998       -15.8370
 114   2.0000      -0.580473       -15.7955
 115   2.0000      -0.579241       -15.7620
 116   2.0000      -0.578039       -15.7292
 117   2.0000      -0.574673       -15.6377
 118   2.0000      -0.561559       -15.2808
 119   2.0000      -0.560056       -15.2399
 120   2.0000      -0.553810       -15.0699
 121   2.0000      -0.551483       -15.0066
 122   2.0000      -0.547264       -14.8918
 123   2.0000      -0.544386       -14.8135
 124   2.0000      -0.542062       -14.7503
 125   2.0000      -0.535734       -14.5781
 126   2.0000      -0.533115       -14.5068
 127   2.0000      -0.531802       -14.4711
 128   2.0000      -0.523533       -14.2461
 129   2.0000      -0.522286       -14.2121
 130   2.0000      -0.521564       -14.1925
 131   2.0000      -0.520620       -14.1668
 132   2.0000      -0.516500       -14.0547
 133   2.0000      -0.514617       -14.0034
 134   2.0000      -0.511972       -13.9315
 135   2.0000      -0.506394       -13.7797
 136   2.0000      -0.502645       -13.6777
 137   2.0000      -0.502082       -13.6623
 138   2.0000      -0.501355       -13.6426
 139   2.0000      -0.500763       -13.6265
 140   2.0000      -0.496762       -13.5176
 141   2.0000      -0.489355       -13.3160
 142   2.0000      -0.485730       -13.2174
 143   2.0000      -0.475922       -12.9505
 144   2.0000      -0.472454       -12.8561
 145   2.0000      -0.468128       -12.7384
 146   2.0000      -0.462108       -12.5746
 147   2.0000      -0.460323       -12.5260
 148   2.0000      -0.448050       -12.1921
 149   2.0000      -0.434698       -11.8287
 150   2.0000      -0.430578       -11.7166
 151   2.0000      -0.429799       -11.6954
 152   2.0000      -0.405493       -11.0340
 153   2.0000      -0.401773       -10.9328
 154   2.0000      -0.391127       -10.6431
 155   2.0000      -0.388916       -10.5829
 156   2.0000      -0.387456       -10.5432
 157   2.0000      -0.382697       -10.4137
 158   2.0000      -0.379911       -10.3379
 159   2.0000      -0.377611       -10.2753
 160   2.0000      -0.375007       -10.2044
 161   2.0000      -0.372455       -10.1350
 162   2.0000      -0.367675       -10.0049
 163   2.0000      -0.361080        -9.8255
 164   2.0000      -0.359458        -9.7814
 165   2.0000      -0.355485        -9.6732
 166   2.0000      -0.352413        -9.5896
 167   2.0000      -0.351490        -9.5645
 168   2.0000      -0.322790        -8.7835
 169   2.0000      -0.321542        -8.7496
 170   2.0000      -0.320072        -8.7096
 171   2.0000      -0.316935        -8.6243
 172   2.0000      -0.313047        -8.5184
 173   2.0000      -0.303044        -8.2462
 174   2.0000      -0.284584        -7.7439
 175   2.0000      -0.284176        -7.7328
 176   2.0000      -0.257121        -6.9966
 177   2.0000      -0.248527        -6.7628
 178   0.0000      -0.101651        -2.7661
 179   0.0000      -0.097642        -2.6570
 180   0.0000      -0.031988        -0.8704
 181   0.0000      -0.027396        -0.7455
 182   0.0000      -0.020785        -0.5656

MULLIKEN ATOMIC CHARGES
-----------------------
   0 C :    0.212306
   1 O :   -0.153457
   2 N :   -0.180929
   3 C :    0.113991
   4 N :   -0.108013
   5 C :    0.015754
   6 C :    0.048056
   7 N :   -0.178542
   8 C :    0.063000
   9 C :    0.030264
  10 N :   -0.087587
  11 C :    0.006199
  12 C :    0.087325
  13 C :    0.009348
  14 C :   -0.028475
  15 C :    0.126374
  16 C :    0.036369
  17 C :   -0.211454
  18 Si:    0.370908
  19 C :   -0.210349
  20 C :    0.012767
  21 C :   -0.239060
  22 C :    0.237464
  23 F :   -0.172010
  24 C :    0.226275
  25 F :   -0.174542
  26 C :   -0.230983
  27 S :    0.178083
  28 C :    0.139389
  29 C :   -0.034219
  30 C :    0.019708
  31 C :    0.070544
  32 C :    0.039546
  33 C :   -0.206435
  34 Si:    0.378166
  35 C :   -0.204092
  36 C :   -0.006278
  37 C :    0.002529
  38 N :   -0.088973
  39 C :    0.028813
  40 C :    0.062190
  41 N :   -0.182668
  42 C :    0.210173
  43 O :   -0.140076
  44 N :   -0.179844
  45 C :    0.111822
  46 N :   -0.109978
  47 C :    0.016092
  48 C :    0.047795
  49 H :    0.036907
  50 H :    0.008531
  51 H :    0.039394
  52 H :    0.033200
  53 H :    0.002947
  54 H :   -0.003979
  55 H :   -0.008806
  56 H :    0.011105
  57 H :   -0.004831
  58 H :   -0.007789
  59 H :   -0.005613
  60 H :   -0.001727
  61 H :    0.012493
  62 H :    0.001818
  63 H :    0.030457
  64 H :    0.035376
  65 H :    0.007170
  66 H :    0.040059
Sum of atomic charges:   -0.0000000

LOEWDIN ATOMIC CHARGES
----------------------
   0 C :    0.116080
   1 O :   -0.135862
   2 N :    0.027501
   3 C :    0.051158
   4 N :   -0.092297
   5 C :   -0.022966
   6 C :   -0.029513
   7 N :    0.024827
   8 C :   -0.020635
   9 C :   -0.024065
  10 N :   -0.095625
  11 C :    0.042230
  12 C :   -0.035705
  13 C :    0.019852
  14 C :   -0.016232
  15 C :   -0.027035
  16 C :   -0.009120
  17 C :   -0.200749
  18 Si:    0.424553
  19 C :   -0.244744
  20 C :    0.002399
  21 C :   -0.196260
  22 C :    0.023025
  23 F :   -0.048538
  24 C :    0.024239
  25 F :   -0.052604
  26 C :   -0.197192
  27 S :    0.473224
  28 C :   -0.025781
  29 C :   -0.015835
  30 C :    0.020106
  31 C :   -0.036021
  32 C :    0.003277
  33 C :   -0.250775
  34 Si:    0.430559
  35 C :   -0.202338
  36 C :   -0.010895
  37 C :    0.038565
  38 N :   -0.095787
  39 C :   -0.026216
  40 C :   -0.022547
  41 N :    0.024132
  42 C :    0.116252
  43 O :   -0.125241
  44 N :    0.028437
  45 C :    0.049808
  46 N :   -0.094326
  47 C :   -0.023989
  48 C :   -0.028678
  49 H :    0.027475
  50 H :    0.024979
  51 H :    0.029203
  52 H :    0.030207
  53 H :    0.025283
  54 H :    0.039139
  55 H :    0.029672
  56 H :    0.020224
  57 H :    0.007479
  58 H :    0.028718
  59 H :    0.038971
  60 H :    0.011534
  61 H :    0.019598
  62 H :    0.024755
  63 H :    0.029367
  64 H :    0.026987
  65 H :    0.024581
  66 H :    0.029174

  Mayer bond orders larger than 0.100000
B(  0-C ,  1-O ) :   2.1641 B(  0-C ,  2-N ) :   1.0112 B(  0-C ,  7-N ) :   0.9925
B(  2-N ,  3-C ) :   1.1112 B(  2-N ,  6-C ) :   1.0867 B(  3-C ,  4-N ) :   1.7529
B(  3-C , 49-H ) :   0.9824 B(  4-N ,  5-C ) :   1.3284 B(  5-C ,  6-C ) :   1.5986
B(  5-C , 50-H ) :   1.0011 B(  6-C , 51-H ) :   0.9784 B(  7-N ,  8-C ) :   1.0733
B(  7-N , 11-C ) :   1.1110 B(  8-C ,  9-C ) :   1.5773 B(  8-C , 52-H ) :   0.9797
B(  9-C , 10-N ) :   1.3238 B(  9-C , 53-H ) :   0.9995 B( 10-N , 11-C ) :   1.7787
B( 11-C , 12-C ) :   0.9755 B( 12-C , 13-C ) :   1.6511 B( 12-C , 20-C ) :   1.0748
B( 13-C , 14-C ) :   1.0867 B( 13-C , 54-H ) :   0.9976 B( 14-C , 15-C ) :   1.6094
B( 14-C , 55-H ) :   0.9919 B( 15-C , 16-C ) :   1.1141 B( 15-C , 21-C ) :   0.9811
B( 16-C , 17-C ) :   1.7175 B( 16-C , 18-Si) :   0.1043 B( 16-C , 20-C ) :   1.0027
B( 17-C , 18-Si) :   0.9475 B( 17-C , 19-C ) :   0.1036 B( 17-C , 56-H ) :   0.9292
B( 18-Si, 19-C ) :   0.9654 B( 18-Si, 20-C ) :   0.1278 B( 19-C , 20-C ) :   1.6998
B( 19-C , 57-H ) :   0.9172 B( 21-C , 22-C ) :   1.5157 B( 21-C , 26-C ) :   0.1345
B( 21-C , 27-S ) :   1.1208 B( 22-C , 23-F ) :   1.1577 B( 22-C , 24-C ) :   1.1809
B( 24-C , 25-F ) :   1.1550 B( 24-C , 26-C ) :   1.5181 B( 26-C , 27-S ) :   1.1190
B( 26-C , 28-C ) :   0.9907 B( 28-C , 29-C ) :   1.6116 B( 28-C , 36-C ) :   1.0917
B( 29-C , 30-C ) :   1.0923 B( 29-C , 58-H ) :   0.9899 B( 30-C , 31-C ) :   1.6580
B( 30-C , 59-H ) :   0.9953 B( 31-C , 32-C ) :   1.1042 B( 31-C , 37-C ) :   0.9616
B( 32-C , 33-C ) :   1.7248 B( 32-C , 34-Si) :   0.1130 B( 32-C , 36-C ) :   1.0019
B( 33-C , 34-Si) :   0.9458 B( 33-C , 35-C ) :   0.1098 B( 33-C , 60-H ) :   0.8972
B( 34-Si, 35-C ) :   0.9566 B( 34-Si, 36-C ) :   0.1209 B( 35-C , 36-C ) :   1.7065
B( 35-C , 61-H ) :   0.9369 B( 37-C , 38-N ) :   1.7824 B( 37-C , 41-N ) :   1.1202
B( 38-N , 39-C ) :   1.3262 B( 39-C , 40-C ) :   1.5750 B( 39-C , 62-H ) :   0.9994
B( 40-C , 41-N ) :   1.0798 B( 40-C , 63-H ) :   0.9799 B( 41-N , 42-C ) :   0.9762
B( 42-C , 43-O ) :   2.2007 B( 42-C , 44-N ) :   1.0069 B( 44-N , 45-C ) :   1.1146
B( 44-N , 48-C ) :   1.0886 B( 45-C , 46-N ) :   1.7518 B( 45-C , 64-H ) :   0.9826
B( 46-N , 47-C ) :   1.3274 B( 47-C , 48-C ) :   1.5985 B( 47-C , 65-H ) :   1.0012
B( 48-C , 66-H ) :   0.9775

-----------------------------------------------------------------------------
         ABSORPTION SPECTRUM VIA TRANSITION ELECTRIC DIPOLE MOMENTS
-----------------------------------------------------------------------------
State   Energy  Wavelength   fosc         T2         TX        TY        TZ
        (cm-1)    (nm)                  (au**2)     (au)      (au)      (au)
-----------------------------------------------------------------------------
   0   11963.5    835.9   0.067789156   1.86543   0.09705   1.24123   0.56156
   1   12283.8    814.1   0.016829939   0.45105   0.04174   0.66811  -0.05419
   2   17069.0    585.9   0.099580200   1.92062  -1.06192  -0.62778   0.63153
   3   17295.0    578.2   0.098669644   1.87819   0.90647   0.08492   1.02435
   4   20018.4    499.5   0.005221915   0.08588  -0.10074   0.26596  -0.07065
   5   20253.8    493.7   0.063117723   1.02594   0.06890   0.97231   0.27533
   6   25072.8    398.8   0.029981626   0.39367  -0.11446  -0.55930  -0.26028
   7   25833.7    387.1   0.006562420   0.08363   0.02843  -0.04792   0.28377
   8   27427.2    364.6   0.089366168   1.07267  -0.10011  -1.03074   0.01469
   9   28161.6    355.1   0.003774170   0.04412  -0.04825  -0.19198   0.07025
  10   28601.4    349.6   0.130964401   1.50745  -0.00986  -1.03658  -0.65791
  11   28908.2    345.9   0.002582457   0.02941  -0.11853  -0.12383   0.00518
  12   29215.6    342.3   0.000733383   0.00826  -0.05760  -0.04831   0.05112
  13   29470.6    339.3   0.006257664   0.06990   0.05970   0.23633  -0.10241
  14   29583.2    338.0   0.000900529   0.01002   0.06144   0.07859   0.00841
  15   30240.2    330.7   0.000966547   0.01052  -0.00451   0.06990   0.07494
  16   30812.5    324.5   0.327521975   3.49936   0.14860   1.77760   0.56341
  17   31438.4    318.1   0.002211537   0.02316  -0.03069  -0.00680  -0.14890
  18   31481.8    317.6   0.000188508   0.00197   0.01152   0.02303   0.03617
  19   31659.8    315.9   0.031322503   0.32570   0.03152  -0.15449  -0.54849
  20   34840.3    287.0   0.003926465   0.03710  -0.14254  -0.10886  -0.07023
  21   34971.9    285.9   0.017818079   0.16773   0.07741   0.38961   0.09974
  22   35064.3    285.2   0.001552109   0.01457  -0.04424  -0.10980  -0.02366
  23   36138.8    276.7   0.002968203   0.02704  -0.01052  -0.01165  -0.16369
  24   36639.4    272.9   0.036491743   0.32789  -0.15144   0.23438  -0.50002
  25   36758.4    272.0   0.001860676   0.01666   0.04513  -0.04564   0.11200
  26   36942.9    270.7   0.020033386   0.17852  -0.19966  -0.32829   0.17574
  27   37059.3    269.8   0.010133514   0.09002   0.17749   0.00652   0.24182
  28   37269.3    268.3   0.041129372   0.36331   0.49838   0.19257  -0.27900
  29   37398.6    267.4   0.010160761   0.08944  -0.17793   0.16953   0.17042
  30   37733.8    265.0   0.007883573   0.06878  -0.08485   0.12246   0.21583
  31   38188.8    261.9   0.003313734   0.02857   0.07818   0.07211  -0.13136
  32   38431.4    260.2   0.029331536   0.25126  -0.35056   0.11564  -0.33911
  33   38741.0    258.1   0.006098283   0.05182   0.16459  -0.10357   0.11834
  34   39123.5    255.6   0.007471581   0.06287  -0.04893  -0.13497   0.20557
  35   39254.6    254.7   0.000561235   0.00471   0.05010   0.00343  -0.04674
  36   39430.5    253.6   0.004605694   0.03845  -0.01053  -0.03908   0.19187
  37   39564.7    252.8   0.005858465   0.04875   0.16670   0.04113  -0.13880
  38   39672.7    252.1   0.002776196   0.02304   0.12137  -0.09039   0.01167

FINAL SINGLE POINT ENERGY     -3068.688616363621

DIPOLE MOMENT
-------------
                                X             Y             Z
Electronic contribution:     -0.59106      -5.44031      14.33550
Nuclear contribution   :      0.47301       5.97701     -15.26496
                        -----------------------------------------
Total Dipole Moment    :     -0.11805       0.53671      -0.92946
                        -----------------------------------------
Magnitude (a.u.)       :      1.07976
Magnitude (Debye)      :      2.74453

Rotational constants in cm-1:     0.005175     0.000586     0.000584
Rotational constants in MHz :   155.137426    17.560967    17.508995

                             ****ORCA TERMINATED NORMALLY****
TOTAL RUN TIME: 0 days 0 hours 12 minutes 52 seconds 743 msec
