                         Program Version 4.2.0 -  RELEASE  -
|  1> # ORCA input file
|  2> # SCF done       -150.290212559201          0.000913564949
|  3> ! CAM-B3LYP def2-SVP def2/J RIJCOSX Grid4 TightSCF
|  4> %maxcore 5000
|  5> %tddft
|  6>     Mode sTDDFT
|  7>     Ethresh 5.0
|  8>     maxcore 5000
|  9> end
| 10>
| 11> %pal
| 12>   nprocs 6
| 13>   end
| 14> * xyz 0 1
| 15>    C       -2.40453        -3.33967        -1.08304
| 16>    S       -0.98565        -4.30324        -0.89428
| 17>    C       -2.47012        -2.39882        -0.10496
| 18>    S       -3.56290        -1.12384         0.34131
| 19>    C       -2.47644        -0.77265         1.68581
| 20>    N       -1.43451        -1.49785         1.80115
| 21>    C       -1.37424        -2.43585         0.81846
| 22>    C       -0.45661        -3.43567         0.52687
| 23>    C        0.73533        -3.79039         1.19398
| 24>    C        1.19191        -3.13826         2.29886
| 25>    C        2.36676        -3.47126         2.99447
| 26>    C        2.89335        -2.83419         4.13669
| 27>    C        4.10005        -3.43257         4.60054
| 28>    C        4.74458        -2.90508         5.73329
| 29>    C        4.20192        -1.82469         6.37379
| 30>    C        3.01051        -1.23529         5.91640
| 31>    C        2.36000        -1.72480         4.81705
| 32>    C        4.50404        -4.53405         3.81726
| 33>    S        3.38049        -4.79675         2.51757
| 34>    C        5.62378        -5.35601         4.00747
| 35>    C        5.94603        -6.41946         3.21250
| 36>    C        7.06787        -7.24080         3.45397
| 37>    O        7.87060        -6.96147         4.49899
| 38>    C        8.87278        -7.87229         4.54901
| 39>    C        8.71960        -8.78340         3.48950
| 40>    C        7.55880        -8.37934         2.78927
| 41>    C        6.93318        -9.03057         1.60987
| 42>    F        5.76103        -8.49677         1.24908
| 43>    F        7.70342        -8.97854         0.49867
| 44>    F        6.67702       -10.34175         1.81057
| 45>    O        9.59984        -9.78737         3.32811
| 46>    C        9.66517       -10.52075         2.11985
| 47>    C        9.83835        -7.77066         5.57078
| 48>    C       10.84460        -8.66763         5.77527
| 49>    C       11.82206        -8.57163         6.77736
| 50>    C       12.84771        -9.49921         7.05180
| 51>    C       13.68270        -9.10371         8.13594
| 52>    C       14.74912        -9.93275         8.52900
| 53>    C       14.96767       -11.10817         7.86517
| 54>    C       14.14272       -11.49907         6.79580
| 55>    C       13.09900       -10.71426         6.38958
| 56>    C       13.30511        -7.86790         8.69774
| 57>    S       11.91568        -7.22673         7.87409
| 58>    C       13.92428        -7.19558         9.76343
| 59>    C       13.53858        -5.99189        10.26881
| 60>    C       14.18673        -5.33857        11.33547
| 61>    S       15.58361        -6.00189        12.16663
| 62>    C       13.88252        -4.12158        11.90991
| 63>    S       12.67609        -2.90741        11.64097
| 64>    C       13.41241        -2.00058        12.96176
| 65>    N       14.42200        -2.52129        13.53490
| 66>    C       14.73643        -3.72681        12.98082
| 67>    C       15.73084        -4.65024        13.25545
| 68>    C       16.76611        -4.61950        14.24124
| 69>    C       16.93321        -3.61924        15.10788
| 70>    H       -3.08087        -3.53174        -1.88994
| 71>    H       -2.71881         0.02748         2.35741
| 72>    H        1.29273        -4.62397         0.78793
| 73>    H        0.61300        -2.30679         2.67482
| 74>    H        5.65948        -3.35259         6.08946
| 75>    H        4.69063        -1.41325         7.24438
| 76>    H        2.60943        -0.38407         6.44597
| 77>    H        1.44598        -1.26992         4.46838
| 78>    H        6.26219        -5.12808         4.84910
| 79>    H        5.31774        -6.65353         2.36949
| 80>    H       10.56432       -11.12943         2.20812
| 81>    H        9.76215        -9.86162         1.25574
| 82>    H        8.80366       -11.17795         1.99578
| 83>    H        9.73728        -6.91317         6.22240
| 84>    H       10.90444        -9.52695         5.12626
| 85>    H       15.38542        -9.63947         9.34970
| 86>    H       15.78307       -11.75101         8.16133
| 87>    H       14.34210       -12.43422         6.29413
| 88>    H       12.46713       -11.01934         5.56991
| 89>    H       14.78185        -7.68343        10.20852
| 90>    H       12.68625        -5.47537         9.84580
| 91>    H       12.99629        -1.05225        13.24022
| 92>    H       17.42599        -5.47705        14.24608
| 93>    H       16.27749        -2.76646        15.10217
| 94>    H       17.72604        -3.63543        15.83436
| 95> *
| 96>
| 97>                          ****END OF INPUT****

CARTESIAN COORDINATES (ANGSTROEM)
---------------------------------
  C     -2.404530   -3.339670   -1.083040
  S     -0.985650   -4.303240   -0.894280
  C     -2.470120   -2.398820   -0.104960
  S     -3.562900   -1.123840    0.341310
  C     -2.476440   -0.772650    1.685810
  N     -1.434510   -1.497850    1.801150
  C     -1.374240   -2.435850    0.818460
  C     -0.456610   -3.435670    0.526870
  C      0.735330   -3.790390    1.193980
  C      1.191910   -3.138260    2.298860
  C      2.366760   -3.471260    2.994470
  C      2.893350   -2.834190    4.136690
  C      4.100050   -3.432570    4.600540
  C      4.744580   -2.905080    5.733290
  C      4.201920   -1.824690    6.373790
  C      3.010510   -1.235290    5.916400
  C      2.360000   -1.724800    4.817050
  C      4.504040   -4.534050    3.817260
  S      3.380490   -4.796750    2.517570
  C      5.623780   -5.356010    4.007470
  C      5.946030   -6.419460    3.212500
  C      7.067870   -7.240800    3.453970
  O      7.870600   -6.961470    4.498990
  C      8.872780   -7.872290    4.549010
  C      8.719600   -8.783400    3.489500
  C      7.558800   -8.379340    2.789270
  C      6.933180   -9.030570    1.609870
  F      5.761030   -8.496770    1.249080
  F      7.703420   -8.978540    0.498670
  F      6.677020  -10.341750    1.810570
  O      9.599840   -9.787370    3.328110
  C      9.665170  -10.520750    2.119850
  C      9.838350   -7.770660    5.570780
  C     10.844600   -8.667630    5.775270
  C     11.822060   -8.571630    6.777360
  C     12.847710   -9.499210    7.051800
  C     13.682700   -9.103710    8.135940
  C     14.749120   -9.932750    8.529000
  C     14.967670  -11.108170    7.865170
  C     14.142720  -11.499070    6.795800
  C     13.099000  -10.714260    6.389580
  C     13.305110   -7.867900    8.697740
  S     11.915680   -7.226730    7.874090
  C     13.924280   -7.195580    9.763430
  C     13.538580   -5.991890   10.268810
  C     14.186730   -5.338570   11.335470
  S     15.583610   -6.001890   12.166630
  C     13.882520   -4.121580   11.909910
  S     12.676090   -2.907410   11.640970
  C     13.412410   -2.000580   12.961760
  N     14.422000   -2.521290   13.534900
  C     14.736430   -3.726810   12.980820
  C     15.730840   -4.650240   13.255450
  C     16.766110   -4.619500   14.241240
  C     16.933210   -3.619240   15.107880
  H     -3.080870   -3.531740   -1.889940
  H     -2.718810    0.027480    2.357410
  H      1.292730   -4.623970    0.787930
  H      0.613000   -2.306790    2.674820
  H      5.659480   -3.352590    6.089460
  H      4.690630   -1.413250    7.244380
  H      2.609430   -0.384070    6.445970
  H      1.445980   -1.269920    4.468380
  H      6.262190   -5.128080    4.849100
  H      5.317740   -6.653530    2.369490
  H     10.564320  -11.129430    2.208120
  H      9.762150   -9.861620    1.255740
  H      8.803660  -11.177950    1.995780
  H      9.737280   -6.913170    6.222400
  H     10.904440   -9.526950    5.126260
  H     15.385420   -9.639470    9.349700
  H     15.783070  -11.751010    8.161330
  H     14.342100  -12.434220    6.294130
  H     12.467130  -11.019340    5.569910
  H     14.781850   -7.683430   10.208520
  H     12.686250   -5.475370    9.845800
  H     12.996290   -1.052250   13.240220
  H     17.425990   -5.477050   14.246080
  H     16.277490   -2.766460   15.102170
  H     17.726040   -3.635430   15.834360

 Total Charge           Charge          ....    0
 Multiplicity           Mult            ....    1
 Number of Electrons    NEL             ....  430
 Basis Dimension        Dim             ....  919

ORBITAL ENERGIES
----------------

  NO   OCC          E(Eh)            E(eV)
   0   2.0000     -88.961395     -2420.7626
   1   2.0000     -88.958087     -2420.6726
   2   2.0000     -88.957462     -2420.6556
   3   2.0000     -88.953968     -2420.5605
   4   2.0000     -88.953941     -2420.5598
   5   2.0000     -88.953462     -2420.5468
   6   2.0000     -24.803669      -674.9421
   7   2.0000     -24.796252      -674.7403
   8   2.0000     -24.794677      -674.6975
   9   2.0000     -19.292214      -524.9678
  10   2.0000     -19.259067      -524.0658
  11   2.0000     -14.417085      -392.3088
  12   2.0000     -14.410858      -392.1394
  13   2.0000     -10.522420      -286.3296
  14   2.0000     -10.346744      -281.5492
  15   2.0000     -10.344000      -281.4745
  16   2.0000     -10.338094      -281.3139
  17   2.0000     -10.333763      -281.1960
  18   2.0000     -10.324882      -280.9543
  19   2.0000     -10.322839      -280.8987
  20   2.0000     -10.304370      -280.3962
  21   2.0000     -10.302152      -280.3358
  22   2.0000     -10.301853      -280.3277
  23   2.0000     -10.301680      -280.3230
  24   2.0000     -10.300710      -280.2966
  25   2.0000     -10.298886      -280.2469
  26   2.0000     -10.298530      -280.2372
  27   2.0000     -10.298036      -280.2238
  28   2.0000     -10.297410      -280.2068
  29   2.0000     -10.295381      -280.1516
  30   2.0000     -10.295227      -280.1474
  31   2.0000     -10.294595      -280.1302
  32   2.0000     -10.293709      -280.1061
  33   2.0000     -10.284071      -279.8438
  34   2.0000     -10.280126      -279.7364
  35   2.0000     -10.278034      -279.6795
  36   2.0000     -10.277968      -279.6777
  37   2.0000     -10.277385      -279.6619
  38   2.0000     -10.276508      -279.6380
  39   2.0000     -10.276319      -279.6329
  40   2.0000     -10.275512      -279.6109
  41   2.0000     -10.275227      -279.6032
  42   2.0000     -10.272832      -279.5380
  43   2.0000     -10.272042      -279.5165
  44   2.0000     -10.271836      -279.5109
  45   2.0000     -10.270998      -279.4881
  46   2.0000     -10.270857      -279.4842
  47   2.0000     -10.270270      -279.4683
  48   2.0000     -10.268619      -279.4233
  49   2.0000     -10.267709      -279.3986
  50   2.0000     -10.267608      -279.3958
  51   2.0000     -10.267268      -279.3866
  52   2.0000     -10.264960      -279.3238
  53   2.0000     -10.264378      -279.3079
  54   2.0000     -10.254124      -279.0289
  55   2.0000      -8.056635      -219.2322
  56   2.0000      -8.053904      -219.1579
  57   2.0000      -8.053006      -219.1334
  58   2.0000      -8.050236      -219.0581
  59   2.0000      -8.048963      -219.0234
  60   2.0000      -8.048493      -219.0106
  61   2.0000      -6.025991      -163.9755
  62   2.0000      -6.023406      -163.9052
  63   2.0000      -6.021920      -163.8648
  64   2.0000      -6.021703      -163.8589
  65   2.0000      -6.019723      -163.8050
  66   2.0000      -6.019506      -163.7991
  67   2.0000      -6.018870      -163.7818
  68   2.0000      -6.018195      -163.7634
  69   2.0000      -6.018043      -163.7593
  70   2.0000      -6.017386      -163.7414
  71   2.0000      -6.015776      -163.6976
  72   2.0000      -6.015746      -163.6968
  73   2.0000      -6.015122      -163.6798
  74   2.0000      -6.014337      -163.6584
  75   2.0000      -6.013577      -163.6378
  76   2.0000      -6.011599      -163.5839
  77   2.0000      -6.011225      -163.5737
  78   2.0000      -6.011029      -163.5684
  79   2.0000      -1.388990       -37.7963
  80   2.0000      -1.292325       -35.1659
  81   2.0000      -1.285319       -34.9753
  82   2.0000      -1.213523       -33.0216
  83   2.0000      -1.159384       -31.5484
  84   2.0000      -1.067497       -29.0481
  85   2.0000      -1.062807       -28.9204
  86   2.0000      -0.990684       -26.9579
  87   2.0000      -0.986199       -26.8358
  88   2.0000      -0.973152       -26.4808
  89   2.0000      -0.970671       -26.4133
  90   2.0000      -0.927954       -25.2509
  91   2.0000      -0.923174       -25.1209
  92   2.0000      -0.920908       -25.0592
  93   2.0000      -0.915774       -24.9195
  94   2.0000      -0.909457       -24.7476
  95   2.0000      -0.903443       -24.5839
  96   2.0000      -0.895625       -24.3712
  97   2.0000      -0.885405       -24.0931
  98   2.0000      -0.870487       -23.6872
  99   2.0000      -0.860094       -23.4043
 100   2.0000      -0.850502       -23.1433
 101   2.0000      -0.843323       -22.9480
 102   2.0000      -0.830367       -22.5954
 103   2.0000      -0.823002       -22.3950
 104   2.0000      -0.820746       -22.3336
 105   2.0000      -0.818215       -22.2648
 106   2.0000      -0.814132       -22.1537
 107   2.0000      -0.812242       -22.1022
 108   2.0000      -0.803447       -21.8629
 109   2.0000      -0.794943       -21.6315
 110   2.0000      -0.786729       -21.4080
 111   2.0000      -0.774100       -21.0643
 112   2.0000      -0.751585       -20.4517
 113   2.0000      -0.735119       -20.0036
 114   2.0000      -0.715673       -19.4744
 115   2.0000      -0.713529       -19.4161
 116   2.0000      -0.701280       -19.0828
 117   2.0000      -0.700196       -19.0533
 118   2.0000      -0.696988       -18.9660
 119   2.0000      -0.695148       -18.9159
 120   2.0000      -0.692349       -18.8398
 121   2.0000      -0.681724       -18.5507
 122   2.0000      -0.676531       -18.4094
 123   2.0000      -0.670907       -18.2563
 124   2.0000      -0.667520       -18.1642
 125   2.0000      -0.660789       -17.9810
 126   2.0000      -0.655662       -17.8415
 127   2.0000      -0.644821       -17.5465
 128   2.0000      -0.641048       -17.4438
 129   2.0000      -0.638842       -17.3838
 130   2.0000      -0.631460       -17.1829
 131   2.0000      -0.622026       -16.9262
 132   2.0000      -0.611814       -16.6483
 133   2.0000      -0.605477       -16.4759
 134   2.0000      -0.601398       -16.3649
 135   2.0000      -0.594202       -16.1691
 136   2.0000      -0.584550       -15.9064
 137   2.0000      -0.574780       -15.6406
 138   2.0000      -0.572220       -15.5709
 139   2.0000      -0.565334       -15.3835
 140   2.0000      -0.562861       -15.3162
 141   2.0000      -0.554054       -15.0766
 142   2.0000      -0.550524       -14.9805
 143   2.0000      -0.549285       -14.9468
 144   2.0000      -0.547675       -14.9030
 145   2.0000      -0.545314       -14.8387
 146   2.0000      -0.542944       -14.7743
 147   2.0000      -0.541571       -14.7369
 148   2.0000      -0.541194       -14.7266
 149   2.0000      -0.537992       -14.6395
 150   2.0000      -0.535832       -14.5807
 151   2.0000      -0.531368       -14.4593
 152   2.0000      -0.528997       -14.3947
 153   2.0000      -0.523626       -14.2486
 154   2.0000      -0.520234       -14.1563
 155   2.0000      -0.519731       -14.1426
 156   2.0000      -0.516364       -14.0510
 157   2.0000      -0.514565       -14.0020
 158   2.0000      -0.513260       -13.9665
 159   2.0000      -0.510759       -13.8985
 160   2.0000      -0.507260       -13.8032
 161   2.0000      -0.503245       -13.6940
 162   2.0000      -0.501731       -13.6528
 163   2.0000      -0.495374       -13.4798
 164   2.0000      -0.494853       -13.4656
 165   2.0000      -0.492064       -13.3898
 166   2.0000      -0.490980       -13.3603
 167   2.0000      -0.487221       -13.2579
 168   2.0000      -0.485414       -13.2088
 169   2.0000      -0.484274       -13.1778
 170   2.0000      -0.476528       -12.9670
 171   2.0000      -0.470801       -12.8111
 172   2.0000      -0.465517       -12.6674
 173   2.0000      -0.459502       -12.5037
 174   2.0000      -0.456441       -12.4204
 175   2.0000      -0.448418       -12.2021
 176   2.0000      -0.446616       -12.1530
 177   2.0000      -0.444952       -12.1078
 178   2.0000      -0.443097       -12.0573
 179   2.0000      -0.442293       -12.0354
 180   2.0000      -0.437690       -11.9102
 181   2.0000      -0.431485       -11.7413
 182   2.0000      -0.426597       -11.6083
 183   2.0000      -0.425678       -11.5833
 184   2.0000      -0.423040       -11.5115
 185   2.0000      -0.420992       -11.4558
 186   2.0000      -0.419096       -11.4042
 187   2.0000      -0.418230       -11.3806
 188   2.0000      -0.417912       -11.3720
 189   2.0000      -0.415092       -11.2952
 190   2.0000      -0.414384       -11.2760
 191   2.0000      -0.413270       -11.2457
 192   2.0000      -0.410369       -11.1667
 193   2.0000      -0.402514       -10.9530
 194   2.0000      -0.401733       -10.9317
 195   2.0000      -0.395757       -10.7691
 196   2.0000      -0.392557       -10.6820
 197   2.0000      -0.387551       -10.5458
 198   2.0000      -0.370635       -10.0855
 199   2.0000      -0.350650        -9.5417
 200   2.0000      -0.348491        -9.4829
 201   2.0000      -0.344573        -9.3763
 202   2.0000      -0.341987        -9.3059
 203   2.0000      -0.339596        -9.2409
 204   2.0000      -0.329695        -8.9715
 205   2.0000      -0.327224        -8.9042
 206   2.0000      -0.311573        -8.4783
 207   2.0000      -0.309658        -8.4262
 208   2.0000      -0.307944        -8.3796
 209   2.0000      -0.305340        -8.3087
 210   2.0000      -0.291211        -7.9243
 211   2.0000      -0.276808        -7.5323
 212   2.0000      -0.254806        -6.9336
 213   2.0000      -0.221674        -6.0321
 214   2.0000      -0.193904        -5.2764
 215   0.0000      -0.080309        -2.1853
 216   0.0000      -0.058458        -1.5907
 217   0.0000      -0.021878        -0.5953
 218   0.0000      -0.013183        -0.3587
 219   0.0000       0.006158         0.1676

MULLIKEN ATOMIC CHARGES
-----------------------
   0 C :   -0.191764
   1 S :    0.135542
   2 C :    0.032914
   3 S :    0.079689
   4 C :    0.013625
   5 N :   -0.048780
   6 C :    0.054823
   7 C :   -0.151114
   8 C :    0.015805
   9 C :   -0.015683
  10 C :   -0.067712
  11 C :    0.098713
  12 C :    0.122786
  13 C :   -0.036138
  14 C :    0.028111
  15 C :    0.024001
  16 C :   -0.029893
  17 C :   -0.084997
  18 S :    0.124945
  19 C :    0.002548
  20 C :   -0.073458
  21 C :    0.134304
  22 O :   -0.198776
  23 C :    0.134644
  24 C :    0.130444
  25 C :   -0.153788
  26 C :    0.509134
  27 F :   -0.146782
  28 F :   -0.171349
  29 F :   -0.167306
  30 O :   -0.310047
  31 C :    0.183443
  32 C :   -0.034506
  33 C :   -0.029610
  34 C :   -0.073305
  35 C :    0.105020
  36 C :    0.112883
  37 C :   -0.036778
  38 C :    0.026254
  39 C :    0.025709
  40 C :   -0.033909
  41 C :   -0.081021
  42 S :    0.120645
  43 C :   -0.023758
  44 C :   -0.000493
  45 C :   -0.164064
  46 S :    0.115644
  47 C :   -0.012621
  48 S :    0.080358
  49 C :    0.015540
  50 N :   -0.045494
  51 C :    0.081355
  52 C :   -0.162866
  53 C :    0.013876
  54 C :   -0.004960
  55 H :    0.027978
  56 H :    0.042692
  57 H :   -0.022716
  58 H :    0.005219
  59 H :   -0.027504
  60 H :   -0.015360
  61 H :   -0.015802
  62 H :   -0.019003
  63 H :   -0.002030
  64 H :    0.005517
  65 H :    0.033135
  66 H :    0.031410
  67 H :    0.038661
  68 H :   -0.012487
  69 H :    0.003234
  70 H :   -0.029476
  71 H :   -0.017461
  72 H :   -0.019498
  73 H :   -0.030091
  74 H :   -0.009225
  75 H :   -0.012071
  76 H :    0.040561
  77 H :   -0.020522
  78 H :    0.033570
  79 H :    0.019484
Sum of atomic charges:   -0.0000000

LOEWDIN ATOMIC CHARGES
----------------------
   0 C :   -0.216708
   1 S :    0.454059
   2 C :   -0.206037
   3 S :    0.361970
   4 C :   -0.095186
   5 N :   -0.085952
   6 C :   -0.073483
   7 C :   -0.174972
   8 C :   -0.051277
   9 C :   -0.029348
  10 C :   -0.164093
  11 C :   -0.042853
  12 C :   -0.037506
  13 C :   -0.017024
  14 C :   -0.023152
  15 C :   -0.027460
  16 C :   -0.010933
  17 C :   -0.177453
  18 S :    0.468536
  19 C :   -0.018943
  20 C :   -0.070859
  21 C :    0.058977
  22 O :    0.021683
  23 C :    0.000212
  24 C :    0.030432
  25 C :   -0.166242
  26 C :    0.176256
  27 F :   -0.045350
  28 F :   -0.071099
  29 F :   -0.066578
  30 O :   -0.087603
  31 C :    0.075094
  32 C :   -0.047435
  33 C :   -0.042866
  34 C :   -0.168607
  35 C :   -0.044427
  36 C :   -0.042016
  37 C :   -0.017003
  38 C :   -0.026456
  39 C :   -0.029394
  40 C :   -0.014158
  41 C :   -0.176399
  42 S :    0.458289
  43 C :   -0.046117
  44 C :   -0.055690
  45 C :   -0.190827
  46 S :    0.440717
  47 C :   -0.206582
  48 S :    0.362418
  49 C :   -0.093904
  50 N :   -0.081599
  51 C :   -0.068412
  52 C :   -0.173981
  53 C :   -0.049461
  54 C :   -0.027631
  55 H :    0.025925
  56 H :    0.019641
  57 H :    0.020356
  58 H :    0.035848
  59 H :    0.027334
  60 H :    0.028694
  61 H :    0.028475
  62 H :    0.031359
  63 H :    0.034625
  64 H :    0.024045
  65 H :    0.027967
  66 H :    0.017403
  67 H :    0.016264
  68 H :    0.028390
  69 H :    0.032235
  70 H :    0.026496
  71 H :    0.027890
  72 H :    0.027174
  73 H :    0.027258
  74 H :    0.026146
  75 H :    0.025228
  76 H :    0.019319
  77 H :    0.026464
  78 H :    0.026225
  79 H :    0.023672

  Mayer bond orders larger than 0.100000
B(  0-C ,  1-S ) :   1.1552 B(  0-C ,  2-C ) :   1.5339 B(  0-C , 55-H ) :   0.9802
B(  1-S ,  7-C ) :   1.1408 B(  2-C ,  3-S ) :   1.0275 B(  2-C ,  6-C ) :   1.2369
B(  3-S ,  4-C ) :   1.0858 B(  3-S ,  5-N ) :   0.1070 B(  4-C ,  5-N ) :   1.7775
B(  4-C , 56-H ) :   0.9636 B(  5-N ,  6-C ) :   1.2875 B(  6-C ,  7-C ) :   1.4172
B(  7-C ,  8-C ) :   1.1687 B(  8-C ,  9-C ) :   1.6161 B(  8-C , 57-H ) :   0.9569
B(  9-C , 10-C ) :   1.2050 B(  9-C , 58-H ) :   0.9549 B( 10-C , 11-C ) :   1.3004
B( 10-C , 17-C ) :   0.1021 B( 10-C , 18-S ) :   1.1327 B( 11-C , 12-C ) :   1.2175
B( 11-C , 16-C ) :   1.2231 B( 12-C , 13-C ) :   1.2236 B( 12-C , 17-C ) :   1.2922
B( 13-C , 14-C ) :   1.5426 B( 13-C , 59-H ) :   0.9908 B( 14-C , 15-C ) :   1.2216
B( 14-C , 60-H ) :   0.9845 B( 15-C , 16-C ) :   1.5421 B( 15-C , 61-H ) :   0.9848
B( 16-C , 62-H ) :   0.9925 B( 17-C , 18-S ) :   1.1238 B( 17-C , 19-C ) :   1.2099
B( 19-C , 20-C ) :   1.5626 B( 19-C , 63-H ) :   0.9768 B( 20-C , 21-C ) :   1.2178
B( 20-C , 64-H ) :   0.9555 B( 21-C , 22-O ) :   1.1772 B( 21-C , 23-C ) :   0.1048
B( 21-C , 25-C ) :   1.3617 B( 22-O , 23-C ) :   1.0950 B( 23-C , 24-C ) :   1.3935
B( 23-C , 32-C ) :   1.1912 B( 24-C , 25-C ) :   1.2474 B( 24-C , 30-O ) :   1.1830
B( 25-C , 26-C ) :   0.9507 B( 26-C , 27-F ) :   1.1521 B( 26-C , 28-F ) :   1.1461
B( 26-C , 29-F ) :   1.1524 B( 30-O , 31-C ) :   0.9248 B( 31-C , 65-H ) :   0.9767
B( 31-C , 66-H ) :   0.9662 B( 31-C , 67-H ) :   0.9642 B( 32-C , 33-C ) :   1.5716
B( 32-C , 68-H ) :   0.9562 B( 33-C , 34-C ) :   1.2184 B( 33-C , 69-H ) :   0.9609
B( 34-C , 35-C ) :   1.3006 B( 34-C , 41-C ) :   0.1013 B( 34-C , 42-S ) :   1.1243
B( 35-C , 36-C ) :   1.2145 B( 35-C , 40-C ) :   1.2207 B( 36-C , 37-C ) :   1.2159
B( 36-C , 41-C ) :   1.3038 B( 37-C , 38-C ) :   1.5456 B( 37-C , 70-H ) :   0.9922
B( 38-C , 39-C ) :   1.2194 B( 38-C , 71-H ) :   0.9848 B( 39-C , 40-C ) :   1.5433
B( 39-C , 72-H ) :   0.9845 B( 40-C , 73-H ) :   0.9920 B( 41-C , 42-S ) :   1.1213
B( 41-C , 43-C ) :   1.2247 B( 43-C , 44-C ) :   1.5924 B( 43-C , 74-H ) :   0.9671
B( 44-C , 45-C ) :   1.2008 B( 44-C , 75-H ) :   0.9723 B( 45-C , 46-S ) :   1.1041
B( 45-C , 47-C ) :   1.4916 B( 45-C , 52-C ) :   0.1070 B( 46-S , 52-C ) :   1.1213
B( 47-C , 48-S ) :   1.0368 B( 47-C , 51-C ) :   1.2447 B( 48-S , 49-C ) :   1.0798
B( 48-S , 50-N ) :   0.1097 B( 49-C , 50-N ) :   1.7975 B( 49-C , 76-H ) :   0.9626
B( 50-N , 51-C ) :   1.2806 B( 51-C , 52-C ) :   1.4508 B( 52-C , 53-C ) :   1.1207
B( 53-C , 54-C ) :   1.9223 B( 53-C , 77-H ) :   0.9493 B( 54-C , 78-H ) :   0.9366
B( 54-C , 79-H ) :   0.9465

-----------------------------------------------------------------------------
         ABSORPTION SPECTRUM VIA TRANSITION ELECTRIC DIPOLE MOMENTS
-----------------------------------------------------------------------------
State   Energy  Wavelength   fosc         T2         TX        TY        TZ
        (cm-1)    (nm)                  (au**2)     (au)      (au)      (au)
-----------------------------------------------------------------------------
   0   11839.4    844.6   1.721684835  47.87392   5.66486  -1.14117   3.80540
   1   17015.8    587.7   0.374583987   7.24723   0.53984  -2.19817  -1.45735
   2   18322.7    545.8   0.219496035   3.94379   1.27181  -1.50641  -0.23882
   3   23535.1    424.9   0.038903691   0.54419   0.23327   0.46429   0.52365
   4   23965.6    417.3   0.417376640   5.73345  -0.37548  -1.71407  -1.62924
   5   25393.4    393.8   0.001363729   0.01768  -0.10105  -0.06351  -0.05862
   6   26550.0    376.6   0.132431629   1.64211   0.25478   0.87634   0.89957
   7   28193.3    354.7   0.120433016   1.40629   0.67956  -0.95178  -0.19650
   8   29007.6    344.7   0.076806223   0.87169  -0.58070  -0.08721  -0.72586
   9   31069.6    321.9   0.097704128   1.03527   0.82266  -0.15958   0.57709
  10   31357.4    318.9   0.111971204   1.17555   0.61573  -0.87578  -0.17159
  11   31732.6    315.1   0.095266914   0.98835   0.48666   0.44914   0.74147
  12   32223.1    310.3   0.057142851   0.58381  -0.55311   0.34422  -0.39923
  13   33069.1    302.4   0.059667317   0.59400  -0.57625   0.14039  -0.49217
  14   33768.3    296.1   0.030586863   0.29820  -0.35883   0.40300   0.08384
  15   34405.6    290.6   0.168840880   1.61556   0.28603   0.70412   1.01880
  16   35556.6    281.2   0.078653024   0.72823  -0.30078   0.75050   0.27296
  17   35980.5    277.9   0.007735588   0.07078   0.22826  -0.08502   0.10699
  18   36062.2    277.3   0.076010092   0.69390   0.00324  -0.57078  -0.60671
  19   36301.2    275.5   0.252704409   2.29175  -0.91466   1.20219  -0.09943
  20   36786.4    271.8   0.118541091   1.06086   0.39725  -0.85737  -0.40984
  21   37915.9    263.7   0.182441932   1.58409   0.37804   0.55273   1.06568
  22   38411.7    260.3   0.075749687   0.64922   0.40262  -0.67592  -0.17393
  23   38681.4    258.5   0.063790706   0.54291   0.54464  -0.49622  -0.00659
  24   39189.4    255.2   0.041886321   0.35187   0.18920   0.25931   0.49883
  25   40256.7    248.4   0.015764961   0.12892  -0.28511  -0.03740  -0.21502

FINAL SINGLE POINT ENERGY     -4560.670316114131

DIPOLE MOMENT
-------------
                                X             Y             Z
Electronic contribution:    -31.64131      -3.01213     -32.19594
Nuclear contribution   :     30.73441       3.30459      31.53930
                        -----------------------------------------
Total Dipole Moment    :     -0.90690       0.29246      -0.65664
                        -----------------------------------------
Magnitude (a.u.)       :      1.15723
Magnitude (Debye)      :      2.94144

Rotational constants in cm-1:     0.001752     0.000367     0.000304
Rotational constants in MHz :    52.509273    10.997537     9.122765

                             ****ORCA TERMINATED NORMALLY****
TOTAL RUN TIME: 0 days 0 hours 6 minutes 4 seconds 722 msec
