                         Program Version 4.2.0 -  RELEASE  -
|  1> # ORCA input file
|  2> # SCF done       -167.074678948339          0.000465423015
|  3> ! CAM-B3LYP def2-SVP def2/J RIJCOSX Grid4 TightSCF
|  4> %maxcore 5000
|  5> %tddft
|  6>     Mode sTDDFT
|  7>     Ethresh 5.0
|  8>     maxcore 5000
|  9> end
| 10>
| 11> %pal
| 12>   nprocs 6
| 13>   end
| 14> * xyz 0 1
| 15>    C       -1.31394        -5.63744        -2.94146
| 16>    S       -0.25615        -6.78962        -2.23438
| 17>    C       -1.29808        -7.06571        -0.86055
| 18>    C       -0.94909        -8.05967         0.19074
| 19>    C       -1.19484        -9.48982        -0.29462
| 20>    C       -2.40550        -6.29266        -0.98401
| 21>    C       -2.42670        -5.46338        -2.16952
| 22>    N       -3.51797        -4.67820        -2.29101
| 23>    C       -4.33652        -4.82168        -1.31448
| 24>    S       -3.84181        -6.01853        -0.05317
| 25>    C       -5.55253        -4.11074        -1.15484
| 26>    C       -6.51750        -4.29852        -0.07607
| 27>    N       -7.54133        -3.49242        -0.12930
| 28>    C       -7.33876        -2.71969        -1.23163
| 29>    C       -6.09737        -3.09833        -1.91667
| 30>    C       -5.87588        -2.24222        -3.05670
| 31>    S       -4.57817        -2.27360        -4.06611
| 32>    C       -7.00296        -1.34099        -3.05326
| 33>    C       -7.87771        -1.65363        -1.91151
| 34>    N       -8.91292        -0.77215        -1.83655
| 35>    C       -8.71521         0.07380        -2.80817
| 36>    C       -7.53480        -0.20199        -3.62608
| 37>    C       -7.11952         0.58431        -4.75318
| 38>    C       -7.42973         1.93023        -4.81328
| 39>    C       -6.94933         2.71035        -5.87651
| 40>    C       -7.06171         4.07636        -6.12858
| 41>    C       -7.83817         5.05819        -5.32920
| 42>    C       -6.91256         5.99468        -4.52600
| 43>    N       -6.22923         5.24393        -3.48887
| 44>    C       -8.80809         5.89005        -6.19200
| 45>    N       -9.73639         6.60205        -5.33155
| 46>    C       -6.31039         4.33550        -7.33659
| 47>    C       -5.99689         5.47936        -7.97384
| 48>    C       -5.20350         5.48816        -9.23144
| 49>    C       -4.78017         4.13407        -9.71479
| 50>    C       -5.05471         3.00410        -9.03876
| 51>    C       -5.79617         3.05189        -7.83450
| 52>    C       -6.16555         2.07789        -6.92641
| 53>    C       -5.90664         0.69077        -6.86286
| 54>    C       -6.36434        -0.02592        -5.80434
| 55>    C       -5.91557         6.21342       -10.34736
| 56>    C       -7.19388         6.59656       -10.29709
| 57>    C       -7.86477         7.33663       -11.32365
| 58>    C       -7.46278         7.55048       -12.71495
| 59>    N       -8.26957         8.31406       -13.39722
| 60>    C       -9.25600         8.67477       -12.52544
| 61>    C       -9.03345         8.04980       -11.21347
| 62>    C      -10.05332         8.47060       -10.28382
| 63>    S      -10.19814         8.03797        -8.70134
| 64>    C      -10.88020         9.36103       -11.04531
| 65>    C      -10.37228         9.46453       -12.42389
| 66>    N      -11.13132        10.33486       -13.15384
| 67>    C      -12.04037        10.77872       -12.33973
| 68>    C      -11.95319        10.22562       -10.97925
| 69>    C      -12.81087        10.59094        -9.92358
| 70>    S      -12.70299         9.90314        -8.31970
| 71>    C      -14.01015        10.86371        -7.70411
| 72>    C      -14.41908        10.79431        -6.27677
| 73>    C      -13.44982        11.58463        -5.39277
| 74>    C      -14.49145        11.67288        -8.69259
| 75>    C      -13.83364        11.53055        -9.95335
| 76>    N      -14.31822        12.33382       -10.93603
| 77>    C      -15.27865        13.05695       -10.50911
| 78>    S      -15.74510        12.87114        -8.82415
| 79>    H       -1.06190        -5.16006        -3.86531
| 80>    H       -1.56231        -7.85891         1.07248
| 81>    H        0.10216        -7.94781         0.46622
| 82>    H       -2.24181        -9.62574        -0.55618
| 83>    H       -0.93630       -10.20015         0.48622
| 84>    H       -0.58743        -9.69894        -1.17249
| 85>    H       -6.42955        -5.03003         0.70846
| 86>    H       -9.41983         0.86860        -2.98190
| 87>    H       -7.98370         2.39692        -4.01325
| 88>    H       -8.44416         4.50732        -4.60172
| 89>    H       -7.54099         6.81395        -4.14412
| 90>    H       -6.15161         6.41682        -5.18634
| 91>    H       -6.88669         4.94269        -2.77747
| 92>    H       -5.52312         5.81377        -3.03830
| 93>    H       -9.30568         5.22010        -6.91176
| 94>    H       -8.25869         6.64170        -6.75895
| 95>    H      -10.41553         5.96019        -4.93423
| 96>    H      -10.24413         7.29165        -5.87463
| 97>    H       -6.29160         6.44744        -7.59607
| 98>    H       -4.28519         6.06832        -9.03034
| 99>    H       -4.22824         4.11226       -10.64209
|100>    H       -4.71458         2.04682        -9.40579
|101>    H       -5.34034         0.21406        -7.64864
|102>    H       -6.16803        -1.08343        -5.73620
|103>    H       -5.31347         6.41105       -11.22317
|104>    H       -7.79050         6.40245        -9.41538
|105>    H       -6.59732         7.12111       -13.18829
|106>    H      -12.78363        11.48954       -12.65376
|107>    H      -14.43264         9.75220        -5.95081
|108>    H      -15.42626        11.20594        -6.17890
|109>    H      -12.44470        11.17867        -5.48032
|110>    H      -13.76112        11.52581        -4.35344
|111>    H      -13.43065        12.63016        -5.69163
|112>    H      -15.80205        13.76313       -11.12363
|113> *
|114>
|115>                          ****END OF INPUT****

CARTESIAN COORDINATES (ANGSTROEM)
---------------------------------
  C     -1.313940   -5.637440   -2.941460
  S     -0.256150   -6.789620   -2.234380
  C     -1.298080   -7.065710   -0.860550
  C     -0.949090   -8.059670    0.190740
  C     -1.194840   -9.489820   -0.294620
  C     -2.405500   -6.292660   -0.984010
  C     -2.426700   -5.463380   -2.169520
  N     -3.517970   -4.678200   -2.291010
  C     -4.336520   -4.821680   -1.314480
  S     -3.841810   -6.018530   -0.053170
  C     -5.552530   -4.110740   -1.154840
  C     -6.517500   -4.298520   -0.076070
  N     -7.541330   -3.492420   -0.129300
  C     -7.338760   -2.719690   -1.231630
  C     -6.097370   -3.098330   -1.916670
  C     -5.875880   -2.242220   -3.056700
  S     -4.578170   -2.273600   -4.066110
  C     -7.002960   -1.340990   -3.053260
  C     -7.877710   -1.653630   -1.911510
  N     -8.912920   -0.772150   -1.836550
  C     -8.715210    0.073800   -2.808170
  C     -7.534800   -0.201990   -3.626080
  C     -7.119520    0.584310   -4.753180
  C     -7.429730    1.930230   -4.813280
  C     -6.949330    2.710350   -5.876510
  C     -7.061710    4.076360   -6.128580
  C     -7.838170    5.058190   -5.329200
  C     -6.912560    5.994680   -4.526000
  N     -6.229230    5.243930   -3.488870
  C     -8.808090    5.890050   -6.192000
  N     -9.736390    6.602050   -5.331550
  C     -6.310390    4.335500   -7.336590
  C     -5.996890    5.479360   -7.973840
  C     -5.203500    5.488160   -9.231440
  C     -4.780170    4.134070   -9.714790
  C     -5.054710    3.004100   -9.038760
  C     -5.796170    3.051890   -7.834500
  C     -6.165550    2.077890   -6.926410
  C     -5.906640    0.690770   -6.862860
  C     -6.364340   -0.025920   -5.804340
  C     -5.915570    6.213420  -10.347360
  C     -7.193880    6.596560  -10.297090
  C     -7.864770    7.336630  -11.323650
  C     -7.462780    7.550480  -12.714950
  N     -8.269570    8.314060  -13.397220
  C     -9.256000    8.674770  -12.525440
  C     -9.033450    8.049800  -11.213470
  C    -10.053320    8.470600  -10.283820
  S    -10.198140    8.037970   -8.701340
  C    -10.880200    9.361030  -11.045310
  C    -10.372280    9.464530  -12.423890
  N    -11.131320   10.334860  -13.153840
  C    -12.040370   10.778720  -12.339730
  C    -11.953190   10.225620  -10.979250
  C    -12.810870   10.590940   -9.923580
  S    -12.702990    9.903140   -8.319700
  C    -14.010150   10.863710   -7.704110
  C    -14.419080   10.794310   -6.276770
  C    -13.449820   11.584630   -5.392770
  C    -14.491450   11.672880   -8.692590
  C    -13.833640   11.530550   -9.953350
  N    -14.318220   12.333820  -10.936030
  C    -15.278650   13.056950  -10.509110
  S    -15.745100   12.871140   -8.824150
  H     -1.061900   -5.160060   -3.865310
  H     -1.562310   -7.858910    1.072480
  H      0.102160   -7.947810    0.466220
  H     -2.241810   -9.625740   -0.556180
  H     -0.936300  -10.200150    0.486220
  H     -0.587430   -9.698940   -1.172490
  H     -6.429550   -5.030030    0.708460
  H     -9.419830    0.868600   -2.981900
  H     -7.983700    2.396920   -4.013250
  H     -8.444160    4.507320   -4.601720
  H     -7.540990    6.813950   -4.144120
  H     -6.151610    6.416820   -5.186340
  H     -6.886690    4.942690   -2.777470
  H     -5.523120    5.813770   -3.038300
  H     -9.305680    5.220100   -6.911760
  H     -8.258690    6.641700   -6.758950
  H    -10.415530    5.960190   -4.934230
  H    -10.244130    7.291650   -5.874630
  H     -6.291600    6.447440   -7.596070
  H     -4.285190    6.068320   -9.030340
  H     -4.228240    4.112260  -10.642090
  H     -4.714580    2.046820   -9.405790
  H     -5.340340    0.214060   -7.648640
  H     -6.168030   -1.083430   -5.736200
  H     -5.313470    6.411050  -11.223170
  H     -7.790500    6.402450   -9.415380
  H     -6.597320    7.121110  -13.188290
  H    -12.783630   11.489540  -12.653760
  H    -14.432640    9.752200   -5.950810
  H    -15.426260   11.205940   -6.178900
  H    -12.444700   11.178670   -5.480320
  H    -13.761120   11.525810   -4.353440
  H    -13.430650   12.630160   -5.691630
  H    -15.802050   13.763130  -11.123630

 Total Charge           Charge          ....    0
 Multiplicity           Mult            ....    1
 Number of Electrons    NEL             ....  486
 Basis Dimension        Dim             .... 1090

ORBITAL ENERGIES
----------------

  NO   OCC          E(Eh)            E(eV)
   0   2.0000     -88.970261     -2421.0039
   1   2.0000     -88.969286     -2420.9773
   2   2.0000     -88.951504     -2420.4935
   3   2.0000     -88.945214     -2420.3223
   4   2.0000     -88.898601     -2419.0539
   5   2.0000     -88.882150     -2418.6063
   6   2.0000     -14.428737      -392.6259
   7   2.0000     -14.413099      -392.2004
   8   2.0000     -14.411380      -392.1536
   9   2.0000     -14.407017      -392.0349
  10   2.0000     -14.404748      -391.9731
  11   2.0000     -14.400777      -391.8651
  12   2.0000     -14.376901      -391.2154
  13   2.0000     -14.368611      -390.9898
  14   2.0000     -10.352177      -281.6970
  15   2.0000     -10.341293      -281.4009
  16   2.0000     -10.338138      -281.3150
  17   2.0000     -10.328837      -281.0619
  18   2.0000     -10.328487      -281.0524
  19   2.0000     -10.327866      -281.0355
  20   2.0000     -10.327329      -281.0209
  21   2.0000     -10.327288      -281.0198
  22   2.0000     -10.324819      -280.9526
  23   2.0000     -10.323761      -280.9238
  24   2.0000     -10.321518      -280.8628
  25   2.0000     -10.321149      -280.8528
  26   2.0000     -10.317641      -280.7573
  27   2.0000     -10.317339      -280.7491
  28   2.0000     -10.316881      -280.7366
  29   2.0000     -10.312190      -280.6089
  30   2.0000     -10.309221      -280.5282
  31   2.0000     -10.300074      -280.2793
  32   2.0000     -10.298390      -280.2334
  33   2.0000     -10.295874      -280.1650
  34   2.0000     -10.295404      -280.1522
  35   2.0000     -10.294815      -280.1361
  36   2.0000     -10.294800      -280.1358
  37   2.0000     -10.294592      -280.1301
  38   2.0000     -10.293382      -280.0972
  39   2.0000     -10.292923      -280.0847
  40   2.0000     -10.290613      -280.0218
  41   2.0000     -10.288538      -279.9654
  42   2.0000     -10.287947      -279.9493
  43   2.0000     -10.286802      -279.9181
  44   2.0000     -10.284092      -279.8444
  45   2.0000     -10.281962      -279.7864
  46   2.0000     -10.281134      -279.7639
  47   2.0000     -10.278419      -279.6900
  48   2.0000     -10.276861      -279.6476
  49   2.0000     -10.276172      -279.6288
  50   2.0000     -10.273564      -279.5579
  51   2.0000     -10.271584      -279.5040
  52   2.0000     -10.270746      -279.4812
  53   2.0000     -10.269898      -279.4581
  54   2.0000     -10.267522      -279.3935
  55   2.0000     -10.266827      -279.3746
  56   2.0000     -10.260309      -279.1972
  57   2.0000     -10.260108      -279.1917
  58   2.0000     -10.258668      -279.1526
  59   2.0000     -10.258626      -279.1514
  60   2.0000     -10.256380      -279.0903
  61   2.0000     -10.255966      -279.0790
  62   2.0000     -10.254978      -279.0521
  63   2.0000     -10.254199      -279.0309
  64   2.0000      -8.066424      -219.4986
  65   2.0000      -8.063495      -219.4188
  66   2.0000      -8.046946      -218.9685
  67   2.0000      -8.040964      -218.8058
  68   2.0000      -7.994010      -217.5281
  69   2.0000      -7.977893      -217.0895
  70   2.0000      -6.035888      -164.2449
  71   2.0000      -6.032868      -164.1627
  72   2.0000      -6.031952      -164.1378
  73   2.0000      -6.028473      -164.0431
  74   2.0000      -6.027803      -164.0249
  75   2.0000      -6.025670      -163.9668
  76   2.0000      -6.016247      -163.7104
  77   2.0000      -6.011899      -163.5921
  78   2.0000      -6.010542      -163.5552
  79   2.0000      -6.009352      -163.5228
  80   2.0000      -6.006860      -163.4550
  81   2.0000      -6.001961      -163.3217
  82   2.0000      -5.962795      -162.2559
  83   2.0000      -5.962085      -162.2366
  84   2.0000      -5.953826      -162.0118
  85   2.0000      -5.947163      -161.8305
  86   2.0000      -5.946620      -161.8158
  87   2.0000      -5.936458      -161.5392
  88   2.0000      -1.082291       -29.4506
  89   2.0000      -1.078359       -29.3437
  90   2.0000      -1.075161       -29.2566
  91   2.0000      -1.059773       -28.8379
  92   2.0000      -1.059491       -28.8302
  93   2.0000      -1.052238       -28.6329
  94   2.0000      -0.987675       -26.8760
  95   2.0000      -0.979299       -26.6481
  96   2.0000      -0.966639       -26.3036
  97   2.0000      -0.961245       -26.1568
  98   2.0000      -0.959326       -26.1046
  99   2.0000      -0.951086       -25.8804
 100   2.0000      -0.945204       -25.7203
 101   2.0000      -0.943530       -25.6748
 102   2.0000      -0.920389       -25.0451
 103   2.0000      -0.918035       -24.9810
 104   2.0000      -0.895414       -24.3655
 105   2.0000      -0.892038       -24.2736
 106   2.0000      -0.887176       -24.1413
 107   2.0000      -0.873754       -23.7761
 108   2.0000      -0.870929       -23.6992
 109   2.0000      -0.869877       -23.6705
 110   2.0000      -0.864403       -23.5216
 111   2.0000      -0.860588       -23.4178
 112   2.0000      -0.848749       -23.0956
 113   2.0000      -0.838475       -22.8161
 114   2.0000      -0.832161       -22.6442
 115   2.0000      -0.832047       -22.6412
 116   2.0000      -0.827197       -22.5092
 117   2.0000      -0.821510       -22.3544
 118   2.0000      -0.801847       -21.8194
 119   2.0000      -0.798657       -21.7326
 120   2.0000      -0.790847       -21.5200
 121   2.0000      -0.781701       -21.2712
 122   2.0000      -0.769095       -20.9281
 123   2.0000      -0.764729       -20.8093
 124   2.0000      -0.751038       -20.4368
 125   2.0000      -0.743785       -20.2394
 126   2.0000      -0.735087       -20.0027
 127   2.0000      -0.724227       -19.7072
 128   2.0000      -0.720438       -19.6041
 129   2.0000      -0.713744       -19.4220
 130   2.0000      -0.713205       -19.4073
 131   2.0000      -0.707895       -19.2628
 132   2.0000      -0.699304       -19.0290
 133   2.0000      -0.696917       -18.9641
 134   2.0000      -0.692080       -18.8324
 135   2.0000      -0.682994       -18.5852
 136   2.0000      -0.672137       -18.2898
 137   2.0000      -0.667377       -18.1603
 138   2.0000      -0.665499       -18.1092
 139   2.0000      -0.655295       -17.8315
 140   2.0000      -0.648952       -17.6589
 141   2.0000      -0.643817       -17.5191
 142   2.0000      -0.632768       -17.2185
 143   2.0000      -0.631159       -17.1747
 144   2.0000      -0.622480       -16.9385
 145   2.0000      -0.614119       -16.7110
 146   2.0000      -0.608190       -16.5497
 147   2.0000      -0.604138       -16.4394
 148   2.0000      -0.594467       -16.1763
 149   2.0000      -0.590056       -16.0562
 150   2.0000      -0.581240       -15.8163
 151   2.0000      -0.575149       -15.6506
 152   2.0000      -0.569996       -15.5104
 153   2.0000      -0.568847       -15.4791
 154   2.0000      -0.564333       -15.3563
 155   2.0000      -0.562910       -15.3176
 156   2.0000      -0.561940       -15.2912
 157   2.0000      -0.555995       -15.1294
 158   2.0000      -0.549538       -14.9537
 159   2.0000      -0.545596       -14.8464
 160   2.0000      -0.543815       -14.7980
 161   2.0000      -0.543339       -14.7850
 162   2.0000      -0.541500       -14.7350
 163   2.0000      -0.537943       -14.6382
 164   2.0000      -0.535223       -14.5642
 165   2.0000      -0.534761       -14.5516
 166   2.0000      -0.530995       -14.4491
 167   2.0000      -0.526657       -14.3311
 168   2.0000      -0.526363       -14.3231
 169   2.0000      -0.522102       -14.2071
 170   2.0000      -0.520260       -14.1570
 171   2.0000      -0.516494       -14.0545
 172   2.0000      -0.516077       -14.0432
 173   2.0000      -0.512328       -13.9412
 174   2.0000      -0.509194       -13.8559
 175   2.0000      -0.506182       -13.7739
 176   2.0000      -0.502851       -13.6833
 177   2.0000      -0.501510       -13.6468
 178   2.0000      -0.495631       -13.4868
 179   2.0000      -0.494834       -13.4651
 180   2.0000      -0.486524       -13.2390
 181   2.0000      -0.486026       -13.2254
 182   2.0000      -0.483885       -13.1672
 183   2.0000      -0.482268       -13.1232
 184   2.0000      -0.481109       -13.0917
 185   2.0000      -0.480522       -13.0757
 186   2.0000      -0.478260       -13.0141
 187   2.0000      -0.476258       -12.9596
 188   2.0000      -0.473249       -12.8777
 189   2.0000      -0.470518       -12.8034
 190   2.0000      -0.465794       -12.6749
 191   2.0000      -0.462113       -12.5747
 192   2.0000      -0.460154       -12.5214
 193   2.0000      -0.454938       -12.3795
 194   2.0000      -0.451434       -12.2842
 195   2.0000      -0.447553       -12.1785
 196   2.0000      -0.442633       -12.0447
 197   2.0000      -0.439330       -11.9548
 198   2.0000      -0.438206       -11.9242
 199   2.0000      -0.436819       -11.8865
 200   2.0000      -0.433925       -11.8077
 201   2.0000      -0.432804       -11.7772
 202   2.0000      -0.430286       -11.7087
 203   2.0000      -0.428947       -11.6722
 204   2.0000      -0.425317       -11.5735
 205   2.0000      -0.422937       -11.5087
 206   2.0000      -0.420531       -11.4432
 207   2.0000      -0.418142       -11.3782
 208   2.0000      -0.415326       -11.3016
 209   2.0000      -0.413629       -11.2554
 210   2.0000      -0.411797       -11.2056
 211   2.0000      -0.407483       -11.0882
 212   2.0000      -0.404901       -11.0179
 213   2.0000      -0.399829       -10.8799
 214   2.0000      -0.393831       -10.7167
 215   2.0000      -0.391106       -10.6425
 216   2.0000      -0.387016       -10.5313
 217   2.0000      -0.379970       -10.3395
 218   2.0000      -0.366544        -9.9742
 219   2.0000      -0.366440        -9.9713
 220   2.0000      -0.359893        -9.7932
 221   2.0000      -0.350676        -9.5424
 222   2.0000      -0.348705        -9.4887
 223   2.0000      -0.347857        -9.4657
 224   2.0000      -0.347171        -9.4470
 225   2.0000      -0.346328        -9.4241
 226   2.0000      -0.342903        -9.3309
 227   2.0000      -0.339356        -9.2343
 228   2.0000      -0.338334        -9.2065
 229   2.0000      -0.322326        -8.7709
 230   2.0000      -0.321665        -8.7529
 231   2.0000      -0.314251        -8.5512
 232   2.0000      -0.308332        -8.3901
 233   2.0000      -0.303510        -8.2589
 234   2.0000      -0.292287        -7.9535
 235   2.0000      -0.284280        -7.7357
 236   2.0000      -0.283590        -7.7169
 237   2.0000      -0.282425        -7.6852
 238   2.0000      -0.275619        -7.5000
 239   2.0000      -0.263720        -7.1762
 240   2.0000      -0.263298        -7.1647
 241   2.0000      -0.257787        -7.0147
 242   2.0000      -0.215012        -5.8508
 243   0.0000      -0.106323        -2.8932
 244   0.0000      -0.105898        -2.8816
 245   0.0000      -0.079339        -2.1589
 246   0.0000      -0.074276        -2.0211
 247   0.0000      -0.053581        -1.4580

MULLIKEN ATOMIC CHARGES
-----------------------
   0 C :   -0.165055
   1 S :    0.118382
   2 C :   -0.343389
   3 C :    0.090510
   4 C :    0.014032
   5 C :    0.057815
   6 C :    0.118508
   7 N :    0.038084
   8 C :   -0.165289
   9 S :    0.048163
  10 C :    0.057784
  11 C :    0.050243
  12 N :   -0.029890
  13 C :    0.008134
  14 C :   -0.000044
  15 C :   -0.037343
  16 S :   -0.082044
  17 C :   -0.012658
  18 C :   -0.005084
  19 N :   -0.028040
  20 C :    0.054429
  21 C :    0.001950
  22 C :    0.073215
  23 C :   -0.094642
  24 C :    0.054790
  25 C :    0.051013
  26 C :   -0.073328
  27 C :    0.149246
  28 N :   -0.220233
  29 C :    0.126843
  30 N :   -0.217280
  31 C :    0.093255
  32 C :   -0.167356
  33 C :    0.186555
  34 C :   -0.049174
  35 C :    0.021000
  36 C :    0.008709
  37 C :    0.041525
  38 C :   -0.012995
  39 C :    0.025932
  40 C :   -0.094726
  41 C :    0.008659
  42 C :    0.018531
  43 C :    0.043728
  44 N :   -0.029869
  45 C :    0.007178
  46 C :   -0.006996
  47 C :    0.014917
  48 S :   -0.182215
  49 C :   -0.042679
  50 C :    0.003989
  51 N :   -0.018184
  52 C :    0.067883
  53 C :   -0.012318
  54 C :   -0.176474
  55 S :    0.198886
  56 C :   -0.312152
  57 C :    0.086752
  58 C :    0.013408
  59 C :    0.010651
  60 C :    0.075825
  61 N :   -0.052486
  62 C :    0.022720
  63 S :    0.095279
  64 H :    0.019084
  65 H :    0.011518
  66 H :    0.014900
  67 H :    0.020813
  68 H :    0.017873
  69 H :    0.014011
  70 H :    0.012729
  71 H :    0.007943
  72 H :   -0.047278
  73 H :   -0.042567
  74 H :   -0.001594
  75 H :   -0.025556
  76 H :    0.083973
  77 H :    0.089734
  78 H :    0.002703
  79 H :   -0.011719
  80 H :    0.088680
  81 H :    0.090752
  82 H :    0.011265
  83 H :    0.041931
  84 H :   -0.015739
  85 H :   -0.035050
  86 H :   -0.037975
  87 H :   -0.029095
  88 H :    0.001394
  89 H :    0.016208
  90 H :    0.004342
  91 H :    0.017085
  92 H :    0.020692
  93 H :    0.015148
  94 H :    0.021123
  95 H :    0.024645
  96 H :    0.022003
  97 H :    0.049441
Sum of atomic charges:   -0.0000000

LOEWDIN ATOMIC CHARGES
----------------------
   0 C :   -0.196003
   1 S :    0.444705
   2 C :   -0.200440
   3 C :   -0.043097
   4 C :   -0.051004
   5 C :   -0.213960
   6 C :   -0.067156
   7 N :   -0.061205
   8 C :   -0.099632
   9 S :    0.328357
  10 C :   -0.077623
  11 C :    0.073600
  12 N :   -0.084993
  13 C :    0.022884
  14 C :   -0.002146
  15 C :   -0.148154
  16 S :    0.103949
  17 C :   -0.050903
  18 C :    0.049183
  19 N :   -0.085489
  20 C :    0.093085
  21 C :   -0.020923
  22 C :   -0.030904
  23 C :    0.010086
  24 C :   -0.018695
  25 C :   -0.004242
  26 C :   -0.041901
  27 C :    0.024616
  28 N :   -0.119829
  29 C :    0.023509
  30 N :   -0.114974
  31 C :   -0.011239
  32 C :    0.064533
  33 C :   -0.031244
  34 C :   -0.038644
  35 C :   -0.012898
  36 C :   -0.040936
  37 C :   -0.024396
  38 C :   -0.010302
  39 C :   -0.015931
  40 C :    0.016078
  41 C :   -0.033653
  42 C :   -0.030136
  43 C :    0.078506
  44 N :   -0.078721
  45 C :    0.025279
  46 C :   -0.042051
  47 C :   -0.133510
  48 S :    0.023402
  49 C :   -0.064306
  50 C :    0.043245
  51 N :   -0.075509
  52 C :    0.098409
  53 C :   -0.037302
  54 C :   -0.192241
  55 S :    0.488909
  56 C :   -0.178714
  57 C :   -0.042939
  58 C :   -0.047520
  59 C :   -0.220015
  60 C :   -0.052560
  61 N :   -0.088911
  62 C :   -0.085583
  63 S :    0.369420
  64 H :    0.029208
  65 H :    0.032556
  66 H :    0.031519
  67 H :    0.026957
  68 H :    0.024134
  69 H :    0.021637
  70 H :    0.021537
  71 H :    0.024164
  72 H :    0.020781
  73 H :    0.017996
  74 H :    0.000294
  75 H :    0.010659
  76 H :    0.048744
  77 H :    0.054062
  78 H :    0.003501
  79 H :    0.009106
  80 H :    0.051311
  81 H :    0.048052
  82 H :    0.029240
  83 H :    0.063568
  84 H :    0.021957
  85 H :    0.030800
  86 H :    0.027571
  87 H :    0.014697
  88 H :    0.024639
  89 H :    0.031947
  90 H :    0.022564
  91 H :    0.025969
  92 H :    0.035046
  93 H :    0.033730
  94 H :    0.024826
  95 H :    0.027372
  96 H :    0.027459
  97 H :    0.023178

  Mayer bond orders larger than 0.100000
B(  0-C ,  1-S ) :   1.1582 B(  0-C ,  6-C ) :   1.4885 B(  0-C , 64-H ) :   0.9777
B(  1-S ,  2-C ) :   1.1507 B(  2-C ,  3-C ) :   1.0571 B(  2-C ,  5-C ) :   1.6000
B(  3-C ,  4-C ) :   1.1002 B(  3-C , 65-H ) :   0.9326 B(  3-C , 66-H ) :   0.9249
B(  4-C , 67-H ) :   0.9715 B(  4-C , 68-H ) :   0.9688 B(  4-C , 69-H ) :   0.9716
B(  5-C ,  6-C ) :   1.1698 B(  5-C ,  9-S ) :   1.0228 B(  6-C ,  7-N ) :   1.2667
B(  7-N ,  8-C ) :   1.8603 B(  7-N ,  9-S ) :   0.1151 B(  8-C ,  9-S ) :   1.0041
B(  8-C , 10-C ) :   1.0366 B( 10-C , 11-C ) :   1.0538 B( 10-C , 14-C ) :   1.5376
B( 11-C , 12-N ) :   1.7170 B( 11-C , 70-H ) :   0.9843 B( 12-N , 13-C ) :   1.2771
B( 13-C , 14-C ) :   1.0659 B( 13-C , 18-C ) :   1.4985 B( 14-C , 15-C ) :   1.0308
B( 15-C , 16-S ) :   1.7482 B( 15-C , 17-C ) :   1.0145 B( 17-C , 18-C ) :   1.0708
B( 17-C , 21-C ) :   1.5342 B( 18-C , 19-N ) :   1.2648 B( 19-N , 20-C ) :   1.7203
B( 20-C , 21-C ) :   1.0332 B( 20-C , 71-H ) :   0.9862 B( 21-C , 22-C ) :   1.0188
B( 22-C , 23-C ) :   1.4870 B( 22-C , 39-C ) :   1.1438 B( 23-C , 24-C ) :   1.1490
B( 23-C , 72-H ) :   0.9882 B( 24-C , 25-C ) :   1.4841 B( 24-C , 37-C ) :   1.1133
B( 25-C , 26-C ) :   1.0023 B( 25-C , 31-C ) :   1.0908 B( 26-C , 27-C ) :   1.0366
B( 26-C , 29-C ) :   1.0255 B( 26-C , 73-H ) :   0.8934 B( 27-C , 28-N ) :   1.0813
B( 27-C , 74-H ) :   0.9346 B( 27-C , 75-H ) :   0.9344 B( 28-N , 76-H ) :   0.9723
B( 28-N , 77-H ) :   0.9697 B( 29-C , 30-N ) :   1.0813 B( 29-C , 78-H ) :   0.9519
B( 29-C , 79-H ) :   0.9254 B( 30-N , 80-H ) :   0.9707 B( 30-N , 81-H ) :   0.9691
B( 31-C , 32-C ) :   1.6609 B( 31-C , 36-C ) :   1.0569 B( 32-C , 33-C ) :   0.9854
B( 32-C , 82-H ) :   0.9588 B( 33-C , 34-C ) :   0.9806 B( 33-C , 40-C ) :   0.9477
B( 33-C , 83-H ) :   0.8402 B( 34-C , 35-C ) :   1.7406 B( 34-C , 84-H ) :   0.9672
B( 35-C , 36-C ) :   1.1295 B( 35-C , 85-H ) :   0.9887 B( 36-C , 37-C ) :   1.4426
B( 37-C , 38-C ) :   1.1344 B( 38-C , 39-C ) :   1.6103 B( 38-C , 86-H ) :   0.9937
B( 39-C , 87-H ) :   0.9678 B( 40-C , 41-C ) :   1.8289 B( 40-C , 88-H ) :   0.9709
B( 41-C , 42-C ) :   1.0643 B( 41-C , 89-H ) :   0.9472 B( 42-C , 43-C ) :   1.0187
B( 42-C , 46-C ) :   1.5410 B( 43-C , 44-N ) :   1.7291 B( 43-C , 90-H ) :   0.9917
B( 44-N , 45-C ) :   1.2623 B( 45-C , 46-C ) :   1.0709 B( 45-C , 50-C ) :   1.5242
B( 46-C , 47-C ) :   1.0254 B( 47-C , 48-S ) :   1.6682 B( 47-C , 49-C ) :   1.0550
B( 49-C , 50-C ) :   1.0723 B( 49-C , 53-C ) :   1.4907 B( 50-C , 51-N ) :   1.2611
B( 51-N , 52-C ) :   1.7224 B( 52-C , 53-C ) :   1.0320 B( 52-C , 91-H ) :   0.9765
B( 53-C , 54-C ) :   1.1864 B( 54-C , 55-S ) :   1.1286 B( 54-C , 56-C ) :   0.1067
B( 54-C , 60-C ) :   1.4110 B( 55-S , 56-C ) :   1.1569 B( 56-C , 57-C ) :   1.0577
B( 56-C , 59-C ) :   1.5694 B( 57-C , 58-C ) :   1.0969 B( 57-C , 92-H ) :   0.9213
B( 57-C , 93-H ) :   0.9336 B( 58-C , 94-H ) :   0.9711 B( 58-C , 95-H ) :   0.9689
B( 58-C , 96-H ) :   0.9718 B( 59-C , 60-C ) :   1.2413 B( 59-C , 63-S ) :   1.0199
B( 60-C , 61-N ) :   1.3026 B( 61-N , 62-C ) :   1.7680 B( 61-N , 63-S ) :   0.1089
B( 62-C , 63-S ) :   1.0998 B( 62-C , 97-H ) :   0.9632

-----------------------------------------------------------------------------
         ABSORPTION SPECTRUM VIA TRANSITION ELECTRIC DIPOLE MOMENTS
-----------------------------------------------------------------------------
State   Energy  Wavelength   fosc         T2         TX        TY        TZ
        (cm-1)    (nm)                  (au**2)     (au)      (au)      (au)
-----------------------------------------------------------------------------
   0    8907.8   1122.6   0.105378683   3.89457   0.33194  -1.66004   1.01422
   1   11557.3    865.3   0.026611930   0.75805  -0.37565   0.65825  -0.42853
   2   11802.7    847.3   0.023445332   0.65396   0.11154  -0.70942   0.37182
   3   13194.5    757.9   0.026291807   0.65600   0.26960   0.03123  -0.76311
   4   15390.1    649.8   0.008528780   0.18244   0.10793   0.07942  -0.40557
   5   16233.6    616.0   0.015314894   0.31058  -0.16474   0.43115  -0.31234
   6   16491.5    606.4   0.164607847   3.28600   1.39289  -1.05103  -0.49113
   7   17287.8    578.4   0.001606516   0.03059   0.11491  -0.13089   0.01600
   8   17479.8    572.1   0.082273879   1.54953  -0.74389   0.96110  -0.26915
   9   18023.6    554.8   0.137874850   2.51837   0.09876   1.01884  -1.21267
  10   18987.8    526.7   0.000279432   0.00484  -0.04572   0.04046   0.03343
  11   19006.7    526.1   0.015527347   0.26895   0.23922   0.28888  -0.35815
  12   20333.9    491.8   0.015888733   0.25724   0.35604  -0.30193   0.19829
  13   21439.4    466.4   0.003064550   0.04706   0.18541  -0.02168   0.11050
  14   22051.1    453.5   0.422906422   6.31378  -1.91381   1.47576   0.68793
  15   23800.3    420.2   0.003100600   0.04289  -0.03967   0.19573   0.05480
  16   24340.1    410.8   0.266768275   3.60818   0.64649  -1.58507   0.82328
  17   25250.3    396.0   0.058810380   0.76677  -0.36211   0.75079  -0.26824
  18   25274.9    395.6   0.169834479   2.21214   0.87794  -1.16257   0.29965
  19   25455.9    392.8   0.141355470   1.82810  -0.86406   0.93629  -0.45262
  20   25757.3    388.2   0.056470514   0.72177  -0.67648   0.44930   0.24955
  21   26074.7    383.5   0.026555480   0.33528  -0.45521   0.25017   0.25589
  22   26187.2    381.9   0.282233976   3.54810  -1.07799   1.40426  -0.64350
  23   26218.9    381.4   0.011745932   0.14748   0.11574  -0.20842  -0.30108
  24   26523.4    377.0   0.001768766   0.02195   0.02779   0.09886  -0.10681
  25   26651.7    375.2   0.003155843   0.03898   0.08249   0.08470  -0.15812
  26   26890.4    371.9   0.420477440   5.14779  -0.34051   1.95926  -1.09231
  27   27375.6    365.3   0.021586422   0.25959   0.15399  -0.43765   0.21059
  28   27738.1    360.5   0.156937233   1.86263  -0.36565   1.17037  -0.59929
  29   28316.2    353.2   0.042895698   0.49872  -0.55322   0.43565  -0.05360
  30   28510.1    350.8   0.278625126   3.21734   1.59384  -0.66509  -0.48442
  31   28600.5    349.6   0.123097554   1.41694   0.87074  -0.75333   0.30207
  32   28668.5    348.8   0.021163700   0.24303  -0.42954   0.19902   0.13753
  33   28938.2    345.6   0.003052319   0.03472  -0.03546  -0.04168   0.17813
  34   29029.4    344.5   0.001730679   0.01963   0.01861  -0.12216   0.06601
  35   29300.8    341.3   0.103961477   1.16807   0.84045  -0.67662   0.06237
  36   29784.7    335.7   0.005316637   0.05877   0.18510  -0.14785  -0.05139
  37   30410.0    328.8   0.004822388   0.05221  -0.09495   0.20748  -0.01197
  38   30519.6    327.7   0.003300883   0.03561  -0.13539   0.11247   0.06802
  39   30767.4    325.0   0.003049436   0.03263  -0.07319   0.02404   0.16339
  40   30831.9    324.3   0.006479523   0.06919   0.08975  -0.11971   0.21634
  41   31253.6    320.0   0.001340657   0.01412   0.10758  -0.05043  -0.00200
  42   31455.8    317.9   0.006134985   0.06421  -0.24686   0.03230  -0.04719
  43   31933.8    313.1   0.000495681   0.00511  -0.00131   0.06846  -0.02054
  44   31992.8    312.6   0.006736172   0.06932  -0.21543  -0.05551   0.14080
  45   32257.7    310.0   0.027452498   0.28017  -0.04099   0.44000  -0.29136
  46   32592.2    306.8   0.031062401   0.31376   0.05957   0.35679  -0.42768
  47   32728.9    305.5   0.006745935   0.06786   0.19255  -0.17536   0.00547
  48   33109.6    302.0   0.001296785   0.01289   0.04089  -0.09810  -0.03999
  49   33546.7    298.1   0.039740134   0.38999   0.33718  -0.43540   0.29449
  50   33858.9    295.3   0.061470277   0.59768  -0.60467   0.46654  -0.11997
  51   33978.2    294.3   0.150577919   1.45894   0.88298  -0.66906  -0.48128
  52   34081.0    293.4   0.032107082   0.31014   0.29270  -0.39266  -0.26512
  53   34277.4    291.7   0.006655396   0.06392  -0.20069   0.01015   0.15343
  54   34360.2    291.0   0.185987705   1.78199   0.06725  -0.97033   0.91429
  55   34477.0    290.0   0.015051265   0.14372   0.22104  -0.22107   0.21445
  56   34680.4    288.3   0.006335485   0.06014  -0.17783   0.16746  -0.02181
  57   34855.7    286.9   0.004291477   0.04053  -0.08049   0.18014  -0.04006
  58   35010.9    285.6   0.120695541   1.13492   0.35621  -0.89173   0.46136
  59   35083.1    285.0   0.031714782   0.29760   0.47176  -0.23386  -0.14270
  60   35164.7    284.4   0.003699866   0.03464   0.15262   0.07452  -0.07610
  61   35537.1    281.4   0.047519189   0.44021  -0.40061   0.51689   0.11202
  62   35670.2    280.3   0.012046807   0.11118  -0.13439  -0.09351   0.29048
  63   35699.4    280.1   0.317695033   2.92971  -0.51763  -1.01849   1.27454
  64   35874.5    278.7   0.026689283   0.24492   0.26016  -0.39112   0.15576
  65   36017.4    277.6   0.003183498   0.02910   0.00859  -0.14797  -0.08444
  66   36064.3    277.3   0.053196260   0.48560  -0.07633   0.51120  -0.46739
  67   36706.0    272.4   0.055942901   0.50174  -0.60647   0.07468   0.35828
  68   36826.2    271.5   0.083107743   0.74295  -0.83256   0.19074   0.11584
  69   36964.4    270.5   0.000861918   0.00768  -0.08649   0.00019  -0.01400
  70   37083.7    269.7   0.020555493   0.18248   0.11015   0.16247  -0.37941
  71   37398.9    267.4   0.011536949   0.10156  -0.28190   0.12025   0.08733
  72   37446.0    267.1   0.291061357   2.55891  -0.07750  -0.52023   1.51072
  73   37454.6    267.0   0.128455680   1.12908   0.16704   0.26040  -1.01655
  74   37527.7    266.5   0.042842592   0.37584  -0.46089   0.35566   0.19216
  75   37768.3    264.8   0.051712349   0.45076   0.01525   0.35552  -0.56932
  76   37984.2    263.3   0.028879811   0.25030   0.01020  -0.37388   0.33228
  77   38073.3    262.7   0.012628596   0.10920  -0.17078   0.08296  -0.27046
  78   39020.0    256.3   0.015500795   0.13078   0.07556  -0.27242   0.22551
  79   39192.2    255.2   0.191241760   1.60642  -0.40482  -0.58540   1.04874
  80   39404.4    253.8   0.022640198   0.18915   0.01502   0.32910  -0.28394
  81   39638.9    252.3   0.000033077   0.00027   0.00850  -0.00433   0.01355
  82   39757.4    251.5   0.015799898   0.13083   0.02445  -0.27495   0.23374
  83   39969.4    250.2   0.004475687   0.03686  -0.16653   0.07725   0.05626
  84   40120.6    249.2   0.029888343   0.24525   0.37954  -0.14998  -0.28055

FINAL SINGLE POINT ENERGY     -4748.969917371397

DIPOLE MOMENT
-------------
                                X             Y             Z
Electronic contribution:    -13.01547      -8.23536     -17.67759
Nuclear contribution   :     12.30540      10.33005      18.08777
                        -----------------------------------------
Total Dipole Moment    :     -0.71007       2.09469       0.41019
                        -----------------------------------------
Magnitude (a.u.)       :      2.24949
Magnitude (Debye)      :      5.71775

Rotational constants in cm-1:     0.002517     0.000263     0.000244
Rotational constants in MHz :    75.443147     7.893160     7.318077

                             ****ORCA TERMINATED NORMALLY****
TOTAL RUN TIME: 0 days 0 hours 9 minutes 5 seconds 672 msec
