                         Program Version 4.2.0 -  RELEASE  -
|  1> # ORCA input file
|  2> # SCF done       -201.304047833292          0.000640549671
|  3> ! CAM-B3LYP def2-SVP def2/J RIJCOSX Grid4 TightSCF
|  4> %maxcore 5000
|  5> %tddft
|  6>     Mode sTDDFT
|  7>     Ethresh 5.0
|  8>     maxcore 5000
|  9> end
| 10>
| 11> %pal
| 12>   nprocs 6
| 13>   end
| 14> * xyz 0 1
| 15>    C       -7.03060        -9.87259        -6.32326
| 16>    O       -6.34079        -9.68882        -5.20921
| 17>    C       -5.50859        -8.63454        -5.40337
| 18>    C       -5.68602        -8.12613        -6.68887
| 19>    C       -6.68808        -8.95032        -7.28440
| 20>    C       -7.30862        -8.93744        -8.63727
| 21>    F       -8.22552        -9.91137        -8.75189
| 22>    F       -7.94305        -7.79174        -8.93065
| 23>    F       -6.42426        -9.14326        -9.63176
| 24>    O       -4.98656        -7.06591        -7.11216
| 25>    C       -5.13640        -6.60169        -8.44523
| 26>    C       -4.61416        -8.16592        -4.39542
| 27>    C       -4.50093        -8.68982        -3.16077
| 28>    C       -3.59893        -8.22056        -2.13018
| 29>    C       -3.12120        -9.16333        -1.20575
| 30>    C       -2.21070        -8.76727        -0.25685
| 31>    C       -1.76396        -7.44106        -0.19594
| 32>    C       -0.81952        -7.32868         0.93860
| 33>    O       -0.22614        -6.36281         1.35133
| 34>    N       -0.73522        -8.60284         1.47671
| 35>    C       -1.54310        -9.52662         0.82583
| 36>    O       -1.63625       -10.69098         1.12016
| 37>    C        0.07088        -8.92918         2.63371
| 38>    C       -0.73059        -8.79219         3.92335
| 39>    C       -2.23621        -6.49425        -1.07371
| 40>    C       -3.17585        -6.87286        -2.04228
| 41>    C       -3.79139        -5.85541        -2.87746
| 42>    C       -3.13796        -4.80252        -3.39597
| 43>    C       -3.67537        -3.73581        -4.18532
| 44>    S       -2.55516        -2.48915        -4.64806
| 45>    C       -3.80790        -1.54739        -5.38796
| 46>    C       -5.01673        -2.20533        -5.31887
| 47>    C       -4.94857        -3.44181        -4.63902
| 48>    C       -6.15075        -4.30648        -4.40296
| 49>    C       -7.41439        -3.78034        -5.10593
| 50>    C       -7.42203        -4.19850        -6.48852
| 51>    N       -7.41935        -4.53375        -7.58077
| 52>    C       -7.48529        -2.24002        -5.03260
| 53>    C       -7.41646        -1.82104        -3.65111
| 54>    N       -7.34244        -1.50239        -2.55647
| 55>    C       -6.31180        -1.64343        -5.82175
| 56>    C       -3.53025        -0.25203        -5.99007
| 57>    C       -4.08990         0.04035        -7.24034
| 58>    C       -3.81417         1.25426        -7.82424
| 59>    C       -2.98024         2.18607        -7.19624
| 60>    C       -2.88364         3.37722        -8.07539
| 61>    O       -2.27712         4.40462        -7.91420
| 62>    N       -3.67323         3.08285        -9.17915
| 63>    C       -4.26475         1.83050        -9.11221
| 64>    O       -4.99841         1.36261        -9.94624
| 65>    C       -3.82977         3.97780       -10.30596
| 66>    C       -2.76433         3.72224       -11.36595
| 67>    C       -2.40860         1.91471        -5.97657
| 68>    C       -2.68357         0.68783        -5.35510
| 69>    C       -2.10835         0.37635        -4.06399
| 70>    C       -0.88783         0.76391        -3.64965
| 71>    C       -0.31240         0.23489        -2.45011
| 72>    O       -0.90763        -0.82469        -1.88309
| 73>    C       -0.14506        -1.27097        -0.86349
| 74>    C        0.98274        -0.46102        -0.73810
| 75>    C        0.86900         0.51965        -1.76459
| 76>    C        1.76266         1.67207        -2.05275
| 77>    F        1.25774         2.51308        -2.96558
| 78>    F        2.01036         2.43070        -0.96711
| 79>    F        2.97310         1.30710        -2.53049
| 80>    O        1.90053        -0.69206         0.21538
| 81>    C        3.18707        -0.10740         0.13812
| 82>    C       -0.56725        -2.45829        -0.17344
| 83>    C        0.10219        -3.05405         0.81103
| 84>    H       -7.74293       -10.67338        -6.35787
| 85>    H       -4.42022        -5.78787        -8.54049
| 86>    H       -6.14201        -6.21446        -8.61924
| 87>    H       -4.89456        -7.38174        -9.16891
| 88>    H       -3.98865        -7.34796        -4.72066
| 89>    H       -5.08216        -9.56933        -2.91757
| 90>    H       -3.45347       -10.18919        -1.25297
| 91>    H        0.92321        -8.24563         2.63935
| 92>    H        0.41879        -9.95774         2.51107
| 93>    H       -1.08202        -7.76971         4.04150
| 94>    H       -0.10522        -9.04808         4.77384
| 95>    H       -1.58725        -9.46192         3.90476
| 96>    H       -1.91661        -5.46680        -0.99389
| 97>    H       -4.84397        -6.00081        -3.05608
| 98>    H       -2.07130        -4.72225        -3.22449
| 99>    H       -6.34634        -4.35036        -3.32647
|100>    H       -5.94734        -5.32182        -4.75656
|101>    H       -8.29914        -4.21723        -4.62574
|102>    H       -8.43430        -1.88731        -5.45398
|103>    H       -6.30782        -0.55425        -5.73352
|104>    H       -6.45242        -1.89536        -6.87777
|105>    H       -4.69591        -0.68476        -7.75870
|106>    H       -3.75079         4.99877        -9.92496
|107>    H       -4.82684         3.81015       -10.72039
|108>    H       -1.77284         3.87641       -10.94649
|109>    H       -2.90240         4.40638       -12.19823
|110>    H       -2.83884         2.70188       -11.73500
|111>    H       -1.77960         2.64291        -5.48968
|112>    H       -2.68776        -0.25855        -3.40968
|113>    H       -0.27123         1.41055        -4.25186
|114>    H        3.77760        -0.62294         0.89406
|115>    H        3.16403         0.95809         0.37385
|116>    H        3.64235        -0.26483        -0.84190
|117>    H       -1.50131        -2.86087        -0.54367
|118>    H        1.02643        -2.64650         1.17821
|119>    H       -0.24379        -3.97123         1.25316
|120> *
|121>
|122>                          ****END OF INPUT****

CARTESIAN COORDINATES (ANGSTROEM)
---------------------------------
  C     -7.030600   -9.872590   -6.323260
  O     -6.340790   -9.688820   -5.209210
  C     -5.508590   -8.634540   -5.403370
  C     -5.686020   -8.126130   -6.688870
  C     -6.688080   -8.950320   -7.284400
  C     -7.308620   -8.937440   -8.637270
  F     -8.225520   -9.911370   -8.751890
  F     -7.943050   -7.791740   -8.930650
  F     -6.424260   -9.143260   -9.631760
  O     -4.986560   -7.065910   -7.112160
  C     -5.136400   -6.601690   -8.445230
  C     -4.614160   -8.165920   -4.395420
  C     -4.500930   -8.689820   -3.160770
  C     -3.598930   -8.220560   -2.130180
  C     -3.121200   -9.163330   -1.205750
  C     -2.210700   -8.767270   -0.256850
  C     -1.763960   -7.441060   -0.195940
  C     -0.819520   -7.328680    0.938600
  O     -0.226140   -6.362810    1.351330
  N     -0.735220   -8.602840    1.476710
  C     -1.543100   -9.526620    0.825830
  O     -1.636250  -10.690980    1.120160
  C      0.070880   -8.929180    2.633710
  C     -0.730590   -8.792190    3.923350
  C     -2.236210   -6.494250   -1.073710
  C     -3.175850   -6.872860   -2.042280
  C     -3.791390   -5.855410   -2.877460
  C     -3.137960   -4.802520   -3.395970
  C     -3.675370   -3.735810   -4.185320
  S     -2.555160   -2.489150   -4.648060
  C     -3.807900   -1.547390   -5.387960
  C     -5.016730   -2.205330   -5.318870
  C     -4.948570   -3.441810   -4.639020
  C     -6.150750   -4.306480   -4.402960
  C     -7.414390   -3.780340   -5.105930
  C     -7.422030   -4.198500   -6.488520
  N     -7.419350   -4.533750   -7.580770
  C     -7.485290   -2.240020   -5.032600
  C     -7.416460   -1.821040   -3.651110
  N     -7.342440   -1.502390   -2.556470
  C     -6.311800   -1.643430   -5.821750
  C     -3.530250   -0.252030   -5.990070
  C     -4.089900    0.040350   -7.240340
  C     -3.814170    1.254260   -7.824240
  C     -2.980240    2.186070   -7.196240
  C     -2.883640    3.377220   -8.075390
  O     -2.277120    4.404620   -7.914200
  N     -3.673230    3.082850   -9.179150
  C     -4.264750    1.830500   -9.112210
  O     -4.998410    1.362610   -9.946240
  C     -3.829770    3.977800  -10.305960
  C     -2.764330    3.722240  -11.365950
  C     -2.408600    1.914710   -5.976570
  C     -2.683570    0.687830   -5.355100
  C     -2.108350    0.376350   -4.063990
  C     -0.887830    0.763910   -3.649650
  C     -0.312400    0.234890   -2.450110
  O     -0.907630   -0.824690   -1.883090
  C     -0.145060   -1.270970   -0.863490
  C      0.982740   -0.461020   -0.738100
  C      0.869000    0.519650   -1.764590
  C      1.762660    1.672070   -2.052750
  F      1.257740    2.513080   -2.965580
  F      2.010360    2.430700   -0.967110
  F      2.973100    1.307100   -2.530490
  O      1.900530   -0.692060    0.215380
  C      3.187070   -0.107400    0.138120
  C     -0.567250   -2.458290   -0.173440
  C      0.102190   -3.054050    0.811030
  H     -7.742930  -10.673380   -6.357870
  H     -4.420220   -5.787870   -8.540490
  H     -6.142010   -6.214460   -8.619240
  H     -4.894560   -7.381740   -9.168910
  H     -3.988650   -7.347960   -4.720660
  H     -5.082160   -9.569330   -2.917570
  H     -3.453470  -10.189190   -1.252970
  H      0.923210   -8.245630    2.639350
  H      0.418790   -9.957740    2.511070
  H     -1.082020   -7.769710    4.041500
  H     -0.105220   -9.048080    4.773840
  H     -1.587250   -9.461920    3.904760
  H     -1.916610   -5.466800   -0.993890
  H     -4.843970   -6.000810   -3.056080
  H     -2.071300   -4.722250   -3.224490
  H     -6.346340   -4.350360   -3.326470
  H     -5.947340   -5.321820   -4.756560
  H     -8.299140   -4.217230   -4.625740
  H     -8.434300   -1.887310   -5.453980
  H     -6.307820   -0.554250   -5.733520
  H     -6.452420   -1.895360   -6.877770
  H     -4.695910   -0.684760   -7.758700
  H     -3.750790    4.998770   -9.924960
  H     -4.826840    3.810150  -10.720390
  H     -1.772840    3.876410  -10.946490
  H     -2.902400    4.406380  -12.198230
  H     -2.838840    2.701880  -11.735000
  H     -1.779600    2.642910   -5.489680
  H     -2.687760   -0.258550   -3.409680
  H     -0.271230    1.410550   -4.251860
  H      3.777600   -0.622940    0.894060
  H      3.164030    0.958090    0.373850
  H      3.642350   -0.264830   -0.841900
  H     -1.501310   -2.860870   -0.543670
  H      1.026430   -2.646500    1.178210
  H     -0.243790   -3.971230    1.253160

 Total Charge           Charge          ....    0
 Multiplicity           Mult            ....    1
 Number of Electrons    NEL             ....  498
 Basis Dimension        Dim             .... 1150

ORBITAL ENERGIES
----------------

  NO   OCC          E(Eh)            E(eV)
   0   2.0000     -88.965012     -2420.8610
   1   2.0000     -24.805451      -674.9906
   2   2.0000     -24.804677      -674.9696
   3   2.0000     -24.801889      -674.8937
   4   2.0000     -24.801252      -674.8764
   5   2.0000     -24.799742      -674.8353
   6   2.0000     -24.797626      -674.7777
   7   2.0000     -19.312853      -525.5295
   8   2.0000     -19.298214      -525.1311
   9   2.0000     -19.264234      -524.2064
  10   2.0000     -19.253792      -523.9223
  11   2.0000     -19.211031      -522.7587
  12   2.0000     -19.210353      -522.7403
  13   2.0000     -19.210183      -522.7357
  14   2.0000     -19.209064      -522.7052
  15   2.0000     -14.451309      -393.2401
  16   2.0000     -14.450574      -393.2201
  17   2.0000     -14.426661      -392.5694
  18   2.0000     -14.418673      -392.3521
  19   2.0000     -10.527490      -286.4676
  20   2.0000     -10.524846      -286.3956
  21   2.0000     -10.390172      -282.7309
  22   2.0000     -10.390125      -282.7297
  23   2.0000     -10.390034      -282.7272
  24   2.0000     -10.388502      -282.6855
  25   2.0000     -10.356109      -281.8040
  26   2.0000     -10.355680      -281.7924
  27   2.0000     -10.348156      -281.5876
  28   2.0000     -10.347923      -281.5813
  29   2.0000     -10.346105      -281.5318
  30   2.0000     -10.341362      -281.4028
  31   2.0000     -10.332808      -281.1700
  32   2.0000     -10.326026      -280.9855
  33   2.0000     -10.324124      -280.9337
  34   2.0000     -10.320787      -280.8429
  35   2.0000     -10.317941      -280.7654
  36   2.0000     -10.317119      -280.7431
  37   2.0000     -10.311354      -280.5862
  38   2.0000     -10.311304      -280.5849
  39   2.0000     -10.310621      -280.5663
  40   2.0000     -10.308106      -280.4978
  41   2.0000     -10.306398      -280.4513
  42   2.0000     -10.306372      -280.4506
  43   2.0000     -10.304382      -280.3965
  44   2.0000     -10.304142      -280.3900
  45   2.0000     -10.303902      -280.3834
  46   2.0000     -10.301034      -280.3054
  47   2.0000     -10.300488      -280.2905
  48   2.0000     -10.299941      -280.2757
  49   2.0000     -10.297372      -280.2057
  50   2.0000     -10.297209      -280.2013
  51   2.0000     -10.295806      -280.1631
  52   2.0000     -10.295162      -280.1456
  53   2.0000     -10.294630      -280.1311
  54   2.0000     -10.294604      -280.1304
  55   2.0000     -10.294371      -280.1241
  56   2.0000     -10.294128      -280.1175
  57   2.0000     -10.293129      -280.0903
  58   2.0000     -10.292798      -280.0813
  59   2.0000     -10.291283      -280.0401
  60   2.0000     -10.290940      -280.0307
  61   2.0000     -10.290292      -280.0131
  62   2.0000     -10.288722      -279.9703
  63   2.0000     -10.285017      -279.8696
  64   2.0000     -10.282723      -279.8071
  65   2.0000     -10.269928      -279.4590
  66   2.0000     -10.257552      -279.1222
  67   2.0000     -10.257272      -279.1145
  68   2.0000     -10.250592      -278.9328
  69   2.0000      -8.060283      -219.3315
  70   2.0000      -6.029442      -164.0695
  71   2.0000      -6.025375      -163.9588
  72   2.0000      -6.022547      -163.8818
  73   2.0000      -1.393337       -37.9146
  74   2.0000      -1.391483       -37.8642
  75   2.0000      -1.295868       -35.2624
  76   2.0000      -1.294764       -35.2323
  77   2.0000      -1.293151       -35.1884
  78   2.0000      -1.288938       -35.0738
  79   2.0000      -1.234924       -33.6040
  80   2.0000      -1.221096       -33.2277
  81   2.0000      -1.165486       -31.7145
  82   2.0000      -1.156194       -31.4616
  83   2.0000      -1.155707       -31.4484
  84   2.0000      -1.155581       -31.4449
  85   2.0000      -1.132680       -30.8218
  86   2.0000      -1.132073       -30.8053
  87   2.0000      -1.047137       -28.4940
  88   2.0000      -1.046209       -28.4688
  89   2.0000      -1.026675       -27.9373
  90   2.0000      -1.009096       -27.4589
  91   2.0000      -1.002892       -27.2901
  92   2.0000      -0.981713       -26.7138
  93   2.0000      -0.979497       -26.6535
  94   2.0000      -0.960987       -26.1498
  95   2.0000      -0.929415       -25.2907
  96   2.0000      -0.928811       -25.2742
  97   2.0000      -0.927068       -25.2268
  98   2.0000      -0.919484       -25.0204
  99   2.0000      -0.915267       -24.9057
 100   2.0000      -0.904035       -24.6000
 101   2.0000      -0.895989       -24.3811
 102   2.0000      -0.883978       -24.0543
 103   2.0000      -0.878848       -23.9147
 104   2.0000      -0.864647       -23.5282
 105   2.0000      -0.863254       -23.4903
 106   2.0000      -0.858066       -23.3492
 107   2.0000      -0.849081       -23.1047
 108   2.0000      -0.839278       -22.8379
 109   2.0000      -0.828195       -22.5363
 110   2.0000      -0.824644       -22.4397
 111   2.0000      -0.809113       -22.0171
 112   2.0000      -0.800997       -21.7962
 113   2.0000      -0.792985       -21.5782
 114   2.0000      -0.790591       -21.5131
 115   2.0000      -0.786541       -21.4029
 116   2.0000      -0.775931       -21.1142
 117   2.0000      -0.765929       -20.8420
 118   2.0000      -0.758774       -20.6473
 119   2.0000      -0.757533       -20.6135
 120   2.0000      -0.755221       -20.5506
 121   2.0000      -0.741853       -20.1869
 122   2.0000      -0.728908       -19.8346
 123   2.0000      -0.722377       -19.6569
 124   2.0000      -0.718339       -19.5470
 125   2.0000      -0.715676       -19.4745
 126   2.0000      -0.707258       -19.2455
 127   2.0000      -0.702152       -19.1065
 128   2.0000      -0.698150       -18.9976
 129   2.0000      -0.691084       -18.8054
 130   2.0000      -0.686544       -18.6818
 131   2.0000      -0.678696       -18.4683
 132   2.0000      -0.677031       -18.4229
 133   2.0000      -0.676142       -18.3988
 134   2.0000      -0.673800       -18.3350
 135   2.0000      -0.667034       -18.1509
 136   2.0000      -0.657748       -17.8982
 137   2.0000      -0.657004       -17.8780
 138   2.0000      -0.650972       -17.7138
 139   2.0000      -0.646656       -17.5964
 140   2.0000      -0.644867       -17.5477
 141   2.0000      -0.635638       -17.2966
 142   2.0000      -0.626162       -17.0387
 143   2.0000      -0.623729       -16.9725
 144   2.0000      -0.614414       -16.7190
 145   2.0000      -0.612755       -16.6739
 146   2.0000      -0.609187       -16.5768
 147   2.0000      -0.603077       -16.4105
 148   2.0000      -0.598338       -16.2816
 149   2.0000      -0.590631       -16.0719
 150   2.0000      -0.587085       -15.9754
 151   2.0000      -0.584589       -15.9075
 152   2.0000      -0.583180       -15.8691
 153   2.0000      -0.577756       -15.7215
 154   2.0000      -0.575539       -15.6612
 155   2.0000      -0.574269       -15.6267
 156   2.0000      -0.569057       -15.4848
 157   2.0000      -0.564909       -15.3720
 158   2.0000      -0.562104       -15.2956
 159   2.0000      -0.560664       -15.2564
 160   2.0000      -0.555737       -15.1224
 161   2.0000      -0.555028       -15.1031
 162   2.0000      -0.552734       -15.0407
 163   2.0000      -0.549706       -14.9583
 164   2.0000      -0.548813       -14.9340
 165   2.0000      -0.547889       -14.9088
 166   2.0000      -0.546669       -14.8756
 167   2.0000      -0.545608       -14.8467
 168   2.0000      -0.543478       -14.7888
 169   2.0000      -0.541813       -14.7435
 170   2.0000      -0.541691       -14.7402
 171   2.0000      -0.537517       -14.6266
 172   2.0000      -0.535924       -14.5832
 173   2.0000      -0.534506       -14.5447
 174   2.0000      -0.533186       -14.5087
 175   2.0000      -0.531564       -14.4646
 176   2.0000      -0.530707       -14.4413
 177   2.0000      -0.526221       -14.3192
 178   2.0000      -0.524589       -14.2748
 179   2.0000      -0.521794       -14.1987
 180   2.0000      -0.517806       -14.0902
 181   2.0000      -0.514151       -13.9908
 182   2.0000      -0.512643       -13.9497
 183   2.0000      -0.509629       -13.8677
 184   2.0000      -0.508910       -13.8481
 185   2.0000      -0.507727       -13.8160
 186   2.0000      -0.506491       -13.7823
 187   2.0000      -0.506372       -13.7791
 188   2.0000      -0.506284       -13.7767
 189   2.0000      -0.503953       -13.7133
 190   2.0000      -0.494007       -13.4426
 191   2.0000      -0.492693       -13.4069
 192   2.0000      -0.489264       -13.3136
 193   2.0000      -0.488952       -13.3051
 194   2.0000      -0.486614       -13.2415
 195   2.0000      -0.483722       -13.1627
 196   2.0000      -0.480959       -13.0876
 197   2.0000      -0.480409       -13.0726
 198   2.0000      -0.479330       -13.0432
 199   2.0000      -0.478900       -13.0315
 200   2.0000      -0.475728       -12.9452
 201   2.0000      -0.473362       -12.8808
 202   2.0000      -0.471663       -12.8346
 203   2.0000      -0.466420       -12.6919
 204   2.0000      -0.465111       -12.6563
 205   2.0000      -0.464214       -12.6319
 206   2.0000      -0.462005       -12.5718
 207   2.0000      -0.459285       -12.4978
 208   2.0000      -0.458208       -12.4685
 209   2.0000      -0.453244       -12.3334
 210   2.0000      -0.452108       -12.3025
 211   2.0000      -0.449169       -12.2225
 212   2.0000      -0.447684       -12.1821
 213   2.0000      -0.446844       -12.1592
 214   2.0000      -0.444326       -12.0907
 215   2.0000      -0.442190       -12.0326
 216   2.0000      -0.440224       -11.9791
 217   2.0000      -0.437660       -11.9093
 218   2.0000      -0.437355       -11.9010
 219   2.0000      -0.434072       -11.8117
 220   2.0000      -0.433038       -11.7836
 221   2.0000      -0.429840       -11.6965
 222   2.0000      -0.424741       -11.5578
 223   2.0000      -0.424480       -11.5507
 224   2.0000      -0.420273       -11.4362
 225   2.0000      -0.416945       -11.3456
 226   2.0000      -0.410845       -11.1797
 227   2.0000      -0.405147       -11.0246
 228   2.0000      -0.404158       -10.9977
 229   2.0000      -0.401337       -10.9209
 230   2.0000      -0.396194       -10.7810
 231   2.0000      -0.391437       -10.6515
 232   2.0000      -0.369412       -10.0522
 233   2.0000      -0.364175        -9.9097
 234   2.0000      -0.363212        -9.8835
 235   2.0000      -0.358865        -9.7652
 236   2.0000      -0.356602        -9.7036
 237   2.0000      -0.346804        -9.4370
 238   2.0000      -0.344652        -9.3785
 239   2.0000      -0.342415        -9.3176
 240   2.0000      -0.341533        -9.2936
 241   2.0000      -0.341213        -9.2849
 242   2.0000      -0.338025        -9.1981
 243   2.0000      -0.329889        -8.9767
 244   2.0000      -0.322923        -8.7872
 245   2.0000      -0.314611        -8.5610
 246   2.0000      -0.279359        -7.6018
 247   2.0000      -0.258016        -7.0210
 248   2.0000      -0.246466        -6.7067
 249   0.0000      -0.066911        -1.8207
 250   0.0000      -0.058112        -1.5813
 251   0.0000      -0.037493        -1.0202
 252   0.0000      -0.022784        -0.6200
 253   0.0000      -0.011084        -0.3016

MULLIKEN ATOMIC CHARGES
-----------------------
   0 C :    0.113905
   1 O :   -0.170086
   2 C :    0.050136
   3 C :    0.165661
   4 C :   -0.183549
   5 C :    0.529686
   6 F :   -0.160026
   7 F :   -0.150820
   8 F :   -0.162733
   9 O :   -0.305614
  10 C :    0.162252
  11 C :   -0.021857
  12 C :   -0.039061
  13 C :    0.104137
  14 C :   -0.094733
  15 C :    0.015291
  16 C :    0.006873
  17 C :    0.201529
  18 O :   -0.160328
  19 N :   -0.301231
  20 C :    0.188503
  21 O :   -0.157276
  22 C :    0.132881
  23 C :   -0.008468
  24 C :   -0.073612
  25 C :    0.077962
  26 C :   -0.085816
  27 C :    0.064752
  28 C :   -0.133929
  29 S :    0.152987
  30 C :   -0.215847
  31 C :   -0.031305
  32 C :   -0.074603
  33 C :    0.104131
  34 C :   -0.050454
  35 C :   -0.230165
  36 N :    0.136008
  37 C :   -0.073370
  38 C :   -0.240320
  39 N :    0.149851
  40 C :    0.130859
  41 C :    0.083067
  42 C :   -0.098546
  43 C :    0.014860
  44 C :    0.022685
  45 C :    0.189241
  46 O :   -0.154039
  47 N :   -0.303944
  48 C :    0.188542
  49 O :   -0.161413
  50 C :    0.132557
  51 C :   -0.006934
  52 C :   -0.104435
  53 C :    0.088809
  54 C :   -0.037385
  55 C :   -0.028292
  56 C :    0.105965
  57 O :   -0.186878
  58 C :    0.110657
  59 C :    0.123988
  60 C :   -0.156827
  61 C :    0.508319
  62 F :   -0.152208
  63 F :   -0.162709
  64 F :   -0.168074
  65 O :   -0.303338
  66 C :    0.180495
  67 C :   -0.049355
  68 C :   -0.011863
  69 H :    0.029032
  70 H :    0.034629
  71 H :    0.054956
  72 H :    0.028071
  73 H :    0.035468
  74 H :   -0.000343
  75 H :   -0.010494
  76 H :    0.030795
  77 H :    0.030312
  78 H :    0.025110
  79 H :    0.022067
  80 H :    0.028568
  81 H :   -0.026141
  82 H :    0.020637
  83 H :   -0.008595
  84 H :    0.060381
  85 H :    0.058391
  86 H :    0.054922
  87 H :    0.053369
  88 H :    0.050054
  89 H :    0.061310
  90 H :   -0.010615
  91 H :    0.032143
  92 H :    0.029907
  93 H :    0.026502
  94 H :    0.022669
  95 H :    0.025847
  96 H :   -0.002161
  97 H :    0.044146
  98 H :    0.015135
  99 H :    0.035997
 100 H :    0.037400
 101 H :    0.027999
 102 H :   -0.007318
 103 H :    0.025321
 104 H :    0.039381
Sum of atomic charges:   -0.0000000

LOEWDIN ATOMIC CHARGES
----------------------
   0 C :    0.071689
   1 O :    0.039766
   2 C :   -0.026102
   3 C :    0.030975
   4 C :   -0.163990
   5 C :    0.169071
   6 F :   -0.057662
   7 F :   -0.052987
   8 F :   -0.062441
   9 O :   -0.090705
  10 C :    0.073839
  11 C :   -0.017970
  12 C :   -0.036743
  13 C :   -0.002956
  14 C :    0.015665
  15 C :   -0.052984
  16 C :   -0.056883
  17 C :    0.093790
  18 O :   -0.160099
  19 N :   -0.035544
  20 C :    0.089405
  21 O :   -0.158506
  22 C :    0.044161
  23 C :   -0.059861
  24 C :    0.017602
  25 C :   -0.009358
  26 C :   -0.019028
  27 C :   -0.045000
  28 C :   -0.166771
  29 S :    0.485227
  30 C :   -0.176821
  31 C :   -0.057944
  32 C :   -0.060412
  33 C :   -0.010113
  34 C :   -0.033524
  35 C :   -0.020669
  36 N :   -0.052381
  37 C :   -0.033429
  38 C :   -0.035520
  39 N :   -0.049311
  40 C :   -0.008912
  41 C :   -0.026389
  42 C :    0.014804
  43 C :   -0.055144
  44 C :   -0.048932
  45 C :    0.088515
  46 O :   -0.155898
  47 N :   -0.036513
  48 C :    0.087162
  49 O :   -0.162114
  50 C :    0.044268
  51 C :   -0.059424
  52 C :    0.019139
  53 C :   -0.004811
  54 C :   -0.027700
  55 C :   -0.033023
  56 C :    0.044316
  57 O :    0.036602
  58 C :    0.001801
  59 C :    0.022171
  60 C :   -0.156546
  61 C :    0.173682
  62 F :   -0.048819
  63 F :   -0.060775
  64 F :   -0.069352
  65 O :   -0.089309
  66 C :    0.074840
  67 C :   -0.054805
  68 C :   -0.021890
  69 H :    0.032825
  70 H :    0.030125
  71 H :    0.015783
  72 H :    0.013570
  73 H :    0.044385
  74 H :    0.031088
  75 H :    0.038418
  76 H :    0.031817
  77 H :    0.031971
  78 H :    0.027641
  79 H :    0.030095
  80 H :    0.028468
  81 H :    0.036991
  82 H :    0.030994
  83 H :    0.029367
  84 H :    0.045549
  85 H :    0.045499
  86 H :    0.063618
  87 H :    0.061211
  88 H :    0.045193
  89 H :    0.043195
  90 H :    0.039003
  91 H :    0.032324
  92 H :    0.031789
  93 H :    0.028105
  94 H :    0.030265
  95 H :    0.027901
  96 H :    0.040810
  97 H :    0.028315
  98 H :    0.033158
  99 H :    0.029342
 100 H :    0.015661
 101 H :    0.015952
 102 H :    0.029386
 103 H :    0.023099
 104 H :    0.024666

  Mayer bond orders larger than 0.100000
B(  0-C ,  1-O ) :   1.2015 B(  0-C ,  2-C ) :   0.1012 B(  0-C ,  4-C ) :   1.4959
B(  0-C , 69-H ) :   1.0120 B(  1-O ,  2-C ) :   1.1230 B(  2-C ,  3-C ) :   1.4249
B(  2-C , 11-C ) :   1.1466 B(  3-C ,  4-C ) :   1.2187 B(  3-C ,  9-O ) :   1.2245
B(  4-C ,  5-C ) :   0.9523 B(  5-C ,  6-F ) :   1.1648 B(  5-C ,  7-F ) :   1.1688
B(  5-C ,  8-F ) :   1.1544 B(  9-O , 10-C ) :   0.9104 B( 10-C , 70-H ) :   0.9769
B( 10-C , 71-H ) :   0.9510 B( 10-C , 72-H ) :   0.9629 B( 11-C , 12-C ) :   1.6668
B( 11-C , 73-H ) :   0.9512 B( 12-C , 13-C ) :   1.0631 B( 12-C , 74-H ) :   0.9776
B( 13-C , 14-C ) :   1.2797 B( 13-C , 25-C ) :   1.3379 B( 14-C , 15-C ) :   1.3991
B( 14-C , 75-H ) :   1.0170 B( 15-C , 16-C ) :   1.3407 B( 15-C , 20-C ) :   0.8776
B( 16-C , 17-C ) :   0.8850 B( 16-C , 24-C ) :   1.3935 B( 17-C , 18-O ) :   2.1580
B( 17-C , 19-N ) :   1.0755 B( 19-N , 20-C ) :   1.0579 B( 19-N , 22-C ) :   0.9200
B( 20-C , 21-O ) :   2.2298 B( 22-C , 23-C ) :   1.1238 B( 22-C , 76-H ) :   0.9425
B( 22-C , 77-H ) :   0.9430 B( 23-C , 78-H ) :   0.9693 B( 23-C , 79-H ) :   0.9702
B( 23-C , 80-H ) :   0.9696 B( 24-C , 25-C ) :   1.3289 B( 24-C , 81-H ) :   1.0085
B( 25-C , 26-C ) :   1.0230 B( 26-C , 27-C ) :   1.7534 B( 26-C , 82-H ) :   0.9462
B( 27-C , 28-C ) :   1.1100 B( 27-C , 83-H ) :   0.9465 B( 28-C , 29-S ) :   1.1294
B( 28-C , 30-C ) :   0.1151 B( 28-C , 32-C ) :   1.5343 B( 29-S , 30-C ) :   1.1521
B( 30-C , 31-C ) :   1.5636 B( 30-C , 41-C ) :   0.9715 B( 31-C , 32-C ) :   1.2936
B( 31-C , 40-C ) :   1.0357 B( 32-C , 33-C ) :   1.0464 B( 33-C , 34-C ) :   1.0479
B( 33-C , 84-H ) :   0.8935 B( 33-C , 85-H ) :   0.9080 B( 34-C , 35-C ) :   1.1201
B( 34-C , 37-C ) :   1.0804 B( 34-C , 86-H ) :   0.8511 B( 35-C , 36-N ) :   3.0345
B( 37-C , 38-C ) :   1.1062 B( 37-C , 40-C ) :   1.0550 B( 37-C , 87-H ) :   0.8554
B( 38-C , 39-N ) :   3.1083 B( 40-C , 88-H ) :   0.9125 B( 40-C , 89-H ) :   0.9010
B( 41-C , 42-C ) :   1.3254 B( 41-C , 53-C ) :   1.3571 B( 42-C , 43-C ) :   1.3908
B( 42-C , 90-H ) :   1.0077 B( 43-C , 44-C ) :   1.3488 B( 43-C , 48-C ) :   0.8760
B( 44-C , 45-C ) :   0.8732 B( 44-C , 52-C ) :   1.3909 B( 45-C , 46-O ) :   2.2317
B( 45-C , 47-N ) :   1.0608 B( 47-N , 48-C ) :   1.0646 B( 47-N , 50-C ) :   0.9185
B( 48-C , 49-O ) :   2.2240 B( 50-C , 51-C ) :   1.1247 B( 50-C , 91-H ) :   0.9426
B( 50-C , 92-H ) :   0.9423 B( 51-C , 93-H ) :   0.9695 B( 51-C , 94-H ) :   0.9700
B( 51-C , 95-H ) :   0.9696 B( 52-C , 53-C ) :   1.3070 B( 52-C , 96-H ) :   1.0114
B( 53-C , 54-C ) :   1.0419 B( 54-C , 55-C ) :   1.7227 B( 54-C , 97-H ) :   0.9483
B( 55-C , 56-C ) :   1.1475 B( 55-C , 98-H ) :   0.9597 B( 56-C , 57-O ) :   1.1835
B( 56-C , 58-C ) :   0.1131 B( 56-C , 60-C ) :   1.4159 B( 57-O , 58-C ) :   1.1102
B( 58-C , 59-C ) :   1.4505 B( 58-C , 67-C ) :   1.1145 B( 59-C , 60-C ) :   1.2234
B( 59-C , 65-O ) :   1.1959 B( 60-C , 61-C ) :   0.9517 B( 61-C , 62-F ) :   1.1513
B( 61-C , 63-F ) :   1.1563 B( 61-C , 64-F ) :   1.1519 B( 65-O , 66-C ) :   0.9280
B( 66-C , 99-H ) :   0.9771 B( 66-C ,100-H ) :   0.9651 B( 66-C ,101-H ) :   0.9656
B( 67-C , 68-C ) :   1.9216 B( 67-C ,102-H ) :   0.9446 B( 68-C ,103-H ) :   0.9465
B( 68-C ,104-H ) :   0.9335

-----------------------------------------------------------------------------
         ABSORPTION SPECTRUM VIA TRANSITION ELECTRIC DIPOLE MOMENTS
-----------------------------------------------------------------------------
State   Energy  Wavelength   fosc         T2         TX        TY        TZ
        (cm-1)    (nm)                  (au**2)     (au)      (au)      (au)
-----------------------------------------------------------------------------
   0   23485.5    425.8   0.297218150   4.16631  -1.25364  -0.98630  -1.27354
   1   25435.9    393.1   0.354629829   4.58991   0.40330   2.10304  -0.06697
   2   26520.1    377.1   0.112368903   1.39491   0.79968   0.10291   0.86304
   3   28455.2    351.4   0.263794900   3.05197  -0.50846   0.78409  -1.47602
   4   29113.5    343.5   0.061892022   0.69987  -0.32638   0.27326  -0.72019
   5   30266.1    330.4   0.622491123   6.77100  -0.69213   1.60419  -1.92835
   6   32488.5    307.8   0.964822628   9.77674  -1.15484   1.45749  -2.51373
   7   33406.6    299.3   0.069314593   0.68307  -0.34144   0.35922  -0.66141
   8   33817.1    295.7   0.152154901   1.48124   0.03766   1.01537  -0.66996
   9   35496.9    281.7   0.285612616   2.64888  -0.90112  -0.13921  -1.34814
  10   36119.9    276.9   0.010346278   0.09430  -0.03325   0.15421  -0.26346
  11   36960.4    270.6   0.085958417   0.76565   0.47778   0.00629   0.73303
  12   37067.0    269.8   0.005022650   0.04461  -0.01294   0.19329  -0.08413
  13   37798.9    264.6   0.101297242   0.88226   0.41144   0.12004   0.83580
  14   38186.5    261.9   0.030504535   0.26298  -0.30629  -0.36562  -0.18840
  15   38462.4    260.0   0.261923364   2.24189   0.43485  -1.17493   0.81996
  16   38809.8    257.7   0.015437762   0.13095   0.11785   0.29851   0.16720
  17   39724.9    251.7   0.055061548   0.45631  -0.08488   0.46990  -0.47780

FINAL SINGLE POINT ENERGY     -3740.944780208946

DIPOLE MOMENT
-------------
                                X             Y             Z
Electronic contribution:     -6.87226      -1.84885     -21.65412
Nuclear contribution   :      6.53396       0.95477      21.52856
                        -----------------------------------------
Total Dipole Moment    :     -0.33829      -0.89408      -0.12556
                        -----------------------------------------
Magnitude (a.u.)       :      0.96415
Magnitude (Debye)      :      2.45067

Rotational constants in cm-1:     0.000886     0.000736     0.000433
Rotational constants in MHz :    26.555850    22.065386    12.967444

                             ****ORCA TERMINATED NORMALLY****
TOTAL RUN TIME: 0 days 0 hours 12 minutes 37 seconds 934 msec
