                         Program Version 4.2.0 -  RELEASE  -
|  1> # ORCA input file
|  2> # SCF done       -132.622353551086          0.000385272275
|  3> ! CAM-B3LYP def2-SVP def2/J RIJCOSX Grid4 TightSCF
|  4> %maxcore 5000
|  5> %tddft
|  6>     Mode sTDDFT
|  7>     Ethresh 5.0
|  8>     maxcore 5000
|  9> end
| 10>
| 11> %pal
| 12>   nprocs 6
| 13>   end
| 14> * xyz 0 1
| 15>    C        2.29517        -0.43866        -1.99429
| 16>    O        2.27980        -1.70882        -1.62965
| 17>    C        1.15840        -2.28644        -2.13445
| 18>    C        0.43217        -1.33135        -2.85122
| 19>    C        1.18910        -0.12556        -2.75068
| 20>    C        0.96437         1.24031        -3.29564
| 21>    F        1.95580         2.06995        -2.94175
| 22>    F        0.90885         1.28132        -4.64088
| 23>    F       -0.17301         1.81683        -2.86232
| 24>    O       -0.72433        -1.63346        -3.45961
| 25>    C       -1.45529        -0.62831        -4.13736
| 26>    C        0.93169        -3.66535        -1.86952
| 27>    C       -0.12172        -4.38079        -2.33322
| 28>    C       -0.36062        -5.76187        -2.08632
| 29>    C        0.37772        -6.58939        -1.29924
| 30>    C        0.07515        -7.95947        -1.12644
| 31>    C        0.80623        -8.79206        -0.33812
| 32>    C        0.53555       -10.16983        -0.17481
| 33>    C        1.19499       -11.10423         0.63414
| 34>    N        2.30766       -10.73272         1.43536
| 35>    O        3.04142        -9.85049         1.02666
| 36>    O        2.46885       -11.30606         2.49741
| 37>    C        0.65819       -12.41489         0.58870
| 38>    C        1.22107       -13.58636         1.31886
| 39>    C       -0.42898       -12.49423        -0.26721
| 40>    S       -0.79600       -10.93511        -0.97165
| 41>    C       -1.27146       -13.56922        -0.66575
| 42>    C       -1.17989       -14.88645        -0.36131
| 43>    C       -2.10342       -15.84270        -0.86377
| 44>    C       -2.01056       -17.16823        -0.60248
| 45>    C       -2.92539       -18.13316        -1.11550
| 46>    O       -3.95235       -17.73993        -1.88481
| 47>    C       -4.68473       -18.82627        -2.26274
| 48>    C       -4.10423       -19.96339        -1.71506
| 49>    C       -2.97379       -19.51296        -0.97731
| 50>    C       -2.08247       -20.44013        -0.23628
| 51>    F       -1.06843       -19.82192         0.39292
| 52>    F       -2.73752       -21.13206         0.71315
| 53>    F       -1.51314       -21.35621        -1.03973
| 54>    O       -4.39186       -21.27501        -1.75702
| 55>    C       -5.50313       -21.72929        -2.49270
| 56>    C       -5.83613       -18.58897        -3.09426
| 57>    C       -6.20972       -17.37521        -3.49834
| 58>    H        3.11640         0.17612        -1.68220
| 59>    H       -2.33997        -1.13202        -4.52293
| 60>    H       -0.88853        -0.21181        -4.97247
| 61>    H       -1.76425         0.16951        -3.45884
| 62>    H        1.69297        -4.12524        -1.25655
| 63>    H       -0.84348        -3.87124        -2.95375
| 64>    H       -1.22558        -6.18416        -2.58286
| 65>    H        1.24191        -6.21299        -0.77105
| 66>    H       -0.77861        -8.35683        -1.66299
| 67>    H        1.66648        -8.40257         0.18810
| 68>    H        2.03312       -13.28378         1.97266
| 69>    H        1.59344       -14.32525         0.60971
| 70>    H        0.44934       -14.04883         1.93207
| 71>    H       -2.08412       -13.26604        -1.31636
| 72>    H       -0.39183       -15.26812         0.26552
| 73>    H       -2.90993       -15.48525        -1.48934
| 74>    H       -1.21189       -17.54509         0.01658
| 75>    H       -5.50458       -22.81116        -2.36879
| 76>    H       -5.40376       -21.48641        -3.55449
| 77>    H       -6.43672       -21.31832        -2.09806
| 78>    H       -6.40757       -19.45351        -3.38987
| 79>    H       -5.65856       -16.49521        -3.21828
| 80>    H       -7.07636       -17.23576        -4.11878
| 81> *
| 82>
| 83>                          ****END OF INPUT****

CARTESIAN COORDINATES (ANGSTROEM)
---------------------------------
  C      2.295170   -0.438660   -1.994290
  O      2.279800   -1.708820   -1.629650
  C      1.158400   -2.286440   -2.134450
  C      0.432170   -1.331350   -2.851220
  C      1.189100   -0.125560   -2.750680
  C      0.964370    1.240310   -3.295640
  F      1.955800    2.069950   -2.941750
  F      0.908850    1.281320   -4.640880
  F     -0.173010    1.816830   -2.862320
  O     -0.724330   -1.633460   -3.459610
  C     -1.455290   -0.628310   -4.137360
  C      0.931690   -3.665350   -1.869520
  C     -0.121720   -4.380790   -2.333220
  C     -0.360620   -5.761870   -2.086320
  C      0.377720   -6.589390   -1.299240
  C      0.075150   -7.959470   -1.126440
  C      0.806230   -8.792060   -0.338120
  C      0.535550  -10.169830   -0.174810
  C      1.194990  -11.104230    0.634140
  N      2.307660  -10.732720    1.435360
  O      3.041420   -9.850490    1.026660
  O      2.468850  -11.306060    2.497410
  C      0.658190  -12.414890    0.588700
  C      1.221070  -13.586360    1.318860
  C     -0.428980  -12.494230   -0.267210
  S     -0.796000  -10.935110   -0.971650
  C     -1.271460  -13.569220   -0.665750
  C     -1.179890  -14.886450   -0.361310
  C     -2.103420  -15.842700   -0.863770
  C     -2.010560  -17.168230   -0.602480
  C     -2.925390  -18.133160   -1.115500
  O     -3.952350  -17.739930   -1.884810
  C     -4.684730  -18.826270   -2.262740
  C     -4.104230  -19.963390   -1.715060
  C     -2.973790  -19.512960   -0.977310
  C     -2.082470  -20.440130   -0.236280
  F     -1.068430  -19.821920    0.392920
  F     -2.737520  -21.132060    0.713150
  F     -1.513140  -21.356210   -1.039730
  O     -4.391860  -21.275010   -1.757020
  C     -5.503130  -21.729290   -2.492700
  C     -5.836130  -18.588970   -3.094260
  C     -6.209720  -17.375210   -3.498340
  H      3.116400    0.176120   -1.682200
  H     -2.339970   -1.132020   -4.522930
  H     -0.888530   -0.211810   -4.972470
  H     -1.764250    0.169510   -3.458840
  H      1.692970   -4.125240   -1.256550
  H     -0.843480   -3.871240   -2.953750
  H     -1.225580   -6.184160   -2.582860
  H      1.241910   -6.212990   -0.771050
  H     -0.778610   -8.356830   -1.662990
  H      1.666480   -8.402570    0.188100
  H      2.033120  -13.283780    1.972660
  H      1.593440  -14.325250    0.609710
  H      0.449340  -14.048830    1.932070
  H     -2.084120  -13.266040   -1.316360
  H     -0.391830  -15.268120    0.265520
  H     -2.909930  -15.485250   -1.489340
  H     -1.211890  -17.545090    0.016580
  H     -5.504580  -22.811160   -2.368790
  H     -5.403760  -21.486410   -3.554490
  H     -6.436720  -21.318320   -2.098060
  H     -6.407570  -19.453510   -3.389870
  H     -5.658560  -16.495210   -3.218280
  H     -7.076360  -17.235760   -4.118780

 Total Charge           Charge          ....    0
 Multiplicity           Mult            ....    1
 Number of Electrons    NEL             ....  322
 Basis Dimension        Dim             ....  721

ORBITAL ENERGIES
----------------

  NO   OCC          E(Eh)            E(eV)
   0   2.0000     -88.963777     -2420.8274
   1   2.0000     -24.806483      -675.0187
   2   2.0000     -24.804047      -674.9524
   3   2.0000     -24.803856      -674.9472
   4   2.0000     -24.791386      -674.6079
   5   2.0000     -24.780042      -674.2992
   6   2.0000     -24.779791      -674.2924
   7   2.0000     -19.307259      -525.3772
   8   2.0000     -19.290646      -524.9252
   9   2.0000     -19.266164      -524.2590
  10   2.0000     -19.257532      -524.0241
  11   2.0000     -19.233734      -523.3765
  12   2.0000     -19.232900      -523.3538
  13   2.0000     -14.641279      -398.4095
  14   2.0000     -10.528909      -286.5062
  15   2.0000     -10.509108      -285.9674
  16   2.0000     -10.352457      -281.7047
  17   2.0000     -10.349772      -281.6316
  18   2.0000     -10.346677      -281.5474
  19   2.0000     -10.342570      -281.4356
  20   2.0000     -10.330843      -281.1165
  21   2.0000     -10.330643      -281.1111
  22   2.0000     -10.329897      -281.0908
  23   2.0000     -10.328202      -281.0447
  24   2.0000     -10.323457      -280.9156
  25   2.0000     -10.320536      -280.8361
  26   2.0000     -10.306369      -280.4506
  27   2.0000     -10.301602      -280.3208
  28   2.0000     -10.297536      -280.2102
  29   2.0000     -10.289784      -279.9993
  30   2.0000     -10.284518      -279.8560
  31   2.0000     -10.283944      -279.8403
  32   2.0000     -10.283626      -279.8317
  33   2.0000     -10.281779      -279.7814
  34   2.0000     -10.281723      -279.7799
  35   2.0000     -10.280941      -279.7586
  36   2.0000     -10.279145      -279.7098
  37   2.0000     -10.278346      -279.6880
  38   2.0000     -10.277078      -279.6535
  39   2.0000     -10.272805      -279.5372
  40   2.0000     -10.270213      -279.4667
  41   2.0000     -10.263194      -279.2757
  42   2.0000     -10.262141      -279.2470
  43   2.0000      -8.059624      -219.3135
  44   2.0000      -6.028747      -164.0506
  45   2.0000      -6.024918      -163.9464
  46   2.0000      -6.021666      -163.8579
  47   2.0000      -1.395219       -37.9658
  48   2.0000      -1.374343       -37.3978
  49   2.0000      -1.313264       -35.7357
  50   2.0000      -1.298005       -35.3205
  51   2.0000      -1.294739       -35.2316
  52   2.0000      -1.278738       -34.7962
  53   2.0000      -1.271551       -34.6007
  54   2.0000      -1.230091       -33.4725
  55   2.0000      -1.212684       -32.9988
  56   2.0000      -1.167807       -31.7776
  57   2.0000      -1.161335       -31.6015
  58   2.0000      -1.130143       -30.7527
  59   2.0000      -1.002395       -27.2766
  60   2.0000      -0.928331       -25.2612
  61   2.0000      -0.926095       -25.2003
  62   2.0000      -0.923042       -25.1172
  63   2.0000      -0.916269       -24.9330
  64   2.0000      -0.908128       -24.7114
  65   2.0000      -0.903593       -24.5880
  66   2.0000      -0.889308       -24.1993
  67   2.0000      -0.879140       -23.9226
  68   2.0000      -0.856324       -23.3018
  69   2.0000      -0.846596       -23.0371
  70   2.0000      -0.824675       -22.4405
  71   2.0000      -0.820129       -22.3168
  72   2.0000      -0.806177       -21.9372
  73   2.0000      -0.797491       -21.7008
  74   2.0000      -0.793421       -21.5901
  75   2.0000      -0.786499       -21.4017
  76   2.0000      -0.765135       -20.8204
  77   2.0000      -0.753202       -20.4957
  78   2.0000      -0.742089       -20.1933
  79   2.0000      -0.721339       -19.6286
  80   2.0000      -0.711765       -19.3681
  81   2.0000      -0.707729       -19.2583
  82   2.0000      -0.693271       -18.8649
  83   2.0000      -0.687090       -18.6967
  84   2.0000      -0.678418       -18.4607
  85   2.0000      -0.676873       -18.4187
  86   2.0000      -0.661669       -18.0049
  87   2.0000      -0.660360       -17.9693
  88   2.0000      -0.658015       -17.9055
  89   2.0000      -0.656001       -17.8507
  90   2.0000      -0.655169       -17.8281
  91   2.0000      -0.646900       -17.6030
  92   2.0000      -0.638284       -17.3686
  93   2.0000      -0.636001       -17.3065
  94   2.0000      -0.626091       -17.0368
  95   2.0000      -0.615841       -16.7579
  96   2.0000      -0.610800       -16.6207
  97   2.0000      -0.607272       -16.5247
  98   2.0000      -0.593405       -16.1474
  99   2.0000      -0.590795       -16.0763
 100   2.0000      -0.582488       -15.8503
 101   2.0000      -0.577356       -15.7106
 102   2.0000      -0.574506       -15.6331
 103   2.0000      -0.573460       -15.6046
 104   2.0000      -0.568805       -15.4780
 105   2.0000      -0.559604       -15.2276
 106   2.0000      -0.556774       -15.1506
 107   2.0000      -0.554255       -15.0820
 108   2.0000      -0.552957       -15.0467
 109   2.0000      -0.547804       -14.9065
 110   2.0000      -0.546408       -14.8685
 111   2.0000      -0.542192       -14.7538
 112   2.0000      -0.538414       -14.6510
 113   2.0000      -0.535177       -14.5629
 114   2.0000      -0.534108       -14.5338
 115   2.0000      -0.530547       -14.4369
 116   2.0000      -0.522285       -14.2121
 117   2.0000      -0.519425       -14.1343
 118   2.0000      -0.515478       -14.0269
 119   2.0000      -0.514796       -14.0083
 120   2.0000      -0.511553       -13.9201
 121   2.0000      -0.510189       -13.8829
 122   2.0000      -0.506118       -13.7722
 123   2.0000      -0.497446       -13.5362
 124   2.0000      -0.493751       -13.4357
 125   2.0000      -0.491304       -13.3691
 126   2.0000      -0.490387       -13.3441
 127   2.0000      -0.486939       -13.2503
 128   2.0000      -0.482059       -13.1175
 129   2.0000      -0.475082       -12.9276
 130   2.0000      -0.470604       -12.8058
 131   2.0000      -0.469864       -12.7856
 132   2.0000      -0.468969       -12.7613
 133   2.0000      -0.467187       -12.7128
 134   2.0000      -0.461602       -12.5608
 135   2.0000      -0.454416       -12.3653
 136   2.0000      -0.449036       -12.2189
 137   2.0000      -0.446889       -12.1605
 138   2.0000      -0.443426       -12.0662
 139   2.0000      -0.439482       -11.9589
 140   2.0000      -0.438760       -11.9393
 141   2.0000      -0.437801       -11.9132
 142   2.0000      -0.432872       -11.7790
 143   2.0000      -0.431776       -11.7492
 144   2.0000      -0.423638       -11.5278
 145   2.0000      -0.416237       -11.3264
 146   2.0000      -0.411823       -11.2063
 147   2.0000      -0.409537       -11.1441
 148   2.0000      -0.400106       -10.8874
 149   2.0000      -0.383787       -10.4434
 150   2.0000      -0.376817       -10.2537
 151   2.0000      -0.368627       -10.0308
 152   2.0000      -0.366178        -9.9642
 153   2.0000      -0.358091        -9.7441
 154   2.0000      -0.350991        -9.5510
 155   2.0000      -0.336652        -9.1608
 156   2.0000      -0.326906        -8.8956
 157   2.0000      -0.313106        -8.5200
 158   2.0000      -0.283907        -7.7255
 159   2.0000      -0.251991        -6.8570
 160   2.0000      -0.227497        -6.1905
 161   0.0000      -0.073796        -2.0081
 162   0.0000      -0.044634        -1.2145
 163   0.0000      -0.018354        -0.4994
 164   0.0000       0.010583         0.2880
 165   0.0000       0.034218         0.9311

MULLIKEN ATOMIC CHARGES
-----------------------
   0 C :    0.108898
   1 O :   -0.164326
   2 C :    0.101641
   3 C :    0.134576
   4 C :   -0.183132
   5 C :    0.526901
   6 F :   -0.156139
   7 F :   -0.163266
   8 F :   -0.163738
   9 O :   -0.302385
  10 C :    0.179945
  11 C :    0.008038
  12 C :   -0.003733
  13 C :    0.020750
  14 C :    0.023904
  15 C :    0.022011
  16 C :   -0.027551
  17 C :   -0.086029
  18 C :    0.120729
  19 N :    0.253378
  20 O :   -0.246331
  21 O :   -0.242267
  22 C :   -0.079799
  23 C :    0.111266
  24 C :   -0.135040
  25 S :    0.125402
  26 C :    0.060172
  27 C :   -0.005302
  28 C :    0.032048
  29 C :   -0.055246
  30 C :    0.148133
  31 O :   -0.212203
  32 C :    0.047611
  33 C :    0.163133
  34 C :   -0.156282
  35 C :    0.523592
  36 F :   -0.161095
  37 F :   -0.162641
  38 F :   -0.162353
  39 O :   -0.287603
  40 C :    0.174497
  41 C :   -0.042500
  42 C :   -0.006842
  43 H :    0.027255
  44 H :    0.037554
  45 H :    0.035514
  46 H :    0.034358
  47 H :   -0.007487
  48 H :   -0.000493
  49 H :   -0.015344
  50 H :   -0.006441
  51 H :   -0.004527
  52 H :    0.013188
  53 H :    0.033397
  54 H :    0.036578
  55 H :    0.034705
  56 H :   -0.016856
  57 H :   -0.014281
  58 H :    0.000450
  59 H :    0.004082
  60 H :    0.044549
  61 H :    0.033750
  62 H :    0.033034
  63 H :   -0.022488
  64 H :    0.021914
  65 H :    0.016767
Sum of atomic charges:   -0.0000000

LOEWDIN ATOMIC CHARGES
----------------------
   0 C :    0.065372
   1 O :    0.042546
   2 C :   -0.011675
   3 C :    0.029036
   4 C :   -0.166613
   5 C :    0.170322
   6 F :   -0.053766
   7 F :   -0.063408
   8 F :   -0.063282
   9 O :   -0.084206
  10 C :    0.076030
  11 C :   -0.015463
  12 C :   -0.040064
  13 C :   -0.013893
  14 C :   -0.024321
  15 C :   -0.002966
  16 C :   -0.059431
  17 C :   -0.137734
  18 C :   -0.076907
  19 N :    0.288887
  20 O :   -0.208288
  21 O :   -0.204024
  22 C :   -0.034064
  23 C :   -0.052473
  24 C :   -0.174004
  25 S :    0.454524
  26 C :   -0.038286
  27 C :   -0.025413
  28 C :   -0.001061
  29 C :   -0.049424
  30 C :    0.059781
  31 O :    0.017528
  32 C :   -0.018676
  33 C :    0.026823
  34 C :   -0.147575
  35 C :    0.171925
  36 F :   -0.060934
  37 F :   -0.064338
  38 F :   -0.064066
  39 O :   -0.088083
  40 C :    0.082444
  41 C :   -0.046544
  42 C :   -0.049564
  43 H :    0.031962
  44 H :    0.030638
  45 H :    0.017388
  46 H :    0.017745
  47 H :    0.035254
  48 H :    0.029048
  49 H :    0.028729
  50 H :    0.028321
  51 H :    0.020767
  52 H :    0.034947
  53 H :    0.033349
  54 H :    0.037110
  55 H :    0.041011
  56 H :    0.027825
  57 H :    0.029039
  58 H :    0.030403
  59 H :    0.034905
  60 H :    0.033467
  61 H :    0.017905
  62 H :    0.017669
  63 H :    0.031057
  64 H :    0.022621
  65 H :    0.024164

  Mayer bond orders larger than 0.100000
B(  0-C ,  1-O ) :   1.2087 B(  0-C ,  4-C ) :   1.4855 B(  0-C , 43-H ) :   1.0110
B(  1-O ,  2-C ) :   1.1169 B(  2-C ,  3-C ) :   1.4352 B(  2-C , 11-C ) :   1.1473
B(  3-C ,  4-C ) :   1.2344 B(  3-C ,  9-O ) :   1.1928 B(  4-C ,  5-C ) :   0.9567
B(  5-C ,  6-F ) :   1.1706 B(  5-C ,  7-F ) :   1.1528 B(  5-C ,  8-F ) :   1.1517
B(  9-O , 10-C ) :   0.9267 B( 10-C , 44-H ) :   0.9768 B( 10-C , 45-H ) :   0.9641
B( 10-C , 46-H ) :   0.9655 B( 11-C , 12-C ) :   1.6695 B( 11-C , 47-H ) :   0.9504
B( 12-C , 13-C ) :   1.1336 B( 12-C , 48-H ) :   0.9701 B( 13-C , 14-C ) :   1.6304
B( 13-C , 49-H ) :   0.9796 B( 14-C , 15-C ) :   1.1717 B( 14-C , 50-H ) :   0.9784
B( 15-C , 16-C ) :   1.5735 B( 15-C , 51-H ) :   0.9825 B( 16-C , 17-C ) :   1.1649
B( 16-C , 52-H ) :   0.9745 B( 17-C , 18-C ) :   1.4207 B( 17-C , 25-S ) :   1.1481
B( 18-C , 19-N ) :   0.9265 B( 18-C , 22-C ) :   1.2719 B( 19-N , 20-O ) :   1.5040
B( 19-N , 21-O ) :   1.5096 B( 20-O , 21-O ) :   0.2550 B( 22-C , 23-C ) :   1.1212
B( 22-C , 24-C ) :   1.5125 B( 23-C , 53-H ) :   0.9210 B( 23-C , 54-H ) :   0.9333
B( 23-C , 55-H ) :   0.9288 B( 24-C , 25-S ) :   1.0902 B( 24-C , 26-C ) :   1.1225
B( 26-C , 27-C ) :   1.6516 B( 26-C , 56-H ) :   0.9512 B( 27-C , 28-C ) :   1.1181
B( 27-C , 57-H ) :   0.9837 B( 28-C , 29-C ) :   1.6270 B( 28-C , 58-H ) :   0.9964
B( 29-C , 30-C ) :   1.1459 B( 29-C , 59-H ) :   0.9647 B( 30-C , 31-O ) :   1.1844
B( 30-C , 34-C ) :   1.4662 B( 31-O , 32-C ) :   1.0808 B( 32-C , 33-C ) :   1.3799
B( 32-C , 41-C ) :   1.1165 B( 33-C , 34-C ) :   1.2529 B( 33-C , 39-O ) :   1.2320
B( 34-C , 35-C ) :   0.9333 B( 35-C , 36-F ) :   1.1433 B( 35-C , 37-F ) :   1.1900
B( 35-C , 38-F ) :   1.1902 B( 39-O , 40-C ) :   0.9471 B( 40-C , 60-H ) :   0.9763
B( 40-C , 61-H ) :   0.9675 B( 40-C , 62-H ) :   0.9678 B( 41-C , 42-C ) :   1.9237
B( 41-C , 63-H ) :   0.9562 B( 42-C , 64-H ) :   0.9586 B( 42-C , 65-H ) :   0.9423

-----------------------------------------------------------------------------
         ABSORPTION SPECTRUM VIA TRANSITION ELECTRIC DIPOLE MOMENTS
-----------------------------------------------------------------------------
State   Energy  Wavelength   fosc         T2         TX        TY        TZ
        (cm-1)    (nm)                  (au**2)     (au)      (au)      (au)
-----------------------------------------------------------------------------
   0   18931.5    528.2   1.884030500  32.76262  -0.90717  -5.59027   0.82977
   1   24833.6    402.7   0.650039217   8.61738   1.99017   1.77690   1.22444
   2   25640.4    390.0   0.068956562   0.88537  -0.32232   0.69725  -0.54344
   3   30211.5    331.0   0.154422557   1.68273  -0.45396   0.97227  -0.72893
   4   30945.1    323.2   0.081225206   0.86412   0.46005   0.80750   0.02037
   5   32791.4    305.0   0.132762206   1.33288   0.44433   1.06205   0.08656
   6   34155.9    292.8   0.088420825   0.85224   0.73868   0.44354   0.33147
   7   36844.7    271.4   0.053638911   0.47927  -0.07584  -0.68782   0.02041
   8   37470.2    266.9   0.102885688   0.90395  -0.76749  -0.12659  -0.54670
   9   38142.0    262.2   0.004546235   0.03924  -0.02427  -0.16424  -0.10806
  10   39418.6    253.7   0.120682489   1.00790   0.40042  -0.69746   0.60093
  11   40179.6    248.9   0.039509554   0.32372  -0.21683  -0.51834  -0.08960

FINAL SINGLE POINT ENERGY     -2619.355701754750

DIPOLE MOMENT
-------------
                                X             Y             Z
Electronic contribution:     19.88538      21.85017       5.14116
Nuclear contribution   :    -21.95149     -20.95981      -6.91164
                        -----------------------------------------
Total Dipole Moment    :     -2.06611       0.89037      -1.77049
                        -----------------------------------------
Magnitude (a.u.)       :      2.86290
Magnitude (Debye)      :      7.27691

Rotational constants in cm-1:     0.005399     0.000411     0.000385
Rotational constants in MHz :   161.846502    12.331532    11.528305

                             ****ORCA TERMINATED NORMALLY****
TOTAL RUN TIME: 0 days 0 hours 3 minutes 36 seconds 535 msec
