                         Program Version 4.2.0 -  RELEASE  -
|  1> # ORCA input file
|  2> # SCF done       -175.495167233833          0.000657885592
|  3> ! CAM-B3LYP def2-SVP def2/J RIJCOSX Grid4 TightSCF
|  4> %maxcore 5000
|  5> %tddft
|  6>     Mode sTDDFT
|  7>     Ethresh 5.0
|  8>     maxcore 5000
|  9> end
| 10>
| 11> %pal
| 12>   nprocs 6
| 13>   end
| 14> * xyz 0 1
| 15>    C       -6.61512         1.01730        -2.95920
| 16>    C       -5.45174         0.33121        -2.63767
| 17>    N       -5.29072        -0.85170        -1.94700
| 18>    C       -6.40404        -1.63045        -1.46731
| 19>    C       -6.89776        -1.15545        -0.10297
| 20>    C       -3.95391        -1.13598        -1.86606
| 21>    C       -3.22539        -0.12812        -2.55531
| 22>    C       -4.18850         0.82189        -3.03293
| 23>    C       -4.08951         2.00245        -3.75701
| 24>    C       -5.25044         2.67874        -4.07413
| 25>    C       -6.49408         2.19017        -3.67971
| 26>    C       -1.84977        -0.20170        -2.69132
| 27>    C       -1.19018        -1.29654        -2.15857
| 28>    C       -1.89171        -2.28638        -1.49437
| 29>    C       -3.27907        -2.23516        -1.30260
| 30>    C       -3.92109        -3.24992        -0.50164
| 31>    C       -3.54817        -4.55000        -0.52897
| 32>    C       -4.02223        -5.63849         0.25475
| 33>    S       -3.45129        -7.20564        -0.26471
| 34>    C       -4.23053        -8.03593         1.04999
| 35>    C       -4.87471        -7.12602         1.87150
| 36>    C       -4.77961        -5.77964         1.41735
| 37>    N       -5.42458        -4.76827         2.16887
| 38>    O       -5.78626        -3.75024         1.60231
| 39>    O       -5.60539        -4.99043         3.35078
| 40>    C       -5.59693        -7.54758         3.00452
| 41>    N       -6.17843        -7.99352         3.88680
| 42>    C       -4.20663        -9.44645         1.19987
| 43>    C       -3.65807       -10.28602         0.29153
| 44>    C       -3.65245       -11.70332         0.38121
| 45>    S       -3.05602       -12.62104        -0.99613
| 46>    C       -3.40616       -14.08931        -0.18445
| 47>    N       -3.27184       -15.35611        -0.56449
| 48>    C       -3.66555       -16.16793         0.36884
| 49>    S       -4.27245       -15.37855         1.84709
| 50>    C       -3.94357       -13.86272         1.09691
| 51>    C       -4.08448       -12.51429         1.41380
| 52>    C       -3.66798       -17.57986         0.24057
| 53>    S       -4.57740       -18.58219         1.33182
| 54>    C       -4.19285       -20.02021         0.43359
| 55>    C       -3.40768       -19.71424        -0.67345
| 56>    C       -3.09892       -18.33742        -0.76554
| 57>    N       -2.22789       -17.82486        -1.79007
| 58>    O       -1.33098       -17.09584        -1.44129
| 59>    O       -2.44123       -18.20617        -2.91773
| 60>    C       -2.96478       -20.70137        -1.57235
| 61>    N       -2.63361       -21.54732        -2.27146
| 62>    C       -4.64277       -21.31415         0.80794
| 63>    C       -5.37912       -21.57701         1.90537
| 64>    C       -5.77735       -22.90561         2.33180
| 65>    C       -6.37088       -23.91419         1.55058
| 66>    N       -6.98307       -23.88132         0.31882
| 67>    C       -7.21657       -22.69210        -0.46652
| 68>    C       -6.40478       -22.66155        -1.76072
| 69>    C       -7.47190       -25.14546         0.02323
| 70>    C       -7.13948       -26.01660         1.08743
| 71>    C       -6.48350       -25.22389         2.08289
| 72>    C       -6.06286       -25.53319         3.36618
| 73>    C       -5.56654       -24.51601         4.15942
| 74>    C       -5.44727       -23.23383         3.65181
| 75>    C       -7.46334       -27.36588         1.06465
| 76>    C       -8.12326       -27.85612        -0.04102
| 77>    C       -8.46812       -27.00472        -1.08186
| 78>    C       -8.17504       -25.64250        -1.08576
| 79>    C       -8.65920       -24.85781        -2.22830
| 80>    C       -8.57408       -25.26565        -3.48690
| 81>    H       -7.58813         0.65871        -2.66048
| 82>    H       -6.10476        -2.67997        -1.42022
| 83>    H       -7.21180        -1.54252        -2.20123
| 84>    H       -6.12213        -1.25880         0.65045
| 85>    H       -7.74936        -1.75306         0.20822
| 86>    H       -7.19622        -0.11078        -0.15145
| 87>    H       -3.12532         2.37999        -4.06169
| 88>    H       -5.19940         3.59998        -4.63473
| 89>    H       -7.38459         2.74187        -3.94228
| 90>    H       -1.30925         0.57640        -3.20764
| 91>    H       -0.11789        -1.37821        -2.25106
| 92>    H       -1.34670        -3.10839        -1.05508
| 93>    H       -4.70580        -2.93258         0.16625
| 94>    H       -2.81725        -4.85338        -1.26982
| 95>    H       -4.68940        -9.82702         2.08894
| 96>    H       -3.20460        -9.86994        -0.59951
| 97>    H       -4.47576       -12.14677         2.34357
| 98>    H       -4.34110       -22.11895         0.15264
| 99>    H       -5.58133       -20.76832         2.60039
|100>    H       -6.96752       -21.83089         0.15463
|101>    H       -8.28344       -22.62538        -0.69706
|102>    H       -5.34432       -22.79201        -1.56684
|103>    H       -6.54754       -21.70674        -2.25965
|104>    H       -6.72262       -23.45461        -2.43134
|105>    H       -6.15089       -26.54083         3.74112
|106>    H       -5.26152       -24.71612         5.17494
|107>    H       -5.02777       -22.45754         4.27531
|108>    H       -7.19861       -28.00543         1.89213
|109>    H       -8.38780       -28.90092        -0.10018
|110>    H       -9.01744       -27.40384        -1.92132
|111>    H       -9.15832       -23.92414        -2.00931
|112>    H       -8.07781       -26.18343        -3.75516
|113>    H       -8.97896       -24.68527        -4.29830
|114> *
|115>
|116>                          ****END OF INPUT****

CARTESIAN COORDINATES (ANGSTROEM)
---------------------------------
  C     -6.615120    1.017300   -2.959200
  C     -5.451740    0.331210   -2.637670
  N     -5.290720   -0.851700   -1.947000
  C     -6.404040   -1.630450   -1.467310
  C     -6.897760   -1.155450   -0.102970
  C     -3.953910   -1.135980   -1.866060
  C     -3.225390   -0.128120   -2.555310
  C     -4.188500    0.821890   -3.032930
  C     -4.089510    2.002450   -3.757010
  C     -5.250440    2.678740   -4.074130
  C     -6.494080    2.190170   -3.679710
  C     -1.849770   -0.201700   -2.691320
  C     -1.190180   -1.296540   -2.158570
  C     -1.891710   -2.286380   -1.494370
  C     -3.279070   -2.235160   -1.302600
  C     -3.921090   -3.249920   -0.501640
  C     -3.548170   -4.550000   -0.528970
  C     -4.022230   -5.638490    0.254750
  S     -3.451290   -7.205640   -0.264710
  C     -4.230530   -8.035930    1.049990
  C     -4.874710   -7.126020    1.871500
  C     -4.779610   -5.779640    1.417350
  N     -5.424580   -4.768270    2.168870
  O     -5.786260   -3.750240    1.602310
  O     -5.605390   -4.990430    3.350780
  C     -5.596930   -7.547580    3.004520
  N     -6.178430   -7.993520    3.886800
  C     -4.206630   -9.446450    1.199870
  C     -3.658070  -10.286020    0.291530
  C     -3.652450  -11.703320    0.381210
  S     -3.056020  -12.621040   -0.996130
  C     -3.406160  -14.089310   -0.184450
  N     -3.271840  -15.356110   -0.564490
  C     -3.665550  -16.167930    0.368840
  S     -4.272450  -15.378550    1.847090
  C     -3.943570  -13.862720    1.096910
  C     -4.084480  -12.514290    1.413800
  C     -3.667980  -17.579860    0.240570
  S     -4.577400  -18.582190    1.331820
  C     -4.192850  -20.020210    0.433590
  C     -3.407680  -19.714240   -0.673450
  C     -3.098920  -18.337420   -0.765540
  N     -2.227890  -17.824860   -1.790070
  O     -1.330980  -17.095840   -1.441290
  O     -2.441230  -18.206170   -2.917730
  C     -2.964780  -20.701370   -1.572350
  N     -2.633610  -21.547320   -2.271460
  C     -4.642770  -21.314150    0.807940
  C     -5.379120  -21.577010    1.905370
  C     -5.777350  -22.905610    2.331800
  C     -6.370880  -23.914190    1.550580
  N     -6.983070  -23.881320    0.318820
  C     -7.216570  -22.692100   -0.466520
  C     -6.404780  -22.661550   -1.760720
  C     -7.471900  -25.145460    0.023230
  C     -7.139480  -26.016600    1.087430
  C     -6.483500  -25.223890    2.082890
  C     -6.062860  -25.533190    3.366180
  C     -5.566540  -24.516010    4.159420
  C     -5.447270  -23.233830    3.651810
  C     -7.463340  -27.365880    1.064650
  C     -8.123260  -27.856120   -0.041020
  C     -8.468120  -27.004720   -1.081860
  C     -8.175040  -25.642500   -1.085760
  C     -8.659200  -24.857810   -2.228300
  C     -8.574080  -25.265650   -3.486900
  H     -7.588130    0.658710   -2.660480
  H     -6.104760   -2.679970   -1.420220
  H     -7.211800   -1.542520   -2.201230
  H     -6.122130   -1.258800    0.650450
  H     -7.749360   -1.753060    0.208220
  H     -7.196220   -0.110780   -0.151450
  H     -3.125320    2.379990   -4.061690
  H     -5.199400    3.599980   -4.634730
  H     -7.384590    2.741870   -3.942280
  H     -1.309250    0.576400   -3.207640
  H     -0.117890   -1.378210   -2.251060
  H     -1.346700   -3.108390   -1.055080
  H     -4.705800   -2.932580    0.166250
  H     -2.817250   -4.853380   -1.269820
  H     -4.689400   -9.827020    2.088940
  H     -3.204600   -9.869940   -0.599510
  H     -4.475760  -12.146770    2.343570
  H     -4.341100  -22.118950    0.152640
  H     -5.581330  -20.768320    2.600390
  H     -6.967520  -21.830890    0.154630
  H     -8.283440  -22.625380   -0.697060
  H     -5.344320  -22.792010   -1.566840
  H     -6.547540  -21.706740   -2.259650
  H     -6.722620  -23.454610   -2.431340
  H     -6.150890  -26.540830    3.741120
  H     -5.261520  -24.716120    5.174940
  H     -5.027770  -22.457540    4.275310
  H     -7.198610  -28.005430    1.892130
  H     -8.387800  -28.900920   -0.100180
  H     -9.017440  -27.403840   -1.921320
  H     -9.158320  -23.924140   -2.009310
  H     -8.077810  -26.183430   -3.755160
  H     -8.978960  -24.685270   -4.298300

 Total Charge           Charge          ....    0
 Multiplicity           Mult            ....    1
 Number of Electrons    NEL             ....  484
 Basis Dimension        Dim             .... 1105

ORBITAL ENERGIES
----------------

  NO   OCC          E(Eh)            E(eV)
   0   2.0000     -88.999962     -2421.8121
   1   2.0000     -88.991030     -2421.5690
   2   2.0000     -88.984677     -2421.3962
   3   2.0000     -88.975436     -2421.1447
   4   2.0000     -19.251356      -523.8560
   5   2.0000     -19.250544      -523.8339
   6   2.0000     -19.248013      -523.7651
   7   2.0000     -19.246737      -523.7303
   8   2.0000     -14.659619      -398.9085
   9   2.0000     -14.655347      -398.7923
  10   2.0000     -14.455322      -393.3493
  11   2.0000     -14.452967      -393.2852
  12   2.0000     -14.436012      -392.8239
  13   2.0000     -14.414624      -392.2419
  14   2.0000     -14.407149      -392.0385
  15   2.0000     -10.366598      -282.0895
  16   2.0000     -10.354532      -281.7612
  17   2.0000     -10.352685      -281.7109
  18   2.0000     -10.350176      -281.6426
  19   2.0000     -10.349922      -281.6357
  20   2.0000     -10.347587      -281.5722
  21   2.0000     -10.342173      -281.4248
  22   2.0000     -10.341853      -281.4161
  23   2.0000     -10.338018      -281.3118
  24   2.0000     -10.333429      -281.1869
  25   2.0000     -10.326983      -281.0115
  26   2.0000     -10.321900      -280.8732
  27   2.0000     -10.315626      -280.7025
  28   2.0000     -10.314297      -280.6663
  29   2.0000     -10.312392      -280.6145
  30   2.0000     -10.312044      -280.6050
  31   2.0000     -10.311296      -280.5846
  32   2.0000     -10.310699      -280.5684
  33   2.0000     -10.309031      -280.5230
  34   2.0000     -10.307722      -280.4874
  35   2.0000     -10.306945      -280.4662
  36   2.0000     -10.306571      -280.4561
  37   2.0000     -10.303772      -280.3799
  38   2.0000     -10.301506      -280.3182
  39   2.0000     -10.300514      -280.2912
  40   2.0000     -10.297046      -280.1969
  41   2.0000     -10.295774      -280.1622
  42   2.0000     -10.287962      -279.9497
  43   2.0000     -10.282764      -279.8082
  44   2.0000     -10.276842      -279.6471
  45   2.0000     -10.275441      -279.6090
  46   2.0000     -10.274907      -279.5944
  47   2.0000     -10.274160      -279.5741
  48   2.0000     -10.274123      -279.5731
  49   2.0000     -10.273571      -279.5581
  50   2.0000     -10.268025      -279.4072
  51   2.0000     -10.267930      -279.4046
  52   2.0000     -10.267860      -279.4027
  53   2.0000     -10.267739      -279.3994
  54   2.0000     -10.267027      -279.3800
  55   2.0000     -10.265923      -279.3500
  56   2.0000     -10.265246      -279.3315
  57   2.0000     -10.264323      -279.3064
  58   2.0000     -10.263779      -279.2916
  59   2.0000     -10.263714      -279.2899
  60   2.0000     -10.263576      -279.2861
  61   2.0000     -10.262609      -279.2598
  62   2.0000     -10.259055      -279.1631
  63   2.0000     -10.258788      -279.1558
  64   2.0000     -10.258788      -279.1558
  65   2.0000     -10.256618      -279.0968
  66   2.0000      -8.095266      -220.2834
  67   2.0000      -8.086646      -220.0488
  68   2.0000      -8.080270      -219.8753
  69   2.0000      -8.071424      -219.6346
  70   2.0000      -6.064589      -165.0259
  71   2.0000      -6.060508      -164.9148
  72   2.0000      -6.057211      -164.8251
  73   2.0000      -6.055924      -164.7901
  74   2.0000      -6.051834      -164.6788
  75   2.0000      -6.049612      -164.6183
  76   2.0000      -6.048617      -164.5912
  77   2.0000      -6.045749      -164.5132
  78   2.0000      -6.041928      -164.4092
  79   2.0000      -6.040680      -164.3753
  80   2.0000      -6.036838      -164.2707
  81   2.0000      -6.033125      -164.1697
  82   2.0000      -1.330892       -36.2154
  83   2.0000      -1.330085       -36.1935
  84   2.0000      -1.150093       -31.2956
  85   2.0000      -1.148581       -31.2545
  86   2.0000      -1.095254       -29.8034
  87   2.0000      -1.084395       -29.5079
  88   2.0000      -1.082337       -29.4519
  89   2.0000      -1.037099       -28.2209
  90   2.0000      -1.032058       -28.0837
  91   2.0000      -0.996901       -27.1271
  92   2.0000      -0.991643       -26.9840
  93   2.0000      -0.988837       -26.9076
  94   2.0000      -0.955291       -25.9948
  95   2.0000      -0.951911       -25.9028
  96   2.0000      -0.945841       -25.7377
  97   2.0000      -0.941856       -25.6292
  98   2.0000      -0.938302       -25.5325
  99   2.0000      -0.933078       -25.3904
 100   2.0000      -0.924897       -25.1677
 101   2.0000      -0.918867       -25.0036
 102   2.0000      -0.908444       -24.7200
 103   2.0000      -0.903953       -24.5978
 104   2.0000      -0.896289       -24.3893
 105   2.0000      -0.885711       -24.1014
 106   2.0000      -0.879614       -23.9355
 107   2.0000      -0.869283       -23.6544
 108   2.0000      -0.866265       -23.5723
 109   2.0000      -0.844074       -22.9684
 110   2.0000      -0.842496       -22.9255
 111   2.0000      -0.836784       -22.7701
 112   2.0000      -0.835349       -22.7310
 113   2.0000      -0.831639       -22.6301
 114   2.0000      -0.827552       -22.5188
 115   2.0000      -0.808672       -22.0051
 116   2.0000      -0.805171       -21.9098
 117   2.0000      -0.802578       -21.8393
 118   2.0000      -0.796520       -21.6744
 119   2.0000      -0.793596       -21.5949
 120   2.0000      -0.770052       -20.9542
 121   2.0000      -0.760566       -20.6961
 122   2.0000      -0.747876       -20.3508
 123   2.0000      -0.742399       -20.2017
 124   2.0000      -0.733379       -19.9563
 125   2.0000      -0.729237       -19.8436
 126   2.0000      -0.719871       -19.5887
 127   2.0000      -0.709009       -19.2931
 128   2.0000      -0.707140       -19.2423
 129   2.0000      -0.700669       -19.0662
 130   2.0000      -0.695766       -18.9327
 131   2.0000      -0.687335       -18.7033
 132   2.0000      -0.682664       -18.5762
 133   2.0000      -0.680376       -18.5140
 134   2.0000      -0.668968       -18.2035
 135   2.0000      -0.663901       -18.0657
 136   2.0000      -0.661838       -18.0095
 137   2.0000      -0.657313       -17.8864
 138   2.0000      -0.652322       -17.7506
 139   2.0000      -0.648842       -17.6559
 140   2.0000      -0.641751       -17.4629
 141   2.0000      -0.640196       -17.4206
 142   2.0000      -0.633359       -17.2346
 143   2.0000      -0.629322       -17.1247
 144   2.0000      -0.625488       -17.0204
 145   2.0000      -0.616599       -16.7785
 146   2.0000      -0.606517       -16.5042
 147   2.0000      -0.606105       -16.4929
 148   2.0000      -0.603515       -16.4225
 149   2.0000      -0.602219       -16.3872
 150   2.0000      -0.599458       -16.3121
 151   2.0000      -0.596869       -16.2416
 152   2.0000      -0.590166       -16.0592
 153   2.0000      -0.583166       -15.8687
 154   2.0000      -0.579534       -15.7699
 155   2.0000      -0.575297       -15.6546
 156   2.0000      -0.567936       -15.4543
 157   2.0000      -0.565003       -15.3745
 158   2.0000      -0.560415       -15.2497
 159   2.0000      -0.555927       -15.1275
 160   2.0000      -0.552890       -15.0449
 161   2.0000      -0.549590       -14.9551
 162   2.0000      -0.547609       -14.9012
 163   2.0000      -0.545782       -14.8515
 164   2.0000      -0.542743       -14.7688
 165   2.0000      -0.541237       -14.7278
 166   2.0000      -0.535657       -14.5760
 167   2.0000      -0.532372       -14.4866
 168   2.0000      -0.529491       -14.4082
 169   2.0000      -0.527782       -14.3617
 170   2.0000      -0.526550       -14.3282
 171   2.0000      -0.523325       -14.2404
 172   2.0000      -0.521371       -14.1872
 173   2.0000      -0.520161       -14.1543
 174   2.0000      -0.518909       -14.1202
 175   2.0000      -0.515373       -14.0240
 176   2.0000      -0.506500       -13.7826
 177   2.0000      -0.505981       -13.7684
 178   2.0000      -0.501440       -13.6449
 179   2.0000      -0.499271       -13.5859
 180   2.0000      -0.498614       -13.5680
 181   2.0000      -0.495965       -13.4959
 182   2.0000      -0.494652       -13.4602
 183   2.0000      -0.488657       -13.2970
 184   2.0000      -0.484220       -13.1763
 185   2.0000      -0.476175       -12.9574
 186   2.0000      -0.473871       -12.8947
 187   2.0000      -0.473012       -12.8713
 188   2.0000      -0.471393       -12.8273
 189   2.0000      -0.468687       -12.7536
 190   2.0000      -0.461986       -12.5713
 191   2.0000      -0.460293       -12.5252
 192   2.0000      -0.456309       -12.4168
 193   2.0000      -0.453101       -12.3295
 194   2.0000      -0.451456       -12.2847
 195   2.0000      -0.450586       -12.2611
 196   2.0000      -0.447071       -12.1654
 197   2.0000      -0.444986       -12.1087
 198   2.0000      -0.443443       -12.0667
 199   2.0000      -0.442520       -12.0416
 200   2.0000      -0.440952       -11.9989
 201   2.0000      -0.440131       -11.9766
 202   2.0000      -0.437696       -11.9103
 203   2.0000      -0.435572       -11.8525
 204   2.0000      -0.435313       -11.8455
 205   2.0000      -0.433077       -11.7846
 206   2.0000      -0.428740       -11.6666
 207   2.0000      -0.428574       -11.6621
 208   2.0000      -0.425873       -11.5886
 209   2.0000      -0.421225       -11.4621
 210   2.0000      -0.420928       -11.4540
 211   2.0000      -0.417913       -11.3720
 212   2.0000      -0.415147       -11.2967
 213   2.0000      -0.412018       -11.2116
 214   2.0000      -0.409263       -11.1366
 215   2.0000      -0.404515       -11.0074
 216   2.0000      -0.399934       -10.8828
 217   2.0000      -0.396333       -10.7848
 218   2.0000      -0.395797       -10.7702
 219   2.0000      -0.393508       -10.7079
 220   2.0000      -0.390477       -10.6254
 221   2.0000      -0.386400       -10.5145
 222   2.0000      -0.383497       -10.4355
 223   2.0000      -0.382662       -10.4128
 224   2.0000      -0.379336       -10.3223
 225   2.0000      -0.373478       -10.1628
 226   2.0000      -0.367707       -10.0058
 227   2.0000      -0.363984        -9.9045
 228   2.0000      -0.355856        -9.6833
 229   2.0000      -0.349759        -9.5174
 230   2.0000      -0.348703        -9.4887
 231   2.0000      -0.345416        -9.3993
 232   2.0000      -0.333089        -9.0638
 233   2.0000      -0.323375        -8.7995
 234   2.0000      -0.319088        -8.6828
 235   2.0000      -0.311472        -8.4756
 236   2.0000      -0.297590        -8.0978
 237   2.0000      -0.278269        -7.5721
 238   2.0000      -0.276055        -7.5118
 239   2.0000      -0.268433        -7.3044
 240   2.0000      -0.257226        -6.9995
 241   2.0000      -0.249855        -6.7989
 242   0.0000      -0.092687        -2.5221
 243   0.0000      -0.071900        -1.9565
 244   0.0000      -0.056647        -1.5414
 245   0.0000      -0.042161        -1.1473
 246   0.0000      -0.011239        -0.3058

MULLIKEN ATOMIC CHARGES
-----------------------
   0 C :   -0.079238
   1 C :    0.135720
   2 N :   -0.180086
   3 C :    0.074110
   4 C :    0.023111
   5 C :    0.107245
   6 C :    0.057875
   7 C :    0.069877
   8 C :   -0.050845
   9 C :    0.028019
  10 C :    0.025434
  11 C :   -0.041685
  12 C :    0.026779
  13 C :   -0.033861
  14 C :    0.020615
  15 C :   -0.040047
  16 C :    0.012917
  17 C :   -0.152258
  18 S :    0.152503
  19 C :   -0.055534
  20 C :   -0.082974
  21 C :    0.224381
  22 N :    0.266683
  23 O :   -0.251735
  24 O :   -0.216781
  25 C :   -0.225184
  26 N :    0.146015
  27 C :   -0.000370
  28 C :    0.051782
  29 C :   -0.097335
  30 S :    0.165615
  31 C :   -0.078782
  32 N :   -0.015544
  33 C :   -0.132120
  34 S :    0.132266
  35 C :    0.016420
  36 C :   -0.036618
  37 C :   -0.099051
  38 S :    0.170968
  39 C :   -0.056720
  40 C :   -0.056438
  41 C :    0.219111
  42 N :    0.246019
  43 O :   -0.205625
  44 O :   -0.216387
  45 C :   -0.231567
  46 N :    0.162610
  47 C :    0.008426
  48 C :   -0.066980
  49 C :   -0.001175
  50 C :    0.120109
  51 N :   -0.192484
  52 C :    0.102437
  53 C :    0.010430
  54 C :    0.117543
  55 C :    0.063864
  56 C :    0.052913
  57 C :   -0.040970
  58 C :    0.026656
  59 C :   -0.016407
  60 C :   -0.049792
  61 C :    0.035266
  62 C :   -0.042942
  63 C :    0.009636
  64 C :   -0.071174
  65 C :   -0.002579
  66 H :   -0.039311
  67 H :    0.034316
  68 H :    0.021696
  69 H :    0.036996
  70 H :    0.026506
  71 H :    0.016759
  72 H :   -0.034447
  73 H :   -0.021816
  74 H :   -0.016430
  75 H :   -0.028650
  76 H :   -0.020500
  77 H :   -0.024353
  78 H :    0.032831
  79 H :   -0.007616
  80 H :    0.016536
  81 H :   -0.002887
  82 H :    0.002435
  83 H :    0.025953
  84 H :    0.012678
  85 H :    0.028671
  86 H :    0.013780
  87 H :    0.017738
  88 H :    0.020348
  89 H :    0.031522
  90 H :   -0.029273
  91 H :   -0.020484
  92 H :   -0.028824
  93 H :   -0.033812
  94 H :   -0.023054
  95 H :   -0.024357
  96 H :    0.008100
  97 H :    0.024899
  98 H :    0.021980
Sum of atomic charges:   -0.0000000

LOEWDIN ATOMIC CHARGES
----------------------
   0 C :   -0.058625
   1 C :    0.030177
   2 N :    0.026392
   3 C :    0.039393
   4 C :   -0.058962
   5 C :    0.042582
   6 C :   -0.041955
   7 C :   -0.043287
   8 C :   -0.011202
   9 C :   -0.044531
  10 C :   -0.018277
  11 C :   -0.000432
  12 C :   -0.048392
  13 C :   -0.009074
  14 C :   -0.067583
  15 C :    0.031232
  16 C :   -0.081733
  17 C :   -0.117954
  18 S :    0.475747
  19 C :   -0.136440
  20 C :   -0.095088
  21 C :   -0.066801
  22 N :    0.290268
  23 O :   -0.207745
  24 O :   -0.173960
  25 C :   -0.040901
  26 N :   -0.047981
  27 C :   -0.035078
  28 C :   -0.029175
  29 C :   -0.158680
  30 S :    0.450354
  31 C :   -0.190365
  32 N :   -0.080425
  33 C :   -0.143040
  34 S :    0.401742
  35 C :   -0.210181
  36 C :   -0.056094
  37 C :   -0.184645
  38 S :    0.474434
  39 C :   -0.120240
  40 C :   -0.100570
  41 C :   -0.022102
  42 N :    0.280722
  43 O :   -0.173517
  44 O :   -0.180202
  45 C :   -0.036952
  46 N :   -0.035127
  47 C :   -0.052459
  48 C :    0.010921
  49 C :   -0.067055
  50 C :    0.037862
  51 N :    0.020469
  52 C :    0.037350
  53 C :   -0.062866
  54 C :    0.034641
  55 C :   -0.040602
  56 C :   -0.039783
  57 C :   -0.002144
  58 C :   -0.045969
  59 C :   -0.009704
  60 C :   -0.012706
  61 C :   -0.042083
  62 C :   -0.011739
  63 C :   -0.053542
  64 C :   -0.020433
  65 C :   -0.040284
  66 H :    0.025252
  67 H :    0.031307
  68 H :    0.027595
  69 H :    0.027398
  70 H :    0.032740
  71 H :    0.025919
  72 H :    0.026759
  73 H :    0.025718
  74 H :    0.027888
  75 H :    0.029370
  76 H :    0.027436
  77 H :    0.026589
  78 H :    0.027758
  79 H :    0.029067
  80 H :    0.043052
  81 H :    0.024969
  82 H :    0.037784
  83 H :    0.044089
  84 H :    0.026084
  85 H :    0.028299
  86 H :    0.022360
  87 H :    0.024892
  88 H :    0.031170
  89 H :    0.030462
  90 H :    0.029148
  91 H :    0.027649
  92 H :    0.026897
  93 H :    0.026898
  94 H :    0.026673
  95 H :    0.027853
  96 H :    0.026571
  97 H :    0.024063
  98 H :    0.024689

  Mayer bond orders larger than 0.100000
B(  0-C ,  1-C ) :   1.3078 B(  0-C , 10-C ) :   1.3983 B(  0-C , 66-H ) :   1.0044
B(  1-C ,  2-N ) :   1.1050 B(  1-C ,  7-C ) :   1.3085 B(  2-N ,  3-C ) :   0.9567
B(  2-N ,  5-C ) :   1.1694 B(  3-C ,  4-C ) :   1.1156 B(  3-C , 67-H ) :   0.9402
B(  3-C , 68-H ) :   0.9395 B(  4-C , 69-H ) :   0.9591 B(  4-C , 70-H ) :   0.9651
B(  4-C , 71-H ) :   0.9605 B(  5-C ,  6-C ) :   1.2690 B(  5-C , 14-C ) :   1.2809
B(  6-C ,  7-C ) :   1.0797 B(  6-C , 11-C ) :   1.3573 B(  7-C ,  8-C ) :   1.3383
B(  8-C ,  9-C ) :   1.4073 B(  8-C , 72-H ) :   0.9975 B(  9-C , 10-C ) :   1.3516
B(  9-C , 73-H ) :   0.9865 B( 10-C , 74-H ) :   0.9848 B( 11-C , 12-C ) :   1.3603
B( 11-C , 75-H ) :   0.9998 B( 12-C , 13-C ) :   1.3683 B( 12-C , 76-H ) :   0.9855
B( 13-C , 14-C ) :   1.3737 B( 13-C , 77-H ) :   0.9878 B( 14-C , 15-C ) :   1.0293
B( 15-C , 16-C ) :   1.7148 B( 15-C , 78-H ) :   0.9460 B( 16-C , 17-C ) :   1.1302
B( 16-C , 79-H ) :   0.9403 B( 17-C , 18-S ) :   1.1639 B( 17-C , 21-C ) :   1.4243
B( 18-S , 19-C ) :   1.0725 B( 19-C , 20-C ) :   1.5125 B( 19-C , 27-C ) :   1.1957
B( 20-C , 21-C ) :   1.2425 B( 20-C , 25-C ) :   1.1223 B( 21-C , 22-N ) :   0.9408
B( 22-N , 23-O ) :   1.4673 B( 22-N , 24-O ) :   1.5284 B( 23-O , 24-O ) :   0.2553
B( 25-C , 26-N ) :   2.9963 B( 27-C , 28-C ) :   1.6636 B( 27-C , 80-H ) :   0.9601
B( 28-C , 29-C ) :   1.1379 B( 28-C , 81-H ) :   0.9602 B( 29-C , 30-S ) :   1.1006
B( 29-C , 36-C ) :   1.4984 B( 30-S , 31-C ) :   1.1078 B( 31-C , 32-N ) :   1.4002
B( 31-C , 35-C ) :   1.3287 B( 32-N , 33-C ) :   1.7241 B( 32-N , 34-S ) :   0.1072
B( 33-C , 34-S ) :   1.0774 B( 33-C , 37-C ) :   1.0951 B( 34-S , 35-C ) :   1.0811
B( 35-C , 36-C ) :   1.2763 B( 36-C , 82-H ) :   0.9975 B( 37-C , 38-S ) :   1.1398
B( 37-C , 41-C ) :   1.5349 B( 38-S , 39-C ) :   1.1069 B( 39-C , 40-C ) :   1.4838
B( 39-C , 47-C ) :   1.1890 B( 40-C , 41-C ) :   1.2936 B( 40-C , 45-C ) :   1.1216
B( 41-C , 42-N ) :   0.8868 B( 42-N , 43-O ) :   1.5578 B( 42-N , 44-O ) :   1.5273
B( 43-O , 44-O ) :   0.2896 B( 45-C , 46-N ) :   2.9837 B( 47-C , 48-C ) :   1.7232
B( 47-C , 83-H ) :   0.9581 B( 48-C , 49-C ) :   1.0248 B( 48-C , 84-H ) :   0.9554
B( 49-C , 50-C ) :   1.2899 B( 49-C , 59-C ) :   1.3884 B( 50-C , 51-N ) :   1.1603
B( 50-C , 56-C ) :   1.2703 B( 51-N , 52-C ) :   0.9483 B( 51-N , 54-C ) :   1.1168
B( 52-C , 53-C ) :   1.0986 B( 52-C , 85-H ) :   0.9401 B( 52-C , 86-H ) :   0.9433
B( 53-C , 87-H ) :   0.9584 B( 53-C , 88-H ) :   0.9626 B( 53-C , 89-H ) :   0.9529
B( 54-C , 55-C ) :   1.2945 B( 54-C , 63-C ) :   1.3078 B( 55-C , 56-C ) :   1.0797
B( 55-C , 60-C ) :   1.3344 B( 56-C , 57-C ) :   1.3529 B( 57-C , 58-C ) :   1.3691
B( 57-C , 90-H ) :   0.9989 B( 58-C , 59-C ) :   1.3671 B( 58-C , 91-H ) :   0.9858
B( 59-C , 92-H ) :   0.9887 B( 60-C , 61-C ) :   1.3892 B( 60-C , 93-H ) :   0.9995
B( 61-C , 62-C ) :   1.3309 B( 61-C , 94-H ) :   0.9866 B( 62-C , 63-C ) :   1.4225
B( 62-C , 95-H ) :   0.9912 B( 63-C , 64-C ) :   0.9962 B( 64-C , 65-C ) :   1.9736
B( 64-C , 96-H ) :   0.9624 B( 65-C , 97-H ) :   0.9586 B( 65-C , 98-H ) :   0.9511

-----------------------------------------------------------------------------
         ABSORPTION SPECTRUM VIA TRANSITION ELECTRIC DIPOLE MOMENTS
-----------------------------------------------------------------------------
State   Energy  Wavelength   fosc         T2         TX        TY        TZ
        (cm-1)    (nm)                  (au**2)     (au)      (au)      (au)
-----------------------------------------------------------------------------
   0   19515.6    512.4   2.250193394  37.95884   0.41549   6.11200  -0.65546
   1   21776.5    459.2   0.073432771   1.11014  -0.22917  -0.14579  -1.01802
   2   23823.8    419.7   0.219803609   3.03738   0.90656  -1.13802  -0.95940
   3   25944.5    385.4   0.025550058   0.32421  -0.32773  -0.32942   0.32906
   4   27127.9    368.6   0.013811733   0.16761  -0.17927  -0.06141  -0.36291
   5   27952.4    357.8   0.034388130   0.40501   0.38672  -0.11871  -0.49129
   6   28156.3    355.2   0.075161418   0.87881   0.72812  -0.35509  -0.47177
   7   28892.3    346.1   0.072593991   0.82717   0.56107   0.16098  -0.69746
   8   29633.5    337.5   0.320748346   3.56334  -0.15657  -1.88034   0.05628
   9   31572.7    316.7   0.015864051   0.16542  -0.32057  -0.23002  -0.09871
  10   32036.6    312.1   0.018793219   0.19312  -0.35740   0.16390   0.19628
  11   32775.2    305.1   0.026257877   0.26375   0.22990   0.23767  -0.39294
  12   33075.5    302.3   0.041022981   0.40832   0.34726  -0.07952  -0.53048
  13   33559.3    298.0   0.105095827   1.03098   0.46881   0.64069  -0.63302
  14   33994.6    294.2   0.038332985   0.37123  -0.28859  -0.35464   0.40271
  15   34778.3    287.5   0.026827876   0.25395   0.22661   0.28437  -0.34890
  16   35240.8    283.8   0.003598162   0.03361  -0.08163  -0.16414   0.00317
  17   35586.6    281.0   0.015657145   0.14484  -0.24575  -0.06013  -0.28431
  18   36038.4    277.5   0.084460227   0.77155   0.50694   0.61283  -0.37282
  19   36589.6    273.3   0.229212619   2.06232  -0.23068  -0.87777   1.11294
  20   36986.2    270.4   0.061682770   0.54903   0.12929  -0.18521   0.70570
  21   37207.6    268.8   0.080827457   0.71516   0.68914   0.32768  -0.36453
  22   37389.3    267.5   0.013953142   0.12286  -0.09109   0.28503  -0.18252
  23   38338.6    260.8   0.079225084   0.68030   0.25974  -0.21816  -0.75183
  24   38420.7    260.3   0.025965486   0.22249   0.06765   0.27811  -0.37492
  25   39066.0    256.0   0.059735992   0.50340  -0.45102  -0.44967   0.31269
  26   39499.7    253.2   0.120258016   1.00230   0.47694  -0.84832  -0.23488
  27   39609.5    252.5   0.215048883   1.78737  -0.14860  -1.22605   0.51195
  28   39845.9    251.0   0.011660627   0.09634  -0.12248   0.12420   0.25674
  29   40047.5    249.7   0.076282169   0.62708  -0.09176   0.70238  -0.35402
  30   40308.2    248.1   0.059067473   0.48243  -0.59674   0.35190  -0.04990

FINAL SINGLE POINT ENERGY     -4236.165990178220

DIPOLE MOMENT
-------------
                                X             Y             Z
Electronic contribution:     30.13154      -0.39894      17.95153
Nuclear contribution   :    -31.15268       0.67579     -17.95466
                        -----------------------------------------
Total Dipole Moment    :     -1.02114       0.27685      -0.00313
                        -----------------------------------------
Magnitude (a.u.)       :      1.05801
Magnitude (Debye)      :      2.68925

Rotational constants in cm-1:     0.002813     0.000198     0.000196
Rotational constants in MHz :    84.325146     5.938096     5.884426

                             ****ORCA TERMINATED NORMALLY****
TOTAL RUN TIME: 0 days 0 hours 12 minutes 12 seconds 968 msec
