                         Program Version 4.2.0 -  RELEASE  -
|  1> # ORCA input file
|  2> # SCF done       -179.078333875777          0.000848397071
|  3> ! CAM-B3LYP def2-SVP def2/J RIJCOSX Grid4 TightSCF
|  4> %maxcore 5000
|  5> %tddft
|  6>     Mode sTDDFT
|  7>     Ethresh 5.0
|  8>     maxcore 5000
|  9> end
| 10>
| 11> %pal
| 12>   nprocs 6
| 13>   end
| 14> * xyz 0 1
| 15>    C       -8.15854         0.21310        -3.57763
| 16>    C       -7.22700        -0.24265        -2.65494
| 17>    N       -6.62684        -1.48159        -2.55019
| 18>    C       -7.00057        -2.58918        -3.39419
| 19>    C       -6.23439        -2.60597        -4.71553
| 20>    C       -5.75801        -1.46198        -1.49208
| 21>    C       -5.82731        -0.18824        -0.86344
| 22>    C       -6.75433         0.59871        -1.62554
| 23>    C       -7.22003         1.90188        -1.51509
| 24>    C       -8.14669         2.34890        -2.43583
| 25>    C       -8.60732         1.51412        -3.45135
| 26>    C       -5.10530         0.08616         0.28433
| 27>    C       -4.31613        -0.91625         0.82601
| 28>    C       -4.23786        -2.15613         0.22114
| 29>    C       -4.92345        -2.46764        -0.96285
| 30>    C       -4.69724        -3.72511        -1.62341
| 31>    C       -4.37436        -4.87867        -0.98942
| 32>    C       -4.17869        -6.16403        -1.56038
| 33>    S       -4.02692        -7.46566        -0.40901
| 34>    C       -4.01570        -8.69051        -1.64688
| 35>    C       -4.11732        -8.10285        -2.89891
| 36>    C       -4.19107        -6.68547        -2.85863
| 37>    N       -4.24354        -5.97398        -4.08458
| 38>    O       -3.84409        -4.82332        -4.11671
| 39>    O       -4.67676        -6.57132        -5.05035
| 40>    C       -4.09013        -8.87389        -4.07972
| 41>    N       -4.02787        -9.57149        -4.98679
| 42>    C       -3.95770       -10.07802        -1.36661
| 43>    C       -3.83078       -10.59393        -0.12182
| 44>    C       -3.85591       -11.99311         0.15566
| 45>    N       -3.68433       -12.37753         1.41027
| 46>    N       -3.79694       -13.61193         1.81135
| 47>    C       -4.11187       -14.60812         1.00730
| 48>    C       -4.20228       -14.35908        -0.39228
| 49>    C       -4.06987       -13.00067        -0.83831
| 50>    N       -4.12394       -13.02067        -2.15451
| 51>    O       -4.26497       -14.29517        -2.49929
| 52>    N       -4.31190       -15.11939        -1.46278
| 53>    C       -4.32777       -15.90833         1.57696
| 54>    S       -3.37647       -16.43995         2.91881
| 55>    C       -4.17211       -17.99092         2.94977
| 56>    C       -5.14311       -18.06627         1.95659
| 57>    C       -5.22954       -16.88026         1.18711
| 58>    N       -6.24755       -16.69202         0.20332
| 59>    O       -6.59886       -15.55027        -0.02067
| 60>    O       -6.70947       -17.68254        -0.31335
| 61>    C       -5.96748       -19.19573         1.79888
| 62>    N       -6.61216       -20.14206         1.74542
| 63>    C       -3.84179       -19.01572         3.87616
| 64>    C       -2.85584       -18.90310         4.79180
| 65>    C       -2.53577       -19.90731         5.77900
| 66>    C       -1.24157       -20.16071         6.27323
| 67>    N       -0.01456       -19.70041         5.86536
| 68>    C        0.22616       -18.74389         4.81628
| 69>    C        0.25400       -17.30883         5.34229
| 70>    C        0.96711       -20.27923         6.65115
| 71>    C        0.35376       -21.14221         7.58756
| 72>    C       -1.05465       -21.09457         7.32463
| 73>    C       -2.11942       -21.78681         7.87651
| 74>    C       -3.38545       -21.56493         7.36396
| 75>    C       -3.57950       -20.65548         6.33986
| 76>    C        1.10160       -21.83856         8.52699
| 77>    C        2.46786       -21.65468         8.53749
| 78>    C        3.07322       -20.80915         7.61460
| 79>    C        2.35578       -20.11783         6.64556
| 80>    C        3.11540       -19.29049         5.68735
| 81>    C        3.75449       -18.18496         6.02921
| 82>    H       -8.52550        -0.41460        -4.37489
| 83>    H       -8.07284        -2.50084        -3.59803
| 84>    H       -6.84512        -3.51916        -2.84039
| 85>    H       -6.39309        -1.67393        -5.25240
| 86>    H       -6.58477        -3.42848        -5.33366
| 87>    H       -5.16558        -2.72885        -4.55788
| 88>    H       -6.86188         2.54814        -0.72840
| 89>    H       -8.52152         3.35928        -2.37318
| 90>    H       -9.33077         1.89278        -4.15785
| 91>    H       -5.16297         1.05926         0.74673
| 92>    H       -3.74362        -0.72611         1.72096
| 93>    H       -3.57511        -2.89786         0.63918
| 94>    H       -4.74881        -3.71345        -2.69811
| 95>    H       -4.32337        -4.88157         0.09240
| 96>    H       -4.03735       -10.74028        -2.22004
| 97>    H       -3.72453        -9.95366         0.74349
| 98>    H       -4.41335       -19.92900         3.78230
| 99>    H       -2.30199       -17.97457         4.81555
|100>    H       -0.55075       -18.86677         4.05650
|101>    H        1.18621       -18.97184         4.35273
|102>    H       -0.63580       -17.08829         5.92769
|103>    H        0.31182       -16.60867         4.51321
|104>    H        1.12330       -17.16603         5.97991
|105>    H       -1.95803       -22.48831         8.68003
|106>    H       -4.23376       -22.09454         7.76929
|107>    H       -4.58279       -20.47207         5.98726
|108>    H        0.61893       -22.49679         9.23245
|109>    H        3.07983       -22.17008         9.26197
|110>    H        4.14656       -20.68854         7.63284
|111>    H        3.18961       -19.67521         4.67606
|112>    H        3.71159       -17.80003         7.03516
|113>    H        4.34015       -17.62103         5.32315
|114> *
|115>
|116>                          ****END OF INPUT****

CARTESIAN COORDINATES (ANGSTROEM)
---------------------------------
  C     -8.158540    0.213100   -3.577630
  C     -7.227000   -0.242650   -2.654940
  N     -6.626840   -1.481590   -2.550190
  C     -7.000570   -2.589180   -3.394190
  C     -6.234390   -2.605970   -4.715530
  C     -5.758010   -1.461980   -1.492080
  C     -5.827310   -0.188240   -0.863440
  C     -6.754330    0.598710   -1.625540
  C     -7.220030    1.901880   -1.515090
  C     -8.146690    2.348900   -2.435830
  C     -8.607320    1.514120   -3.451350
  C     -5.105300    0.086160    0.284330
  C     -4.316130   -0.916250    0.826010
  C     -4.237860   -2.156130    0.221140
  C     -4.923450   -2.467640   -0.962850
  C     -4.697240   -3.725110   -1.623410
  C     -4.374360   -4.878670   -0.989420
  C     -4.178690   -6.164030   -1.560380
  S     -4.026920   -7.465660   -0.409010
  C     -4.015700   -8.690510   -1.646880
  C     -4.117320   -8.102850   -2.898910
  C     -4.191070   -6.685470   -2.858630
  N     -4.243540   -5.973980   -4.084580
  O     -3.844090   -4.823320   -4.116710
  O     -4.676760   -6.571320   -5.050350
  C     -4.090130   -8.873890   -4.079720
  N     -4.027870   -9.571490   -4.986790
  C     -3.957700  -10.078020   -1.366610
  C     -3.830780  -10.593930   -0.121820
  C     -3.855910  -11.993110    0.155660
  N     -3.684330  -12.377530    1.410270
  N     -3.796940  -13.611930    1.811350
  C     -4.111870  -14.608120    1.007300
  C     -4.202280  -14.359080   -0.392280
  C     -4.069870  -13.000670   -0.838310
  N     -4.123940  -13.020670   -2.154510
  O     -4.264970  -14.295170   -2.499290
  N     -4.311900  -15.119390   -1.462780
  C     -4.327770  -15.908330    1.576960
  S     -3.376470  -16.439950    2.918810
  C     -4.172110  -17.990920    2.949770
  C     -5.143110  -18.066270    1.956590
  C     -5.229540  -16.880260    1.187110
  N     -6.247550  -16.692020    0.203320
  O     -6.598860  -15.550270   -0.020670
  O     -6.709470  -17.682540   -0.313350
  C     -5.967480  -19.195730    1.798880
  N     -6.612160  -20.142060    1.745420
  C     -3.841790  -19.015720    3.876160
  C     -2.855840  -18.903100    4.791800
  C     -2.535770  -19.907310    5.779000
  C     -1.241570  -20.160710    6.273230
  N     -0.014560  -19.700410    5.865360
  C      0.226160  -18.743890    4.816280
  C      0.254000  -17.308830    5.342290
  C      0.967110  -20.279230    6.651150
  C      0.353760  -21.142210    7.587560
  C     -1.054650  -21.094570    7.324630
  C     -2.119420  -21.786810    7.876510
  C     -3.385450  -21.564930    7.363960
  C     -3.579500  -20.655480    6.339860
  C      1.101600  -21.838560    8.526990
  C      2.467860  -21.654680    8.537490
  C      3.073220  -20.809150    7.614600
  C      2.355780  -20.117830    6.645560
  C      3.115400  -19.290490    5.687350
  C      3.754490  -18.184960    6.029210
  H     -8.525500   -0.414600   -4.374890
  H     -8.072840   -2.500840   -3.598030
  H     -6.845120   -3.519160   -2.840390
  H     -6.393090   -1.673930   -5.252400
  H     -6.584770   -3.428480   -5.333660
  H     -5.165580   -2.728850   -4.557880
  H     -6.861880    2.548140   -0.728400
  H     -8.521520    3.359280   -2.373180
  H     -9.330770    1.892780   -4.157850
  H     -5.162970    1.059260    0.746730
  H     -3.743620   -0.726110    1.720960
  H     -3.575110   -2.897860    0.639180
  H     -4.748810   -3.713450   -2.698110
  H     -4.323370   -4.881570    0.092400
  H     -4.037350  -10.740280   -2.220040
  H     -3.724530   -9.953660    0.743490
  H     -4.413350  -19.929000    3.782300
  H     -2.301990  -17.974570    4.815550
  H     -0.550750  -18.866770    4.056500
  H      1.186210  -18.971840    4.352730
  H     -0.635800  -17.088290    5.927690
  H      0.311820  -16.608670    4.513210
  H      1.123300  -17.166030    5.979910
  H     -1.958030  -22.488310    8.680030
  H     -4.233760  -22.094540    7.769290
  H     -4.582790  -20.472070    5.987260
  H      0.618930  -22.496790    9.232450
  H      3.079830  -22.170080    9.261970
  H      4.146560  -20.688540    7.632840
  H      3.189610  -19.675210    4.676060
  H      3.711590  -17.800030    7.035160
  H      4.340150  -17.621030    5.323150

 Total Charge           Charge          ....    0
 Multiplicity           Mult            ....    1
 Number of Electrons    NEL             ....  474
 Basis Dimension        Dim             .... 1106

ORBITAL ENERGIES
----------------

  NO   OCC          E(Eh)            E(eV)
   0   2.0000     -88.999517     -2421.8000
   1   2.0000     -88.997405     -2421.7425
   2   2.0000     -19.383964      -527.4645
   3   2.0000     -19.256162      -523.9868
   4   2.0000     -19.255483      -523.9683
   5   2.0000     -19.255049      -523.9565
   6   2.0000     -19.252623      -523.8905
   7   2.0000     -14.665052      -399.0563
   8   2.0000     -14.662654      -398.9911
   9   2.0000     -14.508942      -394.8084
  10   2.0000     -14.507572      -394.7711
  11   2.0000     -14.467565      -393.6825
  12   2.0000     -14.460044      -393.4778
  13   2.0000     -14.459061      -393.4511
  14   2.0000     -14.458373      -393.4323
  15   2.0000     -14.411518      -392.1573
  16   2.0000     -14.408357      -392.0713
  17   2.0000     -10.366295      -282.0812
  18   2.0000     -10.360667      -281.9281
  19   2.0000     -10.359910      -281.9075
  20   2.0000     -10.357186      -281.8334
  21   2.0000     -10.352614      -281.7090
  22   2.0000     -10.351607      -281.6816
  23   2.0000     -10.351331      -281.6740
  24   2.0000     -10.350624      -281.6548
  25   2.0000     -10.348243      -281.5900
  26   2.0000     -10.345628      -281.5189
  27   2.0000     -10.344397      -281.4853
  28   2.0000     -10.335602      -281.2460
  29   2.0000     -10.318552      -280.7821
  30   2.0000     -10.317996      -280.7669
  31   2.0000     -10.317774      -280.7609
  32   2.0000     -10.317171      -280.7445
  33   2.0000     -10.315481      -280.6985
  34   2.0000     -10.313606      -280.6475
  35   2.0000     -10.310769      -280.5703
  36   2.0000     -10.309040      -280.5232
  37   2.0000     -10.307943      -280.4934
  38   2.0000     -10.305822      -280.4357
  39   2.0000     -10.305660      -280.4313
  40   2.0000     -10.303868      -280.3825
  41   2.0000     -10.301178      -280.3093
  42   2.0000     -10.297685      -280.2143
  43   2.0000     -10.288716      -279.9702
  44   2.0000     -10.288557      -279.9659
  45   2.0000     -10.282766      -279.8083
  46   2.0000     -10.280002      -279.7331
  47   2.0000     -10.279658      -279.7237
  48   2.0000     -10.279473      -279.7187
  49   2.0000     -10.276658      -279.6421
  50   2.0000     -10.275905      -279.6216
  51   2.0000     -10.272979      -279.5420
  52   2.0000     -10.271981      -279.5148
  53   2.0000     -10.271736      -279.5081
  54   2.0000     -10.271515      -279.5021
  55   2.0000     -10.270754      -279.4814
  56   2.0000     -10.270608      -279.4775
  57   2.0000     -10.270289      -279.4688
  58   2.0000     -10.269510      -279.4476
  59   2.0000     -10.269091      -279.4362
  60   2.0000     -10.268039      -279.4075
  61   2.0000     -10.267929      -279.4045
  62   2.0000     -10.267829      -279.4018
  63   2.0000     -10.266142      -279.3559
  64   2.0000     -10.262722      -279.2629
  65   2.0000     -10.262546      -279.2581
  66   2.0000     -10.262275      -279.2507
  67   2.0000      -8.094310      -220.2574
  68   2.0000      -8.092799      -220.2163
  69   2.0000      -6.063555      -164.9977
  70   2.0000      -6.062011      -164.9557
  71   2.0000      -6.059411      -164.8849
  72   2.0000      -6.057964      -164.8456
  73   2.0000      -6.056491      -164.8055
  74   2.0000      -6.054901      -164.7622
  75   2.0000      -1.338869       -36.4325
  76   2.0000      -1.336849       -36.3775
  77   2.0000      -1.336146       -36.3584
  78   2.0000      -1.156149       -31.4604
  79   2.0000      -1.154250       -31.4087
  80   2.0000      -1.144989       -31.1567
  81   2.0000      -1.089145       -29.6372
  82   2.0000      -1.088410       -29.6171
  83   2.0000      -1.043867       -28.4051
  84   2.0000      -1.038032       -28.2463
  85   2.0000      -1.035614       -28.1805
  86   2.0000      -0.999768       -27.2051
  87   2.0000      -0.992744       -27.0139
  88   2.0000      -0.991015       -26.9669
  89   2.0000      -0.973166       -26.4812
  90   2.0000      -0.957167       -26.0458
  91   2.0000      -0.956330       -26.0231
  92   2.0000      -0.949926       -25.8488
  93   2.0000      -0.945958       -25.7408
  94   2.0000      -0.940425       -25.5903
  95   2.0000      -0.934212       -25.4212
  96   2.0000      -0.924507       -25.1571
  97   2.0000      -0.911782       -24.8109
  98   2.0000      -0.906195       -24.6588
  99   2.0000      -0.896780       -24.4026
 100   2.0000      -0.887097       -24.1391
 101   2.0000      -0.878965       -23.9179
 102   2.0000      -0.873104       -23.7584
 103   2.0000      -0.869279       -23.6543
 104   2.0000      -0.847147       -23.0520
 105   2.0000      -0.845303       -23.0019
 106   2.0000      -0.840868       -22.8812
 107   2.0000      -0.838493       -22.8166
 108   2.0000      -0.833296       -22.6751
 109   2.0000      -0.810325       -22.0501
 110   2.0000      -0.809814       -22.0362
 111   2.0000      -0.807325       -21.9684
 112   2.0000      -0.801070       -21.7982
 113   2.0000      -0.800596       -21.7853
 114   2.0000      -0.786792       -21.4097
 115   2.0000      -0.778285       -21.1782
 116   2.0000      -0.763277       -20.7698
 117   2.0000      -0.756573       -20.5874
 118   2.0000      -0.748794       -20.3757
 119   2.0000      -0.736921       -20.0526
 120   2.0000      -0.734570       -19.9887
 121   2.0000      -0.730394       -19.8750
 122   2.0000      -0.713136       -19.4054
 123   2.0000      -0.712236       -19.3809
 124   2.0000      -0.701267       -19.0824
 125   2.0000      -0.700533       -19.0625
 126   2.0000      -0.695261       -18.9190
 127   2.0000      -0.688536       -18.7360
 128   2.0000      -0.678188       -18.4544
 129   2.0000      -0.672799       -18.3078
 130   2.0000      -0.669558       -18.2196
 131   2.0000      -0.667376       -18.1602
 132   2.0000      -0.665081       -18.0978
 133   2.0000      -0.660906       -17.9842
 134   2.0000      -0.656251       -17.8575
 135   2.0000      -0.653206       -17.7747
 136   2.0000      -0.646681       -17.5971
 137   2.0000      -0.638077       -17.3630
 138   2.0000      -0.636616       -17.3232
 139   2.0000      -0.630533       -17.1577
 140   2.0000      -0.629035       -17.1169
 141   2.0000      -0.628352       -17.0983
 142   2.0000      -0.612306       -16.6617
 143   2.0000      -0.610584       -16.6148
 144   2.0000      -0.609714       -16.5912
 145   2.0000      -0.607788       -16.5387
 146   2.0000      -0.603438       -16.4204
 147   2.0000      -0.602015       -16.3817
 148   2.0000      -0.598614       -16.2891
 149   2.0000      -0.587643       -15.9906
 150   2.0000      -0.585020       -15.9192
 151   2.0000      -0.579696       -15.7743
 152   2.0000      -0.568197       -15.4614
 153   2.0000      -0.565967       -15.4007
 154   2.0000      -0.562973       -15.3193
 155   2.0000      -0.562205       -15.2984
 156   2.0000      -0.557311       -15.1652
 157   2.0000      -0.550809       -14.9883
 158   2.0000      -0.550144       -14.9702
 159   2.0000      -0.548174       -14.9166
 160   2.0000      -0.545198       -14.8356
 161   2.0000      -0.543744       -14.7960
 162   2.0000      -0.542014       -14.7490
 163   2.0000      -0.539200       -14.6724
 164   2.0000      -0.533860       -14.5271
 165   2.0000      -0.531489       -14.4626
 166   2.0000      -0.528932       -14.3930
 167   2.0000      -0.527493       -14.3538
 168   2.0000      -0.522860       -14.2277
 169   2.0000      -0.520808       -14.1719
 170   2.0000      -0.519665       -14.1408
 171   2.0000      -0.517039       -14.0693
 172   2.0000      -0.513248       -13.9662
 173   2.0000      -0.509205       -13.8562
 174   2.0000      -0.506981       -13.7957
 175   2.0000      -0.505631       -13.7589
 176   2.0000      -0.501287       -13.6407
 177   2.0000      -0.500366       -13.6156
 178   2.0000      -0.492658       -13.4059
 179   2.0000      -0.491073       -13.3628
 180   2.0000      -0.480474       -13.0744
 181   2.0000      -0.479298       -13.0424
 182   2.0000      -0.476424       -12.9642
 183   2.0000      -0.469884       -12.7862
 184   2.0000      -0.468315       -12.7435
 185   2.0000      -0.465462       -12.6659
 186   2.0000      -0.461264       -12.5516
 187   2.0000      -0.459924       -12.5152
 188   2.0000      -0.456782       -12.4297
 189   2.0000      -0.455873       -12.4049
 190   2.0000      -0.449608       -12.2345
 191   2.0000      -0.447356       -12.1732
 192   2.0000      -0.444817       -12.1041
 193   2.0000      -0.443778       -12.0758
 194   2.0000      -0.442063       -12.0291
 195   2.0000      -0.441090       -12.0027
 196   2.0000      -0.440082       -11.9753
 197   2.0000      -0.438121       -11.9219
 198   2.0000      -0.437083       -11.8936
 199   2.0000      -0.435781       -11.8582
 200   2.0000      -0.433735       -11.8025
 201   2.0000      -0.433277       -11.7901
 202   2.0000      -0.428925       -11.6716
 203   2.0000      -0.425893       -11.5891
 204   2.0000      -0.423341       -11.5197
 205   2.0000      -0.422771       -11.5042
 206   2.0000      -0.422163       -11.4876
 207   2.0000      -0.420913       -11.4536
 208   2.0000      -0.418983       -11.4011
 209   2.0000      -0.417394       -11.3579
 210   2.0000      -0.413307       -11.2466
 211   2.0000      -0.412479       -11.2241
 212   2.0000      -0.407142       -11.0789
 213   2.0000      -0.401608       -10.9283
 214   2.0000      -0.400393       -10.8952
 215   2.0000      -0.396726       -10.7955
 216   2.0000      -0.394506       -10.7351
 217   2.0000      -0.391036       -10.6406
 218   2.0000      -0.386996       -10.5307
 219   2.0000      -0.382178       -10.3996
 220   2.0000      -0.379884       -10.3372
 221   2.0000      -0.378531       -10.3004
 222   2.0000      -0.368216       -10.0197
 223   2.0000      -0.360575        -9.8118
 224   2.0000      -0.355724        -9.6797
 225   2.0000      -0.353994        -9.6327
 226   2.0000      -0.350941        -9.5496
 227   2.0000      -0.343873        -9.3573
 228   2.0000      -0.331036        -9.0080
 229   2.0000      -0.325876        -8.8675
 230   2.0000      -0.321439        -8.7468
 231   2.0000      -0.303006        -8.2452
 232   2.0000      -0.289650        -7.8818
 233   2.0000      -0.281154        -7.6506
 234   2.0000      -0.279162        -7.5964
 235   2.0000      -0.260718        -7.0945
 236   2.0000      -0.257004        -6.9934
 237   0.0000      -0.116133        -3.1601
 238   0.0000      -0.079537        -2.1643
 239   0.0000      -0.061572        -1.6755
 240   0.0000      -0.052761        -1.4357
 241   0.0000      -0.046021        -1.2523

MULLIKEN ATOMIC CHARGES
-----------------------
   0 C :   -0.079831
   1 C :    0.134505
   2 N :   -0.180190
   3 C :    0.079276
   4 C :    0.007758
   5 C :    0.102253
   6 C :    0.062319
   7 C :    0.070679
   8 C :   -0.048798
   9 C :    0.029243
  10 C :    0.025504
  11 C :   -0.039835
  12 C :    0.029736
  13 C :   -0.036340
  14 C :    0.032336
  15 C :   -0.019864
  16 C :    0.025876
  17 C :   -0.145173
  18 S :    0.170351
  19 C :   -0.062228
  20 C :   -0.062617
  21 C :    0.209503
  22 N :    0.256647
  23 O :   -0.242216
  24 O :   -0.213436
  25 C :   -0.219433
  26 N :    0.167653
  27 C :    0.018324
  28 C :   -0.013968
  29 C :   -0.012791
  30 N :   -0.057844
  31 N :   -0.034203
  32 C :   -0.065103
  33 C :    0.024834
  34 C :   -0.021727
  35 N :    0.069952
  36 O :   -0.069410
  37 N :    0.082233
  38 C :   -0.189852
  39 S :    0.212219
  40 C :   -0.054590
  41 C :   -0.082956
  42 C :    0.255155
  43 N :    0.254245
  44 O :   -0.237105
  45 O :   -0.200600
  46 C :   -0.231482
  47 N :    0.160537
  48 C :   -0.006686
  49 C :   -0.053345
  50 C :    0.041075
  51 C :    0.107146
  52 N :   -0.186910
  53 C :    0.101019
  54 C :    0.015239
  55 C :    0.107117
  56 C :    0.064417
  57 C :    0.061782
  58 C :   -0.044483
  59 C :    0.031043
  60 C :   -0.036281
  61 C :   -0.047074
  62 C :    0.034242
  63 C :   -0.029429
  64 C :   -0.019014
  65 C :   -0.095767
  66 C :    0.003750
  67 H :   -0.036302
  68 H :    0.023673
  69 H :    0.025258
  70 H :    0.018703
  71 H :    0.029289
  72 H :    0.048416
  73 H :   -0.033097
  74 H :   -0.020894
  75 H :   -0.014426
  76 H :   -0.026835
  77 H :   -0.020266
  78 H :   -0.023221
  79 H :    0.010935
  80 H :   -0.011568
  81 H :    0.044393
  82 H :   -0.008348
  83 H :    0.024835
  84 H :    0.001217
  85 H :    0.026959
  86 H :    0.014793
  87 H :    0.027774
  88 H :    0.020916
  89 H :    0.023766
  90 H :   -0.026863
  91 H :   -0.017506
  92 H :   -0.017340
  93 H :   -0.033430
  94 H :   -0.021412
  95 H :   -0.025604
  96 H :    0.036316
  97 H :    0.026745
  98 H :    0.025736
Sum of atomic charges:   -0.0000000

LOEWDIN ATOMIC CHARGES
----------------------
   0 C :   -0.057764
   1 C :    0.030582
   2 N :    0.026228
   3 C :    0.038654
   4 C :   -0.063092
   5 C :    0.045203
   6 C :   -0.041038
   7 C :   -0.042966
   8 C :   -0.010586
   9 C :   -0.042600
  10 C :   -0.016613
  11 C :    0.003241
  12 C :   -0.046256
  13 C :   -0.004897
  14 C :   -0.067299
  15 C :    0.041106
  16 C :   -0.083794
  17 C :   -0.109236
  18 S :    0.487125
  19 C :   -0.149568
  20 C :   -0.072881
  21 C :   -0.073027
  22 N :    0.287473
  23 O :   -0.200651
  24 O :   -0.172150
  25 C :   -0.043307
  26 N :   -0.028189
  27 C :   -0.000483
  28 C :   -0.028165
  29 C :    0.007277
  30 N :   -0.050417
  31 N :   -0.041628
  32 C :   -0.027524
  33 C :   -0.064762
  34 C :   -0.059802
  35 N :   -0.002011
  36 O :    0.104805
  37 N :   -0.001063
  38 C :   -0.160997
  39 S :    0.515112
  40 C :   -0.116759
  41 C :   -0.102600
  42 C :   -0.034146
  43 N :    0.285753
  44 O :   -0.198901
  45 O :   -0.160478
  46 C :   -0.040775
  47 N :   -0.038150
  48 C :   -0.056162
  49 C :    0.010681
  50 C :   -0.065844
  51 C :    0.039313
  52 N :    0.024537
  53 C :    0.038273
  54 C :   -0.063804
  55 C :    0.032140
  56 C :   -0.040493
  57 C :   -0.041056
  58 C :    0.000214
  59 C :   -0.043723
  60 C :   -0.003881
  61 C :   -0.012901
  62 C :   -0.041731
  63 C :   -0.015563
  64 C :   -0.056229
  65 C :   -0.022508
  66 C :   -0.039169
  67 H :    0.026198
  68 H :    0.029023
  69 H :    0.027752
  70 H :    0.027827
  71 H :    0.033390
  72 H :    0.027478
  73 H :    0.027327
  74 H :    0.026333
  75 H :    0.028729
  76 H :    0.030306
  77 H :    0.027979
  78 H :    0.027074
  79 H :    0.027438
  80 H :    0.028142
  81 H :    0.047840
  82 H :    0.033687
  83 H :    0.045074
  84 H :    0.022239
  85 H :    0.028400
  86 H :    0.030890
  87 H :    0.023692
  88 H :    0.029839
  89 H :    0.030781
  90 H :    0.029861
  91 H :    0.029203
  92 H :    0.030122
  93 H :    0.027334
  94 H :    0.026890
  95 H :    0.028357
  96 H :    0.030266
  97 H :    0.025592
  98 H :    0.024859

  Mayer bond orders larger than 0.100000
B(  0-C ,  1-C ) :   1.3085 B(  0-C , 10-C ) :   1.3966 B(  0-C , 67-H ) :   1.0043
B(  1-C ,  2-N ) :   1.1005 B(  1-C ,  7-C ) :   1.3127 B(  2-N ,  3-C ) :   0.9560
B(  2-N ,  5-C ) :   1.1741 B(  3-C ,  4-C ) :   1.1091 B(  3-C , 68-H ) :   0.9389
B(  3-C , 69-H ) :   0.9423 B(  4-C , 70-H ) :   0.9582 B(  4-C , 71-H ) :   0.9662
B(  4-C , 72-H ) :   0.9563 B(  5-C ,  6-C ) :   1.2658 B(  5-C , 14-C ) :   1.2704
B(  6-C ,  7-C ) :   1.0775 B(  6-C , 11-C ) :   1.3627 B(  7-C ,  8-C ) :   1.3389
B(  8-C ,  9-C ) :   1.4050 B(  8-C , 73-H ) :   0.9974 B(  9-C , 10-C ) :   1.3545
B(  9-C , 74-H ) :   0.9864 B( 10-C , 75-H ) :   0.9853 B( 11-C , 12-C ) :   1.3506
B( 11-C , 76-H ) :   1.0003 B( 12-C , 13-C ) :   1.3825 B( 12-C , 77-H ) :   0.9848
B( 13-C , 14-C ) :   1.3543 B( 13-C , 78-H ) :   0.9877 B( 14-C , 15-C ) :   1.0691
B( 15-C , 16-C ) :   1.6830 B( 15-C , 79-H ) :   0.9449 B( 16-C , 17-C ) :   1.1435
B( 16-C , 80-H ) :   0.9400 B( 17-C , 18-S ) :   1.1781 B( 17-C , 21-C ) :   1.3915
B( 18-S , 19-C ) :   1.0692 B( 19-C , 20-C ) :   1.5082 B( 19-C , 27-C ) :   1.1906
B( 20-C , 21-C ) :   1.2679 B( 20-C , 25-C ) :   1.1193 B( 21-C , 22-N ) :   0.9339
B( 22-N , 23-O ) :   1.4784 B( 22-N , 24-O ) :   1.5281 B( 23-O , 24-O ) :   0.2555
B( 25-C , 26-N ) :   2.9962 B( 27-C , 28-C ) :   1.5771 B( 27-C , 81-H ) :   0.9421
B( 28-C , 29-C ) :   1.1637 B( 28-C , 82-H ) :   0.9719 B( 29-C , 30-N ) :   1.6634
B( 29-C , 32-C ) :   0.1077 B( 29-C , 34-C ) :   1.0494 B( 30-N , 31-N ) :   1.1981
B( 31-N , 32-C ) :   1.7521 B( 32-C , 33-C ) :   1.0907 B( 32-C , 38-C ) :   1.0665
B( 33-C , 34-C ) :   1.1812 B( 33-C , 37-N ) :   1.6053 B( 34-C , 35-N ) :   1.5893
B( 35-N , 36-O ) :   1.0770 B( 35-N , 37-N ) :   0.1833 B( 36-O , 37-N ) :   1.0905
B( 38-C , 39-S ) :   1.1702 B( 38-C , 42-C ) :   1.5285 B( 39-S , 40-C ) :   1.1032
B( 40-C , 41-C ) :   1.4876 B( 40-C , 48-C ) :   1.1711 B( 41-C , 42-C ) :   1.2644
B( 41-C , 46-C ) :   1.1235 B( 42-C , 43-N ) :   0.9117 B( 43-N , 44-O ) :   1.5065
B( 43-N , 45-O ) :   1.5435 B( 44-O , 45-O ) :   0.2755 B( 46-C , 47-N ) :   3.0038
B( 48-C , 49-C ) :   1.6864 B( 48-C , 83-H ) :   0.9658 B( 49-C , 50-C ) :   1.0323
B( 49-C , 84-H ) :   0.9637 B( 50-C , 51-C ) :   1.2807 B( 50-C , 60-C ) :   1.3770
B( 51-C , 52-N ) :   1.1573 B( 51-C , 57-C ) :   1.2728 B( 52-N , 53-C ) :   0.9585
B( 52-N , 55-C ) :   1.1172 B( 53-C , 54-C ) :   1.1103 B( 53-C , 85-H ) :   0.9370
B( 53-C , 86-H ) :   0.9293 B( 54-C , 87-H ) :   0.9579 B( 54-C , 88-H ) :   0.9664
B( 54-C , 89-H ) :   0.9531 B( 55-C , 56-C ) :   1.2966 B( 55-C , 64-C ) :   1.3306
B( 56-C , 57-C ) :   1.0770 B( 56-C , 61-C ) :   1.3356 B( 57-C , 58-C ) :   1.3503
B( 58-C , 59-C ) :   1.3636 B( 58-C , 90-H ) :   1.0010 B( 59-C , 60-C ) :   1.3663
B( 59-C , 91-H ) :   0.9853 B( 60-C , 92-H ) :   0.9903 B( 61-C , 62-C ) :   1.3969
B( 61-C , 93-H ) :   0.9993 B( 62-C , 63-C ) :   1.3269 B( 62-C , 94-H ) :   0.9870
B( 63-C , 64-C ) :   1.4368 B( 63-C , 95-H ) :   0.9925 B( 64-C , 65-C ) :   0.9691
B( 65-C , 66-C ) :   2.0164 B( 65-C , 96-H ) :   0.9483 B( 66-C , 97-H ) :   0.9522
B( 66-C , 98-H ) :   0.9576

-----------------------------------------------------------------------------
         ABSORPTION SPECTRUM VIA TRANSITION ELECTRIC DIPOLE MOMENTS
-----------------------------------------------------------------------------
State   Energy  Wavelength   fosc         T2         TX        TY        TZ
        (cm-1)    (nm)                  (au**2)     (au)      (au)      (au)
-----------------------------------------------------------------------------
   0   17103.8    584.7   1.366632670  26.30477   0.71889  -4.74301   1.81435
   1   19150.4    522.2   0.075923491   1.30519  -0.01810   1.05856   0.42930
   2   19692.8    507.8   0.090175880   1.50750   0.07575  -1.03539  -0.65553
   3   21919.1    456.2   0.104545933   1.57022  -0.67197   0.54822   0.90451
   4   24162.5    413.9   0.164909242   2.24687  -0.59170  -1.37023   0.13867
   5   25151.8    397.6   0.064002778   0.83773   0.22090  -0.88812   0.01315
   6   25883.2    386.4   0.064368246   0.81871  -0.11245   0.60624  -0.66222
   7   26773.4    373.5   0.431703070   5.30832   1.37371  -0.93507   1.59590
   8   28001.2    357.1   0.032482732   0.38190   0.33146  -0.09047   0.51366
   9   28656.0    349.0   0.016901005   0.19417   0.01879   0.18745   0.39834
  10   29599.1    337.8   0.136546282   1.51872   0.71180  -0.60795   0.80153
  11   30041.0    332.9   0.008033929   0.08804  -0.05371  -0.13415   0.25916
  12   31012.4    322.5   0.193294118   2.05191  -0.08922   1.38348  -0.36048
  13   31984.2    312.7   0.071952531   0.74060  -0.07191  -0.34541   0.78494
  14   32256.2    310.0   0.046862502   0.47829   0.00592   0.48234  -0.49558
  15   32581.1    306.9   0.029970349   0.30283  -0.32605   0.11549  -0.42800
  16   33250.6    300.7   0.034035629   0.33698   0.30392   0.46887   0.15740
  17   33680.7    296.9   0.089633562   0.87612   0.30952  -0.77266   0.42816
  18   34286.1    291.7   0.012709723   0.12204   0.07197   0.20015  -0.27712
  19   34767.3    287.6   0.063284176   0.59924   0.15400  -0.45710   0.60546
  20   34963.0    286.0   0.006963377   0.06557   0.02774   0.15421  -0.20253
  21   35222.9    283.9   0.005288589   0.04943  -0.10788  -0.12969   0.14482
  22   35759.9    279.6   0.012131850   0.11169  -0.15841   0.10385   0.27534
  23   36029.8    277.5   0.050966484   0.46569  -0.34110  -0.13768  -0.57479
  24   36150.2    276.6   0.035280487   0.32129  -0.55144   0.12448  -0.04134
  25   36283.1    275.6   0.142534588   1.29328  -0.07941  -0.62395  -0.94745
  26   36629.9    273.0   0.043589773   0.39176  -0.15537   0.59477  -0.11777
  27   37136.9    269.3   0.022975252   0.20367   0.41116  -0.17669   0.05830
  28   37519.5    266.5   0.021246235   0.18642  -0.26497   0.32878  -0.09012
  29   37647.9    265.6   0.027778078   0.24291   0.34980   0.30681   0.16251
  30   37736.1    265.0   0.078856545   0.68795  -0.74805  -0.35103   0.07174
  31   38189.1    261.9   0.022506404   0.19402   0.22394   0.35248  -0.14011
  32   38277.4    261.3   0.098476538   0.84697   0.06379  -0.85014   0.34663
  33   38502.3    259.7   0.098898108   0.84562  -0.06576   0.57715  -0.71288
  34   38612.1    259.0   0.025107067   0.21407   0.09840   0.28572   0.35035
  35   39046.7    256.1   0.071460420   0.60250   0.33231  -0.20752   0.67008
  36   39364.4    254.0   0.078090256   0.65308  -0.43314   0.13210  -0.66934
  37   39530.2    253.0   0.008323994   0.06932   0.24766   0.07880  -0.04215
  38   40025.8    249.8   0.007750545   0.06375  -0.06658   0.15795  -0.18539

FINAL SINGLE POINT ENERGY     -3640.438446196390

DIPOLE MOMENT
-------------
                                X             Y             Z
Electronic contribution:    -22.83521     -22.44283     -27.85286
Nuclear contribution   :     24.76106      24.63888      30.90495
                        -----------------------------------------
Total Dipole Moment    :      1.92585       2.19605       3.05209
                        -----------------------------------------
Magnitude (a.u.)       :      4.22455
Magnitude (Debye)      :     10.73795

Rotational constants in cm-1:     0.002119     0.000249     0.000236
Rotational constants in MHz :    63.538287     7.455088     7.080939

                             ****ORCA TERMINATED NORMALLY****
TOTAL RUN TIME: 0 days 0 hours 9 minutes 0 seconds 681 msec
