                         Program Version 4.2.0 -  RELEASE  -
|  1> # ORCA input file
|  2> # SCF done       -185.878970202415          0.000887826403
|  3> ! CAM-B3LYP def2-SVP def2/J RIJCOSX Grid4 TightSCF
|  4> %maxcore 5000
|  5> %tddft
|  6>     Mode sTDDFT
|  7>     Ethresh 5.0
|  8>     maxcore 5000
|  9> end
| 10>
| 11> %pal
| 12>   nprocs 6
| 13>   end
| 14> * xyz 0 1
| 15>    C       -1.53883         1.36341         1.53718
| 16>    C       -0.83287         0.20888         1.84736
| 17>    N       -1.26967        -1.09872         1.90911
| 18>    C       -2.65369        -1.45250         1.72347
| 19>    C       -2.99963        -1.69210         0.25377
| 20>    C       -0.20883        -1.90419         2.22766
| 21>    C        0.94218        -1.08942         2.42129
| 22>    C        0.54278         0.26249         2.15535
| 23>    C        1.21531         1.47711         2.15902
| 24>    C        0.50706         2.62119         1.85049
| 25>    C       -0.85075         2.56167         1.54465
| 26>    C        2.15165        -1.62981         2.81885
| 27>    C        2.22486        -2.99572         3.03762
| 28>    C        1.11780        -3.79887         2.84135
| 29>    C       -0.12248        -3.30009         2.41551
| 30>    C       -1.20070        -4.20632         2.11526
| 31>    C       -1.35547        -5.44369         2.63824
| 32>    C       -2.37268        -6.36155         2.25212
| 33>    S       -2.04660        -8.06729         2.37288
| 34>    C       -3.53366        -8.50199         1.56757
| 35>    C       -4.26088        -7.36353         1.25115
| 36>    C       -3.61405        -6.16410         1.65990
| 37>    N       -4.29472        -4.92298         1.57326
| 38>    O       -4.08845        -4.09624         2.44653
| 39>    O       -5.06977        -4.76787         0.65036
| 40>    C       -5.55946        -7.38280         0.70785
| 41>    N       -6.63205        -7.43321         0.30487
| 42>    C       -3.81772        -9.87227         1.32548
| 43>    C       -4.72490       -10.31703         0.41913
| 44>    C       -5.03690       -11.66884         0.14889
| 45>    S       -5.97604       -12.03941        -1.27299
| 46>    C       -5.96351       -13.75965        -0.98306
| 47>    C       -5.25229       -14.02368         0.20778
| 48>    C       -4.72998       -12.84611         0.82171
| 49>    N       -4.07866       -13.20955         1.95596
| 50>    C       -4.17693       -14.57186         2.07762
| 51>    N       -3.59842       -15.21897         3.18122
| 52>    O       -3.01093       -14.50736         3.98184
| 53>    O       -3.72203       -16.42468         3.26745
| 54>    C       -4.88408       -15.11321         1.02221
| 55>    C       -6.57573       -14.72838        -1.79693
| 56>    S       -6.55038       -16.39190        -1.25266
| 57>    C       -7.40900       -16.97049        -2.65616
| 58>    C       -7.68954       -15.91979        -3.51265
| 59>    C       -7.23074       -14.66171        -3.03506
| 60>    N       -7.43786       -13.50813        -3.79809
| 61>    O       -7.11271       -12.42465        -3.31549
| 62>    O       -7.92765       -13.62904        -4.90336
| 63>    C       -8.37472       -16.13271        -4.72459
| 64>    N       -8.93703       -16.43011        -5.67873
| 65>    C       -7.76320       -18.33304        -2.82789
| 66>    C       -7.47901       -19.29103        -1.91818
| 67>    C       -7.80394       -20.68816        -2.06814
| 68>    C       -8.11259       -21.55980        -1.00452
| 69>    N       -8.29209       -21.32781         0.33770
| 70>    C       -8.18741       -20.05613         1.00483
| 71>    C       -6.76686       -19.77245         1.49608
| 72>    C       -8.66278       -22.51001         0.95612
| 73>    C       -8.73216       -23.53088        -0.01884
| 74>    C       -8.38525       -22.92638        -1.27111
| 75>    C       -8.34056       -23.44132        -2.55535
| 76>    C       -8.03985       -22.58330        -3.59853
| 77>    C       -7.79259       -21.24520        -3.35499
| 78>    C       -9.12596       -24.82109         0.30612
| 79>    C       -9.46744       -25.08581         1.61579
| 80>    C       -9.40830       -24.08316         2.57478
| 81>    C       -9.00048       -22.78267         2.28806
| 82>    C       -8.94525       -21.81978         3.39588
| 83>    C       -9.93337       -21.64979         4.26221
| 84>    H       -2.58936         1.34071         1.29199
| 85>    H       -3.26337        -0.62925         2.10608
| 86>    H       -2.88811        -2.33343         2.32698
| 87>    H       -2.90176        -0.77039        -0.31519
| 88>    H       -4.02289        -2.04825         0.17004
| 89>    H       -2.33517        -2.42972        -0.19325
| 90>    H        2.26786         1.52141         2.39397
| 91>    H        1.00814         3.57739         1.84221
| 92>    H       -1.37763         3.47331         1.30505
| 93>    H        3.01460        -0.99671         2.95530
| 94>    H        3.15683        -3.44335         3.34756
| 95>    H        1.22530        -4.86456         2.97061
| 96>    H       -1.89737        -3.88102         1.36055
| 97>    H       -0.64393        -5.82617         3.35641
| 98>    H       -3.20325       -10.57431         1.87211
| 99>    H       -5.25144        -9.59892        -0.19299
|100>    H       -3.63131       -12.63018         2.64903
|101>    H       -5.08337       -16.15667         0.89516
|102>    H       -8.31971       -18.55811        -3.72685
|103>    H       -6.94137       -18.98403        -1.03233
|104>    H       -8.87655       -20.06443         1.85342
|105>    H       -8.51849       -19.27474         0.31409
|106>    H       -6.45337       -20.52623         2.21393
|107>    H       -6.72419       -18.79824         1.97609
|108>    H       -6.05349       -19.79158         0.67529
|109>    H       -8.54381       -24.48580        -2.73273
|110>    H       -7.99538       -22.95513        -4.61052
|111>    H       -7.53626       -20.60357        -4.18380
|112>    H       -9.16794       -25.58833        -0.45113
|113>    H       -9.78249       -26.07685         1.90519
|114>    H       -9.66762       -24.31719         3.59662
|115>    H       -8.01977       -21.27468         3.52605
|116>    H      -10.86842       -22.17615         4.16423
|117>    H       -9.84915       -20.97101         5.09364
|118> *
|119>
|120>                          ****END OF INPUT****

CARTESIAN COORDINATES (ANGSTROEM)
---------------------------------
  C     -1.538830    1.363410    1.537180
  C     -0.832870    0.208880    1.847360
  N     -1.269670   -1.098720    1.909110
  C     -2.653690   -1.452500    1.723470
  C     -2.999630   -1.692100    0.253770
  C     -0.208830   -1.904190    2.227660
  C      0.942180   -1.089420    2.421290
  C      0.542780    0.262490    2.155350
  C      1.215310    1.477110    2.159020
  C      0.507060    2.621190    1.850490
  C     -0.850750    2.561670    1.544650
  C      2.151650   -1.629810    2.818850
  C      2.224860   -2.995720    3.037620
  C      1.117800   -3.798870    2.841350
  C     -0.122480   -3.300090    2.415510
  C     -1.200700   -4.206320    2.115260
  C     -1.355470   -5.443690    2.638240
  C     -2.372680   -6.361550    2.252120
  S     -2.046600   -8.067290    2.372880
  C     -3.533660   -8.501990    1.567570
  C     -4.260880   -7.363530    1.251150
  C     -3.614050   -6.164100    1.659900
  N     -4.294720   -4.922980    1.573260
  O     -4.088450   -4.096240    2.446530
  O     -5.069770   -4.767870    0.650360
  C     -5.559460   -7.382800    0.707850
  N     -6.632050   -7.433210    0.304870
  C     -3.817720   -9.872270    1.325480
  C     -4.724900  -10.317030    0.419130
  C     -5.036900  -11.668840    0.148890
  S     -5.976040  -12.039410   -1.272990
  C     -5.963510  -13.759650   -0.983060
  C     -5.252290  -14.023680    0.207780
  C     -4.729980  -12.846110    0.821710
  N     -4.078660  -13.209550    1.955960
  C     -4.176930  -14.571860    2.077620
  N     -3.598420  -15.218970    3.181220
  O     -3.010930  -14.507360    3.981840
  O     -3.722030  -16.424680    3.267450
  C     -4.884080  -15.113210    1.022210
  C     -6.575730  -14.728380   -1.796930
  S     -6.550380  -16.391900   -1.252660
  C     -7.409000  -16.970490   -2.656160
  C     -7.689540  -15.919790   -3.512650
  C     -7.230740  -14.661710   -3.035060
  N     -7.437860  -13.508130   -3.798090
  O     -7.112710  -12.424650   -3.315490
  O     -7.927650  -13.629040   -4.903360
  C     -8.374720  -16.132710   -4.724590
  N     -8.937030  -16.430110   -5.678730
  C     -7.763200  -18.333040   -2.827890
  C     -7.479010  -19.291030   -1.918180
  C     -7.803940  -20.688160   -2.068140
  C     -8.112590  -21.559800   -1.004520
  N     -8.292090  -21.327810    0.337700
  C     -8.187410  -20.056130    1.004830
  C     -6.766860  -19.772450    1.496080
  C     -8.662780  -22.510010    0.956120
  C     -8.732160  -23.530880   -0.018840
  C     -8.385250  -22.926380   -1.271110
  C     -8.340560  -23.441320   -2.555350
  C     -8.039850  -22.583300   -3.598530
  C     -7.792590  -21.245200   -3.354990
  C     -9.125960  -24.821090    0.306120
  C     -9.467440  -25.085810    1.615790
  C     -9.408300  -24.083160    2.574780
  C     -9.000480  -22.782670    2.288060
  C     -8.945250  -21.819780    3.395880
  C     -9.933370  -21.649790    4.262210
  H     -2.589360    1.340710    1.291990
  H     -3.263370   -0.629250    2.106080
  H     -2.888110   -2.333430    2.326980
  H     -2.901760   -0.770390   -0.315190
  H     -4.022890   -2.048250    0.170040
  H     -2.335170   -2.429720   -0.193250
  H      2.267860    1.521410    2.393970
  H      1.008140    3.577390    1.842210
  H     -1.377630    3.473310    1.305050
  H      3.014600   -0.996710    2.955300
  H      3.156830   -3.443350    3.347560
  H      1.225300   -4.864560    2.970610
  H     -1.897370   -3.881020    1.360550
  H     -0.643930   -5.826170    3.356410
  H     -3.203250  -10.574310    1.872110
  H     -5.251440   -9.598920   -0.192990
  H     -3.631310  -12.630180    2.649030
  H     -5.083370  -16.156670    0.895160
  H     -8.319710  -18.558110   -3.726850
  H     -6.941370  -18.984030   -1.032330
  H     -8.876550  -20.064430    1.853420
  H     -8.518490  -19.274740    0.314090
  H     -6.453370  -20.526230    2.213930
  H     -6.724190  -18.798240    1.976090
  H     -6.053490  -19.791580    0.675290
  H     -8.543810  -24.485800   -2.732730
  H     -7.995380  -22.955130   -4.610520
  H     -7.536260  -20.603570   -4.183800
  H     -9.167940  -25.588330   -0.451130
  H     -9.782490  -26.076850    1.905190
  H     -9.667620  -24.317190    3.596620
  H     -8.019770  -21.274680    3.526050
  H    -10.868420  -22.176150    4.164230
  H     -9.849150  -20.971010    5.093640

 Total Charge           Charge          ....    0
 Multiplicity           Mult            ....    1
 Number of Electrons    NEL             ....  498
 Basis Dimension        Dim             .... 1148

ORBITAL ENERGIES
----------------

  NO   OCC          E(Eh)            E(eV)
   0   2.0000     -88.998028     -2421.7595
   1   2.0000     -88.994415     -2421.6611
   2   2.0000     -88.990409     -2421.5521
   3   2.0000     -19.263150      -524.1770
   4   2.0000     -19.262751      -524.1661
   5   2.0000     -19.257689      -524.0284
   6   2.0000     -19.253343      -523.9101
   7   2.0000     -19.252497      -523.8871
   8   2.0000     -19.250805      -523.8410
   9   2.0000     -14.673083      -399.2749
  10   2.0000     -14.663252      -399.0074
  11   2.0000     -14.660214      -398.9247
  12   2.0000     -14.501980      -394.6189
  13   2.0000     -14.459785      -393.4707
  14   2.0000     -14.452062      -393.2606
  15   2.0000     -14.413243      -392.2043
  16   2.0000     -14.403016      -391.9260
  17   2.0000     -10.380788      -282.4756
  18   2.0000     -10.365156      -282.0502
  19   2.0000     -10.353280      -281.7271
  20   2.0000     -10.350304      -281.6461
  21   2.0000     -10.347897      -281.5806
  22   2.0000     -10.347268      -281.5635
  23   2.0000     -10.346610      -281.5456
  24   2.0000     -10.345063      -281.5035
  25   2.0000     -10.344301      -281.4827
  26   2.0000     -10.337670      -281.3023
  27   2.0000     -10.333447      -281.1874
  28   2.0000     -10.326309      -280.9932
  29   2.0000     -10.318866      -280.7906
  30   2.0000     -10.316877      -280.7365
  31   2.0000     -10.315664      -280.7035
  32   2.0000     -10.315632      -280.7026
  33   2.0000     -10.315348      -280.6949
  34   2.0000     -10.314998      -280.6854
  35   2.0000     -10.314682      -280.6768
  36   2.0000     -10.313214      -280.6368
  37   2.0000     -10.308844      -280.5179
  38   2.0000     -10.307631      -280.4849
  39   2.0000     -10.304188      -280.3912
  40   2.0000     -10.303702      -280.3780
  41   2.0000     -10.301614      -280.3212
  42   2.0000     -10.300475      -280.2902
  43   2.0000     -10.296929      -280.1937
  44   2.0000     -10.295187      -280.1463
  45   2.0000     -10.288547      -279.9656
  46   2.0000     -10.285170      -279.8737
  47   2.0000     -10.279440      -279.7178
  48   2.0000     -10.279269      -279.7131
  49   2.0000     -10.276904      -279.6488
  50   2.0000     -10.276099      -279.6269
  51   2.0000     -10.275113      -279.6000
  52   2.0000     -10.275000      -279.5970
  53   2.0000     -10.274983      -279.5965
  54   2.0000     -10.270233      -279.4672
  55   2.0000     -10.269928      -279.4589
  56   2.0000     -10.268356      -279.4162
  57   2.0000     -10.267504      -279.3930
  58   2.0000     -10.267332      -279.3883
  59   2.0000     -10.267150      -279.3834
  60   2.0000     -10.266811      -279.3741
  61   2.0000     -10.266770      -279.3730
  62   2.0000     -10.265860      -279.3483
  63   2.0000     -10.265193      -279.3301
  64   2.0000     -10.265010      -279.3251
  65   2.0000     -10.263057      -279.2720
  66   2.0000     -10.261508      -279.2298
  67   2.0000     -10.260182      -279.1938
  68   2.0000     -10.258310      -279.1428
  69   2.0000      -8.092781      -220.2158
  70   2.0000      -8.090314      -220.1486
  71   2.0000      -8.082499      -219.9360
  72   2.0000      -6.062292      -164.9633
  73   2.0000      -6.059560      -164.8890
  74   2.0000      -6.058025      -164.8473
  75   2.0000      -6.055491      -164.7783
  76   2.0000      -6.054600      -164.7540
  77   2.0000      -6.052298      -164.6914
  78   2.0000      -6.052027      -164.6840
  79   2.0000      -6.047214      -164.5531
  80   2.0000      -6.044948      -164.4914
  81   2.0000      -1.342877       -36.5415
  82   2.0000      -1.334883       -36.3240
  83   2.0000      -1.331158       -36.2227
  84   2.0000      -1.162879       -31.6436
  85   2.0000      -1.152466       -31.3602
  86   2.0000      -1.148987       -31.2655
  87   2.0000      -1.125073       -30.6148
  88   2.0000      -1.088221       -29.6120
  89   2.0000      -1.082989       -29.4696
  90   2.0000      -1.038611       -28.2620
  91   2.0000      -1.034868       -28.1602
  92   2.0000      -1.003532       -27.3075
  93   2.0000      -0.994708       -27.0674
  94   2.0000      -0.984879       -26.7999
  95   2.0000      -0.956935       -26.0395
  96   2.0000      -0.953173       -25.9371
  97   2.0000      -0.949527       -25.8379
  98   2.0000      -0.946992       -25.7690
  99   2.0000      -0.940581       -25.5945
 100   2.0000      -0.937690       -25.5158
 101   2.0000      -0.932970       -25.3874
 102   2.0000      -0.919519       -25.0214
 103   2.0000      -0.915864       -24.9219
 104   2.0000      -0.910401       -24.7733
 105   2.0000      -0.902045       -24.5459
 106   2.0000      -0.896627       -24.3985
 107   2.0000      -0.885451       -24.0943
 108   2.0000      -0.879820       -23.9411
 109   2.0000      -0.872978       -23.7549
 110   2.0000      -0.867194       -23.5976
 111   2.0000      -0.845108       -22.9965
 112   2.0000      -0.842243       -22.9186
 113   2.0000      -0.838974       -22.8296
 114   2.0000      -0.834751       -22.7147
 115   2.0000      -0.832769       -22.6608
 116   2.0000      -0.810987       -22.0681
 117   2.0000      -0.807153       -21.9637
 118   2.0000      -0.804078       -21.8801
 119   2.0000      -0.802830       -21.8461
 120   2.0000      -0.799235       -21.7483
 121   2.0000      -0.793625       -21.5956
 122   2.0000      -0.773981       -21.0611
 123   2.0000      -0.758495       -20.6397
 124   2.0000      -0.754229       -20.5236
 125   2.0000      -0.744075       -20.2473
 126   2.0000      -0.736379       -20.0379
 127   2.0000      -0.729058       -19.8387
 128   2.0000      -0.717909       -19.5353
 129   2.0000      -0.714093       -19.4315
 130   2.0000      -0.711746       -19.3676
 131   2.0000      -0.707392       -19.2491
 132   2.0000      -0.700890       -19.0722
 133   2.0000      -0.697369       -18.9764
 134   2.0000      -0.694766       -18.9055
 135   2.0000      -0.687279       -18.7018
 136   2.0000      -0.681986       -18.5578
 137   2.0000      -0.670176       -18.2364
 138   2.0000      -0.666943       -18.1484
 139   2.0000      -0.662804       -18.0358
 140   2.0000      -0.660823       -17.9819
 141   2.0000      -0.657071       -17.8798
 142   2.0000      -0.655602       -17.8398
 143   2.0000      -0.652360       -17.7516
 144   2.0000      -0.643671       -17.5152
 145   2.0000      -0.641733       -17.4624
 146   2.0000      -0.640414       -17.4266
 147   2.0000      -0.633606       -17.2413
 148   2.0000      -0.628685       -17.1074
 149   2.0000      -0.623878       -16.9766
 150   2.0000      -0.619889       -16.8680
 151   2.0000      -0.609425       -16.5833
 152   2.0000      -0.608334       -16.5536
 153   2.0000      -0.605196       -16.4682
 154   2.0000      -0.604512       -16.4496
 155   2.0000      -0.603191       -16.4137
 156   2.0000      -0.600810       -16.3489
 157   2.0000      -0.595789       -16.2122
 158   2.0000      -0.587483       -15.9862
 159   2.0000      -0.586729       -15.9657
 160   2.0000      -0.577013       -15.7013
 161   2.0000      -0.575373       -15.6567
 162   2.0000      -0.569176       -15.4881
 163   2.0000      -0.561626       -15.2826
 164   2.0000      -0.560124       -15.2418
 165   2.0000      -0.558889       -15.2081
 166   2.0000      -0.557349       -15.1662
 167   2.0000      -0.554668       -15.0933
 168   2.0000      -0.550252       -14.9731
 169   2.0000      -0.547160       -14.8890
 170   2.0000      -0.544847       -14.8260
 171   2.0000      -0.540834       -14.7168
 172   2.0000      -0.540715       -14.7136
 173   2.0000      -0.533618       -14.5205
 174   2.0000      -0.531047       -14.4505
 175   2.0000      -0.528892       -14.3919
 176   2.0000      -0.524587       -14.2747
 177   2.0000      -0.522769       -14.2253
 178   2.0000      -0.521413       -14.1884
 179   2.0000      -0.519788       -14.1442
 180   2.0000      -0.514220       -13.9926
 181   2.0000      -0.512584       -13.9481
 182   2.0000      -0.511785       -13.9264
 183   2.0000      -0.506185       -13.7740
 184   2.0000      -0.501839       -13.6557
 185   2.0000      -0.501347       -13.6423
 186   2.0000      -0.500457       -13.6181
 187   2.0000      -0.496606       -13.5133
 188   2.0000      -0.492525       -13.4023
 189   2.0000      -0.484238       -13.1768
 190   2.0000      -0.482706       -13.1351
 191   2.0000      -0.480341       -13.0707
 192   2.0000      -0.478299       -13.0152
 193   2.0000      -0.474847       -12.9212
 194   2.0000      -0.471800       -12.8383
 195   2.0000      -0.470891       -12.8136
 196   2.0000      -0.469822       -12.7845
 197   2.0000      -0.460738       -12.5373
 198   2.0000      -0.456420       -12.4198
 199   2.0000      -0.455929       -12.4065
 200   2.0000      -0.453009       -12.3270
 201   2.0000      -0.450417       -12.2565
 202   2.0000      -0.449106       -12.2208
 203   2.0000      -0.444338       -12.0910
 204   2.0000      -0.443790       -12.0761
 205   2.0000      -0.442934       -12.0528
 206   2.0000      -0.440975       -11.9995
 207   2.0000      -0.439451       -11.9581
 208   2.0000      -0.438501       -11.9322
 209   2.0000      -0.436981       -11.8909
 210   2.0000      -0.434665       -11.8278
 211   2.0000      -0.431346       -11.7375
 212   2.0000      -0.429010       -11.6740
 213   2.0000      -0.427793       -11.6408
 214   2.0000      -0.421253       -11.4629
 215   2.0000      -0.420997       -11.4559
 216   2.0000      -0.419100       -11.4043
 217   2.0000      -0.418685       -11.3930
 218   2.0000      -0.415276       -11.3002
 219   2.0000      -0.410315       -11.1652
 220   2.0000      -0.409317       -11.1381
 221   2.0000      -0.408673       -11.1205
 222   2.0000      -0.403424       -10.9777
 223   2.0000      -0.401011       -10.9121
 224   2.0000      -0.398740       -10.8503
 225   2.0000      -0.397143       -10.8068
 226   2.0000      -0.393191       -10.6993
 227   2.0000      -0.392530       -10.6813
 228   2.0000      -0.391180       -10.6445
 229   2.0000      -0.388035       -10.5590
 230   2.0000      -0.386624       -10.5206
 231   2.0000      -0.380738       -10.3604
 232   2.0000      -0.375786       -10.2257
 233   2.0000      -0.370585       -10.0841
 234   2.0000      -0.363395        -9.8885
 235   2.0000      -0.357947        -9.7402
 236   2.0000      -0.351824        -9.5736
 237   2.0000      -0.351552        -9.5662
 238   2.0000      -0.348046        -9.4708
 239   2.0000      -0.334513        -9.1026
 240   2.0000      -0.328895        -8.9497
 241   2.0000      -0.326222        -8.8770
 242   2.0000      -0.311238        -8.4692
 243   2.0000      -0.298120        -8.1123
 244   2.0000      -0.279812        -7.6141
 245   2.0000      -0.277143        -7.5414
 246   2.0000      -0.268708        -7.3119
 247   2.0000      -0.257304        -7.0016
 248   2.0000      -0.245696        -6.6857
 249   0.0000      -0.109256        -2.9730
 250   0.0000      -0.073684        -2.0050
 251   0.0000      -0.063541        -1.7290
 252   0.0000      -0.058335        -1.5874
 253   0.0000      -0.047301        -1.2871

MULLIKEN ATOMIC CHARGES
-----------------------
   0 C :   -0.079570
   1 C :    0.131672
   2 N :   -0.178516
   3 C :    0.064305
   4 C :    0.008304
   5 C :    0.109594
   6 C :    0.057734
   7 C :    0.071573
   8 C :   -0.048755
   9 C :    0.027708
  10 C :    0.024842
  11 C :   -0.042152
  12 C :    0.029686
  13 C :   -0.037651
  14 C :    0.030819
  15 C :   -0.007988
  16 C :    0.037240
  17 C :   -0.158734
  18 S :    0.171548
  19 C :   -0.096632
  20 C :   -0.061765
  21 C :    0.200684
  22 N :    0.247682
  23 O :   -0.242086
  24 O :   -0.211120
  25 C :   -0.239243
  26 N :    0.166948
  27 C :    0.032600
  28 C :    0.070718
  29 C :   -0.193394
  30 S :    0.257048
  31 C :   -0.104325
  32 C :    0.055850
  33 C :    0.143620
  34 N :   -0.025336
  35 C :    0.140178
  36 N :    0.292185
  37 O :   -0.263157
  38 O :   -0.235922
  39 C :   -0.103723
  40 C :   -0.143260
  41 S :    0.091872
  42 C :   -0.031742
  43 C :   -0.087277
  44 C :    0.203152
  45 N :    0.286260
  46 O :   -0.277624
  47 O :   -0.213461
  48 C :   -0.220729
  49 N :    0.154888
  50 C :    0.002101
  51 C :   -0.056212
  52 C :    0.043831
  53 C :    0.110926
  54 N :   -0.190067
  55 C :    0.074755
  56 C :    0.010392
  57 C :    0.102646
  58 C :    0.068124
  59 C :    0.055884
  60 C :   -0.041323
  61 C :    0.032418
  62 C :   -0.036354
  63 C :   -0.049414
  64 C :    0.035557
  65 C :   -0.042141
  66 C :    0.014361
  67 C :   -0.067832
  68 C :   -0.016297
  69 H :   -0.035986
  70 H :    0.022769
  71 H :    0.051742
  72 H :    0.018002
  73 H :    0.034330
  74 H :    0.023045
  75 H :   -0.034068
  76 H :   -0.022550
  77 H :   -0.016619
  78 H :   -0.028445
  79 H :   -0.023554
  80 H :   -0.029972
  81 H :   -0.011346
  82 H :   -0.006064
  83 H :   -0.041129
  84 H :    0.010140
  85 H :    0.145136
  86 H :    0.007956
  87 H :    0.022826
  88 H :   -0.008460
  89 H :    0.038189
  90 H :    0.025893
  91 H :    0.028365
  92 H :    0.028528
  93 H :    0.030205
  94 H :   -0.027679
  95 H :   -0.018219
  96 H :   -0.017117
  97 H :   -0.031803
  98 H :   -0.022540
  99 H :   -0.024376
 100 H :    0.008675
 101 H :    0.025137
 102 H :    0.023083
Sum of atomic charges:   -0.0000000

LOEWDIN ATOMIC CHARGES
----------------------
   0 C :   -0.057308
   1 C :    0.030790
   2 N :    0.027559
   3 C :    0.033851
   4 C :   -0.064760
   5 C :    0.044528
   6 C :   -0.040872
   7 C :   -0.044065
   8 C :   -0.011610
   9 C :   -0.044250
  10 C :   -0.017788
  11 C :    0.000748
  12 C :   -0.047921
  13 C :   -0.006611
  14 C :   -0.066859
  15 C :    0.034450
  16 C :   -0.075640
  17 C :   -0.125873
  18 S :    0.474522
  19 C :   -0.137036
  20 C :   -0.096367
  21 C :   -0.065788
  22 N :    0.287155
  23 O :   -0.200734
  24 O :   -0.174828
  25 C :   -0.041854
  26 N :   -0.038316
  27 C :   -0.064596
  28 C :   -0.007685
  29 C :   -0.205462
  30 S :    0.563657
  31 C :   -0.205284
  32 C :   -0.067084
  33 C :   -0.001507
  34 N :    0.079216
  35 C :   -0.001039
  36 N :    0.280938
  37 O :   -0.221755
  38 O :   -0.197336
  39 C :   -0.044122
  40 C :   -0.136591
  41 S :    0.476888
  42 C :   -0.121109
  43 C :   -0.099716
  44 C :   -0.068481
  45 N :    0.289768
  46 O :   -0.237066
  47 O :   -0.167685
  48 C :   -0.041446
  49 N :   -0.045596
  50 C :   -0.052693
  51 C :    0.004049
  52 C :   -0.064733
  53 C :    0.039090
  54 N :    0.023991
  55 C :    0.035549
  56 C :   -0.063991
  57 C :    0.032932
  58 C :   -0.041196
  59 C :   -0.040155
  60 C :    0.000130
  61 C :   -0.042699
  62 C :   -0.004336
  63 C :   -0.011742
  64 C :   -0.041899
  65 C :   -0.012847
  66 C :   -0.054513
  67 C :   -0.026550
  68 C :   -0.042038
  69 H :    0.026295
  70 H :    0.030382
  71 H :    0.026680
  72 H :    0.027400
  73 H :    0.032984
  74 H :    0.021866
  75 H :    0.026661
  76 H :    0.025513
  77 H :    0.027960
  78 H :    0.029549
  79 H :    0.026817
  80 H :    0.025118
  81 H :    0.027891
  82 H :    0.029831
  83 H :    0.020925
  84 H :    0.042588
  85 H :    0.092716
  86 H :    0.029231
  87 H :    0.045233
  88 H :    0.018551
  89 H :    0.035745
  90 H :    0.028100
  91 H :    0.029387
  92 H :    0.031421
  93 H :    0.024377
  94 H :    0.029657
  95 H :    0.029163
  96 H :    0.030321
  97 H :    0.027505
  98 H :    0.026815
  99 H :    0.028081
 100 H :    0.027657
 101 H :    0.024736
 102 H :    0.024467

  Mayer bond orders larger than 0.100000
B(  0-C ,  1-C ) :   1.3100 B(  0-C , 10-C ) :   1.3993 B(  0-C , 69-H ) :   1.0036
B(  1-C ,  2-N ) :   1.1052 B(  1-C ,  7-C ) :   1.3086 B(  2-N ,  3-C ) :   0.9466
B(  2-N ,  5-C ) :   1.1737 B(  3-C ,  4-C ) :   1.1040 B(  3-C , 70-H ) :   0.9368
B(  3-C , 71-H ) :   0.9352 B(  4-C , 72-H ) :   0.9582 B(  4-C , 73-H ) :   0.9645
B(  4-C , 74-H ) :   0.9601 B(  5-C ,  6-C ) :   1.2634 B(  5-C , 14-C ) :   1.2718
B(  6-C ,  7-C ) :   1.0788 B(  6-C , 11-C ) :   1.3659 B(  7-C ,  8-C ) :   1.3391
B(  8-C ,  9-C ) :   1.4076 B(  8-C , 75-H ) :   0.9963 B(  9-C , 10-C ) :   1.3512
B(  9-C , 76-H ) :   0.9868 B( 10-C , 77-H ) :   0.9847 B( 11-C , 12-C ) :   1.3489
B( 11-C , 78-H ) :   1.0003 B( 12-C , 13-C ) :   1.3839 B( 12-C , 79-H ) :   0.9836
B( 13-C , 14-C ) :   1.3562 B( 13-C , 80-H ) :   0.9867 B( 14-C , 15-C ) :   1.0849
B( 15-C , 16-C ) :   1.7152 B( 15-C , 81-H ) :   0.9666 B( 16-C , 17-C ) :   1.1065
B( 16-C , 82-H ) :   0.9417 B( 17-C , 18-S ) :   1.1477 B( 17-C , 21-C ) :   1.4474
B( 18-S , 19-C ) :   1.0970 B( 19-C , 20-C ) :   1.5071 B( 19-C , 27-C ) :   1.1663
B( 20-C , 21-C ) :   1.2691 B( 20-C , 25-C ) :   1.1299 B( 21-C , 22-N ) :   0.9176
B( 22-N , 23-O ) :   1.4801 B( 22-N , 24-O ) :   1.5185 B( 23-O , 24-O ) :   0.2627
B( 25-C , 26-N ) :   2.9826 B( 27-C , 28-C ) :   1.6462 B( 27-C , 83-H ) :   0.9377
B( 28-C , 29-C ) :   1.1848 B( 28-C , 84-H ) :   0.9334 B( 29-C , 30-S ) :   1.1160
B( 29-C , 31-C ) :   0.1004 B( 29-C , 33-C ) :   1.3188 B( 30-S , 31-C ) :   1.1486
B( 31-C , 32-C ) :   1.2658 B( 31-C , 40-C ) :   1.2838 B( 32-C , 33-C ) :   1.2774
B( 32-C , 39-C ) :   1.1541 B( 33-C , 34-N ) :   1.1961 B( 34-N , 35-C ) :   1.1866
B( 34-N , 85-H ) :   0.9029 B( 35-C , 36-N ) :   0.9296 B( 35-C , 39-C ) :   1.5034
B( 36-N , 37-O ) :   1.4751 B( 36-N , 38-O ) :   1.5379 B( 37-O , 38-O ) :   0.2712
B( 39-C , 86-H ) :   1.0092 B( 40-C , 41-S ) :   1.1442 B( 40-C , 44-C ) :   1.3952
B( 41-S , 42-C ) :   1.0616 B( 42-C , 43-C ) :   1.5193 B( 42-C , 50-C ) :   1.1763
B( 43-C , 44-C ) :   1.2193 B( 43-C , 48-C ) :   1.1302 B( 44-C , 45-N ) :   0.9881
B( 45-N , 46-O ) :   1.4037 B( 45-N , 47-O ) :   1.5348 B( 46-O , 47-O ) :   0.2467
B( 48-C , 49-N ) :   2.9924 B( 50-C , 51-C ) :   1.6788 B( 50-C , 87-H ) :   0.9628
B( 51-C , 52-C ) :   1.0321 B( 51-C , 88-H ) :   0.9638 B( 52-C , 53-C ) :   1.2830
B( 52-C , 62-C ) :   1.3746 B( 53-C , 54-N ) :   1.1540 B( 53-C , 59-C ) :   1.2732
B( 54-N , 55-C ) :   0.9586 B( 54-N , 57-C ) :   1.1161 B( 55-C , 56-C ) :   1.1047
B( 55-C , 89-H ) :   0.9298 B( 55-C , 90-H ) :   0.9368 B( 56-C , 91-H ) :   0.9522
B( 56-C , 92-H ) :   0.9683 B( 56-C , 93-H ) :   0.9547 B( 57-C , 58-C ) :   1.2958
B( 57-C , 66-C ) :   1.3166 B( 58-C , 59-C ) :   1.0770 B( 58-C , 63-C ) :   1.3353
B( 59-C , 60-C ) :   1.3567 B( 60-C , 61-C ) :   1.3595 B( 60-C , 94-H ) :   0.9993
B( 61-C , 62-C ) :   1.3696 B( 61-C , 95-H ) :   0.9852 B( 62-C , 96-H ) :   0.9893
B( 63-C , 64-C ) :   1.3894 B( 63-C , 97-H ) :   1.0005 B( 64-C , 65-C ) :   1.3319
B( 64-C , 98-H ) :   0.9867 B( 65-C , 66-C ) :   1.4239 B( 65-C , 99-H ) :   0.9923
B( 66-C , 67-C ) :   0.9852 B( 67-C , 68-C ) :   1.9894 B( 67-C ,100-H ) :   0.9529
B( 68-C ,101-H ) :   0.9591 B( 68-C ,102-H ) :   0.9530

-----------------------------------------------------------------------------
         ABSORPTION SPECTRUM VIA TRANSITION ELECTRIC DIPOLE MOMENTS
-----------------------------------------------------------------------------
State   Energy  Wavelength   fosc         T2         TX        TY        TZ
        (cm-1)    (nm)                  (au**2)     (au)      (au)      (au)
-----------------------------------------------------------------------------
   0   15249.1    655.8   1.339646137  28.92149   2.22854   4.48450   1.96071
   1   20189.4    495.3   0.216699879   3.53355  -1.12115  -1.47546  -0.31557
   2   21102.3    473.9   0.135420402   2.11266   0.85281   1.07652  -0.47591
   3   22997.5    434.8   0.118526782   1.69672  -0.52435   0.58197  -1.04072
   4   23747.6    421.1   0.195522761   2.71052  -0.38364  -1.47296  -0.62747
   5   25441.2    393.1   0.162809548   2.10677  -0.30308  -1.33665   0.47779
   6   25726.9    388.7   0.473146618   6.05458   0.12027   2.37630  -0.62714
   7   26112.7    383.0   0.101203034   1.27590   0.08009  -1.11835   0.13707
   8   27110.1    368.9   0.009472642   0.11503   0.22272   0.14910  -0.20784
   9   27435.4    364.5   0.021990924   0.26388   0.12129   0.44271   0.23061
  10   28407.2    352.0   0.118777311   1.37651  -0.45769   0.96013  -0.49516
  11   29527.8    338.7   0.008195944   0.09138   0.14154   0.26693  -0.00983
  12   30008.8    333.2   0.021087312   0.23134   0.12806   0.41956  -0.19725
  13   30435.7    328.6   0.226066379   2.44527  -0.40944   1.01361  -1.11814
  14   30891.0    323.7   0.028103688   0.29951   0.20460   0.49832  -0.09653
  15   31080.8    321.7   0.033361524   0.35337  -0.13231  -0.57481   0.07391
  16   31352.7    319.0   0.033355002   0.35024   0.30461  -0.24836   0.44246
  17   31881.3    313.7   0.050779918   0.52436  -0.38753   0.48539  -0.37227
  18   32330.7    309.3   0.005434454   0.05534  -0.22283   0.07260  -0.02029
  19   32922.5    303.7   0.032760693   0.32759  -0.00496   0.56631   0.08285
  20   33901.0    295.0   0.076525489   0.74314  -0.49361  -0.70673  -0.00440
  21   34609.9    288.9   0.025121474   0.23896  -0.39549  -0.19868   0.20754
  22   34974.0    285.9   0.047199980   0.44430  -0.53752  -0.32665  -0.22062
  23   35343.8    282.9   0.015343715   0.14292   0.30334   0.22489   0.01808
  24   36080.4    277.2   0.047507292   0.43348  -0.34283  -0.38439  -0.41011
  25   36234.8    276.0   0.109723594   0.99689  -0.04334   0.99750   0.00240
  26   36376.3    274.9   0.016895247   0.15290  -0.08244  -0.35397  -0.14427
  27   36623.1    273.1   0.032444902   0.29165   0.00112  -0.52773  -0.11468
  28   36922.4    270.8   0.147054971   1.31119  -0.59996  -0.36547   0.90425
  29   37018.4    270.1   0.132463147   1.17802   0.29327  -0.25601   1.01315
  30   37283.3    268.2   0.070914348   0.62618  -0.24752   0.28134   0.69696
  31   37480.8    266.8   0.029928655   0.26288  -0.26120  -0.43636  -0.06513
  32   37956.1    263.5   0.033046328   0.28663   0.48063  -0.00393   0.23580
  33   38424.9    260.2   0.098135363   0.84079  -0.29531  -0.75952  -0.42036
  34   38614.3    259.0   0.149040339   1.27066   0.10372  -0.83500   0.75013
  35   38713.2    258.3   0.193599500   1.64635   0.47461  -0.32652   1.14650
  36   38845.3    257.4   0.003127126   0.02650  -0.10690  -0.10184   0.06858
  37   39034.3    256.2   0.404583953   3.41223  -0.42529   1.45937  -1.04957
  38   39192.6    255.2   0.027407912   0.23022   0.31899   0.35833   0.00847
  39   39774.9    251.4   0.001229376   0.01018  -0.08219  -0.00121   0.05847
  40   40139.1    249.1   0.075945108   0.62288  -0.48171  -0.58931  -0.20870
  41   40272.8    248.3   0.017277810   0.14124  -0.08670  -0.11843  -0.34597

FINAL SINGLE POINT ENERGY     -4081.629746220149

DIPOLE MOMENT
-------------
                                X             Y             Z
Electronic contribution:     -3.46299       2.36953     -20.04608
Nuclear contribution   :      5.67893      -3.38328      22.40093
                        -----------------------------------------
Total Dipole Moment    :      2.21594      -1.01375       2.35485
                        -----------------------------------------
Magnitude (a.u.)       :      3.38872
Magnitude (Debye)      :      8.61343

Rotational constants in cm-1:     0.002615     0.000241     0.000228
Rotational constants in MHz :    78.400847     7.221622     6.839821

                             ****ORCA TERMINATED NORMALLY****
TOTAL RUN TIME: 0 days 0 hours 9 minutes 3 seconds 544 msec
