                         Program Version 4.2.0 -  RELEASE  -
|  1> # ORCA input file
|  2> # SCF done       -155.182082522346          0.000845860007
|  3> ! CAM-B3LYP def2-SVP def2/J RIJCOSX Grid4 TightSCF
|  4> %maxcore 5000
|  5> %tddft
|  6>     Mode sTDDFT
|  7>     Ethresh 5.0
|  8>     maxcore 5000
|  9> end
| 10>
| 11> %pal
| 12>   nprocs 6
| 13>   end
| 14> * xyz 0 1
| 15>    C       -8.32430        -0.83560         3.11314
| 16>    C       -8.80278        -0.72710         1.84385
| 17>    C       -7.79109        -0.15183         1.00636
| 18>    C       -6.66393         0.08906         1.75659
| 19>    C       -6.98615        -0.30799         3.13884
| 20>    S       -6.10358        -0.01742         4.49479
| 21>    C       -5.45680         0.65713         1.28311
| 22>    N       -5.45859         1.46357         0.22601
| 23>    C       -4.20131         1.91352         0.09964
| 24>    C       -3.32736         1.36688         1.15244
| 25>    C       -1.94919         1.85756         0.98192
| 26>    O       -0.97503         1.63535         1.67318
| 27>    C       -2.05162         2.69097        -0.22480
| 28>    C       -3.43697         2.70715        -0.72715
| 29>    N       -3.52854         3.44867        -1.85526
| 30>    C       -2.30710         3.87711        -2.08390
| 31>    C       -1.33599         3.43375        -1.11385
| 32>    C       -4.10821         0.51302         1.88652
| 33>    C       -3.73419        -0.41058         2.91012
| 34>    C       -2.60710        -0.24668         3.64336
| 35>    C       -2.09504        -1.13030         4.64783
| 36>    C       -0.85669        -0.84210         5.19857
| 37>    C       -0.29170        -1.69250         6.15945
| 38>    C        0.92409        -1.62887         6.83866
| 39>    C        1.97912        -0.59542         6.63963
| 40>    C        2.17648         0.25895         7.90869
| 41>    N        2.93676         1.45075         7.58885
| 42>    C        3.29788        -1.23118         6.16038
| 43>    N        3.01640        -2.32456         5.24033
| 44>    C        0.98222        -2.78379         7.69957
| 45>    C        1.91069        -3.20663         8.57809
| 46>    C        1.77738        -4.49927         9.29931
| 47>    C        0.48804        -5.22436         9.05730
| 48>    C       -0.44802        -4.77052         8.20196
| 49>    C       -0.24938        -3.56125         7.49781
| 50>    C       -1.02219        -2.87924         6.57470
| 51>    C       -2.29549        -3.13871         6.02102
| 52>    C       -2.80889        -2.29024         5.09184
| 53>    C        2.87439        -5.45502         8.90785
| 54>    C        3.64686        -5.31475         7.82204
| 55>    C        4.67489        -6.26101         7.50967
| 56>    N        4.76350        -7.42899         8.11991
| 57>    C        5.82686        -8.05497         7.56957
| 58>    C        6.46137        -7.22521         6.53689
| 59>    C        7.62883        -7.91673         5.96840
| 60>    O        8.38831        -7.53593         5.10391
| 61>    C        7.64838        -9.18728         6.71907
| 62>    C        6.52997        -9.22962         7.68254
| 63>    N        6.55169       -10.38595         8.39089
| 64>    C        7.59164       -11.04354         7.93848
| 65>    C        8.32459       -10.35072         6.89807
| 66>    C        5.74150        -6.05328         6.49729
| 67>    C        5.93740        -4.86048         5.75656
| 68>    C        6.88163        -4.72076         4.78843
| 69>    C        7.12852        -3.52020         4.07807
| 70>    C        6.68300        -2.24351         4.28687
| 71>    C        7.23903        -1.37141         3.28323
| 72>    C        8.03061        -2.08801         2.44708
| 73>    C        8.02021        -3.45885         2.88843
| 74>    S        8.81294        -4.71555         2.21540
| 75>    H       -8.83825        -1.19315         3.98479
| 76>    H       -9.78022        -1.01487         1.50215
| 77>    H       -7.87842         0.03108        -0.04776
| 78>    H       -2.10448         4.50557        -2.93383
| 79>    H       -0.28868         3.66355        -1.12530
| 80>    H       -4.35327        -1.28950         3.01922
| 81>    H       -2.00901         0.63466         3.45374
| 82>    H       -0.32690         0.03996         4.86955
| 83>    H        1.64030         0.09051         5.85779
| 84>    H        2.63175        -0.35717         8.70142
| 85>    H        1.19089         0.57760         8.25881
| 86>    H        3.91095         1.22875         7.41984
| 87>    H        2.89358         2.12320         8.34463
| 88>    H        3.84858        -1.65193         7.00958
| 89>    H        3.92003        -0.43772         5.71502
| 90>    H        2.35752        -2.01955         4.53143
| 91>    H        3.86041        -2.61516         4.75606
| 92>    H        2.81410        -2.64891         8.77622
| 93>    H        1.88020        -4.31225        10.37952
| 94>    H        0.35898        -6.15292         9.59087
| 95>    H       -1.36368        -5.32260         8.04804
| 96>    H       -2.84997        -4.00786         6.34279
| 97>    H       -3.78683        -2.48199         4.67961
| 98>    H        3.01667        -6.31825         9.54220
| 99>    H        3.52149        -4.47257         7.15578
|100>    H        7.83790       -12.01167         8.33909
|101>    H        9.20321       -10.71624         6.40438
|102>    H        5.29173        -4.02689         5.99594
|103>    H        7.49455        -5.57189         4.51696
|104>    H        6.05024        -1.90436         5.08691
|105>    H        7.03971        -0.31598         3.22818
|106>    H        8.58302        -1.73696         1.59755
|107> *
|108>
|109>                          ****END OF INPUT****

CARTESIAN COORDINATES (ANGSTROEM)
---------------------------------
  C     -8.324300   -0.835600    3.113140
  C     -8.802780   -0.727100    1.843850
  C     -7.791090   -0.151830    1.006360
  C     -6.663930    0.089060    1.756590
  C     -6.986150   -0.307990    3.138840
  S     -6.103580   -0.017420    4.494790
  C     -5.456800    0.657130    1.283110
  N     -5.458590    1.463570    0.226010
  C     -4.201310    1.913520    0.099640
  C     -3.327360    1.366880    1.152440
  C     -1.949190    1.857560    0.981920
  O     -0.975030    1.635350    1.673180
  C     -2.051620    2.690970   -0.224800
  C     -3.436970    2.707150   -0.727150
  N     -3.528540    3.448670   -1.855260
  C     -2.307100    3.877110   -2.083900
  C     -1.335990    3.433750   -1.113850
  C     -4.108210    0.513020    1.886520
  C     -3.734190   -0.410580    2.910120
  C     -2.607100   -0.246680    3.643360
  C     -2.095040   -1.130300    4.647830
  C     -0.856690   -0.842100    5.198570
  C     -0.291700   -1.692500    6.159450
  C      0.924090   -1.628870    6.838660
  C      1.979120   -0.595420    6.639630
  C      2.176480    0.258950    7.908690
  N      2.936760    1.450750    7.588850
  C      3.297880   -1.231180    6.160380
  N      3.016400   -2.324560    5.240330
  C      0.982220   -2.783790    7.699570
  C      1.910690   -3.206630    8.578090
  C      1.777380   -4.499270    9.299310
  C      0.488040   -5.224360    9.057300
  C     -0.448020   -4.770520    8.201960
  C     -0.249380   -3.561250    7.497810
  C     -1.022190   -2.879240    6.574700
  C     -2.295490   -3.138710    6.021020
  C     -2.808890   -2.290240    5.091840
  C      2.874390   -5.455020    8.907850
  C      3.646860   -5.314750    7.822040
  C      4.674890   -6.261010    7.509670
  N      4.763500   -7.428990    8.119910
  C      5.826860   -8.054970    7.569570
  C      6.461370   -7.225210    6.536890
  C      7.628830   -7.916730    5.968400
  O      8.388310   -7.535930    5.103910
  C      7.648380   -9.187280    6.719070
  C      6.529970   -9.229620    7.682540
  N      6.551690  -10.385950    8.390890
  C      7.591640  -11.043540    7.938480
  C      8.324590  -10.350720    6.898070
  C      5.741500   -6.053280    6.497290
  C      5.937400   -4.860480    5.756560
  C      6.881630   -4.720760    4.788430
  C      7.128520   -3.520200    4.078070
  C      6.683000   -2.243510    4.286870
  C      7.239030   -1.371410    3.283230
  C      8.030610   -2.088010    2.447080
  C      8.020210   -3.458850    2.888430
  S      8.812940   -4.715550    2.215400
  H     -8.838250   -1.193150    3.984790
  H     -9.780220   -1.014870    1.502150
  H     -7.878420    0.031080   -0.047760
  H     -2.104480    4.505570   -2.933830
  H     -0.288680    3.663550   -1.125300
  H     -4.353270   -1.289500    3.019220
  H     -2.009010    0.634660    3.453740
  H     -0.326900    0.039960    4.869550
  H      1.640300    0.090510    5.857790
  H      2.631750   -0.357170    8.701420
  H      1.190890    0.577600    8.258810
  H      3.910950    1.228750    7.419840
  H      2.893580    2.123200    8.344630
  H      3.848580   -1.651930    7.009580
  H      3.920030   -0.437720    5.715020
  H      2.357520   -2.019550    4.531430
  H      3.860410   -2.615160    4.756060
  H      2.814100   -2.648910    8.776220
  H      1.880200   -4.312250   10.379520
  H      0.358980   -6.152920    9.590870
  H     -1.363680   -5.322600    8.048040
  H     -2.849970   -4.007860    6.342790
  H     -3.786830   -2.481990    4.679610
  H      3.016670   -6.318250    9.542200
  H      3.521490   -4.472570    7.155780
  H      7.837900  -12.011670    8.339090
  H      9.203210  -10.716240    6.404380
  H      5.291730   -4.026890    5.995940
  H      7.494550   -5.571890    4.516960
  H      6.050240   -1.904360    5.086910
  H      7.039710   -0.315980    3.228180
  H      8.583020   -1.736960    1.597550

 Total Charge           Charge          ....    0
 Multiplicity           Mult            ....    1
 Number of Electrons    NEL             ....  422
 Basis Dimension        Dim             .... 1008

ORBITAL ENERGIES
----------------

  NO   OCC          E(Eh)            E(eV)
   0   2.0000     -88.939219     -2420.1592
   1   2.0000     -88.920325     -2419.6450
   2   2.0000     -19.200866      -522.4821
   3   2.0000     -19.199573      -522.4469
   4   2.0000     -14.401285      -391.8789
   5   2.0000     -14.399245      -391.8234
   6   2.0000     -14.395024      -391.7085
   7   2.0000     -14.393092      -391.6559
   8   2.0000     -14.387552      -391.5052
   9   2.0000     -14.383054      -391.3828
  10   2.0000     -10.360752      -281.9304
  11   2.0000     -10.359924      -281.9079
  12   2.0000     -10.346740      -281.5491
  13   2.0000     -10.339319      -281.3472
  14   2.0000     -10.334138      -281.2062
  15   2.0000     -10.329346      -281.0758
  16   2.0000     -10.323340      -280.9124
  17   2.0000     -10.322732      -280.8958
  18   2.0000     -10.313116      -280.6342
  19   2.0000     -10.310813      -280.5715
  20   2.0000     -10.310425      -280.5609
  21   2.0000     -10.309650      -280.5398
  22   2.0000     -10.308587      -280.5109
  23   2.0000     -10.302859      -280.3550
  24   2.0000     -10.301994      -280.3315
  25   2.0000     -10.300070      -280.2792
  26   2.0000     -10.299382      -280.2604
  27   2.0000     -10.296022      -280.1690
  28   2.0000     -10.295592      -280.1573
  29   2.0000     -10.294805      -280.1359
  30   2.0000     -10.294633      -280.1312
  31   2.0000     -10.292776      -280.0807
  32   2.0000     -10.291307      -280.0407
  33   2.0000     -10.287449      -279.9357
  34   2.0000     -10.287349      -279.9330
  35   2.0000     -10.284625      -279.8589
  36   2.0000     -10.280496      -279.7465
  37   2.0000     -10.279523      -279.7201
  38   2.0000     -10.278917      -279.7036
  39   2.0000     -10.278479      -279.6916
  40   2.0000     -10.277742      -279.6716
  41   2.0000     -10.277681      -279.6699
  42   2.0000     -10.277083      -279.6537
  43   2.0000     -10.275756      -279.6175
  44   2.0000     -10.275661      -279.6149
  45   2.0000     -10.273874      -279.5663
  46   2.0000     -10.273518      -279.5566
  47   2.0000     -10.273453      -279.5549
  48   2.0000     -10.273276      -279.5501
  49   2.0000     -10.273188      -279.5477
  50   2.0000     -10.272112      -279.5184
  51   2.0000     -10.268491      -279.4198
  52   2.0000     -10.268222      -279.4125
  53   2.0000     -10.266954      -279.3780
  54   2.0000     -10.266849      -279.3752
  55   2.0000     -10.265736      -279.3449
  56   2.0000     -10.261918      -279.2410
  57   2.0000     -10.261858      -279.2394
  58   2.0000     -10.261474      -279.2289
  59   2.0000     -10.260922      -279.2139
  60   2.0000      -8.034217      -218.6222
  61   2.0000      -8.015802      -218.1211
  62   2.0000      -6.005029      -163.4051
  63   2.0000      -6.001938      -163.3210
  64   2.0000      -5.992297      -163.0587
  65   2.0000      -5.986397      -162.8982
  66   2.0000      -5.983563      -162.8210
  67   2.0000      -5.974060      -162.5624
  68   2.0000      -1.115496       -30.3542
  69   2.0000      -1.112860       -30.2825
  70   2.0000      -1.068770       -29.0827
  71   2.0000      -1.067774       -29.0556
  72   2.0000      -1.048223       -28.5236
  73   2.0000      -1.047658       -28.5082
  74   2.0000      -0.998861       -27.1804
  75   2.0000      -0.985968       -26.8296
  76   2.0000      -0.984229       -26.7822
  77   2.0000      -0.970524       -26.4093
  78   2.0000      -0.957967       -26.0676
  79   2.0000      -0.948528       -25.8108
  80   2.0000      -0.928267       -25.2594
  81   2.0000      -0.923719       -25.1357
  82   2.0000      -0.917830       -24.9754
  83   2.0000      -0.907867       -24.7043
  84   2.0000      -0.896934       -24.4068
  85   2.0000      -0.880786       -23.9674
  86   2.0000      -0.878515       -23.9056
  87   2.0000      -0.866222       -23.5711
  88   2.0000      -0.865282       -23.5455
  89   2.0000      -0.857507       -23.3339
  90   2.0000      -0.850900       -23.1542
  91   2.0000      -0.846998       -23.0480
  92   2.0000      -0.837380       -22.7863
  93   2.0000      -0.836646       -22.7663
  94   2.0000      -0.832824       -22.6623
  95   2.0000      -0.825602       -22.4658
  96   2.0000      -0.799517       -21.7560
  97   2.0000      -0.791454       -21.5366
  98   2.0000      -0.766203       -20.8494
  99   2.0000      -0.762113       -20.7382
 100   2.0000      -0.756607       -20.5883
 101   2.0000      -0.751331       -20.4448
 102   2.0000      -0.743460       -20.2306
 103   2.0000      -0.741308       -20.1720
 104   2.0000      -0.735611       -20.0170
 105   2.0000      -0.731214       -19.8973
 106   2.0000      -0.727386       -19.7932
 107   2.0000      -0.700428       -19.0596
 108   2.0000      -0.699182       -19.0257
 109   2.0000      -0.695459       -18.9244
 110   2.0000      -0.690792       -18.7974
 111   2.0000      -0.681149       -18.5350
 112   2.0000      -0.666858       -18.1461
 113   2.0000      -0.659404       -17.9433
 114   2.0000      -0.646281       -17.5862
 115   2.0000      -0.643870       -17.5206
 116   2.0000      -0.642009       -17.4700
 117   2.0000      -0.641100       -17.4452
 118   2.0000      -0.635790       -17.3007
 119   2.0000      -0.628319       -17.0974
 120   2.0000      -0.615858       -16.7584
 121   2.0000      -0.611068       -16.6280
 122   2.0000      -0.599099       -16.3023
 123   2.0000      -0.598055       -16.2739
 124   2.0000      -0.596348       -16.2274
 125   2.0000      -0.593983       -16.1631
 126   2.0000      -0.587962       -15.9993
 127   2.0000      -0.587737       -15.9931
 128   2.0000      -0.580686       -15.8013
 129   2.0000      -0.577942       -15.7266
 130   2.0000      -0.574540       -15.6340
 131   2.0000      -0.568016       -15.4565
 132   2.0000      -0.566683       -15.4202
 133   2.0000      -0.559235       -15.2176
 134   2.0000      -0.558553       -15.1990
 135   2.0000      -0.547772       -14.9056
 136   2.0000      -0.541793       -14.7429
 137   2.0000      -0.540759       -14.7148
 138   2.0000      -0.537490       -14.6259
 139   2.0000      -0.535368       -14.5681
 140   2.0000      -0.534655       -14.5487
 141   2.0000      -0.523891       -14.2558
 142   2.0000      -0.523337       -14.2407
 143   2.0000      -0.520743       -14.1701
 144   2.0000      -0.519622       -14.1396
 145   2.0000      -0.513655       -13.9772
 146   2.0000      -0.511260       -13.9121
 147   2.0000      -0.506325       -13.7778
 148   2.0000      -0.504654       -13.7323
 149   2.0000      -0.503357       -13.6970
 150   2.0000      -0.502217       -13.6660
 151   2.0000      -0.499851       -13.6016
 152   2.0000      -0.498068       -13.5531
 153   2.0000      -0.493862       -13.4387
 154   2.0000      -0.493261       -13.4223
 155   2.0000      -0.492483       -13.4011
 156   2.0000      -0.487076       -13.2540
 157   2.0000      -0.483747       -13.1634
 158   2.0000      -0.482142       -13.1198
 159   2.0000      -0.479367       -13.0442
 160   2.0000      -0.477041       -12.9809
 161   2.0000      -0.475357       -12.9351
 162   2.0000      -0.473252       -12.8778
 163   2.0000      -0.472376       -12.8540
 164   2.0000      -0.469201       -12.7676
 165   2.0000      -0.467689       -12.7265
 166   2.0000      -0.464739       -12.6462
 167   2.0000      -0.462730       -12.5915
 168   2.0000      -0.460805       -12.5391
 169   2.0000      -0.457477       -12.4486
 170   2.0000      -0.456878       -12.4323
 171   2.0000      -0.454007       -12.3542
 172   2.0000      -0.451637       -12.2897
 173   2.0000      -0.449065       -12.2197
 174   2.0000      -0.446043       -12.1374
 175   2.0000      -0.437829       -11.9139
 176   2.0000      -0.433582       -11.7984
 177   2.0000      -0.433115       -11.7857
 178   2.0000      -0.429773       -11.6947
 179   2.0000      -0.425510       -11.5787
 180   2.0000      -0.417441       -11.3591
 181   2.0000      -0.408943       -11.1279
 182   2.0000      -0.399429       -10.8690
 183   2.0000      -0.395496       -10.7620
 184   2.0000      -0.388445       -10.5701
 185   2.0000      -0.384331       -10.4582
 186   2.0000      -0.377412       -10.2699
 187   2.0000      -0.363891        -9.9020
 188   2.0000      -0.362782        -9.8718
 189   2.0000      -0.352477        -9.5914
 190   2.0000      -0.352349        -9.5879
 191   2.0000      -0.350112        -9.5270
 192   2.0000      -0.346944        -9.4408
 193   2.0000      -0.343696        -9.3524
 194   2.0000      -0.342137        -9.3100
 195   2.0000      -0.333940        -9.0870
 196   2.0000      -0.331747        -9.0273
 197   2.0000      -0.324104        -8.8193
 198   2.0000      -0.322143        -8.7660
 199   2.0000      -0.320091        -8.7101
 200   2.0000      -0.319023        -8.6810
 201   2.0000      -0.317783        -8.6473
 202   2.0000      -0.310794        -8.4571
 203   2.0000      -0.308654        -8.3989
 204   2.0000      -0.305698        -8.3185
 205   2.0000      -0.298329        -8.1179
 206   2.0000      -0.296726        -8.0743
 207   2.0000      -0.288668        -7.8551
 208   2.0000      -0.263138        -7.1603
 209   2.0000      -0.257869        -7.0170
 210   2.0000      -0.217638        -5.9222
 211   0.0000      -0.123010        -3.3473
 212   0.0000      -0.108440        -2.9508
 213   0.0000      -0.092806        -2.5254
 214   0.0000      -0.092621        -2.5203
 215   0.0000      -0.068551        -1.8654

MULLIKEN ATOMIC CHARGES
-----------------------
   0 C :    0.041156
   1 C :    0.047619
   2 C :    0.025195
   3 C :    0.010486
   4 C :   -0.057129
   5 S :    0.009521
   6 C :    0.032423
   7 N :   -0.040816
   8 C :    0.076551
   9 C :   -0.168995
  10 C :    0.207406
  11 O :   -0.151681
  12 C :   -0.023733
  13 C :   -0.043269
  14 N :   -0.059345
  15 C :    0.082614
  16 C :   -0.094256
  17 C :    0.056154
  18 C :   -0.028169
  19 C :   -0.000910
  20 C :    0.113965
  21 C :   -0.116756
  22 C :    0.059779
  23 C :   -0.017908
  24 C :   -0.043495
  25 C :    0.130362
  26 N :   -0.213887
  27 C :    0.096685
  28 N :   -0.198816
  29 C :    0.144726
  30 C :   -0.167214
  31 C :    0.168386
  32 C :   -0.040525
  33 C :    0.022555
  34 C :    0.011783
  35 C :    0.037726
  36 C :    0.001956
  37 C :   -0.010074
  38 C :   -0.049884
  39 C :   -0.037139
  40 C :    0.049234
  41 N :   -0.044782
  42 C :    0.071134
  43 C :   -0.161525
  44 C :    0.211944
  45 O :   -0.137399
  46 C :   -0.013698
  47 C :   -0.037778
  48 N :   -0.058286
  49 C :    0.084725
  50 C :   -0.100599
  51 C :    0.058340
  52 C :   -0.033232
  53 C :    0.034728
  54 C :    0.080760
  55 C :   -0.056047
  56 C :    0.053928
  57 C :    0.029979
  58 C :   -0.041322
  59 S :   -0.012870
  60 H :   -0.000977
  61 H :    0.007080
  62 H :    0.017958
  63 H :    0.002335
  64 H :   -0.011473
  65 H :   -0.009920
  66 H :    0.002016
  67 H :   -0.021906
  68 H :   -0.013988
  69 H :   -0.026697
  70 H :    0.006977
  71 H :    0.087235
  72 H :    0.095669
  73 H :   -0.016113
  74 H :    0.003459
  75 H :    0.104833
  76 H :    0.086805
  77 H :   -0.007649
  78 H :    0.037752
  79 H :   -0.005474
  80 H :   -0.034629
  81 H :   -0.039468
  82 H :   -0.038804
  83 H :    0.032950
  84 H :    0.030023
  85 H :    0.003230
  86 H :   -0.009824
  87 H :   -0.056152
  88 H :    0.013359
  89 H :   -0.017082
  90 H :   -0.000025
  91 H :   -0.011781
Sum of atomic charges:   -0.0000000

LOEWDIN ATOMIC CHARGES
----------------------
   0 C :   -0.028100
   1 C :    0.001413
   2 C :    0.071402
   3 C :   -0.087449
   4 C :   -0.134947
   5 S :    0.223620
   6 C :    0.076810
   7 N :   -0.105387
   8 C :    0.049777
   9 C :   -0.056829
  10 C :    0.068033
  11 O :   -0.151832
  12 C :   -0.042773
  13 C :    0.009299
  14 N :   -0.100111
  15 C :    0.062397
  16 C :   -0.041561
  17 C :   -0.018786
  18 C :   -0.057245
  19 C :    0.014820
  20 C :   -0.028832
  21 C :   -0.002217
  22 C :   -0.023203
  23 C :   -0.022628
  24 C :   -0.039612
  25 C :    0.028123
  26 N :   -0.117236
  27 C :    0.017660
  28 N :   -0.113432
  29 C :   -0.006408
  30 C :    0.059401
  31 C :   -0.032417
  32 C :   -0.027911
  33 C :   -0.013325
  34 C :   -0.031228
  35 C :   -0.027554
  36 C :   -0.006606
  37 C :   -0.026031
  38 C :    0.078212
  39 C :   -0.064289
  40 C :    0.077788
  41 N :   -0.108943
  42 C :    0.051132
  43 C :   -0.052778
  44 C :    0.066568
  45 O :   -0.139413
  46 C :   -0.040664
  47 C :    0.013227
  48 N :   -0.098906
  49 C :    0.065683
  50 C :   -0.040251
  51 C :   -0.023532
  52 C :   -0.034255
  53 C :    0.019388
  54 C :   -0.052563
  55 C :   -0.015428
  56 C :    0.013318
  57 C :   -0.056740
  58 C :   -0.131295
  59 S :    0.180591
  60 H :    0.032620
  61 H :    0.033235
  62 H :    0.040930
  63 H :    0.020687
  64 H :    0.031628
  65 H :    0.014338
  66 H :    0.033077
  67 H :    0.030182
  68 H :    0.030032
  69 H :   -0.004360
  70 H :    0.024293
  71 H :    0.048616
  72 H :    0.056474
  73 H :    0.003587
  74 H :    0.000800
  75 H :    0.063054
  76 H :    0.049484
  77 H :    0.024246
  78 H :    0.059443
  79 H :    0.026455
  80 H :    0.031056
  81 H :    0.026784
  82 H :    0.020410
  83 H :    0.038178
  84 H :    0.033530
  85 H :    0.020972
  86 H :    0.032356
  87 H :    0.021494
  88 H :    0.030954
  89 H :    0.021035
  90 H :    0.029777
  91 H :    0.028686

  Mayer bond orders larger than 0.100000
B(  0-C ,  1-C ) :   1.6445 B(  0-C ,  4-C ) :   1.0633 B(  0-C , 60-H ) :   1.0134
B(  1-C ,  2-C ) :   1.0472 B(  1-C ,  5-S ) :   0.1011 B(  1-C , 61-H ) :   1.0043
B(  2-C ,  3-C ) :   1.6216 B(  2-C , 62-H ) :   1.0146 B(  3-C ,  4-C ) :   1.0349
B(  3-C ,  6-C ) :   1.0539 B(  4-C ,  5-S ) :   1.7379 B(  6-C ,  7-N ) :   1.6315
B(  6-C ,  8-C ) :   0.1231 B(  6-C , 17-C ) :   1.0250 B(  7-N ,  8-C ) :   1.3509
B(  8-C ,  9-C ) :   1.0486 B(  8-C , 13-C ) :   1.4034 B(  9-C , 10-C ) :   0.8959
B(  9-C , 17-C ) :   1.5779 B( 10-C , 11-O ) :   2.2127 B( 10-C , 12-C ) :   0.9253
B( 12-C , 13-C ) :   1.0749 B( 12-C , 16-C ) :   1.5883 B( 13-C , 14-N ) :   1.3227
B( 14-N , 15-C ) :   1.6467 B( 15-C , 16-C ) :   1.0867 B( 15-C , 63-H ) :   0.9901
B( 16-C , 64-H ) :   1.0100 B( 17-C , 18-C ) :   1.0936 B( 18-C , 19-C ) :   1.6466
B( 18-C , 65-H ) :   0.9388 B( 19-C , 20-C ) :   1.0967 B( 19-C , 66-H ) :   0.9795
B( 20-C , 21-C ) :   1.4860 B( 20-C , 37-C ) :   1.1185 B( 21-C , 22-C ) :   1.1139
B( 21-C , 67-H ) :   1.0100 B( 22-C , 23-C ) :   1.4916 B( 22-C , 35-C ) :   1.1168
B( 23-C , 24-C ) :   1.0300 B( 23-C , 29-C ) :   1.0827 B( 24-C , 25-C ) :   1.0483
B( 24-C , 27-C ) :   1.0279 B( 24-C , 68-H ) :   0.8718 B( 25-C , 26-N ) :   1.1114
B( 25-C , 69-H ) :   0.9333 B( 25-C , 70-H ) :   0.9424 B( 26-N , 71-H ) :   0.9701
B( 26-N , 72-H ) :   0.9689 B( 27-C , 28-N ) :   1.1098 B( 27-C , 73-H ) :   0.9288
B( 27-C , 74-H ) :   0.9370 B( 28-N , 75-H ) :   0.9573 B( 28-N , 76-H ) :   0.9585
B( 29-C , 30-C ) :   1.6591 B( 29-C , 34-C ) :   1.0617 B( 30-C , 31-C ) :   0.9830
B( 30-C , 77-H ) :   0.9651 B( 31-C , 32-C ) :   0.9763 B( 31-C , 38-C ) :   0.9382
B( 31-C , 78-H ) :   0.8600 B( 32-C , 33-C ) :   1.7323 B( 32-C , 79-H ) :   0.9659
B( 33-C , 34-C ) :   1.1308 B( 33-C , 80-H ) :   0.9885 B( 34-C , 35-C ) :   1.4406
B( 35-C , 36-C ) :   1.1360 B( 36-C , 37-C ) :   1.6200 B( 36-C , 81-H ) :   0.9895
B( 37-C , 82-H ) :   0.9796 B( 38-C , 39-C ) :   1.8032 B( 38-C , 83-H ) :   0.9682
B( 39-C , 40-C ) :   1.0863 B( 39-C , 84-H ) :   0.9334 B( 40-C , 41-N ) :   1.6224
B( 40-C , 42-C ) :   0.1116 B( 40-C , 51-C ) :   0.9954 B( 41-N , 42-C ) :   1.3364
B( 42-C , 43-C ) :   1.0580 B( 42-C , 47-C ) :   1.4192 B( 43-C , 44-C ) :   0.8979
B( 43-C , 51-C ) :   1.5376 B( 44-C , 45-O ) :   2.2002 B( 44-C , 46-C ) :   0.9265
B( 46-C , 47-C ) :   1.0722 B( 46-C , 50-C ) :   1.5991 B( 47-C , 48-N ) :   1.3106
B( 48-N , 49-C ) :   1.6596 B( 49-C , 50-C ) :   1.0753 B( 49-C , 85-H ) :   0.9891
B( 50-C , 86-H ) :   1.0111 B( 51-C , 52-C ) :   1.1425 B( 52-C , 53-C ) :   1.6340
B( 52-C , 87-H ) :   0.9585 B( 53-C , 54-C ) :   1.1209 B( 53-C , 88-H ) :   0.9474
B( 54-C , 55-C ) :   1.6265 B( 54-C , 58-C ) :   0.9957 B( 55-C , 56-C ) :   1.0639
B( 55-C , 89-H ) :   0.9970 B( 56-C , 57-C ) :   1.6516 B( 56-C , 59-S ) :   0.1107
B( 56-C , 90-H ) :   1.0020 B( 57-C , 58-C ) :   1.0695 B( 57-C , 91-H ) :   1.0186
B( 58-C , 59-S ) :   1.7594

-----------------------------------------------------------------------------
         ABSORPTION SPECTRUM VIA TRANSITION ELECTRIC DIPOLE MOMENTS
-----------------------------------------------------------------------------
State   Energy  Wavelength   fosc         T2         TX        TY        TZ
        (cm-1)    (nm)                  (au**2)     (au)      (au)      (au)
-----------------------------------------------------------------------------
   0    6471.2   1545.3   0.064014314   3.25662  -1.25479   0.75874  -1.05187
   1   11337.2    882.0   0.048731426   1.41507   0.91660  -0.73769   0.17530
   2   12051.3    829.8   0.013287726   0.36299  -0.40632   0.08864  -0.43593
   3   13223.6    756.2   0.028248808   0.70328  -0.30967   0.18375  -0.75737
   4   14293.2    699.6   0.005663424   0.13044  -0.16657  -0.21870   0.23424
   5   14446.9    692.2   0.209439338   4.77265  -0.37717  -1.75090   1.25089
   6   14899.3    671.2   0.032413618   0.71620  -0.67210   0.51102  -0.05787
   7   15453.6    647.1   0.005836654   0.12434  -0.01280   0.30023  -0.18449
   8   16163.2    618.7   0.016842599   0.34305  -0.49466  -0.21364   0.22960
   9   16644.2    600.8   0.064688763   1.27950  -0.88152  -0.50829   0.49403
  10   16825.1    594.3   0.059412224   1.16250  -0.26652   0.98510  -0.34791
  11   20585.0    485.8   0.030544486   0.48849   0.02797  -0.38555   0.58229
  12   21298.3    469.5   0.009348726   0.14450   0.11424   0.28621  -0.22257
  13   21736.0    460.1   0.000015128   0.00023  -0.00045  -0.01260   0.00838
  14   21937.7    455.8   0.002238620   0.03359   0.07837  -0.16417  -0.02236
  15   23460.1    426.3   0.150824168   2.11649   0.28205   1.03902  -0.97846
  16   23528.7    425.0   0.087034139   1.21777   0.97486   0.21661  -0.46957
  17   24056.5    415.7   0.566740555   7.75581  -1.42588   1.69136  -1.69173
  18   24676.7    405.2   0.269085886   3.58987   1.37154  -1.28065   0.26206
  19   25068.8    398.9   0.026100948   0.34277   0.05321   0.29714  -0.50164
  20   25190.3    397.0   0.127541848   1.66684  -0.16756   0.54450  -1.15857
  21   25342.0    394.6   0.263915750   3.42846  -1.82442  -0.21027  -0.23606
  22   26028.0    384.2   0.069103924   0.87405   0.25766  -0.89703  -0.05478
  23   26386.4    379.0   0.053268826   0.66461  -0.22706   0.77860  -0.08270
  24   26529.9    376.9   0.053180264   0.65992  -0.28459  -0.28640   0.70491
  25   26666.6    375.0   0.010732750   0.13250   0.31717  -0.00647  -0.17850
  26   26813.2    373.0   0.002206222   0.02709  -0.05898   0.10844  -0.10886
  27   27180.5    367.9   0.101638949   1.23106   0.22931   0.85934  -0.66334
  28   27216.5    367.4   0.007374828   0.08921   0.03179   0.29477  -0.03615
  29   27275.2    366.6   0.046556013   0.56193  -0.64597   0.06173   0.37530
  30   27564.8    362.8   0.025074550   0.29947  -0.50473  -0.15732   0.14132
  31   27652.9    361.6   0.004481324   0.05335   0.06220  -0.12563   0.18357
  32   27824.7    359.4   0.114274449   1.35205   0.27332   0.63742  -0.93330
  33   28021.1    356.9   0.184581787   2.16860   0.13075   1.12181  -0.94501
  34   28296.5    353.4   0.012456744   0.14493  -0.12036  -0.22153   0.28524
  35   28722.6    348.2   0.151494405   1.73640   0.61929   0.68959  -0.93667
  36   29185.8    342.6   0.002600215   0.02933  -0.01632   0.16159  -0.05434
  37   29261.0    341.8   0.006088119   0.06850  -0.11945   0.20157  -0.11662
  38   29355.4    340.7   0.024767516   0.27776  -0.03071  -0.38265   0.36110
  39   29548.3    338.4   0.003546092   0.03951   0.08432   0.05386  -0.17175
  40   29842.5    335.1   0.064922544   0.71620   0.43796   0.55149  -0.46931
  41   30210.3    331.0   0.091560490   0.99777   0.27760  -0.93496   0.21576
  42   30323.4    329.8   0.296532021   3.21936   0.84790  -1.53931   0.36184
  43   30809.3    324.6   0.004111041   0.04393   0.11446  -0.15299   0.08614
  44   30884.9    323.8   0.000007628   0.00008  -0.00388  -0.00518   0.00628
  45   30952.8    323.1   0.008270895   0.08797  -0.20534  -0.18020   0.11547
  46   31192.0    320.6   0.093560413   0.98747   0.46936  -0.85457   0.19206
  47   31691.6    315.5   0.010565642   0.10976   0.32770  -0.01190   0.04721
  48   31760.8    314.9   0.013970283   0.14481   0.20503  -0.02623   0.31950
  49   31922.1    313.3   0.063552190   0.65541  -0.58108   0.49879  -0.26261
  50   31966.4    312.8   0.006934852   0.07142  -0.08358   0.22311  -0.12107
  51   32020.3    312.3   0.015770288   0.16214   0.14544   0.26180  -0.26916
  52   32122.1    311.3   0.174625241   1.78970   1.13442  -0.38455   0.59574
  53   32434.6    308.3   0.025095628   0.25472  -0.10327  -0.33703   0.36120
  54   32834.5    304.6   0.050091130   0.50223   0.70136   0.04046   0.09323
  55   33175.9    301.4   0.003137939   0.03114  -0.02442  -0.13636   0.10931
  56   33344.1    299.9   0.060302936   0.59538  -0.29240   0.47398   0.53407
  57   33541.2    298.1   0.044572537   0.43749   0.49818  -0.18367   0.39442
  58   33912.7    294.9   0.046707005   0.45341   0.64338  -0.04303  -0.19397
  59   34008.1    294.0   0.049963191   0.48366  -0.08103  -0.48017   0.49653
  60   34425.1    290.5   0.202601807   1.93751   1.05781  -0.43704   0.79217
  61   34539.5    289.5   0.104898071   0.99983   0.71835  -0.35452   0.59844
  62   34941.0    286.2   0.026767561   0.25220   0.36279  -0.32425  -0.12430
  63   35037.4    285.4   0.159035907   1.49430   0.62445   0.64744  -0.82776
  64   35222.2    283.9   0.003330377   0.03113  -0.15790  -0.07770   0.01253
  65   35616.6    280.8   0.014673963   0.13563   0.28317   0.20557  -0.11485
  66   36157.0    276.6   0.000204295   0.00186   0.03141   0.01475   0.02561
  67   36162.2    276.5   0.000116879   0.00106   0.02118   0.02344   0.00813
  68   36313.2    275.4   0.005093775   0.04618  -0.04660  -0.12274   0.17013
  69   36457.1    274.3   0.024791164   0.22387   0.39615  -0.02533   0.25747
  70   36782.7    271.9   0.000001019   0.00001   0.00174   0.00239  -0.00062
  71   36870.6    271.2   0.000109754   0.00098   0.03096  -0.00251  -0.00393
  72   36879.4    271.2   0.003844830   0.03432  -0.06844  -0.10776   0.13426
  73   36962.1    270.5   0.001360823   0.01212  -0.10152   0.03497  -0.02429
  74   37084.7    269.7   0.092908186   0.82477   0.69068   0.55439  -0.20094
  75   37294.9    268.1   0.218174176   1.92588  -0.51110  -0.91181   0.91283
  76   37396.2    267.4   0.012870620   0.11330  -0.26834  -0.11368   0.16844
  77   37545.9    266.3   0.049893668   0.43748   0.22632   0.27951  -0.55510
  78   37710.8    265.2   0.013720857   0.11978  -0.22199  -0.17599   0.19883
  79   37732.5    265.0   0.003903008   0.03405   0.16676   0.06751  -0.04108
  80   37795.3    264.6   0.035345150   0.30787   0.54731  -0.07029   0.05812
  81   38123.1    262.3   0.028040392   0.24214   0.41760   0.24040  -0.09980
  82   38216.7    261.7   0.113651928   0.97904   0.90748   0.39428   0.00788
  83   38358.0    260.7   0.000150676   0.00129  -0.03551  -0.00560  -0.00074
  84   38621.4    258.9   0.177761357   1.51525   1.21480  -0.16894   0.10469
  85   38691.7    258.5   0.270205072   2.29907  -1.18376   0.79874   0.50970
  86   38890.3    257.1   0.096613018   0.81784   0.69071  -0.46783  -0.34913
  87   39007.6    256.4   0.002639210   0.02227  -0.10113   0.09123   0.06103
  88   39269.7    254.6   0.023796130   0.19949  -0.16021   0.23610  -0.34363
  89   39354.0    254.1   0.013990412   0.11704   0.22346   0.25894  -0.00722
  90   39440.3    253.5   0.024733642   0.20645  -0.42567   0.03534  -0.15495
  91   39515.4    253.1   0.079538430   0.66265   0.64548  -0.08600   0.48848
  92   39731.2    251.7   0.001773461   0.01469   0.10738   0.05008   0.02562
  93   39752.7    251.6   0.025542514   0.21153  -0.13376   0.38873  -0.20621
  94   39792.7    251.3   0.022710880   0.18789  -0.22883   0.03048  -0.36688
  95   39883.6    250.7   0.105037396   0.86701   0.73604   0.18330  -0.54005

FINAL SINGLE POINT ENERGY     -3196.273398261462

DIPOLE MOMENT
-------------
                                X             Y             Z
Electronic contribution:     -9.47418     -10.86185     -22.96621
Nuclear contribution   :      8.47384      11.58728      24.13611
                        -----------------------------------------
Total Dipole Moment    :     -1.00034       0.72542       1.16990
                        -----------------------------------------
Magnitude (a.u.)       :      1.70164
Magnitude (Debye)      :      4.32523

Rotational constants in cm-1:     0.001911     0.000503     0.000443
Rotational constants in MHz :    57.291952    15.082489    13.293591

                             ****ORCA TERMINATED NORMALLY****
TOTAL RUN TIME: 0 days 0 hours 12 minutes 35 seconds 119 msec
