                         Program Version 4.2.0 -  RELEASE  -
|  1> # ORCA input file
|  2> # SCF done       -146.770488113301          0.000280044626
|  3> ! CAM-B3LYP def2-SVP def2/J RIJCOSX Grid4 TightSCF
|  4> %maxcore 5000
|  5> %tddft
|  6>     Mode sTDDFT
|  7>     Ethresh 5.0
|  8>     maxcore 5000
|  9> end
| 10>
| 11> %pal
| 12>   nprocs 6
| 13>   end
| 14> * xyz 0 1
| 15>    C        7.14093        10.95709         4.06766
| 16>    O        6.58543         9.74273         4.07941
| 17>    C        7.47457         8.88595         3.52810
| 18>    C        8.61271         9.57969         3.16135
| 19>    C        8.39518        10.92778         3.51424
| 20>    C        9.33088        12.06829         3.32350
| 21>    C        7.16124         7.50441         3.41676
| 22>    C        8.02399         6.50223         2.78684
| 23>    N        7.54873         5.29129         2.81692
| 24>    C        6.34822         5.38737         3.45788
| 25>    C        6.06690         6.77894         3.83367
| 26>    C        4.81292         6.85169         4.54082
| 27>    S        4.13471         8.19964         5.20223
| 28>    C        4.34072         5.49023         4.58500
| 29>    C        5.31290         4.61257         3.91511
| 30>    N        4.92684         3.30733         3.99787
| 31>    C        3.83208         3.31626         4.70301
| 32>    C        3.38897         4.64494         5.12469
| 33>    C        2.21971         4.92849         5.90585
| 34>    C        1.61352         6.16590         5.80878
| 35>    C        0.50319         6.46667         6.61002
| 36>    C       -0.23260         7.64430         6.72259
| 37>    C        0.08269         8.89900         5.98787
| 38>    C       -1.14040         9.71172         5.53634
| 39>    N       -0.79088        10.43646         4.32901
| 40>    C        1.04800         9.75801         6.83503
| 41>    N        1.60504        10.83002         6.02420
| 42>    C       -1.23547         7.40381         7.73342
| 43>    C       -2.19831         8.19080         8.24988
| 44>    C       -3.13778         7.69753         9.29835
| 45>    C       -2.88812         6.29953         9.75478
| 46>    C       -1.92583         5.52025         9.22717
| 47>    C       -1.07539         6.02057         8.21331
| 48>    C       -0.01371         5.46400         7.52611
| 49>    C        0.60324         4.19268         7.57719
| 50>    C        1.68138         3.93821         6.79107
| 51>    C       -3.15852         8.70843        10.41924
| 52>    C       -2.58833         8.51446        11.61162
| 53>    C       -2.60235         9.46864        12.67891
| 54>    C       -3.22330        10.79513        12.69842
| 55>    N       -3.08173        11.44210        13.82128
| 56>    C       -2.36570        10.60930        14.63128
| 57>    C       -2.04694         9.35717        13.93143
| 58>    C       -1.29639         8.48009        14.79821
| 59>    S       -0.74769         6.97562        14.42357
| 60>    C       -1.16817         9.22036        16.02716
| 61>    C       -1.83810        10.52526        15.89330
| 62>    N       -1.73737        11.24149        17.04973
| 63>    C       -1.06886        10.48537        17.87072
| 64>    C       -0.66854         9.19047        17.31341
| 65>    C        0.06643         8.17380        17.98136
| 66>    O        0.36700         7.04575        17.29064
| 67>    C        1.04783         6.24106        18.10148
| 68>    C        1.20857         6.81446        19.33084
| 69>    C        0.57658         8.07430        19.27289
| 70>    C        0.49883         9.05277        20.38984
| 71>    H        6.56454        11.76579         4.47270
| 72>    H        9.49021         9.17157         2.70321
| 73>    H        9.55477        12.20141         2.26612
| 74>    H       10.26893        11.87906         3.84313
| 75>    H        8.89375        12.98546         3.70860
| 76>    H        8.97008         6.70752         2.31879
| 77>    H        3.30663         2.39639         4.89332
| 78>    H        1.98983         6.89524         5.11054
| 79>    H        0.61873         8.62891         5.07202
| 80>    H       -1.46565        10.37686         6.35416
| 81>    H       -1.96552         9.03223         5.29572
| 82>    H        0.01338        11.02507         4.53142
| 83>    H       -1.55796        11.03064         4.03334
| 84>    H        1.82092         9.09553         7.25597
| 85>    H        0.49796        10.20621         7.66853
| 86>    H        2.23416        10.42916         5.33346
| 87>    H        2.15793        11.45088         6.60641
| 88>    H       -2.32918         9.21569         7.93643
| 89>    H       -4.14581         7.72152         8.84799
| 90>    H       -3.54049         5.93378        10.53299
| 91>    H       -1.78383         4.50793         9.57588
| 92>    H        0.21930         3.43926         8.24907
| 93>    H        2.17179         2.97801         6.84254
| 94>    H       -3.65020         9.64278        10.18704
| 95>    H       -2.07918         7.58410        11.82695
| 96>    H       -3.76186        11.24884        11.88504
| 97>    H       -0.85306        10.83244        18.86385
| 98>    H        1.36569         5.29649        17.70545
| 99>    H        1.71459         6.39378        20.17577
|100>    H        0.99976         8.64811        21.26561
|101>    H       -0.53785         9.26258        20.65040
|102>    H        0.98191         9.99068        20.11858
|103> *
|104>
|105>                          ****END OF INPUT****

CARTESIAN COORDINATES (ANGSTROEM)
---------------------------------
  C      7.140930   10.957090    4.067660
  O      6.585430    9.742730    4.079410
  C      7.474570    8.885950    3.528100
  C      8.612710    9.579690    3.161350
  C      8.395180   10.927780    3.514240
  C      9.330880   12.068290    3.323500
  C      7.161240    7.504410    3.416760
  C      8.023990    6.502230    2.786840
  N      7.548730    5.291290    2.816920
  C      6.348220    5.387370    3.457880
  C      6.066900    6.778940    3.833670
  C      4.812920    6.851690    4.540820
  S      4.134710    8.199640    5.202230
  C      4.340720    5.490230    4.585000
  C      5.312900    4.612570    3.915110
  N      4.926840    3.307330    3.997870
  C      3.832080    3.316260    4.703010
  C      3.388970    4.644940    5.124690
  C      2.219710    4.928490    5.905850
  C      1.613520    6.165900    5.808780
  C      0.503190    6.466670    6.610020
  C     -0.232600    7.644300    6.722590
  C      0.082690    8.899000    5.987870
  C     -1.140400    9.711720    5.536340
  N     -0.790880   10.436460    4.329010
  C      1.048000    9.758010    6.835030
  N      1.605040   10.830020    6.024200
  C     -1.235470    7.403810    7.733420
  C     -2.198310    8.190800    8.249880
  C     -3.137780    7.697530    9.298350
  C     -2.888120    6.299530    9.754780
  C     -1.925830    5.520250    9.227170
  C     -1.075390    6.020570    8.213310
  C     -0.013710    5.464000    7.526110
  C      0.603240    4.192680    7.577190
  C      1.681380    3.938210    6.791070
  C     -3.158520    8.708430   10.419240
  C     -2.588330    8.514460   11.611620
  C     -2.602350    9.468640   12.678910
  C     -3.223300   10.795130   12.698420
  N     -3.081730   11.442100   13.821280
  C     -2.365700   10.609300   14.631280
  C     -2.046940    9.357170   13.931430
  C     -1.296390    8.480090   14.798210
  S     -0.747690    6.975620   14.423570
  C     -1.168170    9.220360   16.027160
  C     -1.838100   10.525260   15.893300
  N     -1.737370   11.241490   17.049730
  C     -1.068860   10.485370   17.870720
  C     -0.668540    9.190470   17.313410
  C      0.066430    8.173800   17.981360
  O      0.367000    7.045750   17.290640
  C      1.047830    6.241060   18.101480
  C      1.208570    6.814460   19.330840
  C      0.576580    8.074300   19.272890
  C      0.498830    9.052770   20.389840
  H      6.564540   11.765790    4.472700
  H      9.490210    9.171570    2.703210
  H      9.554770   12.201410    2.266120
  H     10.268930   11.879060    3.843130
  H      8.893750   12.985460    3.708600
  H      8.970080    6.707520    2.318790
  H      3.306630    2.396390    4.893320
  H      1.989830    6.895240    5.110540
  H      0.618730    8.628910    5.072020
  H     -1.465650   10.376860    6.354160
  H     -1.965520    9.032230    5.295720
  H      0.013380   11.025070    4.531420
  H     -1.557960   11.030640    4.033340
  H      1.820920    9.095530    7.255970
  H      0.497960   10.206210    7.668530
  H      2.234160   10.429160    5.333460
  H      2.157930   11.450880    6.606410
  H     -2.329180    9.215690    7.936430
  H     -4.145810    7.721520    8.847990
  H     -3.540490    5.933780   10.532990
  H     -1.783830    4.507930    9.575880
  H      0.219300    3.439260    8.249070
  H      2.171790    2.978010    6.842540
  H     -3.650200    9.642780   10.187040
  H     -2.079180    7.584100   11.826950
  H     -3.761860   11.248840   11.885040
  H     -0.853060   10.832440   18.863850
  H      1.365690    5.296490   17.705450
  H      1.714590    6.393780   20.175770
  H      0.999760    8.648110   21.265610
  H     -0.537850    9.262580   20.650400
  H      0.981910    9.990680   20.118580

 Total Charge           Charge          ....    0
 Multiplicity           Mult            ....    1
 Number of Electrons    NEL             ....  398
 Basis Dimension        Dim             ....  952

ORBITAL ENERGIES
----------------

  NO   OCC          E(Eh)            E(eV)
   0   2.0000     -88.886273     -2418.7184
   1   2.0000     -88.882872     -2418.6259
   2   2.0000     -19.288288      -524.8610
   3   2.0000     -19.284689      -524.7631
   4   2.0000     -14.412128      -392.1739
   5   2.0000     -14.408958      -392.0877
   6   2.0000     -14.406659      -392.0251
   7   2.0000     -14.403491      -391.9389
   8   2.0000     -14.378315      -391.2538
   9   2.0000     -14.350222      -390.4894
  10   2.0000     -10.332872      -281.1717
  11   2.0000     -10.330613      -281.1103
  12   2.0000     -10.330513      -281.1075
  13   2.0000     -10.329559      -281.0816
  14   2.0000     -10.328955      -281.0652
  15   2.0000     -10.328320      -281.0479
  16   2.0000     -10.328093      -281.0417
  17   2.0000     -10.326214      -280.9906
  18   2.0000     -10.323560      -280.9184
  19   2.0000     -10.321310      -280.8571
  20   2.0000     -10.321290      -280.8566
  21   2.0000     -10.319439      -280.8062
  22   2.0000     -10.316462      -280.7252
  23   2.0000     -10.314987      -280.6851
  24   2.0000     -10.305826      -280.4358
  25   2.0000     -10.301669      -280.3227
  26   2.0000     -10.300093      -280.2798
  27   2.0000     -10.295848      -280.1643
  28   2.0000     -10.294926      -280.1392
  29   2.0000     -10.291841      -280.0552
  30   2.0000     -10.290933      -280.0305
  31   2.0000     -10.287521      -279.9377
  32   2.0000     -10.285855      -279.8923
  33   2.0000     -10.284040      -279.8429
  34   2.0000     -10.280931      -279.7584
  35   2.0000     -10.279910      -279.7306
  36   2.0000     -10.278445      -279.6907
  37   2.0000     -10.276949      -279.6500
  38   2.0000     -10.274315      -279.5783
  39   2.0000     -10.274231      -279.5760
  40   2.0000     -10.273916      -279.5675
  41   2.0000     -10.272971      -279.5418
  42   2.0000     -10.271225      -279.4942
  43   2.0000     -10.270378      -279.4712
  44   2.0000     -10.270156      -279.4651
  45   2.0000     -10.268358      -279.4162
  46   2.0000     -10.267094      -279.3818
  47   2.0000     -10.264519      -279.3118
  48   2.0000     -10.263923      -279.2955
  49   2.0000     -10.263888      -279.2946
  50   2.0000     -10.263587      -279.2864
  51   2.0000     -10.259706      -279.1808
  52   2.0000     -10.256308      -279.0883
  53   2.0000     -10.255917      -279.0777
  54   2.0000     -10.255224      -279.0588
  55   2.0000     -10.253763      -279.0191
  56   2.0000      -7.981939      -217.1996
  57   2.0000      -7.978439      -217.1044
  58   2.0000      -5.950758      -161.9284
  59   2.0000      -5.950707      -161.9270
  60   2.0000      -5.947333      -161.8351
  61   2.0000      -5.946922      -161.8240
  62   2.0000      -5.941014      -161.6632
  63   2.0000      -5.937717      -161.5735
  64   2.0000      -1.211221       -32.9590
  65   2.0000      -1.206928       -32.8422
  66   2.0000      -1.077369       -29.3167
  67   2.0000      -1.071657       -29.1613
  68   2.0000      -1.058566       -28.8050
  69   2.0000      -1.052996       -28.6535
  70   2.0000      -0.978509       -26.6266
  71   2.0000      -0.962009       -26.1776
  72   2.0000      -0.953774       -25.9535
  73   2.0000      -0.949192       -25.8288
  74   2.0000      -0.943081       -25.6625
  75   2.0000      -0.930877       -25.3304
  76   2.0000      -0.916392       -24.9363
  77   2.0000      -0.916009       -24.9259
  78   2.0000      -0.907218       -24.6867
  79   2.0000      -0.893782       -24.3211
  80   2.0000      -0.893317       -24.3084
  81   2.0000      -0.892593       -24.2887
  82   2.0000      -0.870825       -23.6964
  83   2.0000      -0.858450       -23.3596
  84   2.0000      -0.844110       -22.9694
  85   2.0000      -0.839139       -22.8341
  86   2.0000      -0.832723       -22.6595
  87   2.0000      -0.828589       -22.5470
  88   2.0000      -0.823562       -22.4103
  89   2.0000      -0.819091       -22.2886
  90   2.0000      -0.816496       -22.2180
  91   2.0000      -0.797016       -21.6879
  92   2.0000      -0.790257       -21.5040
  93   2.0000      -0.788213       -21.4484
  94   2.0000      -0.771475       -20.9929
  95   2.0000      -0.764304       -20.7978
  96   2.0000      -0.749410       -20.3925
  97   2.0000      -0.737330       -20.0638
  98   2.0000      -0.728775       -19.8310
  99   2.0000      -0.718249       -19.5446
 100   2.0000      -0.711575       -19.3629
 101   2.0000      -0.703035       -19.1306
 102   2.0000      -0.694947       -18.9105
 103   2.0000      -0.688021       -18.7220
 104   2.0000      -0.680559       -18.5190
 105   2.0000      -0.679416       -18.4878
 106   2.0000      -0.674742       -18.3607
 107   2.0000      -0.669044       -18.2056
 108   2.0000      -0.662805       -18.0358
 109   2.0000      -0.659677       -17.9507
 110   2.0000      -0.656177       -17.8555
 111   2.0000      -0.636794       -17.3280
 112   2.0000      -0.631428       -17.1820
 113   2.0000      -0.626688       -17.0530
 114   2.0000      -0.617160       -16.7938
 115   2.0000      -0.611181       -16.6311
 116   2.0000      -0.604334       -16.4448
 117   2.0000      -0.598539       -16.2871
 118   2.0000      -0.590284       -16.0624
 119   2.0000      -0.578725       -15.7479
 120   2.0000      -0.576008       -15.6740
 121   2.0000      -0.570425       -15.5220
 122   2.0000      -0.566501       -15.4153
 123   2.0000      -0.560310       -15.2468
 124   2.0000      -0.559570       -15.2267
 125   2.0000      -0.557534       -15.1713
 126   2.0000      -0.554284       -15.0828
 127   2.0000      -0.553741       -15.0681
 128   2.0000      -0.551045       -14.9947
 129   2.0000      -0.542137       -14.7523
 130   2.0000      -0.540571       -14.7097
 131   2.0000      -0.537742       -14.6327
 132   2.0000      -0.535158       -14.5624
 133   2.0000      -0.533316       -14.5123
 134   2.0000      -0.527577       -14.3561
 135   2.0000      -0.519713       -14.1421
 136   2.0000      -0.516287       -14.0489
 137   2.0000      -0.513487       -13.9727
 138   2.0000      -0.511637       -13.9224
 139   2.0000      -0.508221       -13.8294
 140   2.0000      -0.505072       -13.7437
 141   2.0000      -0.503662       -13.7053
 142   2.0000      -0.503366       -13.6973
 143   2.0000      -0.502164       -13.6646
 144   2.0000      -0.496361       -13.5067
 145   2.0000      -0.494159       -13.4467
 146   2.0000      -0.487866       -13.2755
 147   2.0000      -0.485979       -13.2242
 148   2.0000      -0.484618       -13.1871
 149   2.0000      -0.482755       -13.1364
 150   2.0000      -0.482158       -13.1202
 151   2.0000      -0.480010       -13.0617
 152   2.0000      -0.478332       -13.0161
 153   2.0000      -0.477110       -12.9828
 154   2.0000      -0.472491       -12.8571
 155   2.0000      -0.470154       -12.7935
 156   2.0000      -0.469911       -12.7869
 157   2.0000      -0.466703       -12.6996
 158   2.0000      -0.463147       -12.6029
 159   2.0000      -0.457651       -12.4533
 160   2.0000      -0.456676       -12.4268
 161   2.0000      -0.455084       -12.3835
 162   2.0000      -0.440976       -11.9996
 163   2.0000      -0.437089       -11.8938
 164   2.0000      -0.433877       -11.8064
 165   2.0000      -0.433437       -11.7944
 166   2.0000      -0.431424       -11.7396
 167   2.0000      -0.426818       -11.6143
 168   2.0000      -0.422140       -11.4870
 169   2.0000      -0.418558       -11.3895
 170   2.0000      -0.414241       -11.2721
 171   2.0000      -0.408972       -11.1287
 172   2.0000      -0.403598       -10.9825
 173   2.0000      -0.401490       -10.9251
 174   2.0000      -0.391521       -10.6538
 175   2.0000      -0.388422       -10.5695
 176   2.0000      -0.380327       -10.3492
 177   2.0000      -0.365985        -9.9589
 178   2.0000      -0.365171        -9.9368
 179   2.0000      -0.360073        -9.7981
 180   2.0000      -0.352117        -9.5816
 181   2.0000      -0.350835        -9.5467
 182   2.0000      -0.347376        -9.4526
 183   2.0000      -0.346780        -9.4364
 184   2.0000      -0.345052        -9.3893
 185   2.0000      -0.339273        -9.2321
 186   2.0000      -0.338508        -9.2113
 187   2.0000      -0.321162        -8.7393
 188   2.0000      -0.310492        -8.4489
 189   2.0000      -0.305749        -8.3199
 190   2.0000      -0.302072        -8.2198
 191   2.0000      -0.288834        -7.8596
 192   2.0000      -0.280951        -7.6451
 193   2.0000      -0.277552        -7.5526
 194   2.0000      -0.271531        -7.3887
 195   2.0000      -0.266758        -7.2588
 196   2.0000      -0.265318        -7.2197
 197   2.0000      -0.263545        -7.1714
 198   2.0000      -0.215161        -5.8548
 199   0.0000      -0.104764        -2.8508
 200   0.0000      -0.100577        -2.7368
 201   0.0000      -0.072261        -1.9663
 202   0.0000      -0.068247        -1.8571
 203   0.0000      -0.053676        -1.4606

MULLIKEN ATOMIC CHARGES
-----------------------
   0 C :    0.091129
   1 O :   -0.154122
   2 C :    0.102762
   3 C :   -0.088115
   4 C :   -0.083821
   5 C :    0.126294
   6 C :    0.031838
   7 C :    0.053489
   8 N :   -0.029287
   9 C :    0.014884
  10 C :   -0.014324
  11 C :   -0.006621
  12 S :   -0.167975
  13 C :   -0.016774
  14 C :   -0.007535
  15 N :   -0.031730
  16 C :    0.049049
  17 C :    0.009006
  18 C :    0.070506
  19 C :   -0.046027
  20 C :    0.032112
  21 C :   -0.018817
  22 C :   -0.072293
  23 C :    0.137549
  24 N :   -0.212418
  25 C :    0.146361
  26 N :   -0.217509
  27 C :    0.082370
  28 C :   -0.105052
  29 C :    0.187495
  30 C :   -0.061407
  31 C :    0.023228
  32 C :    0.004548
  33 C :    0.046150
  34 C :   -0.004887
  35 C :   -0.020572
  36 C :   -0.106773
  37 C :    0.026303
  38 C :    0.000956
  39 C :    0.047008
  40 N :   -0.028495
  41 C :    0.015434
  42 C :    0.001592
  43 C :   -0.016482
  44 S :   -0.124353
  45 C :   -0.008601
  46 C :   -0.010184
  47 N :   -0.025172
  48 C :    0.040813
  49 C :   -0.001245
  50 C :    0.074295
  51 O :   -0.153549
  52 C :    0.163294
  53 C :   -0.044535
  54 C :   -0.142093
  55 C :    0.120512
  56 H :   -0.000553
  57 H :   -0.023452
  58 H :    0.028263
  59 H :    0.026328
  60 H :    0.008937
  61 H :   -0.000912
  62 H :    0.007085
  63 H :   -0.028874
  64 H :   -0.004762
  65 H :   -0.020440
  66 H :   -0.007395
  67 H :    0.080842
  68 H :    0.077618
  69 H :    0.001956
  70 H :   -0.017505
  71 H :    0.104610
  72 H :    0.094277
  73 H :   -0.017446
  74 H :    0.042470
  75 H :   -0.007328
  76 H :   -0.036039
  77 H :   -0.038581
  78 H :   -0.033652
  79 H :   -0.004868
  80 H :    0.008832
  81 H :    0.002794
  82 H :   -0.006582
  83 H :    0.013818
  84 H :   -0.016733
  85 H :    0.013223
  86 H :    0.037902
  87 H :    0.037956
Sum of atomic charges:   -0.0000000

LOEWDIN ATOMIC CHARGES
----------------------
   0 C :    0.037397
   1 O :    0.039220
   2 C :    0.018922
   3 C :   -0.053691
   4 C :   -0.075107
   5 C :   -0.043801
   6 C :   -0.044157
   7 C :    0.081536
   8 N :   -0.077899
   9 C :    0.028113
  10 C :   -0.044887
  11 C :   -0.133173
  12 S :    0.045930
  13 C :   -0.052413
  14 C :    0.037653
  15 N :   -0.081773
  16 C :    0.082091
  17 C :   -0.018759
  18 C :   -0.043730
  19 C :    0.028937
  20 C :   -0.025229
  21 C :   -0.009142
  22 C :   -0.040937
  23 C :    0.026944
  24 N :   -0.126260
  25 C :    0.028750
  26 N :   -0.105370
  27 C :   -0.018368
  28 C :    0.074963
  29 C :   -0.031121
  30 C :   -0.037133
  31 C :   -0.012374
  32 C :   -0.039367
  33 C :   -0.028341
  34 C :   -0.011389
  35 C :   -0.029426
  36 C :    0.002167
  37 C :   -0.019767
  38 C :   -0.036995
  39 C :    0.084099
  40 N :   -0.084607
  41 C :    0.032946
  42 C :   -0.035038
  43 C :   -0.144192
  44 S :    0.050413
  45 C :   -0.046662
  46 C :    0.035570
  47 N :   -0.078995
  48 C :    0.082198
  49 C :   -0.042660
  50 C :    0.002293
  51 O :    0.043240
  52 C :    0.059098
  53 C :   -0.079698
  54 C :   -0.046396
  55 C :   -0.048136
  56 H :    0.022233
  57 H :    0.027193
  58 H :    0.036891
  59 H :    0.036475
  60 H :    0.032909
  61 H :    0.022428
  62 H :    0.023927
  63 H :    0.014308
  64 H :    0.030379
  65 H :   -0.006992
  66 H :    0.013388
  67 H :    0.035837
  68 H :    0.047843
  69 H :    0.002884
  70 H :    0.011613
  71 H :    0.050655
  72 H :    0.056693
  73 H :    0.026935
  74 H :    0.064519
  75 H :    0.026076
  76 H :    0.030540
  77 H :    0.026801
  78 H :    0.023322
  79 H :    0.020902
  80 H :    0.032417
  81 H :    0.021506
  82 H :    0.022438
  83 H :    0.026581
  84 H :    0.029648
  85 H :    0.037322
  86 H :    0.038548
  87 H :    0.038296

  Mayer bond orders larger than 0.100000
B(  0-C ,  1-O ) :   1.1616 B(  0-C ,  4-C ) :   1.5223 B(  0-C , 56-H ) :   1.0078
B(  1-O ,  2-C ) :   1.2052 B(  2-C ,  3-C ) :   1.4770 B(  2-C ,  6-C ) :   1.0366
B(  3-C ,  4-C ) :   1.2596 B(  3-C , 57-H ) :   1.0088 B(  4-C ,  5-C ) :   1.0758
B(  5-C , 58-H ) :   0.9526 B(  5-C , 59-H ) :   0.9527 B(  5-C , 60-H ) :   0.9535
B(  6-C ,  7-C ) :   1.0411 B(  6-C , 10-C ) :   1.5093 B(  7-C ,  8-N ) :   1.7403
B(  7-C , 61-H ) :   0.9891 B(  8-N ,  9-C ) :   1.2566 B(  9-C , 10-C ) :   1.0672
B(  9-C , 14-C ) :   1.5143 B( 10-C , 11-C ) :   1.0368 B( 11-C , 12-S ) :   1.6730
B( 11-C , 13-C ) :   1.0483 B( 13-C , 14-C ) :   1.0688 B( 13-C , 17-C ) :   1.5163
B( 14-C , 15-N ) :   1.2647 B( 15-N , 16-C ) :   1.7218 B( 16-C , 17-C ) :   1.0340
B( 16-C , 62-H ) :   0.9880 B( 17-C , 18-C ) :   1.0313 B( 18-C , 19-C ) :   1.4958
B( 18-C , 35-C ) :   1.1157 B( 19-C , 20-C ) :   1.1646 B( 19-C , 63-H ) :   0.9735
B( 20-C , 21-C ) :   1.4812 B( 20-C , 33-C ) :   1.1136 B( 21-C , 22-C ) :   1.0409
B( 21-C , 27-C ) :   1.0855 B( 22-C , 23-C ) :   1.0183 B( 22-C , 25-C ) :   1.0514
B( 22-C , 64-H ) :   0.8753 B( 23-C , 24-N ) :   1.1183 B( 23-C , 65-H ) :   0.9155
B( 23-C , 66-H ) :   0.9506 B( 24-N , 67-H ) :   0.9424 B( 24-N , 68-H ) :   0.9666
B( 25-C , 26-N ) :   1.0879 B( 25-C , 69-H ) :   0.9438 B( 25-C , 70-H ) :   0.9306
B( 26-N , 67-H ) :   0.1012 B( 26-N , 71-H ) :   0.9623 B( 26-N , 72-H ) :   0.9671
B( 27-C , 28-C ) :   1.6917 B( 27-C , 32-C ) :   1.0430 B( 28-C , 29-C ) :   0.9558
B( 28-C , 73-H ) :   0.9579 B( 29-C , 30-C ) :   1.0047 B( 29-C , 36-C ) :   0.9456
B( 29-C , 74-H ) :   0.8437 B( 30-C , 31-C ) :   1.7132 B( 30-C , 75-H ) :   0.9709
B( 31-C , 32-C ) :   1.1288 B( 31-C , 76-H ) :   0.9908 B( 32-C , 33-C ) :   1.4434
B( 33-C , 34-C ) :   1.1407 B( 34-C , 35-C ) :   1.6103 B( 34-C , 77-H ) :   0.9911
B( 35-C , 78-H ) :   0.9839 B( 36-C , 37-C ) :   1.8142 B( 36-C , 79-H ) :   0.9679
B( 37-C , 38-C ) :   1.0754 B( 37-C , 80-H ) :   0.9507 B( 38-C , 39-C ) :   1.0108
B( 38-C , 42-C ) :   1.5433 B( 39-C , 40-N ) :   1.7307 B( 39-C , 81-H ) :   0.9898
B( 40-N , 41-C ) :   1.2603 B( 41-C , 42-C ) :   1.0664 B( 41-C , 46-C ) :   1.5243
B( 42-C , 43-C ) :   1.0194 B( 43-C , 44-S ) :   1.7150 B( 43-C , 45-C ) :   1.0328
B( 45-C , 46-C ) :   1.0728 B( 45-C , 49-C ) :   1.5085 B( 46-C , 47-N ) :   1.2562
B( 47-N , 48-C ) :   1.7331 B( 48-C , 49-C ) :   1.0304 B( 48-C , 82-H ) :   0.9903
B( 49-C , 50-C ) :   1.0727 B( 50-C , 51-O ) :   1.1941 B( 50-C , 54-C ) :   1.4676
B( 51-O , 52-C ) :   1.1819 B( 52-C , 53-C ) :   1.4919 B( 52-C , 83-H ) :   1.0059
B( 53-C , 54-C ) :   1.2835 B( 53-C , 84-H ) :   1.0022 B( 54-C , 55-C ) :   1.1048
B( 55-C , 85-H ) :   0.9421 B( 55-C , 86-H ) :   0.9428 B( 55-C , 87-H ) :   0.9421

-----------------------------------------------------------------------------
         ABSORPTION SPECTRUM VIA TRANSITION ELECTRIC DIPOLE MOMENTS
-----------------------------------------------------------------------------
State   Energy  Wavelength   fosc         T2         TX        TY        TZ
        (cm-1)    (nm)                  (au**2)     (au)      (au)      (au)
-----------------------------------------------------------------------------
   0    9559.5   1046.1   0.067874218   2.33747   1.32014  -0.24512  -0.73117
   1   11845.7    844.2   0.009506745   0.26421  -0.23283  -0.26085  -0.37677
   2   13915.8    718.6   0.020522059   0.48550  -0.13653  -0.41380   0.54372
   3   14691.3    680.7   0.000074889   0.00168   0.01457   0.00611  -0.03780
   4   14730.1    678.9   0.000029659   0.00066  -0.02172   0.01376  -0.00129
   5   15942.1    627.3   0.123786634   2.55625   0.34536  -0.42747   1.50141
   6   16564.3    603.7   0.123869321   2.46188  -1.29546  -0.36789   0.80518
   7   16947.1    590.1   0.068396071   1.32865   0.79220   0.80440  -0.23239
   8   17612.8    567.8   0.000008936   0.00017  -0.01073   0.00255   0.00674
   9   18207.9    549.2   0.094466778   1.70803  -1.11521  -0.38307   0.56355
  10   18576.9    538.3   0.084808619   1.50294   0.73784   0.24213  -0.94864
  11   19526.4    512.1   0.011189422   0.18865  -0.08191   0.27109   0.32932
  12   20404.0    490.1   0.023321997   0.37629   0.47170  -0.22183  -0.32340
  13   23966.1    417.3   0.003940615   0.05413  -0.22651   0.04044   0.03446
  14   24142.5    414.2   0.091425977   1.24670  -0.43354   0.33409  -0.97321
  15   24375.2    410.3   0.043466705   0.58706   0.10797   0.73191   0.19928
  16   25277.8    395.6   0.393385650   5.12336  -1.67127  -0.99580   1.15698
  17   25804.4    387.5   0.003718364   0.04744  -0.15561   0.14591   0.04401
  18   26018.5    384.3   0.001879754   0.02378   0.02646  -0.13542  -0.06888
  19   26221.8    381.4   0.387462316   4.86455  -0.02983   0.28420  -2.18698
  20   26583.6    376.2   0.173255746   2.14560  -1.34879   0.14048  -0.55373
  21   26675.9    374.9   0.261384665   3.22579  -1.52255  -0.71450   0.63019
  22   26755.3    373.8   0.012245703   0.15068   0.34886   0.02408   0.16850
  23   26865.5    372.2   0.064580881   0.79138  -0.67321   0.29009   0.50400
  24   27051.4    369.7   0.039451521   0.48012  -0.17659   0.64711   0.17373
  25   27229.3    367.3   0.000624756   0.00755  -0.04506  -0.07033  -0.02402
  26   27638.1    361.8   0.046044362   0.54846  -0.54073  -0.22351  -0.45400
  27   27886.6    358.6   0.001076872   0.01271   0.02579   0.05430  -0.09539
  28   28409.0    352.0   0.016870440   0.19550  -0.29370   0.16044   0.28897
  29   28484.4    351.1   0.003763929   0.04350   0.01088   0.05139  -0.20185
  30   28564.0    350.1   0.003876029   0.04467   0.13013   0.14699   0.07832
  31   28870.4    346.4   0.059979558   0.68395   0.37314  -0.18845  -0.71359
  32   29604.6    337.8   0.379252064   4.21740   1.02945   0.17945   1.76789
  33   30237.8    330.7   0.017848485   0.19432  -0.14404  -0.14790  -0.38949
  34   30719.0    325.5   0.091968773   0.98562  -0.37849   0.46927  -0.78877
  35   31657.1    315.9   0.043666454   0.45410  -0.05901  -0.65677   0.13881
  36   31833.0    314.1   0.004403599   0.04554   0.17649  -0.09606  -0.07187
  37   31931.1    313.2   0.002047091   0.02111   0.04515   0.12230   0.06411
  38   32227.3    310.3   0.002868426   0.02930   0.06116  -0.11041   0.11563
  39   32430.7    308.3   0.056697195   0.57555   0.19228   0.70693  -0.19706
  40   32764.9    305.2   0.003789388   0.03807  -0.06303   0.18123   0.03546
  41   32936.4    303.6   0.000796933   0.00797   0.00068   0.08917  -0.00376
  42   33086.4    302.2   0.007251036   0.07215  -0.21486   0.12010   0.10752
  43   33738.1    296.4   0.001005595   0.00981  -0.01466  -0.04244   0.08830
  44   34034.7    293.8   0.056377234   0.54533   0.58223   0.14696  -0.42981
  45   34515.1    289.7   0.009918496   0.09460   0.13043  -0.26057  -0.09847
  46   34721.2    288.0   0.002229499   0.02114  -0.08918   0.08309   0.07926
  47   34819.0    287.2   0.000221884   0.00210   0.02993  -0.03454   0.00299
  48   35261.6    283.6   0.124015680   1.15784   0.68393   0.24671  -0.79323
  49   35540.9    281.4   0.082820961   0.76716  -0.76527  -0.39048   0.17045
  50   35594.0    280.9   0.006013507   0.05562  -0.20011  -0.08392   0.09237
  51   35650.0    280.5   0.164376171   1.51794   0.96397   0.05070  -0.76560
  52   35675.1    280.3   0.023770560   0.21936  -0.39373  -0.25323   0.01434
  53   36047.4    277.4   0.032769186   0.29927  -0.24700  -0.46598  -0.14536
  54   36186.9    276.3   0.001448285   0.01318  -0.07326  -0.08392  -0.02770
  55   36305.7    275.4   0.014762211   0.13386  -0.02788   0.36357  -0.02997
  56   36413.8    274.6   0.011350519   0.10262  -0.14524   0.28548  -0.00509
  57   36667.1    272.7   0.146109468   1.31183   0.36368  -0.16785   1.07303
  58   36828.5    271.5   0.011416103   0.10205   0.21571  -0.19595  -0.13086
  59   37040.2    270.0   0.003177762   0.02824   0.15340   0.06817  -0.00806
  60   37220.3    268.7   0.028672234   0.25360   0.04400  -0.46756  -0.18180
  61   37377.3    267.5   0.001285992   0.01133  -0.08014  -0.01669   0.06801
  62   37710.1    265.2   0.004241867   0.03703   0.03952  -0.09293  -0.16381
  63   38181.6    261.9   0.252973590   2.18120  -0.88806   1.03823   0.56091
  64   38564.5    259.3   0.389496867   3.32500   1.31023  -0.83462  -0.95483
  65   38816.2    257.6   0.342195476   2.90226  -0.24283   1.47213   0.82227
  66   39206.8    255.1   0.160132613   1.34460  -0.31814   1.03422   0.41686
  67   39516.1    253.1   0.241128186   2.00886   1.23266  -0.33558  -0.61385
  68   39539.9    252.9   0.004264751   0.03551   0.15145   0.03825  -0.10540

FINAL SINGLE POINT ENERGY     -3044.143214640102

DIPOLE MOMENT
-------------
                                X             Y             Z
Electronic contribution:      3.08436     -22.67576       9.42436
Nuclear contribution   :     -2.64244      23.73235      -7.63299
                        -----------------------------------------
Total Dipole Moment    :      0.44192       1.05659       1.79136
                        -----------------------------------------
Magnitude (a.u.)       :      2.12619
Magnitude (Debye)      :      5.40433

Rotational constants in cm-1:     0.002020     0.000534     0.000514
Rotational constants in MHz :    60.572705    15.995713    15.416657

                             ****ORCA TERMINATED NORMALLY****
TOTAL RUN TIME: 0 days 0 hours 6 minutes 50 seconds 651 msec
