                         Program Version 4.2.0 -  RELEASE  -
|  1> # ORCA input file
|  2> # SCF done       -228.499744488268          0.000348997278
|  3> ! CAM-B3LYP def2-SVP def2/J RIJCOSX Grid4 TightSCF
|  4> %maxcore 5000
|  5> %tddft
|  6>     Mode sTDDFT
|  7>     Ethresh 5.0
|  8>     maxcore 5000
|  9> end
| 10>
| 11> %pal
| 12>   nprocs 6
| 13>   end
| 14> * xyz 0 1
| 15>    C        0.70391        -0.77059        -2.21347
| 16>    C        0.48740         0.44958        -2.83516
| 17>    F        0.60476         1.57199        -2.11883
| 18>    C        0.15501         0.53346        -4.18880
| 19>    F       -0.05166         1.73242        -4.74443
| 20>    C        0.04143        -0.61027        -4.96227
| 21>    C        0.26705        -1.82635        -4.34695
| 22>    C        0.59011        -1.91917        -2.98101
| 23>    C        0.72408        -3.33007        -2.62232
| 24>    C        0.61812        -3.84057        -1.35803
| 25>    C        0.55123        -3.04556        -0.19438
| 26>    N        0.51680        -2.43951         0.77907
| 27>    C        0.47742        -5.21680        -1.07667
| 28>    N        0.29390        -6.31223        -0.78974
| 29>    C        0.71528        -4.08691        -3.86146
| 30>    C        0.24260        -3.18154        -4.94414
| 31>    O       -0.04887        -3.48792        -6.07489
| 32>    C        1.12545        -5.34339        -4.16098
| 33>    C        1.92847        -6.23567        -3.36884
| 34>    C        1.74758        -7.62087        -3.50313
| 35>    C        2.50085        -8.47422        -2.73685
| 36>    C        3.48065        -7.97218        -1.86127
| 37>    C        3.70385        -6.60543        -1.76104
| 38>    C        2.92064        -5.74908        -2.50461
| 39>    C        4.12474        -9.08819        -1.20354
| 40>    C        3.54431       -10.27770        -1.67610
| 41>    C        2.45332        -9.98143        -2.67532
| 42>    C        1.08537       -10.47103        -2.15851
| 43>    C        0.72468        -9.90066        -0.79243
| 44>    C        2.74724       -10.61794        -4.04609
| 45>    C        4.09176       -10.18937        -4.62182
| 46>    C        3.98487       -11.50017        -1.22905
| 47>    C        5.00732       -11.54309        -0.27422
| 48>    C        5.58642       -10.35446         0.18554
| 49>    C        5.15269        -9.12714        -0.27201
| 50>    C        5.53372       -12.80563         0.20767
| 51>    O        6.83226       -12.86052         0.52335
| 52>    C        7.15644       -14.13282         0.85674
| 53>    C        6.01949       -14.93318         0.76733
| 54>    C        4.96177       -14.06206         0.37295
| 55>    C        3.50375       -14.34413         0.32400
| 56>    F        2.75738       -13.25668         0.56923
| 57>    F        3.08122       -14.81921        -0.87305
| 58>    F        3.11256       -15.25092         1.23384
| 59>    O        6.05546       -16.25544         1.01093
| 60>    C        5.10300       -17.11032         0.39956
| 61>    C        8.50540       -14.40255         1.23284
| 62>    C        8.98800       -15.61425         1.56612
| 63>    C       10.35135       -15.89644         1.95299
| 64>    C       10.79199       -17.22941         1.94353
| 65>    C       12.08411       -17.52481         2.30251
| 66>    C       12.96292       -16.50335         2.70472
| 67>    C       12.53748       -15.18197         2.72936
| 68>    C       11.24392       -14.89074         2.35073
| 69>    C       14.23466       -17.09702         3.04439
| 70>    C       14.14732       -18.48756         2.84619
| 71>    C       12.77631       -18.86686         2.34024
| 72>    C       12.06875       -19.84706         3.29322
| 73>    C       11.94933       -19.30782         4.71361
| 74>    C       12.86430       -19.48513         0.93068
| 75>    C       13.56264       -18.57818        -0.07546
| 76>    C       15.22159       -19.29812         3.10884
| 77>    C       16.43206       -18.72247         3.52889
| 78>    C       16.49955       -17.33643         3.74024
| 79>    C       15.41000       -16.52452         3.51437
| 80>    C       17.56019       -19.57331         3.78289
| 81>    C       18.88163       -19.28172         3.68029
| 82>    C       19.88487       -20.14024         4.36417
| 83>    O       19.70335       -21.23291         4.84562
| 84>    C       21.13112       -19.33924         4.37470
| 85>    C       20.93666       -18.15738         3.63734
| 86>    C       21.95962       -17.22845         3.53010
| 87>    C       23.15985       -17.50838         4.16547
| 88>    C       23.34955       -18.68899         4.88591
| 89>    C       22.33081       -19.62122         4.99843
| 90>    F       24.52737       -18.91978         5.47710
| 91>    F       24.15698       -16.62094         4.08754
| 92>    C       19.58883       -18.17179         3.07018
| 93>    C       19.17616       -17.43942         1.99042
| 94>    C       17.96923       -17.67447         1.29757
| 95>    N       17.03832       -17.86036         0.65313
| 96>    C       19.94806       -16.42243         1.39100
| 97>    N       20.53082       -15.57251         0.88653
| 98>    H        0.96108        -0.78708        -1.16678
| 99>    H       -0.21406        -0.54675        -6.00799
|100>    H        0.85469        -5.69134        -5.15337
|101>    H        0.99003        -7.99276        -4.17676
|102>    H        4.47326        -6.21707        -1.11130
|103>    H        3.09755        -4.68401        -2.45580
|104>    H        1.10925       -11.56100        -2.10066
|105>    H        0.32006       -10.18917        -2.88447
|106>    H        1.45276       -10.20726        -0.04490
|107>    H       -0.25145       -10.26932        -0.48726
|108>    H        0.68712        -8.81464        -0.81922
|109>    H        1.95032       -10.34012        -4.73854
|110>    H        2.72920       -11.70382        -3.93659
|111>    H        4.12689        -9.11063        -4.75813
|112>    H        4.25276       -10.66312        -5.58728
|113>    H        4.90400       -10.47709        -3.95791
|114>    H        3.56701       -12.41161        -1.62570
|115>    H        6.37992       -10.41367         0.91439
|116>    H        5.60499        -8.21722         0.09171
|117>    H        5.61369       -18.06100         0.24545
|118>    H        4.76998       -16.72241        -0.56478
|119>    H        4.24295       -17.27069         1.05242
|120>    H        9.14262       -13.52987         1.21342
|121>    H        8.31901       -16.46168         1.52830
|122>    H       10.10817       -18.00886         1.63949
|123>    H       13.20667       -14.39419         3.04145
|124>    H       10.90594       -13.86688         2.38319
|125>    H       12.62557       -20.78619         3.30666
|126>    H       11.07178       -20.05676         2.90073
|127>    H       12.93274       -19.10944         5.13432
|128>    H       11.44421       -20.03276         5.34754
|129>    H       11.37812       -18.38223         4.72635
|130>    H       11.85091       -19.70167         0.58515
|131>    H       13.40355       -20.43208         0.99951
|132>    H       13.03544       -17.63130        -0.17030
|133>    H       13.58441       -19.05719        -1.05149
|134>    H       14.58618       -18.37399         0.22798
|135>    H       15.16898       -20.36624         2.95832
|136>    H       17.41328       -16.90929         4.12850
|137>    H       15.47231       -15.46241         3.69646
|138>    H       17.33874       -20.56626         4.16282
|139>    H       21.85772       -16.30272         2.98736
|140>    H       22.47559       -20.53326         5.55522
|141> *
|142>
|143>                          ****END OF INPUT****

CARTESIAN COORDINATES (ANGSTROEM)
---------------------------------
  C      0.703910   -0.770590   -2.213470
  C      0.487400    0.449580   -2.835160
  F      0.604760    1.571990   -2.118830
  C      0.155010    0.533460   -4.188800
  F     -0.051660    1.732420   -4.744430
  C      0.041430   -0.610270   -4.962270
  C      0.267050   -1.826350   -4.346950
  C      0.590110   -1.919170   -2.981010
  C      0.724080   -3.330070   -2.622320
  C      0.618120   -3.840570   -1.358030
  C      0.551230   -3.045560   -0.194380
  N      0.516800   -2.439510    0.779070
  C      0.477420   -5.216800   -1.076670
  N      0.293900   -6.312230   -0.789740
  C      0.715280   -4.086910   -3.861460
  C      0.242600   -3.181540   -4.944140
  O     -0.048870   -3.487920   -6.074890
  C      1.125450   -5.343390   -4.160980
  C      1.928470   -6.235670   -3.368840
  C      1.747580   -7.620870   -3.503130
  C      2.500850   -8.474220   -2.736850
  C      3.480650   -7.972180   -1.861270
  C      3.703850   -6.605430   -1.761040
  C      2.920640   -5.749080   -2.504610
  C      4.124740   -9.088190   -1.203540
  C      3.544310  -10.277700   -1.676100
  C      2.453320   -9.981430   -2.675320
  C      1.085370  -10.471030   -2.158510
  C      0.724680   -9.900660   -0.792430
  C      2.747240  -10.617940   -4.046090
  C      4.091760  -10.189370   -4.621820
  C      3.984870  -11.500170   -1.229050
  C      5.007320  -11.543090   -0.274220
  C      5.586420  -10.354460    0.185540
  C      5.152690   -9.127140   -0.272010
  C      5.533720  -12.805630    0.207670
  O      6.832260  -12.860520    0.523350
  C      7.156440  -14.132820    0.856740
  C      6.019490  -14.933180    0.767330
  C      4.961770  -14.062060    0.372950
  C      3.503750  -14.344130    0.324000
  F      2.757380  -13.256680    0.569230
  F      3.081220  -14.819210   -0.873050
  F      3.112560  -15.250920    1.233840
  O      6.055460  -16.255440    1.010930
  C      5.103000  -17.110320    0.399560
  C      8.505400  -14.402550    1.232840
  C      8.988000  -15.614250    1.566120
  C     10.351350  -15.896440    1.952990
  C     10.791990  -17.229410    1.943530
  C     12.084110  -17.524810    2.302510
  C     12.962920  -16.503350    2.704720
  C     12.537480  -15.181970    2.729360
  C     11.243920  -14.890740    2.350730
  C     14.234660  -17.097020    3.044390
  C     14.147320  -18.487560    2.846190
  C     12.776310  -18.866860    2.340240
  C     12.068750  -19.847060    3.293220
  C     11.949330  -19.307820    4.713610
  C     12.864300  -19.485130    0.930680
  C     13.562640  -18.578180   -0.075460
  C     15.221590  -19.298120    3.108840
  C     16.432060  -18.722470    3.528890
  C     16.499550  -17.336430    3.740240
  C     15.410000  -16.524520    3.514370
  C     17.560190  -19.573310    3.782890
  C     18.881630  -19.281720    3.680290
  C     19.884870  -20.140240    4.364170
  O     19.703350  -21.232910    4.845620
  C     21.131120  -19.339240    4.374700
  C     20.936660  -18.157380    3.637340
  C     21.959620  -17.228450    3.530100
  C     23.159850  -17.508380    4.165470
  C     23.349550  -18.688990    4.885910
  C     22.330810  -19.621220    4.998430
  F     24.527370  -18.919780    5.477100
  F     24.156980  -16.620940    4.087540
  C     19.588830  -18.171790    3.070180
  C     19.176160  -17.439420    1.990420
  C     17.969230  -17.674470    1.297570
  N     17.038320  -17.860360    0.653130
  C     19.948060  -16.422430    1.391000
  N     20.530820  -15.572510    0.886530
  H      0.961080   -0.787080   -1.166780
  H     -0.214060   -0.546750   -6.007990
  H      0.854690   -5.691340   -5.153370
  H      0.990030   -7.992760   -4.176760
  H      4.473260   -6.217070   -1.111300
  H      3.097550   -4.684010   -2.455800
  H      1.109250  -11.561000   -2.100660
  H      0.320060  -10.189170   -2.884470
  H      1.452760  -10.207260   -0.044900
  H     -0.251450  -10.269320   -0.487260
  H      0.687120   -8.814640   -0.819220
  H      1.950320  -10.340120   -4.738540
  H      2.729200  -11.703820   -3.936590
  H      4.126890   -9.110630   -4.758130
  H      4.252760  -10.663120   -5.587280
  H      4.904000  -10.477090   -3.957910
  H      3.567010  -12.411610   -1.625700
  H      6.379920  -10.413670    0.914390
  H      5.604990   -8.217220    0.091710
  H      5.613690  -18.061000    0.245450
  H      4.769980  -16.722410   -0.564780
  H      4.242950  -17.270690    1.052420
  H      9.142620  -13.529870    1.213420
  H      8.319010  -16.461680    1.528300
  H     10.108170  -18.008860    1.639490
  H     13.206670  -14.394190    3.041450
  H     10.905940  -13.866880    2.383190
  H     12.625570  -20.786190    3.306660
  H     11.071780  -20.056760    2.900730
  H     12.932740  -19.109440    5.134320
  H     11.444210  -20.032760    5.347540
  H     11.378120  -18.382230    4.726350
  H     11.850910  -19.701670    0.585150
  H     13.403550  -20.432080    0.999510
  H     13.035440  -17.631300   -0.170300
  H     13.584410  -19.057190   -1.051490
  H     14.586180  -18.373990    0.227980
  H     15.168980  -20.366240    2.958320
  H     17.413280  -16.909290    4.128500
  H     15.472310  -15.462410    3.696460
  H     17.338740  -20.566260    4.162820
  H     21.857720  -16.302720    2.987360
  H     22.475590  -20.533260    5.555220

 Total Charge           Charge          ....    0
 Multiplicity           Mult            ....    1
 Number of Electrons    NEL             ....  574
 Basis Dimension        Dim             .... 1377

ORBITAL ENERGIES
----------------

  NO   OCC          E(Eh)            E(eV)
   0   2.0000     -24.806821      -675.0279
   1   2.0000     -24.806360      -675.0154
   2   2.0000     -24.805981      -675.0051
   3   2.0000     -24.804674      -674.9695
   4   2.0000     -24.804018      -674.9517
   5   2.0000     -24.803049      -674.9253
   6   2.0000     -24.802941      -674.9223
   7   2.0000     -19.302945      -525.2598
   8   2.0000     -19.260675      -524.1096
   9   2.0000     -19.225186      -523.1439
  10   2.0000     -19.221950      -523.0558
  11   2.0000     -14.423928      -392.4950
  12   2.0000     -14.421537      -392.4300
  13   2.0000     -14.421260      -392.4224
  14   2.0000     -14.418845      -392.3567
  15   2.0000     -10.527721      -286.4739
  16   2.0000     -10.393088      -282.8103
  17   2.0000     -10.392380      -282.7910
  18   2.0000     -10.390663      -282.7443
  19   2.0000     -10.389967      -282.7254
  20   2.0000     -10.376733      -282.3653
  21   2.0000     -10.373684      -282.2823
  22   2.0000     -10.353303      -281.7277
  23   2.0000     -10.352473      -281.7051
  24   2.0000     -10.351923      -281.6901
  25   2.0000     -10.350001      -281.6378
  26   2.0000     -10.349042      -281.6117
  27   2.0000     -10.347396      -281.5670
  28   2.0000     -10.328391      -281.0498
  29   2.0000     -10.328145      -281.0431
  30   2.0000     -10.325911      -280.9823
  31   2.0000     -10.324214      -280.9361
  32   2.0000     -10.323426      -280.9147
  33   2.0000     -10.323406      -280.9142
  34   2.0000     -10.321544      -280.8635
  35   2.0000     -10.321335      -280.8578
  36   2.0000     -10.320689      -280.8402
  37   2.0000     -10.318463      -280.7797
  38   2.0000     -10.315269      -280.6927
  39   2.0000     -10.315149      -280.6895
  40   2.0000     -10.312809      -280.6258
  41   2.0000     -10.312695      -280.6227
  42   2.0000     -10.309517      -280.5362
  43   2.0000     -10.306876      -280.4644
  44   2.0000     -10.303596      -280.3751
  45   2.0000     -10.299836      -280.2728
  46   2.0000     -10.298313      -280.2313
  47   2.0000     -10.295159      -280.1455
  48   2.0000     -10.294239      -280.1205
  49   2.0000     -10.290843      -280.0281
  50   2.0000     -10.287946      -279.9492
  51   2.0000     -10.286112      -279.8993
  52   2.0000     -10.285991      -279.8960
  53   2.0000     -10.284726      -279.8616
  54   2.0000     -10.283720      -279.8343
  55   2.0000     -10.282856      -279.8107
  56   2.0000     -10.282338      -279.7966
  57   2.0000     -10.282303      -279.7957
  58   2.0000     -10.280492      -279.7464
  59   2.0000     -10.280046      -279.7343
  60   2.0000     -10.279909      -279.7305
  61   2.0000     -10.279852      -279.7290
  62   2.0000     -10.279650      -279.7235
  63   2.0000     -10.279649      -279.7235
  64   2.0000     -10.279322      -279.7146
  65   2.0000     -10.279124      -279.7092
  66   2.0000     -10.278982      -279.7053
  67   2.0000     -10.276202      -279.6297
  68   2.0000     -10.274862      -279.5932
  69   2.0000     -10.274164      -279.5742
  70   2.0000     -10.271183      -279.4931
  71   2.0000     -10.270194      -279.4662
  72   2.0000     -10.269627      -279.4508
  73   2.0000     -10.269340      -279.4429
  74   2.0000     -10.268865      -279.4300
  75   2.0000     -10.267367      -279.3892
  76   2.0000     -10.264800      -279.3194
  77   2.0000     -10.260837      -279.2116
  78   2.0000     -10.259776      -279.1827
  79   2.0000     -10.251005      -278.9440
  80   2.0000     -10.248168      -278.8668
  81   2.0000     -10.234767      -278.5022
  82   2.0000     -10.234174      -278.4860
  83   2.0000      -1.394193       -37.9379
  84   2.0000      -1.330653       -36.2089
  85   2.0000      -1.328274       -36.1442
  86   2.0000      -1.315373       -35.7931
  87   2.0000      -1.312995       -35.7284
  88   2.0000      -1.296415       -35.2772
  89   2.0000      -1.293005       -35.1844
  90   2.0000      -1.225270       -33.3413
  91   2.0000      -1.161509       -31.6063
  92   2.0000      -1.141021       -31.0488
  93   2.0000      -1.137759       -30.9600
  94   2.0000      -1.028807       -27.9953
  95   2.0000      -1.026002       -27.9189
  96   2.0000      -1.009240       -27.4628
  97   2.0000      -1.006602       -27.3910
  98   2.0000      -1.001978       -27.2652
  99   2.0000      -0.998970       -27.1834
 100   2.0000      -0.997164       -27.1342
 101   2.0000      -0.991996       -26.9936
 102   2.0000      -0.967873       -26.3372
 103   2.0000      -0.964346       -26.2412
 104   2.0000      -0.956843       -26.0370
 105   2.0000      -0.950400       -25.8617
 106   2.0000      -0.933626       -25.4052
 107   2.0000      -0.926056       -25.1993
 108   2.0000      -0.921199       -25.0671
 109   2.0000      -0.910950       -24.7882
 110   2.0000      -0.908018       -24.7084
 111   2.0000      -0.903741       -24.5921
 112   2.0000      -0.895830       -24.3768
 113   2.0000      -0.892190       -24.2777
 114   2.0000      -0.881402       -23.9842
 115   2.0000      -0.878998       -23.9187
 116   2.0000      -0.875746       -23.8303
 117   2.0000      -0.862788       -23.4777
 118   2.0000      -0.846093       -23.0233
 119   2.0000      -0.843769       -22.9601
 120   2.0000      -0.841327       -22.8937
 121   2.0000      -0.839520       -22.8445
 122   2.0000      -0.835168       -22.7261
 123   2.0000      -0.834355       -22.7040
 124   2.0000      -0.830731       -22.6053
 125   2.0000      -0.827387       -22.5144
 126   2.0000      -0.817379       -22.2420
 127   2.0000      -0.802956       -21.8495
 128   2.0000      -0.791428       -21.5358
 129   2.0000      -0.789467       -21.4825
 130   2.0000      -0.781015       -21.2525
 131   2.0000      -0.776634       -21.1333
 132   2.0000      -0.771012       -20.9803
 133   2.0000      -0.764851       -20.8126
 134   2.0000      -0.761462       -20.7204
 135   2.0000      -0.745998       -20.2996
 136   2.0000      -0.734668       -19.9913
 137   2.0000      -0.731711       -19.9109
 138   2.0000      -0.728268       -19.8172
 139   2.0000      -0.722421       -19.6581
 140   2.0000      -0.717517       -19.5246
 141   2.0000      -0.713175       -19.4065
 142   2.0000      -0.706784       -19.2326
 143   2.0000      -0.698067       -18.9954
 144   2.0000      -0.695582       -18.9277
 145   2.0000      -0.693686       -18.8761
 146   2.0000      -0.689131       -18.7522
 147   2.0000      -0.680904       -18.5283
 148   2.0000      -0.680376       -18.5140
 149   2.0000      -0.678066       -18.4511
 150   2.0000      -0.675288       -18.3755
 151   2.0000      -0.672859       -18.3094
 152   2.0000      -0.671319       -18.2675
 153   2.0000      -0.668006       -18.1774
 154   2.0000      -0.662210       -18.0196
 155   2.0000      -0.659514       -17.9463
 156   2.0000      -0.657516       -17.8919
 157   2.0000      -0.654039       -17.7973
 158   2.0000      -0.649347       -17.6696
 159   2.0000      -0.647263       -17.6129
 160   2.0000      -0.645562       -17.5666
 161   2.0000      -0.635702       -17.2983
 162   2.0000      -0.630241       -17.1497
 163   2.0000      -0.620813       -16.8932
 164   2.0000      -0.614522       -16.7220
 165   2.0000      -0.610851       -16.6221
 166   2.0000      -0.607818       -16.5396
 167   2.0000      -0.607414       -16.5286
 168   2.0000      -0.603149       -16.4125
 169   2.0000      -0.598051       -16.2738
 170   2.0000      -0.595577       -16.2065
 171   2.0000      -0.594800       -16.1853
 172   2.0000      -0.593140       -16.1402
 173   2.0000      -0.591866       -16.1055
 174   2.0000      -0.582678       -15.8555
 175   2.0000      -0.580235       -15.7890
 176   2.0000      -0.577746       -15.7213
 177   2.0000      -0.571427       -15.5493
 178   2.0000      -0.569144       -15.4872
 179   2.0000      -0.559226       -15.2173
 180   2.0000      -0.558142       -15.1878
 181   2.0000      -0.556201       -15.1350
 182   2.0000      -0.555265       -15.1095
 183   2.0000      -0.555221       -15.1083
 184   2.0000      -0.553062       -15.0496
 185   2.0000      -0.552187       -15.0258
 186   2.0000      -0.551387       -15.0040
 187   2.0000      -0.550109       -14.9692
 188   2.0000      -0.549055       -14.9405
 189   2.0000      -0.545013       -14.8306
 190   2.0000      -0.544533       -14.8175
 191   2.0000      -0.542498       -14.7621
 192   2.0000      -0.540211       -14.6999
 193   2.0000      -0.538703       -14.6589
 194   2.0000      -0.537301       -14.6207
 195   2.0000      -0.536935       -14.6107
 196   2.0000      -0.535722       -14.5777
 197   2.0000      -0.533106       -14.5065
 198   2.0000      -0.531987       -14.4761
 199   2.0000      -0.528583       -14.3835
 200   2.0000      -0.527170       -14.3450
 201   2.0000      -0.525140       -14.2898
 202   2.0000      -0.520170       -14.1546
 203   2.0000      -0.519061       -14.1244
 204   2.0000      -0.517715       -14.0877
 205   2.0000      -0.516010       -14.0413
 206   2.0000      -0.513686       -13.9781
 207   2.0000      -0.511530       -13.9194
 208   2.0000      -0.510113       -13.8809
 209   2.0000      -0.508161       -13.8278
 210   2.0000      -0.504861       -13.7380
 211   2.0000      -0.504411       -13.7257
 212   2.0000      -0.503882       -13.7113
 213   2.0000      -0.501057       -13.6345
 214   2.0000      -0.500360       -13.6155
 215   2.0000      -0.498494       -13.5647
 216   2.0000      -0.492909       -13.4127
 217   2.0000      -0.490731       -13.3535
 218   2.0000      -0.489688       -13.3251
 219   2.0000      -0.487823       -13.2743
 220   2.0000      -0.483511       -13.1570
 221   2.0000      -0.482657       -13.1338
 222   2.0000      -0.478597       -13.0233
 223   2.0000      -0.477939       -13.0054
 224   2.0000      -0.472514       -12.8578
 225   2.0000      -0.471331       -12.8256
 226   2.0000      -0.469882       -12.7861
 227   2.0000      -0.467291       -12.7156
 228   2.0000      -0.465863       -12.6768
 229   2.0000      -0.464549       -12.6410
 230   2.0000      -0.461977       -12.5710
 231   2.0000      -0.460119       -12.5205
 232   2.0000      -0.459708       -12.5093
 233   2.0000      -0.459228       -12.4962
 234   2.0000      -0.458116       -12.4660
 235   2.0000      -0.457092       -12.4381
 236   2.0000      -0.455389       -12.3918
 237   2.0000      -0.454195       -12.3593
 238   2.0000      -0.453481       -12.3398
 239   2.0000      -0.450260       -12.2522
 240   2.0000      -0.448494       -12.2041
 241   2.0000      -0.446718       -12.1558
 242   2.0000      -0.445145       -12.1130
 243   2.0000      -0.442556       -12.0426
 244   2.0000      -0.439312       -11.9543
 245   2.0000      -0.435677       -11.8554
 246   2.0000      -0.433578       -11.7983
 247   2.0000      -0.432786       -11.7767
 248   2.0000      -0.430758       -11.7215
 249   2.0000      -0.429442       -11.6857
 250   2.0000      -0.427306       -11.6276
 251   2.0000      -0.426272       -11.5994
 252   2.0000      -0.422007       -11.4834
 253   2.0000      -0.421454       -11.4683
 254   2.0000      -0.420228       -11.4350
 255   2.0000      -0.419294       -11.4096
 256   2.0000      -0.418363       -11.3842
 257   2.0000      -0.413938       -11.2638
 258   2.0000      -0.411634       -11.2011
 259   2.0000      -0.405095       -11.0232
 260   2.0000      -0.402694       -10.9579
 261   2.0000      -0.401542       -10.9265
 262   2.0000      -0.396475       -10.7886
 263   2.0000      -0.393308       -10.7025
 264   2.0000      -0.392775       -10.6879
 265   2.0000      -0.389599       -10.6015
 266   2.0000      -0.388797       -10.5797
 267   2.0000      -0.386552       -10.5186
 268   2.0000      -0.382926       -10.4199
 269   2.0000      -0.380936       -10.3658
 270   2.0000      -0.370028       -10.0690
 271   2.0000      -0.358637        -9.7590
 272   2.0000      -0.355118        -9.6633
 273   2.0000      -0.353055        -9.6071
 274   2.0000      -0.346608        -9.4317
 275   2.0000      -0.344048        -9.3620
 276   2.0000      -0.337371        -9.1803
 277   2.0000      -0.331478        -9.0200
 278   2.0000      -0.330605        -8.9962
 279   2.0000      -0.326739        -8.8910
 280   2.0000      -0.322395        -8.7728
 281   2.0000      -0.319621        -8.6973
 282   2.0000      -0.317667        -8.6442
 283   2.0000      -0.315514        -8.5856
 284   2.0000      -0.292743        -7.9659
 285   2.0000      -0.276607        -7.5269
 286   2.0000      -0.239462        -6.5161
 287   0.0000      -0.093234        -2.5370
 288   0.0000      -0.090407        -2.4601
 289   0.0000      -0.066316        -1.8045
 290   0.0000      -0.063189        -1.7195
 291   0.0000      -0.038368        -1.0440

MULLIKEN ATOMIC CHARGES
-----------------------
   0 C :   -0.086434
   1 C :    0.235534
   2 F :   -0.163386
   3 C :    0.234353
   4 F :   -0.166706
   5 C :   -0.100192
   6 C :    0.010507
   7 C :    0.024350
   8 C :    0.245779
   9 C :   -0.324008
  10 C :   -0.188061
  11 N :    0.165246
  12 C :   -0.195510
  13 N :    0.206937
  14 C :   -0.112887
  15 C :    0.135003
  16 O :   -0.132830
  17 C :    0.031822
  18 C :    0.051367
  19 C :   -0.071274
  20 C :    0.024296
  21 C :    0.129005
  22 C :   -0.050024
  23 C :    0.020195
  24 C :    0.109332
  25 C :   -0.002622
  26 C :   -0.141005
  27 C :    0.067221
  28 C :    0.017121
  29 C :    0.061117
  30 C :    0.027488
  31 C :   -0.068953
  32 C :    0.039260
  33 C :    0.005776
  34 C :   -0.042021
  35 C :    0.125681
  36 O :   -0.180904
  37 C :    0.129772
  38 C :    0.110612
  39 C :   -0.177304
  40 C :    0.520500
  41 F :   -0.150311
  42 F :   -0.173777
  43 F :   -0.159034
  44 O :   -0.307919
  45 C :    0.181232
  46 C :   -0.008193
  47 C :   -0.025408
  48 C :    0.128187
  49 C :   -0.106589
  50 C :    0.024640
  51 C :    0.098565
  52 C :   -0.035808
  53 C :   -0.015523
  54 C :    0.133190
  55 C :    0.018100
  56 C :   -0.143236
  57 C :    0.067584
  58 C :    0.027104
  59 C :    0.073737
  60 C :    0.015515
  61 C :   -0.070761
  62 C :    0.052662
  63 C :    0.019644
  64 C :   -0.053873
  65 C :    0.036678
  66 C :   -0.119010
  67 C :    0.133276
  68 O :   -0.135288
  69 C :    0.012085
  70 C :    0.024114
  71 C :   -0.086519
  72 C :    0.235702
  73 C :    0.235067
  74 C :   -0.101833
  75 F :   -0.167459
  76 F :   -0.164904
  77 C :    0.253489
  78 C :   -0.327534
  79 C :   -0.196497
  80 N :    0.201791
  81 C :   -0.183621
  82 N :    0.160380
  83 H :    0.018692
  84 H :    0.015472
  85 H :    0.026815
  86 H :   -0.029042
  87 H :   -0.029079
  88 H :   -0.011203
  89 H :    0.001461
  90 H :   -0.002497
  91 H :    0.016173
  92 H :    0.006112
  93 H :    0.035691
  94 H :   -0.000798
  95 H :    0.004567
  96 H :    0.017910
  97 H :    0.011259
  98 H :    0.020795
  99 H :   -0.031969
 100 H :   -0.014849
 101 H :   -0.030361
 102 H :    0.034138
 103 H :    0.027122
 104 H :    0.042555
 105 H :   -0.011661
 106 H :   -0.005780
 107 H :   -0.042754
 108 H :   -0.035703
 109 H :   -0.029269
 110 H :   -0.003449
 111 H :   -0.001443
 112 H :    0.017000
 113 H :    0.009978
 114 H :    0.021987
 115 H :   -0.006431
 116 H :   -0.004543
 117 H :    0.016156
 118 H :    0.003749
 119 H :    0.036015
 120 H :   -0.030583
 121 H :   -0.012036
 122 H :   -0.029766
 123 H :    0.025004
 124 H :    0.017165
 125 H :    0.013601
Sum of atomic charges:   -0.0000000

LOEWDIN ATOMIC CHARGES
----------------------
   0 C :   -0.019772
   1 C :    0.075405
   2 F :   -0.041540
   3 C :    0.070968
   4 F :   -0.043641
   5 C :   -0.003813
   6 C :   -0.046767
   7 C :   -0.013172
   8 C :    0.066899
   9 C :   -0.129571
  10 C :   -0.021876
  11 N :   -0.043690
  12 C :   -0.010100
  13 N :   -0.030332
  14 C :   -0.095517
  15 C :    0.084364
  16 O :   -0.134129
  17 C :    0.087312
  18 C :   -0.044716
  19 C :    0.005077
  20 C :    0.011626
  21 C :    0.006376
  22 C :   -0.013332
  23 C :   -0.001897
  24 C :   -0.014862
  25 C :    0.009018
  26 C :   -0.036075
  27 C :   -0.010089
  28 C :   -0.061560
  29 C :   -0.012081
  30 C :   -0.058172
  31 C :   -0.009737
  32 C :   -0.040521
  33 C :   -0.005982
  34 C :   -0.012834
  35 C :    0.062023
  36 O :    0.037307
  37 C :   -0.007087
  38 C :    0.025979
  39 C :   -0.165306
  40 C :    0.173233
  41 F :   -0.047300
  42 F :   -0.075527
  43 F :   -0.051890
  44 O :   -0.092799
  45 C :    0.078760
  46 C :   -0.033826
  47 C :   -0.019596
  48 C :   -0.014204
  49 C :   -0.022496
  50 C :    0.010017
  51 C :   -0.026436
  52 C :   -0.010960
  53 C :   -0.017560
  54 C :    0.010836
  55 C :    0.008485
  56 C :   -0.035825
  57 C :   -0.011968
  58 C :   -0.057983
  59 C :   -0.010101
  60 C :   -0.061720
  61 C :    0.005135
  62 C :   -0.048195
  63 C :   -0.000319
  64 C :   -0.016567
  65 C :    0.088705
  66 C :   -0.099278
  67 C :    0.083801
  68 O :   -0.136399
  69 C :   -0.046436
  70 C :   -0.013080
  71 C :   -0.020007
  72 C :    0.074998
  73 C :    0.070421
  74 C :   -0.004327
  75 F :   -0.044616
  76 F :   -0.042557
  77 C :    0.067372
  78 C :   -0.131715
  79 C :   -0.009911
  80 N :   -0.032117
  81 C :   -0.021563
  82 N :   -0.046177
  83 H :    0.051756
  84 H :    0.053346
  85 H :    0.047719
  86 H :    0.029527
  87 H :    0.030249
  88 H :    0.028861
  89 H :    0.020745
  90 H :    0.019555
  91 H :    0.023413
  92 H :    0.024967
  93 H :    0.025394
  94 H :    0.020525
  95 H :    0.022390
  96 H :    0.023812
  97 H :    0.025071
  98 H :    0.025164
  99 H :    0.022327
 100 H :    0.030798
 101 H :    0.029000
 102 H :    0.026628
 103 H :    0.016687
 104 H :    0.018883
 105 H :    0.033280
 106 H :    0.028161
 107 H :    0.024069
 108 H :    0.027280
 109 H :    0.025322
 110 H :    0.019462
 111 H :    0.020635
 112 H :    0.023645
 113 H :    0.024335
 114 H :    0.025909
 115 H :    0.018051
 116 H :    0.018970
 117 H :    0.023575
 118 H :    0.023621
 119 H :    0.026000
 120 H :    0.028795
 121 H :    0.028548
 122 H :    0.029692
 123 H :    0.047063
 124 H :    0.051423
 125 H :    0.052859

  Mayer bond orders larger than 0.100000
B(  0-C ,  1-C ) :   1.3406 B(  0-C ,  5-C ) :   0.1046 B(  0-C ,  7-C ) :   1.3164
B(  0-C , 83-H ) :   0.9940 B(  1-C ,  2-F ) :   1.1434 B(  1-C ,  3-C ) :   1.2851
B(  3-C ,  4-F ) :   1.1334 B(  3-C ,  5-C ) :   1.3247 B(  5-C ,  6-C ) :   1.3199
B(  5-C , 84-H ) :   1.0189 B(  6-C ,  7-C ) :   1.3407 B(  6-C , 15-C ) :   0.9277
B(  7-C ,  8-C ) :   1.0213 B(  8-C ,  9-C ) :   1.6802 B(  8-C , 14-C ) :   1.0203
B(  9-C , 10-C ) :   1.1258 B(  9-C , 12-C ) :   1.1505 B( 10-C , 11-N ) :   2.9989
B( 12-C , 13-N ) :   3.0084 B( 14-C , 15-C ) :   0.9373 B( 14-C , 17-C ) :   1.6986
B( 15-C , 16-O ) :   2.2810 B( 17-C , 18-C ) :   1.0379 B( 17-C , 85-H ) :   0.9476
B( 18-C , 19-C ) :   1.2875 B( 18-C , 23-C ) :   1.3362 B( 19-C , 20-C ) :   1.3876
B( 19-C , 86-H ) :   1.0121 B( 20-C , 21-C ) :   1.3607 B( 20-C , 26-C ) :   0.9135
B( 21-C , 22-C ) :   1.3333 B( 21-C , 24-C ) :   0.9984 B( 22-C , 23-C ) :   1.3997
B( 22-C , 87-H ) :   0.9928 B( 23-C , 88-H ) :   0.9836 B( 24-C , 25-C ) :   1.3650
B( 24-C , 34-C ) :   1.3374 B( 25-C , 26-C ) :   0.9146 B( 25-C , 31-C ) :   1.4164
B( 26-C , 27-C ) :   1.0362 B( 26-C , 29-C ) :   1.0393 B( 27-C , 28-C ) :   1.1002
B( 27-C , 89-H ) :   0.9383 B( 27-C , 90-H ) :   0.9392 B( 28-C , 91-H ) :   0.9600
B( 28-C , 92-H ) :   0.9588 B( 28-C , 93-H ) :   0.9553 B( 29-C , 30-C ) :   1.1016
B( 29-C , 94-H ) :   0.9388 B( 29-C , 95-H ) :   0.9396 B( 30-C , 96-H ) :   0.9641
B( 30-C , 97-H ) :   0.9638 B( 30-C , 98-H ) :   0.9640 B( 31-C , 32-C ) :   1.3263
B( 31-C , 99-H ) :   0.9866 B( 32-C , 33-C ) :   1.3496 B( 32-C , 35-C ) :   1.0256
B( 33-C , 34-C ) :   1.3703 B( 33-C ,100-H ) :   0.9927 B( 34-C ,101-H ) :   0.9939
B( 35-C , 36-O ) :   1.2085 B( 35-C , 37-C ) :   0.1204 B( 35-C , 39-C ) :   1.4686
B( 36-O , 37-C ) :   1.1006 B( 37-C , 38-C ) :   1.4443 B( 37-C , 46-C ) :   1.1248
B( 38-C , 39-C ) :   1.2091 B( 38-C , 44-O ) :   1.1910 B( 39-C , 40-C ) :   0.9541
B( 40-C , 41-F ) :   1.1646 B( 40-C , 42-F ) :   1.1107 B( 40-C , 43-F ) :   1.1536
B( 44-O , 45-C ) :   0.9237 B( 45-C ,102-H ) :   0.9777 B( 45-C ,103-H ) :   0.9634
B( 45-C ,104-H ) :   0.9734 B( 46-C , 47-C ) :   1.6862 B( 46-C ,105-H ) :   0.9529
B( 47-C , 48-C ) :   1.0504 B( 47-C ,106-H ) :   0.9805 B( 48-C , 49-C ) :   1.2933
B( 48-C , 53-C ) :   1.3442 B( 49-C , 50-C ) :   1.3767 B( 49-C ,107-H ) :   1.0135
B( 50-C , 51-C ) :   1.3668 B( 50-C , 56-C ) :   0.9164 B( 51-C , 52-C ) :   1.3258
B( 51-C , 54-C ) :   1.0069 B( 52-C , 53-C ) :   1.4018 B( 52-C ,108-H ) :   0.9892
B( 53-C ,109-H ) :   0.9839 B( 54-C , 55-C ) :   1.3540 B( 54-C , 64-C ) :   1.3289
B( 55-C , 56-C ) :   0.9149 B( 55-C , 61-C ) :   1.3919 B( 56-C , 57-C ) :   1.0397
B( 56-C , 59-C ) :   1.0354 B( 57-C , 58-C ) :   1.1015 B( 57-C ,110-H ) :   0.9386
B( 57-C ,111-H ) :   0.9388 B( 58-C ,112-H ) :   0.9640 B( 58-C ,113-H ) :   0.9640
B( 58-C ,114-H ) :   0.9641 B( 59-C , 60-C ) :   1.0996 B( 59-C ,115-H ) :   0.9387
B( 59-C ,116-H ) :   0.9385 B( 60-C ,117-H ) :   0.9614 B( 60-C ,118-H ) :   0.9593
B( 60-C ,119-H ) :   0.9553 B( 61-C , 62-C ) :   1.2799 B( 61-C ,120-H ) :   1.0123
B( 62-C , 63-C ) :   1.3287 B( 62-C , 65-C ) :   1.0513 B( 63-C , 64-C ) :   1.4025
B( 63-C ,121-H ) :   0.9835 B( 64-C ,122-H ) :   0.9925 B( 65-C , 66-C ) :   1.6834
B( 65-C ,123-H ) :   0.9472 B( 66-C , 67-C ) :   0.9402 B( 66-C , 77-C ) :   1.0245
B( 67-C , 68-O ) :   2.2784 B( 67-C , 69-C ) :   0.9260 B( 69-C , 70-C ) :   1.3452
B( 69-C , 74-C ) :   1.3194 B( 70-C , 71-C ) :   1.3153 B( 70-C , 77-C ) :   1.0187
B( 71-C , 72-C ) :   1.3392 B( 71-C , 74-C ) :   0.1052 B( 71-C ,124-H ) :   0.9946
B( 72-C , 73-C ) :   1.2885 B( 72-C , 76-F ) :   1.1417 B( 73-C , 74-C ) :   1.3227
B( 73-C , 75-F ) :   1.1331 B( 74-C ,125-H ) :   1.0194 B( 77-C , 78-C ) :   1.6740
B( 78-C , 79-C ) :   1.1484 B( 78-C , 81-C ) :   1.1282 B( 79-C , 80-N ) :   3.0071
B( 81-C , 82-N ) :   2.9957

-----------------------------------------------------------------------------
         ABSORPTION SPECTRUM VIA TRANSITION ELECTRIC DIPOLE MOMENTS
-----------------------------------------------------------------------------
State   Energy  Wavelength   fosc         T2         TX        TY        TZ
        (cm-1)    (nm)                  (au**2)     (au)      (au)      (au)
-----------------------------------------------------------------------------
   0   19431.5    514.6   1.043061780  17.67172  -3.75575   1.81004  -0.53835
   1   20741.7    482.1   0.402910825   6.39499  -0.86338   2.31672  -0.53138
   2   25545.4    391.5   0.479464445   6.17902   1.63507  -1.21546   1.42415
   3   26216.6    381.4   0.433973169   5.44957  -1.66308   1.55592  -0.51271
   4   27471.1    364.0   0.340462892   4.08009  -1.81306   0.89036  -0.01197
   5   27633.6    361.9   0.198598213   2.36599   0.11921  -1.38114   0.66651
   6   29911.0    334.3   0.319871612   3.52063  -1.28514   1.04455  -0.88201
   7   30898.2    323.6   0.058357337   0.62178   0.74025   0.25163   0.10243
   8   30965.6    322.9   0.043789630   0.46555   0.15723   0.38382  -0.54176
   9   31222.2    320.3   0.040517457   0.42722  -0.55693  -0.33322  -0.07758
  10   31402.5    318.4   0.042455313   0.44509   0.10948   0.60137   0.26732
  11   32171.1    310.8   0.072558950   0.74251   0.83965  -0.09098   0.17092
  12   32412.8    308.5   0.127438423   1.29437   0.40559  -0.43403   0.97031
  13   32655.7    306.2   0.041739048   0.42078  -0.24719   0.26024  -0.54033
  14   32748.7    305.4   0.007979429   0.08021   0.17851   0.16976  -0.13975
  15   33111.9    302.0   0.286562136   2.84912  -0.07897   1.46507  -0.83453
  16   33854.5    295.4   0.413187770   4.01797   1.15552  -1.17317   1.14298
  17   34452.1    290.3   0.049168936   0.46984   0.05934   0.58697  -0.34898
  18   34599.8    289.0   0.213334699   2.02985   1.08882  -0.87441   0.28237
  19   35156.9    284.4   0.149970196   1.40433   1.06560   0.46902   0.22100
  20   35407.0    282.4   0.022910808   0.21302   0.08454   0.40374  -0.20705
  21   35531.5    281.4   0.095201612   0.88208   0.88932   0.29583   0.06058
  22   37233.6    268.6   0.185120218   1.63679   0.35899   0.80260  -0.92938
  23   37266.3    268.3   0.654918577   5.78558   1.03550  -1.26356   1.76543
  24   37807.7    264.5   0.010146626   0.08835  -0.26249  -0.11499  -0.07891
  25   38179.0    261.9   0.116955508   1.00849  -0.47216   0.84134  -0.27874
  26   38726.6    258.2   0.050429652   0.42870  -0.45288   0.29560  -0.36907
  27   38963.0    256.7   0.022005367   0.18593  -0.12523  -0.18685  -0.36788
  28   39312.1    254.4   0.062763486   0.52560  -0.04954  -0.40322   0.60047
  29   39412.3    253.7   0.118963627   0.99371  -0.09533  -0.47758   0.86979
  30   39494.7    253.2   0.072807474   0.60689  -0.19050  -0.04578  -0.75399
  31   39686.2    252.0   0.089701391   0.74411  -0.29976  -0.80876  -0.01289
  32   39900.7    250.6   0.035949598   0.29661  -0.12237  -0.15693   0.50696

FINAL SINGLE POINT ENERGY     -3831.172945692108

DIPOLE MOMENT
-------------
                                X             Y             Z
Electronic contribution:     22.69864      70.05254       8.43373
Nuclear contribution   :    -23.09361     -70.90858      -8.70436
                        -----------------------------------------
Total Dipole Moment    :     -0.39497      -0.85604      -0.27063
                        -----------------------------------------
Magnitude (a.u.)       :      0.98084
Magnitude (Debye)      :      2.49310

Rotational constants in cm-1:     0.001349     0.000147     0.000137
Rotational constants in MHz :    40.428847     4.421202     4.105067

                             ****ORCA TERMINATED NORMALLY****
TOTAL RUN TIME: 0 days 0 hours 13 minutes 57 seconds 671 msec
