                         Program Version 4.2.0 -  RELEASE  -
|  1> # ORCA input file
|  2> # SCF done       -210.873442735552          0.000713250135
|  3> ! CAM-B3LYP def2-SVP def2/J RIJCOSX Grid4 TightSCF
|  4> %maxcore 5000
|  5> %tddft
|  6>     Mode sTDDFT
|  7>     Ethresh 5.0
|  8>     maxcore 5000
|  9> end
| 10>
| 11> %pal
| 12>   nprocs 6
| 13>   end
| 14> * xyz 0 1
| 15>    C        4.79320        -6.07136        -9.19971
| 16>    C        4.46415        -7.21053        -9.92031
| 17>    F        4.05596        -7.07831       -11.18804
| 18>    C        4.54710        -8.48384        -9.35818
| 19>    F        4.21892        -9.55587       -10.09097
| 20>    C        4.96516        -8.65029        -8.04747
| 21>    C        5.29103        -7.51622        -7.33155
| 22>    C        5.21174        -6.22898        -7.88804
| 23>    C        5.61990        -5.25237        -6.87517
| 24>    C        5.67963        -3.89615        -7.07359
| 25>    C        5.34610        -3.25926        -8.28750
| 26>    N        5.09597        -2.67715        -9.24479
| 27>    C        6.07797        -2.93728        -6.11911
| 28>    N        6.38552        -2.08965        -5.40693
| 29>    C        5.93910        -5.98694        -5.67003
| 30>    C        5.75405        -7.41498        -5.93070
| 31>    O        5.93577        -8.34805        -5.16936
| 32>    C        6.33171        -5.43522        -4.47096
| 33>    C        6.64190        -6.04270        -3.25184
| 34>    S        6.64641        -7.75259        -2.88553
| 35>    C        7.10514        -7.43329        -1.24499
| 36>    C        7.24707        -6.06850        -1.00103
| 37>    C        6.99396        -5.30211        -2.11529
| 38>    C        7.28076        -8.48471        -0.31890
| 39>    C        7.18675        -9.84463        -0.55358
| 40>    C        7.39783       -10.61962         0.57941
| 41>    C        7.65485        -9.87493         1.71706
| 42>    S        7.64524        -8.17280         1.36053
| 43>    C        7.87678       -10.34837         3.03224
| 44>    S        7.88570       -12.05396         3.38227
| 45>    C        8.13936       -11.75772         5.08109
| 46>    C        8.22140       -10.39801         5.32641
| 47>    C        8.07753        -9.61499         4.18627
| 48>    C        8.20032       -12.86164         5.96903
| 49>    C        8.26633       -12.77781         7.32125
| 50>    C        8.27428       -13.89488         8.19452
| 51>    N        8.21861       -13.72507         9.56482
| 52>    C        8.18443       -14.94869        10.15458
| 53>    C        8.08914       -15.61229        11.37328
| 54>    C        8.09340       -16.98057        11.07338
| 55>    N        8.19941       -17.14753         9.70679
| 56>    C        8.24302       -15.92163         9.12406
| 57>    C        8.29799       -15.26391         7.90050
| 58>    C        7.95949       -18.05260        11.98946
| 59>    C        7.98726       -19.37383        11.68345
| 60>    C        7.76323       -20.42158        12.61109
| 61>    S        7.33956       -20.12826        14.27618
| 62>    C        7.19128       -21.83745        14.58726
| 63>    C        7.47599       -22.56913        13.45161
| 64>    C        7.79318       -21.77990        12.35104
| 65>    C        6.78507       -22.31830        15.85521
| 66>    C        6.47406       -21.58919        16.98789
| 67>    C        6.05810       -22.37464        18.05707
| 68>    C        6.04106       -23.72862        17.77303
| 69>    S        6.56733       -24.02069        16.13687
| 70>    C        5.63960       -24.79438        18.61430
| 71>    S        5.72827       -26.44427        18.09211
| 72>    C        5.03606       -27.01204        19.59244
| 73>    C        4.78073       -25.94089        20.44086
| 74>    C        5.11898       -24.71181        19.90052
| 75>    C        4.82866       -28.38838        19.79642
| 76>    C        4.13943       -28.92386        20.84899
| 77>    C        4.00582       -30.30904        21.01283
| 78>    C        3.34687       -31.01051        21.99087
| 79>    C        3.07038       -32.44582        21.74669
| 80>    O        3.53947       -33.14075        20.87348
| 81>    C        2.06585       -32.83182        22.76309
| 82>    C        1.82454       -31.73867        23.61231
| 83>    C        0.87694       -31.84380        24.61765
| 84>    C        0.19966       -33.04712        24.75229
| 85>    C        0.45780       -34.13153        23.91482
| 86>    C        1.39965       -34.03261        22.90320
| 87>    F       -0.21601       -35.27660        24.08517
| 88>    F       -0.72851       -33.16311        25.70998
| 89>    C        2.71000       -30.63199        23.22859
| 90>    C        2.97611       -29.55177        24.03247
| 91>    C        3.98343       -28.58790        23.82618
| 92>    N        4.79467       -27.77724        23.76022
| 93>    C        2.31784       -29.29934        25.25504
| 94>    N        1.81244       -29.02100        26.24770
| 95>    H        4.71076        -5.11158        -9.68228
| 96>    H        5.03075        -9.63253        -7.60756
| 97>    H        6.40974        -4.35531        -4.43701
| 98>    H        7.52710        -5.67730        -0.03856
| 99>    H        7.05078        -4.22778        -2.13655
|100>    H        6.96810       -10.24089        -1.52922
|101>    H        7.36288       -11.69455         0.59492
|102>    H        8.38424        -9.98852         6.30665
|103>    H        8.10920        -8.53938         4.18196
|104>    H        8.15869       -13.83704         5.50650
|105>    H        8.28487       -11.80388         7.79229
|106>    H        8.17652       -12.83331        10.02712
|107>    H        8.02119       -15.19458        12.35761
|108>    H        8.20441       -18.03405         9.23508
|109>    H        8.34994       -15.69575         6.92215
|110>    H        7.80146       -17.76521        13.02040
|111>    H        8.17573       -19.70226        10.66951
|112>    H        7.44182       -23.64445        13.43792
|113>    H        8.03540       -22.17716        11.38128
|114>    H        6.54704       -20.51646        17.01741
|115>    H        5.77513       -21.97524        19.01370
|116>    H        4.38987       -26.06793        21.43416
|117>    H        4.99164       -23.77756        20.41596
|118>    H        5.25169       -29.05753        19.05759
|119>    H        3.66739       -28.26015        21.55382
|120>    H        4.41614       -30.93480        20.22567
|121>    H        0.63551       -31.03607        25.28865
|122>    H        1.59932       -34.86659        22.24960
|123> *
|124>
|125>                          ****END OF INPUT****

CARTESIAN COORDINATES (ANGSTROEM)
---------------------------------
  C      4.793200   -6.071360   -9.199710
  C      4.464150   -7.210530   -9.920310
  F      4.055960   -7.078310  -11.188040
  C      4.547100   -8.483840   -9.358180
  F      4.218920   -9.555870  -10.090970
  C      4.965160   -8.650290   -8.047470
  C      5.291030   -7.516220   -7.331550
  C      5.211740   -6.228980   -7.888040
  C      5.619900   -5.252370   -6.875170
  C      5.679630   -3.896150   -7.073590
  C      5.346100   -3.259260   -8.287500
  N      5.095970   -2.677150   -9.244790
  C      6.077970   -2.937280   -6.119110
  N      6.385520   -2.089650   -5.406930
  C      5.939100   -5.986940   -5.670030
  C      5.754050   -7.414980   -5.930700
  O      5.935770   -8.348050   -5.169360
  C      6.331710   -5.435220   -4.470960
  C      6.641900   -6.042700   -3.251840
  S      6.646410   -7.752590   -2.885530
  C      7.105140   -7.433290   -1.244990
  C      7.247070   -6.068500   -1.001030
  C      6.993960   -5.302110   -2.115290
  C      7.280760   -8.484710   -0.318900
  C      7.186750   -9.844630   -0.553580
  C      7.397830  -10.619620    0.579410
  C      7.654850   -9.874930    1.717060
  S      7.645240   -8.172800    1.360530
  C      7.876780  -10.348370    3.032240
  S      7.885700  -12.053960    3.382270
  C      8.139360  -11.757720    5.081090
  C      8.221400  -10.398010    5.326410
  C      8.077530   -9.614990    4.186270
  C      8.200320  -12.861640    5.969030
  C      8.266330  -12.777810    7.321250
  C      8.274280  -13.894880    8.194520
  N      8.218610  -13.725070    9.564820
  C      8.184430  -14.948690   10.154580
  C      8.089140  -15.612290   11.373280
  C      8.093400  -16.980570   11.073380
  N      8.199410  -17.147530    9.706790
  C      8.243020  -15.921630    9.124060
  C      8.297990  -15.263910    7.900500
  C      7.959490  -18.052600   11.989460
  C      7.987260  -19.373830   11.683450
  C      7.763230  -20.421580   12.611090
  S      7.339560  -20.128260   14.276180
  C      7.191280  -21.837450   14.587260
  C      7.475990  -22.569130   13.451610
  C      7.793180  -21.779900   12.351040
  C      6.785070  -22.318300   15.855210
  C      6.474060  -21.589190   16.987890
  C      6.058100  -22.374640   18.057070
  C      6.041060  -23.728620   17.773030
  S      6.567330  -24.020690   16.136870
  C      5.639600  -24.794380   18.614300
  S      5.728270  -26.444270   18.092110
  C      5.036060  -27.012040   19.592440
  C      4.780730  -25.940890   20.440860
  C      5.118980  -24.711810   19.900520
  C      4.828660  -28.388380   19.796420
  C      4.139430  -28.923860   20.848990
  C      4.005820  -30.309040   21.012830
  C      3.346870  -31.010510   21.990870
  C      3.070380  -32.445820   21.746690
  O      3.539470  -33.140750   20.873480
  C      2.065850  -32.831820   22.763090
  C      1.824540  -31.738670   23.612310
  C      0.876940  -31.843800   24.617650
  C      0.199660  -33.047120   24.752290
  C      0.457800  -34.131530   23.914820
  C      1.399650  -34.032610   22.903200
  F     -0.216010  -35.276600   24.085170
  F     -0.728510  -33.163110   25.709980
  C      2.710000  -30.631990   23.228590
  C      2.976110  -29.551770   24.032470
  C      3.983430  -28.587900   23.826180
  N      4.794670  -27.777240   23.760220
  C      2.317840  -29.299340   25.255040
  N      1.812440  -29.021000   26.247700
  H      4.710760   -5.111580   -9.682280
  H      5.030750   -9.632530   -7.607560
  H      6.409740   -4.355310   -4.437010
  H      7.527100   -5.677300   -0.038560
  H      7.050780   -4.227780   -2.136550
  H      6.968100  -10.240890   -1.529220
  H      7.362880  -11.694550    0.594920
  H      8.384240   -9.988520    6.306650
  H      8.109200   -8.539380    4.181960
  H      8.158690  -13.837040    5.506500
  H      8.284870  -11.803880    7.792290
  H      8.176520  -12.833310   10.027120
  H      8.021190  -15.194580   12.357610
  H      8.204410  -18.034050    9.235080
  H      8.349940  -15.695750    6.922150
  H      7.801460  -17.765210   13.020400
  H      8.175730  -19.702260   10.669510
  H      7.441820  -23.644450   13.437920
  H      8.035400  -22.177160   11.381280
  H      6.547040  -20.516460   17.017410
  H      5.775130  -21.975240   19.013700
  H      4.389870  -26.067930   21.434160
  H      4.991640  -23.777560   20.415960
  H      5.251690  -29.057530   19.057590
  H      3.667390  -28.260150   21.553820
  H      4.416140  -30.934800   20.225670
  H      0.635510  -31.036070   25.288650
  H      1.599320  -34.866590   22.249600

 Total Charge           Charge          ....    0
 Multiplicity           Mult            ....    1
 Number of Electrons    NEL             ....  590
 Basis Dimension        Dim             .... 1284

ORBITAL ENERGIES
----------------

  NO   OCC          E(Eh)            E(eV)
   0   2.0000     -88.971661     -2421.0420
   1   2.0000     -88.968482     -2420.9555
   2   2.0000     -88.967916     -2420.9401
   3   2.0000     -88.965635     -2420.8780
   4   2.0000     -88.962245     -2420.7857
   5   2.0000     -88.960184     -2420.7297
   6   2.0000     -24.800276      -674.8498
   7   2.0000     -24.798479      -674.8009
   8   2.0000     -24.798012      -674.7882
   9   2.0000     -24.796832      -674.7561
  10   2.0000     -19.222866      -523.0808
  11   2.0000     -19.212874      -522.8089
  12   2.0000     -14.462386      -393.5415
  13   2.0000     -14.459282      -393.4571
  14   2.0000     -14.417479      -392.3196
  15   2.0000     -14.415948      -392.2779
  16   2.0000     -14.413931      -392.2230
  17   2.0000     -14.413548      -392.2126
  18   2.0000     -10.384897      -282.5874
  19   2.0000     -10.384332      -282.5720
  20   2.0000     -10.382753      -282.5291
  21   2.0000     -10.382309      -282.5170
  22   2.0000     -10.371833      -282.2319
  23   2.0000     -10.363834      -282.0143
  24   2.0000     -10.343140      -281.4512
  25   2.0000     -10.343010      -281.4476
  26   2.0000     -10.342276      -281.4276
  27   2.0000     -10.341716      -281.4124
  28   2.0000     -10.328694      -281.0581
  29   2.0000     -10.322793      -280.8975
  30   2.0000     -10.322526      -280.8902
  31   2.0000     -10.321691      -280.8675
  32   2.0000     -10.320469      -280.8342
  33   2.0000     -10.319606      -280.8107
  34   2.0000     -10.319470      -280.8071
  35   2.0000     -10.316961      -280.7388
  36   2.0000     -10.316812      -280.7347
  37   2.0000     -10.316739      -280.7327
  38   2.0000     -10.315135      -280.6891
  39   2.0000     -10.314764      -280.6790
  40   2.0000     -10.314447      -280.6704
  41   2.0000     -10.313787      -280.6524
  42   2.0000     -10.313434      -280.6428
  43   2.0000     -10.312986      -280.6306
  44   2.0000     -10.312133      -280.6074
  45   2.0000     -10.311554      -280.5916
  46   2.0000     -10.311042      -280.5777
  47   2.0000     -10.310286      -280.5571
  48   2.0000     -10.309930      -280.5475
  49   2.0000     -10.308288      -280.5028
  50   2.0000     -10.308217      -280.5008
  51   2.0000     -10.307831      -280.4903
  52   2.0000     -10.306614      -280.4572
  53   2.0000     -10.305328      -280.4222
  54   2.0000     -10.304841      -280.4090
  55   2.0000     -10.300738      -280.2973
  56   2.0000     -10.298347      -280.2323
  57   2.0000     -10.298281      -280.2305
  58   2.0000     -10.296894      -280.1927
  59   2.0000     -10.295283      -280.1489
  60   2.0000     -10.294403      -280.1250
  61   2.0000     -10.292753      -280.0800
  62   2.0000     -10.290280      -280.0128
  63   2.0000     -10.290155      -280.0094
  64   2.0000     -10.289963      -280.0041
  65   2.0000     -10.289893      -280.0022
  66   2.0000     -10.287897      -279.9479
  67   2.0000     -10.287862      -279.9469
  68   2.0000     -10.286851      -279.9194
  69   2.0000     -10.285716      -279.8886
  70   2.0000     -10.285657      -279.8870
  71   2.0000     -10.285559      -279.8843
  72   2.0000     -10.284901      -279.8664
  73   2.0000     -10.284367      -279.8518
  74   2.0000     -10.284281      -279.8495
  75   2.0000     -10.282042      -279.7886
  76   2.0000     -10.279179      -279.7107
  77   2.0000     -10.278003      -279.6787
  78   2.0000     -10.269379      -279.4440
  79   2.0000     -10.267092      -279.3818
  80   2.0000      -8.067557      -219.5294
  81   2.0000      -8.063913      -219.4302
  82   2.0000      -8.063606      -219.4219
  83   2.0000      -8.059294      -219.3045
  84   2.0000      -8.057983      -219.2689
  85   2.0000      -8.055685      -219.2063
  86   2.0000      -6.036769      -164.2688
  87   2.0000      -6.033265      -164.1735
  88   2.0000      -6.032964      -164.1653
  89   2.0000      -6.032725      -164.1588
  90   2.0000      -6.029680      -164.0759
  91   2.0000      -6.029229      -164.0637
  92   2.0000      -6.028889      -164.0544
  93   2.0000      -6.028789      -164.0517
  94   2.0000      -6.027246      -164.0097
  95   2.0000      -6.025820      -163.9709
  96   2.0000      -6.025501      -163.9622
  97   2.0000      -6.024983      -163.9481
  98   2.0000      -6.024234      -163.9278
  99   2.0000      -6.023250      -163.9010
 100   2.0000      -6.021340      -163.8490
 101   2.0000      -6.021065      -163.8415
 102   2.0000      -6.020003      -163.8126
 103   2.0000      -6.017607      -163.7474
 104   2.0000      -1.322835       -35.9962
 105   2.0000      -1.320763       -35.9398
 106   2.0000      -1.307617       -35.5821
 107   2.0000      -1.305577       -35.5265
 108   2.0000      -1.138266       -30.9738
 109   2.0000      -1.128026       -30.6951
 110   2.0000      -1.092695       -29.7338
 111   2.0000      -1.056450       -28.7475
 112   2.0000      -1.020771       -27.7766
 113   2.0000      -1.019142       -27.7323
 114   2.0000      -1.010558       -27.4987
 115   2.0000      -1.008856       -27.4524
 116   2.0000      -1.002805       -27.2877
 117   2.0000      -1.000817       -27.2336
 118   2.0000      -0.995621       -27.0922
 119   2.0000      -0.995040       -27.0764
 120   2.0000      -0.993614       -27.0376
 121   2.0000      -0.993261       -27.0280
 122   2.0000      -0.977923       -26.6106
 123   2.0000      -0.977778       -26.6067
 124   2.0000      -0.956085       -26.0164
 125   2.0000      -0.954958       -25.9857
 126   2.0000      -0.924968       -25.1697
 127   2.0000      -0.911813       -24.8117
 128   2.0000      -0.907922       -24.7058
 129   2.0000      -0.905873       -24.6501
 130   2.0000      -0.900082       -24.4925
 131   2.0000      -0.896015       -24.3818
 132   2.0000      -0.883701       -24.0467
 133   2.0000      -0.876411       -23.8484
 134   2.0000      -0.873346       -23.7649
 135   2.0000      -0.871382       -23.7115
 136   2.0000      -0.867214       -23.5981
 137   2.0000      -0.865415       -23.5492
 138   2.0000      -0.857875       -23.3440
 139   2.0000      -0.853537       -23.2259
 140   2.0000      -0.850995       -23.1568
 141   2.0000      -0.843165       -22.9437
 142   2.0000      -0.839844       -22.8533
 143   2.0000      -0.837187       -22.7810
 144   2.0000      -0.832196       -22.6452
 145   2.0000      -0.829413       -22.5695
 146   2.0000      -0.821416       -22.3519
 147   2.0000      -0.808258       -21.9938
 148   2.0000      -0.799798       -21.7636
 149   2.0000      -0.782649       -21.2970
 150   2.0000      -0.775625       -21.1058
 151   2.0000      -0.772817       -21.0294
 152   2.0000      -0.769070       -20.9275
 153   2.0000      -0.761339       -20.7171
 154   2.0000      -0.743353       -20.2277
 155   2.0000      -0.732057       -19.9203
 156   2.0000      -0.729475       -19.8500
 157   2.0000      -0.714482       -19.4420
 158   2.0000      -0.709973       -19.3194
 159   2.0000      -0.704988       -19.1837
 160   2.0000      -0.701244       -19.0818
 161   2.0000      -0.696723       -18.9588
 162   2.0000      -0.694655       -18.9025
 163   2.0000      -0.692272       -18.8377
 164   2.0000      -0.687338       -18.7034
 165   2.0000      -0.685808       -18.6618
 166   2.0000      -0.680682       -18.5223
 167   2.0000      -0.671077       -18.2609
 168   2.0000      -0.668125       -18.1806
 169   2.0000      -0.657514       -17.8919
 170   2.0000      -0.653500       -17.7826
 171   2.0000      -0.647564       -17.6211
 172   2.0000      -0.646617       -17.5953
 173   2.0000      -0.643405       -17.5079
 174   2.0000      -0.642548       -17.4846
 175   2.0000      -0.638653       -17.3786
 176   2.0000      -0.634395       -17.2628
 177   2.0000      -0.629783       -17.1373
 178   2.0000      -0.625974       -17.0336
 179   2.0000      -0.623655       -16.9705
 180   2.0000      -0.622427       -16.9371
 181   2.0000      -0.621323       -16.9071
 182   2.0000      -0.619197       -16.8492
 183   2.0000      -0.616622       -16.7791
 184   2.0000      -0.612980       -16.6800
 185   2.0000      -0.611275       -16.6336
 186   2.0000      -0.606254       -16.4970
 187   2.0000      -0.597634       -16.2625
 188   2.0000      -0.595477       -16.2038
 189   2.0000      -0.592894       -16.1335
 190   2.0000      -0.591801       -16.1037
 191   2.0000      -0.588063       -16.0020
 192   2.0000      -0.585932       -15.9440
 193   2.0000      -0.579066       -15.7572
 194   2.0000      -0.572787       -15.5863
 195   2.0000      -0.559822       -15.2335
 196   2.0000      -0.557845       -15.1797
 197   2.0000      -0.556249       -15.1363
 198   2.0000      -0.551757       -15.0141
 199   2.0000      -0.549661       -14.9570
 200   2.0000      -0.547970       -14.9110
 201   2.0000      -0.547882       -14.9086
 202   2.0000      -0.546033       -14.8583
 203   2.0000      -0.542857       -14.7719
 204   2.0000      -0.539112       -14.6700
 205   2.0000      -0.538090       -14.6422
 206   2.0000      -0.537862       -14.6360
 207   2.0000      -0.533386       -14.5142
 208   2.0000      -0.531796       -14.4709
 209   2.0000      -0.531415       -14.4605
 210   2.0000      -0.526992       -14.3402
 211   2.0000      -0.525549       -14.3009
 212   2.0000      -0.525022       -14.2866
 213   2.0000      -0.521000       -14.1771
 214   2.0000      -0.518973       -14.1220
 215   2.0000      -0.514589       -14.0027
 216   2.0000      -0.511590       -13.9211
 217   2.0000      -0.510209       -13.8835
 218   2.0000      -0.506451       -13.7812
 219   2.0000      -0.505340       -13.7510
 220   2.0000      -0.501620       -13.6498
 221   2.0000      -0.498097       -13.5539
 222   2.0000      -0.496861       -13.5203
 223   2.0000      -0.496199       -13.5023
 224   2.0000      -0.495578       -13.4854
 225   2.0000      -0.494490       -13.4558
 226   2.0000      -0.493282       -13.4229
 227   2.0000      -0.491909       -13.3855
 228   2.0000      -0.491227       -13.3670
 229   2.0000      -0.489240       -13.3129
 230   2.0000      -0.488250       -13.2859
 231   2.0000      -0.487766       -13.2728
 232   2.0000      -0.483007       -13.1433
 233   2.0000      -0.480621       -13.0784
 234   2.0000      -0.479081       -13.0365
 235   2.0000      -0.478088       -13.0094
 236   2.0000      -0.471412       -12.8278
 237   2.0000      -0.470779       -12.8106
 238   2.0000      -0.468763       -12.7557
 239   2.0000      -0.466713       -12.6999
 240   2.0000      -0.465246       -12.6600
 241   2.0000      -0.464445       -12.6382
 242   2.0000      -0.458058       -12.4644
 243   2.0000      -0.457484       -12.4488
 244   2.0000      -0.456390       -12.4190
 245   2.0000      -0.454152       -12.3581
 246   2.0000      -0.453680       -12.3453
 247   2.0000      -0.450874       -12.2689
 248   2.0000      -0.450362       -12.2550
 249   2.0000      -0.450079       -12.2473
 250   2.0000      -0.448783       -12.2120
 251   2.0000      -0.445030       -12.1099
 252   2.0000      -0.443187       -12.0597
 253   2.0000      -0.442594       -12.0436
 254   2.0000      -0.441156       -12.0045
 255   2.0000      -0.440919       -11.9980
 256   2.0000      -0.435031       -11.8378
 257   2.0000      -0.434167       -11.8143
 258   2.0000      -0.428314       -11.6550
 259   2.0000      -0.427375       -11.6295
 260   2.0000      -0.426411       -11.6032
 261   2.0000      -0.423034       -11.5114
 262   2.0000      -0.422107       -11.4861
 263   2.0000      -0.421734       -11.4760
 264   2.0000      -0.417977       -11.3737
 265   2.0000      -0.412495       -11.2246
 266   2.0000      -0.411637       -11.2012
 267   2.0000      -0.409013       -11.1298
 268   2.0000      -0.406888       -11.0720
 269   2.0000      -0.405366       -11.0306
 270   2.0000      -0.404107       -10.9963
 271   2.0000      -0.392898       -10.6913
 272   2.0000      -0.382081       -10.3970
 273   2.0000      -0.369753       -10.0615
 274   2.0000      -0.357731        -9.7344
 275   2.0000      -0.350320        -9.5327
 276   2.0000      -0.346677        -9.4336
 277   2.0000      -0.344062        -9.3624
 278   2.0000      -0.342341        -9.3156
 279   2.0000      -0.339441        -9.2367
 280   2.0000      -0.337772        -9.1913
 281   2.0000      -0.337124        -9.1736
 282   2.0000      -0.335094        -9.1184
 283   2.0000      -0.333406        -9.0724
 284   2.0000      -0.329742        -8.9727
 285   2.0000      -0.328786        -8.9467
 286   2.0000      -0.322464        -8.7747
 287   2.0000      -0.315473        -8.5844
 288   2.0000      -0.311388        -8.4733
 289   2.0000      -0.298598        -8.1253
 290   2.0000      -0.292677        -7.9641
 291   2.0000      -0.281168        -7.6510
 292   2.0000      -0.257555        -7.0084
 293   2.0000      -0.242683        -6.6037
 294   2.0000      -0.212867        -5.7924
 295   0.0000      -0.098298        -2.6748
 296   0.0000      -0.094761        -2.5786
 297   0.0000      -0.067836        -1.8459
 298   0.0000      -0.064193        -1.7468
 299   0.0000      -0.056683        -1.5424

MULLIKEN ATOMIC CHARGES
-----------------------
   0 C :   -0.093647
   1 C :    0.238410
   2 F :   -0.165921
   3 C :    0.236321
   4 F :   -0.170243
   5 C :   -0.110108
   6 C :   -0.005105
   7 C :    0.042128
   8 C :    0.321228
   9 C :   -0.356105
  10 C :   -0.191158
  11 N :    0.154074
  12 C :   -0.185242
  13 N :    0.143079
  14 C :   -0.108657
  15 C :    0.159800
  16 O :   -0.176537
  17 C :   -0.003419
  18 C :   -0.064114
  19 S :    0.183700
  20 C :   -0.010645
  21 C :    0.002111
  22 C :    0.036163
  23 C :   -0.062981
  24 C :    0.013526
  25 C :   -0.016290
  26 C :   -0.017310
  27 S :    0.126153
  28 C :   -0.055945
  29 S :    0.121322
  30 C :   -0.060735
  31 C :    0.007031
  32 C :   -0.006255
  33 C :    0.041856
  34 C :    0.011883
  35 C :    0.096542
  36 N :   -0.036876
  37 C :    0.116317
  38 C :   -0.166742
  39 C :    0.080371
  40 N :   -0.039483
  41 C :    0.111858
  42 C :   -0.168016
  43 C :    0.028032
  44 C :    0.000955
  45 C :   -0.042644
  46 S :    0.103170
  47 C :   -0.044627
  48 C :   -0.004921
  49 C :    0.009730
  50 C :   -0.026828
  51 C :   -0.013738
  52 C :    0.012411
  53 C :   -0.043478
  54 S :    0.125316
  55 C :   -0.030507
  56 S :    0.141710
  57 C :   -0.098099
  58 C :    0.055100
  59 C :   -0.007947
  60 C :    0.079276
  61 C :    0.000210
  62 C :    0.023455
  63 C :   -0.122784
  64 C :    0.136497
  65 O :   -0.147744
  66 C :    0.007509
  67 C :    0.023027
  68 C :   -0.089861
  69 C :    0.234153
  70 C :    0.233421
  71 C :   -0.102221
  72 F :   -0.170795
  73 F :   -0.167922
  74 C :    0.305139
  75 C :   -0.344644
  76 C :   -0.208167
  77 N :    0.161656
  78 C :   -0.191907
  79 N :    0.152056
  80 H :    0.014268
  81 H :    0.007976
  82 H :    0.004790
  83 H :   -0.007761
  84 H :    0.010752
  85 H :    0.002685
  86 H :   -0.005938
  87 H :   -0.022493
  88 H :   -0.010084
  89 H :   -0.020529
  90 H :   -0.033101
  91 H :    0.120133
  92 H :   -0.037057
  93 H :    0.122139
  94 H :   -0.036664
  95 H :   -0.011500
  96 H :   -0.040198
  97 H :   -0.008843
  98 H :   -0.021766
  99 H :   -0.007837
 100 H :   -0.014094
 101 H :    0.004143
 102 H :   -0.010939
 103 H :    0.003060
 104 H :    0.013776
 105 H :    0.012615
 106 H :    0.015973
 107 H :    0.010167
Sum of atomic charges:   -0.0000000

LOEWDIN ATOMIC CHARGES
----------------------
   0 C :   -0.018216
   1 C :    0.072543
   2 F :   -0.044957
   3 C :    0.069528
   4 F :   -0.047411
   5 C :   -0.007342
   6 C :   -0.044002
   7 C :   -0.014029
   8 C :    0.077486
   9 C :   -0.144355
  10 C :   -0.020182
  11 N :   -0.052954
  12 C :   -0.020506
  13 N :   -0.054576
  14 C :   -0.123571
  15 C :    0.083162
  16 O :   -0.166715
  17 C :    0.059002
  18 C :   -0.192930
  19 S :    0.503280
  20 C :   -0.154849
  21 C :   -0.074045
  22 C :   -0.000695
  23 C :   -0.197697
  24 C :   -0.033196
  25 C :   -0.066553
  26 C :   -0.163811
  27 S :    0.438794
  28 C :   -0.196408
  29 S :    0.434163
  30 C :   -0.157264
  31 C :   -0.063061
  32 C :   -0.050309
  33 C :   -0.052703
  34 C :   -0.023894
  35 C :   -0.003306
  36 N :    0.070365
  37 C :   -0.026260
  38 C :   -0.087719
  39 C :   -0.004410
  40 N :    0.066650
  41 C :   -0.014632
  42 C :   -0.094049
  43 C :   -0.027186
  44 C :   -0.067731
  45 C :   -0.155648
  46 S :    0.425460
  47 C :   -0.190073
  48 C :   -0.055354
  49 C :   -0.062909
  50 C :   -0.167574
  51 C :   -0.065586
  52 C :   -0.036187
  53 C :   -0.195757
  54 S :    0.431783
  55 C :   -0.160150
  56 S :    0.439107
  57 C :   -0.190206
  58 C :   -0.008767
  59 C :   -0.054781
  60 C :    0.027071
  61 C :   -0.044364
  62 C :    0.070727
  63 C :   -0.112888
  64 C :    0.081242
  65 O :   -0.147037
  66 C :   -0.045506
  67 C :   -0.012393
  68 C :   -0.021395
  69 C :    0.073007
  70 C :    0.068789
  71 C :   -0.006445
  72 F :   -0.047810
  73 F :   -0.045788
  74 C :    0.073592
  75 C :   -0.144985
  76 C :   -0.019193
  77 N :   -0.056947
  78 C :   -0.021107
  79 N :   -0.052859
  80 H :    0.051286
  81 H :    0.050797
  82 H :    0.050762
  83 H :    0.027256
  84 H :    0.040425
  85 H :    0.032877
  86 H :    0.028723
  87 H :    0.027141
  88 H :    0.027472
  89 H :    0.026739
  90 H :    0.025878
  91 H :    0.088332
  92 H :    0.024452
  93 H :    0.086329
  94 H :    0.022564
  95 H :    0.029626
  96 H :    0.023670
  97 H :    0.027158
  98 H :    0.028799
  99 H :    0.028706
 100 H :    0.032347
 101 H :    0.039436
 102 H :    0.033364
 103 H :    0.036249
 104 H :    0.031215
 105 H :    0.043534
 106 H :    0.050765
 107 H :    0.051587

  Mayer bond orders larger than 0.100000
B(  0-C ,  1-C ) :   1.3302 B(  0-C ,  5-C ) :   0.1060 B(  0-C ,  7-C ) :   1.3139
B(  0-C , 80-H ) :   0.9933 B(  1-C ,  2-F ) :   1.1456 B(  1-C ,  3-C ) :   1.2959
B(  3-C ,  4-F ) :   1.1304 B(  3-C ,  5-C ) :   1.3091 B(  5-C ,  6-C ) :   1.3196
B(  5-C , 81-H ) :   1.0225 B(  6-C ,  7-C ) :   1.3463 B(  6-C , 15-C ) :   0.9632
B(  7-C ,  8-C ) :   0.9976 B(  8-C ,  9-C ) :   1.6182 B(  8-C , 14-C ) :   1.0994
B(  9-C , 10-C ) :   1.1421 B(  9-C , 12-C ) :   1.1472 B( 10-C , 11-N ) :   2.9748
B( 12-C , 13-N ) :   2.9554 B( 14-C , 15-C ) :   0.9856 B( 14-C , 17-C ) :   1.4596
B( 15-C , 16-O ) :   2.1440 B( 17-C , 18-C ) :   1.2996 B( 17-C , 82-H ) :   0.9385
B( 18-C , 19-S ) :   1.0759 B( 18-C , 22-C ) :   1.3309 B( 19-S , 20-C ) :   1.1400
B( 20-C , 21-C ) :   1.3739 B( 20-C , 23-C ) :   1.1960 B( 21-C , 22-C ) :   1.3645
B( 21-C , 83-H ) :   0.9943 B( 22-C , 84-H ) :   1.0026 B( 23-C , 24-C ) :   1.4715
B( 23-C , 27-S ) :   1.1013 B( 24-C , 25-C ) :   1.2930 B( 24-C , 85-H ) :   0.9932
B( 25-C , 26-C ) :   1.4695 B( 25-C , 86-H ) :   0.9939 B( 26-C , 27-S ) :   1.1365
B( 26-C , 28-C ) :   1.1678 B( 28-C , 29-S ) :   1.1164 B( 28-C , 32-C ) :   1.4766
B( 29-S , 30-C ) :   1.1226 B( 30-C , 31-C ) :   1.4803 B( 30-C , 33-C ) :   1.1215
B( 31-C , 32-C ) :   1.2927 B( 31-C , 87-H ) :   0.9927 B( 32-C , 88-H ) :   0.9921
B( 33-C , 34-C ) :   1.6838 B( 33-C , 89-H ) :   0.9628 B( 34-C , 35-C ) :   1.1224
B( 34-C , 90-H ) :   0.9635 B( 35-C , 36-N ) :   1.1734 B( 35-C , 42-C ) :   1.3953
B( 36-N , 37-C ) :   1.1639 B( 36-N , 91-H ) :   0.9373 B( 37-C , 38-C ) :   1.2442
B( 37-C , 41-C ) :   1.3118 B( 38-C , 39-C ) :   1.3598 B( 38-C , 92-H ) :   1.0417
B( 39-C , 40-N ) :   1.1930 B( 39-C , 43-C ) :   1.1732 B( 40-N , 41-C ) :   1.1650
B( 40-N , 93-H ) :   0.9340 B( 41-C , 42-C ) :   1.2693 B( 42-C , 94-H ) :   1.0308
B( 43-C , 44-C ) :   1.5976 B( 43-C , 95-H ) :   0.9562 B( 44-C , 45-C ) :   1.1818
B( 44-C , 96-H ) :   0.9732 B( 45-C , 46-S ) :   1.1105 B( 45-C , 49-C ) :   1.4669
B( 46-S , 47-C ) :   1.1089 B( 47-C , 48-C ) :   1.4899 B( 47-C , 50-C ) :   1.1710
B( 48-C , 49-C ) :   1.2703 B( 48-C , 97-H ) :   0.9928 B( 49-C , 98-H ) :   0.9998
B( 50-C , 51-C ) :   1.4767 B( 50-C , 53-C ) :   0.1044 B( 50-C , 54-S ) :   1.1321
B( 51-C , 52-C ) :   1.2844 B( 51-C , 99-H ) :   0.9934 B( 52-C , 53-C ) :   1.5027
B( 52-C ,100-H ) :   0.9950 B( 53-C , 54-S ) :   1.1030 B( 53-C , 55-C ) :   1.1354
B( 55-C , 56-S ) :   1.1554 B( 55-C , 59-C ) :   1.4508 B( 56-S , 57-C ) :   1.0846
B( 57-C , 58-C ) :   1.4354 B( 57-C , 60-C ) :   1.1611 B( 58-C , 59-C ) :   1.3301
B( 58-C ,101-H ) :   0.9853 B( 59-C ,102-H ) :   0.9972 B( 60-C , 61-C ) :   1.5950
B( 60-C ,103-H ) :   0.9706 B( 61-C , 62-C ) :   1.2004 B( 61-C ,104-H ) :   0.9614
B( 62-C , 63-C ) :   1.5388 B( 62-C ,105-H ) :   0.9508 B( 63-C , 64-C ) :   0.9622
B( 63-C , 74-C ) :   1.0604 B( 64-C , 65-O ) :   2.2514 B( 64-C , 66-C ) :   0.9299
B( 66-C , 67-C ) :   1.3450 B( 66-C , 71-C ) :   1.3267 B( 67-C , 68-C ) :   1.3182
B( 67-C , 74-C ) :   1.0099 B( 68-C , 69-C ) :   1.3359 B( 68-C , 71-C ) :   0.1049
B( 68-C ,106-H ) :   0.9912 B( 69-C , 70-C ) :   1.2958 B( 69-C , 73-F ) :   1.1409
B( 70-C , 71-C ) :   1.3147 B( 70-C , 72-F ) :   1.1297 B( 71-C ,107-H ) :   1.0201
B( 74-C , 75-C ) :   1.6203 B( 75-C , 76-C ) :   1.1721 B( 75-C , 78-C ) :   1.1272
B( 76-C , 77-N ) :   2.9847 B( 78-C , 79-N ) :   2.9864

-----------------------------------------------------------------------------
         ABSORPTION SPECTRUM VIA TRANSITION ELECTRIC DIPOLE MOMENTS
-----------------------------------------------------------------------------
State   Energy  Wavelength   fosc         T2         TX        TY        TZ
        (cm-1)    (nm)                  (au**2)     (au)      (au)      (au)
-----------------------------------------------------------------------------
   0   14175.5    705.4   3.825926857  88.85321   0.90737   6.25224  -6.99567
   1   15896.9    629.1   0.308412305   6.38697   1.71752  -0.01296   1.85390
   2   20038.9    499.0   0.039244565   0.64474   0.61095   0.06096  -0.51746
   3   20909.7    478.2   0.272727987   4.29395   0.86730   1.73593  -0.72684
   4   21704.6    460.7   0.917359726  13.91437   0.21876  -2.07266   3.09364
   5   22994.3    434.9   0.087509080   1.25288  -0.43471  -1.01923  -0.15837
   6   24128.1    414.5   0.012283810   0.16760  -0.29410  -0.21999  -0.18088
   7   25865.4    386.6   0.029732676   0.37843  -0.09106   0.60812  -0.01817
   8   26718.7    374.3   0.016855164   0.20768  -0.18003  -0.26330   0.32549
   9   27166.3    368.1   0.068018222   0.82427  -0.10447  -0.44172   0.78628
  10   27675.4    361.3   0.036936392   0.43938   0.20673  -0.23403   0.58470
  11   28161.1    355.1   0.025912168   0.30292   0.33485   0.43586  -0.02877
  12   29308.4    341.2   0.013539171   0.15208  -0.18821   0.32338   0.10992
  13   29485.3    339.2   0.096369206   1.07599   0.40082   0.93505   0.20252
  14   30137.1    331.8   0.001406431   0.01536  -0.11102  -0.05373  -0.01231
  15   30503.7    327.8   0.062641592   0.67606  -0.04392  -0.73924  -0.35729
  16   30682.6    325.9   0.025228957   0.27070   0.16647   0.49212  -0.02831
  17   31065.6    321.9   0.072548431   0.76882  -0.38654  -0.75106   0.23518
  18   31585.3    316.6   0.087974497   0.91695   0.33258   0.89226   0.10107
  19   31660.2    315.9   0.125826451   1.30838   0.60427   0.97092   0.02344
  20   31941.5    313.1   0.106364989   1.09627  -0.16171  -0.35836  -0.97041
  21   32675.1    306.0   0.077829395   0.78416   0.06267   0.55761   0.68506
  22   32764.9    305.2   0.024540345   0.24657  -0.20301  -0.36687   0.26602
  23   32895.7    304.0   0.001976153   0.01978  -0.04239  -0.12313   0.05310
  24   32944.0    303.5   0.008237704   0.08232  -0.16876  -0.00604   0.23196
  25   33911.3    294.9   0.043173201   0.41913   0.09617   0.64019  -0.00582
  26   34241.5    292.0   0.009315696   0.08956   0.04882   0.10796   0.27482
  27   34923.6    286.3   0.009760068   0.09200  -0.12700  -0.13659  -0.23921
  28   35171.8    284.3   0.003220240   0.03014  -0.16436   0.03353   0.04474
  29   35407.3    282.4   0.025358129   0.23578  -0.30024  -0.37267   0.08217
  30   35698.0    280.1   0.035022253   0.32298  -0.00387   0.30409   0.48009
  31   35911.9    278.5   0.029453781   0.27001  -0.17539  -0.36657   0.32384
  32   36011.2    277.7   0.012966961   0.11854   0.05129  -0.09298   0.32752
  33   36246.5    275.9   0.001965855   0.01786  -0.04875  -0.06073   0.10859
  34   36883.1    271.1   0.495374718   4.42163   0.30918   2.07652   0.11875
  35   37165.6    269.1   0.036470144   0.32305  -0.10233   0.55860  -0.02327
  36   37200.3    268.8   0.374124760   3.31090   0.71246   1.63999   0.33722
  37   37509.5    266.6   0.117187240   1.02852  -0.36942  -0.91486  -0.23472
  38   37669.0    265.5   0.062181459   0.54344   0.16596   0.47581   0.53806
  39   37768.3    264.8   0.020620564   0.17974  -0.06502  -0.25640   0.33132
  40   37920.1    263.7   0.040727920   0.35359   0.15337  -0.44505  -0.36331
  41   38090.5    262.5   0.008347414   0.07215   0.13527   0.04994   0.22661
  42   38218.0    261.7   0.232722915   2.00469   0.19778   1.27806   0.57631
  43   38564.5    259.3   0.139199546   1.18830   0.31124   0.64594   0.82109
  44   38716.4    258.3   0.058310303   0.49582  -0.03439  -0.66581   0.22657
  45   38992.9    256.5   0.091557311   0.77301   0.02029   0.75365  -0.45233
  46   39035.2    256.2   0.114554046   0.96612  -0.03188   0.96579  -0.17984
  47   39229.0    254.9   0.134478619   1.12855   0.15013  -1.05167  -0.00186
  48   39591.0    252.6   0.145510092   1.20996   0.16439  -0.41774  -1.00421
  49   39835.3    251.0   0.226513967   1.87198   0.09246   1.06957   0.84821
  50   40014.4    249.9   0.076166858   0.62665  -0.11752  -0.58832   0.51644
  51   40310.9    248.1   0.021788993   0.17795  -0.34221   0.01406   0.24626

FINAL SINGLE POINT ENERGY     -5642.017768927239

DIPOLE MOMENT
-------------
                                X             Y             Z
Electronic contribution:    -32.00899     -17.32192     -31.68132
Nuclear contribution   :     33.26734      17.14814      31.98054
                        -----------------------------------------
Total Dipole Moment    :      1.25835      -0.17378       0.29922
                        -----------------------------------------
Magnitude (a.u.)       :      1.30505
Magnitude (Debye)      :      3.31718

Rotational constants in cm-1:     0.001658     0.000062     0.000061
Rotational constants in MHz :    49.704184     1.866912     1.820569

                             ****ORCA TERMINATED NORMALLY****
TOTAL RUN TIME: 0 days 0 hours 11 minutes 16 seconds 659 msec
