                         Program Version 4.2.0 -  RELEASE  -
|  1> # ORCA input file
|  2> # SCF done       -218.206994007458          0.000949426698
|  3> ! CAM-B3LYP def2-SVP def2/J RIJCOSX Grid4 TightSCF
|  4> %maxcore 5000
|  5> %tddft
|  6>     Mode sTDDFT
|  7>     Ethresh 5.0
|  8>     maxcore 5000
|  9> end
| 10>
| 11> %pal
| 12>   nprocs 6
| 13>   end
| 14> * xyz 0 1
| 15>    C       22.78222        -0.65231         4.12063
| 16>    C       23.25547         0.34641         4.95844
| 17>    F       24.26885         1.11404         4.54120
| 18>    C       22.70372         0.56909         6.22022
| 19>    F       23.19234         1.54558         6.99495
| 20>    C       21.65552        -0.21213         6.67791
| 21>    C       21.18628        -1.20662         5.84284
| 22>    C       21.73227        -1.43800         4.57147
| 23>    C       21.01234        -2.54900         3.94782
| 24>    C       21.25534        -3.01476         2.68137
| 25>    C       22.24806        -2.49185         1.82410
| 26>    N       23.03308        -2.12154         1.07326
| 27>    C       20.57508        -4.05845         2.01730
| 28>    N       20.08635        -4.88512         1.38624
| 29>    C       20.01477        -3.01737         4.89524
| 30>    C       20.08986        -2.16743         6.10004
| 31>    O       19.42401        -2.20870         7.11358
| 32>    C       19.19717        -4.09591         4.65850
| 33>    C       18.17778        -4.68920         5.41860
| 34>    S       17.41533        -6.10935         4.71579
| 35>    C       16.35456        -6.27191         6.07112
| 36>    C       16.58836        -5.27067         7.00738
| 37>    C       17.59650        -4.39528         6.64779
| 38>    C       15.40412        -7.31723         6.14034
| 39>    C       15.17347        -8.31745         5.21438
| 40>    C       14.16427        -9.19628         5.58868
| 41>    C       13.59427        -8.89151         6.81112
| 42>    S       14.33366        -7.47991         7.50776
| 43>    C       12.54810        -9.57869         7.47490
| 44>    S       11.83257       -11.00128         6.77161
| 45>    C       10.73664       -11.17177         8.11688
| 46>    C       10.94467       -10.16335         9.04152
| 47>    C       11.95462        -9.27568         8.68532
| 48>    C        9.78494       -12.21744         8.18583
| 49>    C        9.64237       -13.18112         7.24239
| 50>    C        8.68009       -14.21166         7.31030
| 51>    S        8.60356       -15.41499         5.98811
| 52>    C        7.30436       -16.14733         6.82591
| 53>    C        7.03104       -15.45018         8.01211
| 54>    N        7.79699       -14.39581         8.25541
| 55>    C        5.89167       -16.08330         8.74763
| 56>    C        5.55062       -17.22193         7.83034
| 57>    C        6.40180       -17.22476         6.71990
| 58>    S        6.05777       -18.50425         5.63508
| 59>    C        4.75069       -19.05168         6.67274
| 60>    C        4.62125       -18.25260         7.80027
| 61>    C        4.01128       -20.18849         6.26156
| 62>    C        2.96519       -20.73609         6.92829
| 63>    C        2.24922       -21.87837         6.48344
| 64>    S        0.91038       -22.47951         7.42424
| 65>    C        0.62703       -23.76958         6.29131
| 66>    C        1.53450       -23.71186         5.25109
| 67>    C        2.43671       -22.65953         5.35689
| 68>    C       -0.41086       -24.71432         6.48434
| 69>    C       -1.33626       -24.77868         7.50832
| 70>    C       -2.21757       -25.84899         7.39182
| 71>    C       -1.98879       -26.63213         6.27701
| 72>    S       -0.64526       -26.01478         5.35219
| 73>    C       -2.68076       -27.79269         5.85767
| 74>    S       -4.02687       -28.42279         6.75021
| 75>    C       -4.22869       -29.73667         5.61464
| 76>    C       -3.27253       -29.65656         4.60996
| 77>    C       -2.41491       -28.57787         4.74476
| 78>    C       -5.24182       -30.69279         5.81681
| 79>    C       -5.52167       -31.72302         4.96424
| 80>    C       -6.51844       -32.67018         5.24338
| 81>    C       -6.85711       -33.78638         4.52305
| 82>    C       -8.16466       -34.43400         4.78120
| 83>    O       -8.90998       -34.23010         5.71241
| 84>    C       -8.38403       -35.34208         3.63137
| 85>    C       -7.25233       -35.31773         2.79816
| 86>    C       -7.23861       -36.06001         1.62848
| 87>    C       -8.36118       -36.81605         1.32400
| 88>    C       -9.47436       -36.84556         2.16359
| 89>    C       -9.49695       -36.10251         3.33321
| 90>    F      -10.53382       -37.59492         1.83305
| 91>    F       -8.37279       -37.53056         0.19240
| 92>    C       -6.23387       -34.45554         3.40695
| 93>    C       -4.90368       -34.47467         3.07131
| 94>    C       -3.86499       -33.86878         3.80817
| 95>    N       -2.95717       -33.44244         4.36768
| 96>    C       -4.37803       -35.19707         1.97932
| 97>    N       -3.88831       -35.74072         1.09485
| 98>    H       23.24593        -0.78083         3.15681
| 99>    H       21.22467        -0.04642         7.65243
|100>    H       19.35744        -4.60084         3.71343
|101>    H       16.02454        -5.20233         7.92118
|102>    H       17.91659        -3.56289         7.24678
|103>    H       15.73223        -8.39105         4.29823
|104>    H       13.84266       -10.03632         4.99931
|105>    H       10.37034       -10.08614         9.94726
|106>    H       12.25740        -8.43024         9.27784
|107>    H        9.13662       -12.23232         9.05050
|108>    H       10.28617       -13.18429         6.37284
|109>    H        5.05855       -15.38974         8.87486
|110>    H        6.19245       -16.42634         9.73922
|111>    H        3.87861       -18.42615         8.55711
|112>    H        4.33203       -20.63373         5.33017
|113>    H        2.63190       -20.29831         7.85833
|114>    H        1.52710       -24.42381         4.44432
|115>    H        3.20840       -22.47101         4.63348
|116>    H       -1.35666       -24.06158         8.30963
|117>    H       -3.00514       -26.06369         8.09241
|118>    H       -3.19411       -30.38236         3.82170
|119>    H       -1.60890       -28.35457         4.06819
|120>    H       -5.81657       -30.60405         6.73009
|121>    H       -4.97178       -31.80195         4.04034
|122>    H       -7.16067       -32.47492         6.09650
|123>    H       -6.40540       -36.06833         0.94507
|124>    H      -10.35722       -36.12079         3.98305
|125> *
|126>
|127>                          ****END OF INPUT****

CARTESIAN COORDINATES (ANGSTROEM)
---------------------------------
  C     22.782220   -0.652310    4.120630
  C     23.255470    0.346410    4.958440
  F     24.268850    1.114040    4.541200
  C     22.703720    0.569090    6.220220
  F     23.192340    1.545580    6.994950
  C     21.655520   -0.212130    6.677910
  C     21.186280   -1.206620    5.842840
  C     21.732270   -1.438000    4.571470
  C     21.012340   -2.549000    3.947820
  C     21.255340   -3.014760    2.681370
  C     22.248060   -2.491850    1.824100
  N     23.033080   -2.121540    1.073260
  C     20.575080   -4.058450    2.017300
  N     20.086350   -4.885120    1.386240
  C     20.014770   -3.017370    4.895240
  C     20.089860   -2.167430    6.100040
  O     19.424010   -2.208700    7.113580
  C     19.197170   -4.095910    4.658500
  C     18.177780   -4.689200    5.418600
  S     17.415330   -6.109350    4.715790
  C     16.354560   -6.271910    6.071120
  C     16.588360   -5.270670    7.007380
  C     17.596500   -4.395280    6.647790
  C     15.404120   -7.317230    6.140340
  C     15.173470   -8.317450    5.214380
  C     14.164270   -9.196280    5.588680
  C     13.594270   -8.891510    6.811120
  S     14.333660   -7.479910    7.507760
  C     12.548100   -9.578690    7.474900
  S     11.832570  -11.001280    6.771610
  C     10.736640  -11.171770    8.116880
  C     10.944670  -10.163350    9.041520
  C     11.954620   -9.275680    8.685320
  C      9.784940  -12.217440    8.185830
  C      9.642370  -13.181120    7.242390
  C      8.680090  -14.211660    7.310300
  S      8.603560  -15.414990    5.988110
  C      7.304360  -16.147330    6.825910
  C      7.031040  -15.450180    8.012110
  N      7.796990  -14.395810    8.255410
  C      5.891670  -16.083300    8.747630
  C      5.550620  -17.221930    7.830340
  C      6.401800  -17.224760    6.719900
  S      6.057770  -18.504250    5.635080
  C      4.750690  -19.051680    6.672740
  C      4.621250  -18.252600    7.800270
  C      4.011280  -20.188490    6.261560
  C      2.965190  -20.736090    6.928290
  C      2.249220  -21.878370    6.483440
  S      0.910380  -22.479510    7.424240
  C      0.627030  -23.769580    6.291310
  C      1.534500  -23.711860    5.251090
  C      2.436710  -22.659530    5.356890
  C     -0.410860  -24.714320    6.484340
  C     -1.336260  -24.778680    7.508320
  C     -2.217570  -25.848990    7.391820
  C     -1.988790  -26.632130    6.277010
  S     -0.645260  -26.014780    5.352190
  C     -2.680760  -27.792690    5.857670
  S     -4.026870  -28.422790    6.750210
  C     -4.228690  -29.736670    5.614640
  C     -3.272530  -29.656560    4.609960
  C     -2.414910  -28.577870    4.744760
  C     -5.241820  -30.692790    5.816810
  C     -5.521670  -31.723020    4.964240
  C     -6.518440  -32.670180    5.243380
  C     -6.857110  -33.786380    4.523050
  C     -8.164660  -34.434000    4.781200
  O     -8.909980  -34.230100    5.712410
  C     -8.384030  -35.342080    3.631370
  C     -7.252330  -35.317730    2.798160
  C     -7.238610  -36.060010    1.628480
  C     -8.361180  -36.816050    1.324000
  C     -9.474360  -36.845560    2.163590
  C     -9.496950  -36.102510    3.333210
  F    -10.533820  -37.594920    1.833050
  F     -8.372790  -37.530560    0.192400
  C     -6.233870  -34.455540    3.406950
  C     -4.903680  -34.474670    3.071310
  C     -3.864990  -33.868780    3.808170
  N     -2.957170  -33.442440    4.367680
  C     -4.378030  -35.197070    1.979320
  N     -3.888310  -35.740720    1.094850
  H     23.245930   -0.780830    3.156810
  H     21.224670   -0.046420    7.652430
  H     19.357440   -4.600840    3.713430
  H     16.024540   -5.202330    7.921180
  H     17.916590   -3.562890    7.246780
  H     15.732230   -8.391050    4.298230
  H     13.842660  -10.036320    4.999310
  H     10.370340  -10.086140    9.947260
  H     12.257400   -8.430240    9.277840
  H      9.136620  -12.232320    9.050500
  H     10.286170  -13.184290    6.372840
  H      5.058550  -15.389740    8.874860
  H      6.192450  -16.426340    9.739220
  H      3.878610  -18.426150    8.557110
  H      4.332030  -20.633730    5.330170
  H      2.631900  -20.298310    7.858330
  H      1.527100  -24.423810    4.444320
  H      3.208400  -22.471010    4.633480
  H     -1.356660  -24.061580    8.309630
  H     -3.005140  -26.063690    8.092410
  H     -3.194110  -30.382360    3.821700
  H     -1.608900  -28.354570    4.068190
  H     -5.816570  -30.604050    6.730090
  H     -4.971780  -31.801950    4.040340
  H     -7.160670  -32.474920    6.096500
  H     -6.405400  -36.068330    0.945070
  H    -10.357220  -36.120790    3.983050

 Total Charge           Charge          ....    0
 Multiplicity           Mult            ....    1
 Number of Electrons    NEL             ....  626
 Basis Dimension        Dim             .... 1329

ORBITAL ENERGIES
----------------

  NO   OCC          E(Eh)            E(eV)
   0   2.0000     -88.974745     -2421.1259
   1   2.0000     -88.973740     -2421.0986
   2   2.0000     -88.971681     -2421.0425
   3   2.0000     -88.970135     -2421.0005
   4   2.0000     -88.967953     -2420.9411
   5   2.0000     -88.966658     -2420.9058
   6   2.0000     -88.966259     -2420.8950
   7   2.0000     -88.962964     -2420.8053
   8   2.0000     -24.801631      -674.8867
   9   2.0000     -24.799823      -674.8375
  10   2.0000     -24.798471      -674.8007
  11   2.0000     -24.797615      -674.7774
  12   2.0000     -19.223339      -523.0937
  13   2.0000     -19.213570      -522.8278
  14   2.0000     -14.419658      -392.3788
  15   2.0000     -14.415575      -392.2677
  16   2.0000     -14.414733      -392.2448
  17   2.0000     -14.414625      -392.2419
  18   2.0000     -14.414224      -392.2310
  19   2.0000     -10.386380      -282.6278
  20   2.0000     -10.385787      -282.6116
  21   2.0000     -10.383404      -282.5468
  22   2.0000     -10.382942      -282.5342
  23   2.0000     -10.374652      -282.3086
  24   2.0000     -10.364914      -282.0436
  25   2.0000     -10.345563      -281.5171
  26   2.0000     -10.344577      -281.4903
  27   2.0000     -10.343268      -281.4546
  28   2.0000     -10.342692      -281.4389
  29   2.0000     -10.338164      -281.3157
  30   2.0000     -10.335604      -281.2461
  31   2.0000     -10.327924      -281.0371
  32   2.0000     -10.326506      -280.9985
  33   2.0000     -10.326394      -280.9955
  34   2.0000     -10.322471      -280.8887
  35   2.0000     -10.322457      -280.8883
  36   2.0000     -10.319810      -280.8163
  37   2.0000     -10.319799      -280.8160
  38   2.0000     -10.318732      -280.7870
  39   2.0000     -10.318409      -280.7782
  40   2.0000     -10.317864      -280.7633
  41   2.0000     -10.317482      -280.7529
  42   2.0000     -10.316567      -280.7281
  43   2.0000     -10.316257      -280.7196
  44   2.0000     -10.315209      -280.6911
  45   2.0000     -10.313969      -280.6574
  46   2.0000     -10.313742      -280.6512
  47   2.0000     -10.313177      -280.6358
  48   2.0000     -10.312655      -280.6216
  49   2.0000     -10.312119      -280.6070
  50   2.0000     -10.309617      -280.5389
  51   2.0000     -10.309348      -280.5316
  52   2.0000     -10.308930      -280.5203
  53   2.0000     -10.308798      -280.5167
  54   2.0000     -10.308270      -280.5023
  55   2.0000     -10.307973      -280.4942
  56   2.0000     -10.307711      -280.4871
  57   2.0000     -10.306086      -280.4429
  58   2.0000     -10.305629      -280.4304
  59   2.0000     -10.301809      -280.3265
  60   2.0000     -10.300698      -280.2962
  61   2.0000     -10.299132      -280.2536
  62   2.0000     -10.295923      -280.1663
  63   2.0000     -10.293842      -280.1097
  64   2.0000     -10.292848      -280.0826
  65   2.0000     -10.292696      -280.0785
  66   2.0000     -10.292294      -280.0676
  67   2.0000     -10.291330      -280.0413
  68   2.0000     -10.290865      -280.0287
  69   2.0000     -10.290780      -280.0264
  70   2.0000     -10.290766      -280.0260
  71   2.0000     -10.290009      -280.0054
  72   2.0000     -10.289646      -279.9955
  73   2.0000     -10.288700      -279.9697
  74   2.0000     -10.288675      -279.9691
  75   2.0000     -10.288305      -279.9590
  76   2.0000     -10.288205      -279.9563
  77   2.0000     -10.286194      -279.9016
  78   2.0000     -10.285166      -279.8736
  79   2.0000     -10.284796      -279.8635
  80   2.0000     -10.283523      -279.8289
  81   2.0000     -10.282829      -279.8100
  82   2.0000     -10.278900      -279.7031
  83   2.0000      -8.070200      -219.6013
  84   2.0000      -8.069502      -219.5823
  85   2.0000      -8.067358      -219.5240
  86   2.0000      -8.065399      -219.4707
  87   2.0000      -8.063425      -219.4169
  88   2.0000      -8.061888      -219.3751
  89   2.0000      -8.061861      -219.3744
  90   2.0000      -8.058634      -219.2866
  91   2.0000      -6.039579      -164.3453
  92   2.0000      -6.038707      -164.3216
  93   2.0000      -6.036598      -164.2642
  94   2.0000      -6.035475      -164.2336
  95   2.0000      -6.034675      -164.2119
  96   2.0000      -6.034515      -164.2075
  97   2.0000      -6.032797      -164.1608
  98   2.0000      -6.032596      -164.1553
  99   2.0000      -6.032097      -164.1417
 100   2.0000      -6.031576      -164.1275
 101   2.0000      -6.031160      -164.1162
 102   2.0000      -6.031148      -164.1159
 103   2.0000      -6.030671      -164.1029
 104   2.0000      -6.029424      -164.0690
 105   2.0000      -6.028743      -164.0504
 106   2.0000      -6.027889      -164.0272
 107   2.0000      -6.027610      -164.0196
 108   2.0000      -6.027189      -164.0082
 109   2.0000      -6.027155      -164.0072
 110   2.0000      -6.025296      -163.9566
 111   2.0000      -6.023943      -163.9198
 112   2.0000      -6.023907      -163.9188
 113   2.0000      -6.023864      -163.9177
 114   2.0000      -6.020682      -163.8311
 115   2.0000      -1.324330       -36.0368
 116   2.0000      -1.321539       -35.9609
 117   2.0000      -1.309089       -35.6221
 118   2.0000      -1.306353       -35.5477
 119   2.0000      -1.138295       -30.9746
 120   2.0000      -1.128826       -30.7169
 121   2.0000      -1.069839       -29.1118
 122   2.0000      -1.023105       -27.8401
 123   2.0000      -1.019376       -27.7386
 124   2.0000      -1.015577       -27.6352
 125   2.0000      -1.010459       -27.4960
 126   2.0000      -1.004621       -27.3371
 127   2.0000      -1.001195       -27.2439
 128   2.0000      -1.000784       -27.2327
 129   2.0000      -1.000237       -27.2178
 130   2.0000      -0.996339       -27.1118
 131   2.0000      -0.995768       -27.0962
 132   2.0000      -0.993229       -27.0271
 133   2.0000      -0.983503       -26.7625
 134   2.0000      -0.978622       -26.6296
 135   2.0000      -0.958160       -26.0729
 136   2.0000      -0.955813       -26.0090
 137   2.0000      -0.936245       -25.4765
 138   2.0000      -0.925248       -25.1773
 139   2.0000      -0.914185       -24.8762
 140   2.0000      -0.908006       -24.7081
 141   2.0000      -0.901681       -24.5360
 142   2.0000      -0.899972       -24.4895
 143   2.0000      -0.898611       -24.4525
 144   2.0000      -0.893907       -24.3245
 145   2.0000      -0.880255       -23.9529
 146   2.0000      -0.875171       -23.8146
 147   2.0000      -0.872573       -23.7439
 148   2.0000      -0.871896       -23.7255
 149   2.0000      -0.860883       -23.4258
 150   2.0000      -0.857123       -23.3235
 151   2.0000      -0.850506       -23.1434
 152   2.0000      -0.848994       -23.1023
 153   2.0000      -0.845462       -23.0062
 154   2.0000      -0.841870       -22.9085
 155   2.0000      -0.840127       -22.8610
 156   2.0000      -0.835344       -22.7309
 157   2.0000      -0.830019       -22.5860
 158   2.0000      -0.821819       -22.3628
 159   2.0000      -0.808679       -22.0053
 160   2.0000      -0.801073       -21.7983
 161   2.0000      -0.784583       -21.3496
 162   2.0000      -0.782722       -21.2989
 163   2.0000      -0.775388       -21.0994
 164   2.0000      -0.774212       -21.0674
 165   2.0000      -0.769046       -20.9268
 166   2.0000      -0.762309       -20.7435
 167   2.0000      -0.742366       -20.2008
 168   2.0000      -0.734602       -19.9895
 169   2.0000      -0.733674       -19.9643
 170   2.0000      -0.717427       -19.5222
 171   2.0000      -0.714680       -19.4474
 172   2.0000      -0.708863       -19.2891
 173   2.0000      -0.702390       -19.1130
 174   2.0000      -0.700673       -19.0663
 175   2.0000      -0.692342       -18.8396
 176   2.0000      -0.688835       -18.7442
 177   2.0000      -0.681407       -18.5420
 178   2.0000      -0.674247       -18.3472
 179   2.0000      -0.671366       -18.2688
 180   2.0000      -0.667910       -18.1748
 181   2.0000      -0.665481       -18.1086
 182   2.0000      -0.652786       -17.7632
 183   2.0000      -0.649156       -17.6644
 184   2.0000      -0.646039       -17.5796
 185   2.0000      -0.644092       -17.5266
 186   2.0000      -0.642235       -17.4761
 187   2.0000      -0.639442       -17.4001
 188   2.0000      -0.636954       -17.3324
 189   2.0000      -0.631245       -17.1770
 190   2.0000      -0.627449       -17.0737
 191   2.0000      -0.626365       -17.0443
 192   2.0000      -0.625489       -17.0204
 193   2.0000      -0.624308       -16.9883
 194   2.0000      -0.623258       -16.9597
 195   2.0000      -0.621327       -16.9072
 196   2.0000      -0.618192       -16.8219
 197   2.0000      -0.612904       -16.6780
 198   2.0000      -0.611934       -16.6516
 199   2.0000      -0.601478       -16.3670
 200   2.0000      -0.597710       -16.2645
 201   2.0000      -0.593907       -16.1610
 202   2.0000      -0.593049       -16.1377
 203   2.0000      -0.589448       -16.0397
 204   2.0000      -0.587236       -15.9795
 205   2.0000      -0.586610       -15.9625
 206   2.0000      -0.582046       -15.8383
 207   2.0000      -0.579371       -15.7655
 208   2.0000      -0.570568       -15.5259
 209   2.0000      -0.559269       -15.2185
 210   2.0000      -0.555201       -15.1078
 211   2.0000      -0.554984       -15.1019
 212   2.0000      -0.552820       -15.0430
 213   2.0000      -0.549925       -14.9642
 214   2.0000      -0.549358       -14.9488
 215   2.0000      -0.549262       -14.9462
 216   2.0000      -0.546756       -14.8780
 217   2.0000      -0.545872       -14.8539
 218   2.0000      -0.539715       -14.6864
 219   2.0000      -0.538518       -14.6538
 220   2.0000      -0.536723       -14.6050
 221   2.0000      -0.534610       -14.5475
 222   2.0000      -0.533752       -14.5241
 223   2.0000      -0.527286       -14.3482
 224   2.0000      -0.527086       -14.3427
 225   2.0000      -0.525882       -14.3100
 226   2.0000      -0.521460       -14.1897
 227   2.0000      -0.519210       -14.1284
 228   2.0000      -0.516401       -14.0520
 229   2.0000      -0.514280       -13.9943
 230   2.0000      -0.511753       -13.9255
 231   2.0000      -0.510978       -13.9044
 232   2.0000      -0.502620       -13.6770
 233   2.0000      -0.501137       -13.6366
 234   2.0000      -0.500405       -13.6167
 235   2.0000      -0.498292       -13.5592
 236   2.0000      -0.498092       -13.5538
 237   2.0000      -0.497184       -13.5291
 238   2.0000      -0.496471       -13.5097
 239   2.0000      -0.495188       -13.4748
 240   2.0000      -0.493263       -13.4224
 241   2.0000      -0.492481       -13.4011
 242   2.0000      -0.490881       -13.3576
 243   2.0000      -0.490668       -13.3518
 244   2.0000      -0.489915       -13.3313
 245   2.0000      -0.487538       -13.2666
 246   2.0000      -0.483836       -13.1658
 247   2.0000      -0.481157       -13.0929
 248   2.0000      -0.478719       -13.0266
 249   2.0000      -0.477285       -12.9876
 250   2.0000      -0.475922       -12.9505
 251   2.0000      -0.472546       -12.8586
 252   2.0000      -0.471452       -12.8289
 253   2.0000      -0.471136       -12.8203
 254   2.0000      -0.470915       -12.8142
 255   2.0000      -0.467123       -12.7111
 256   2.0000      -0.460844       -12.5402
 257   2.0000      -0.458590       -12.4789
 258   2.0000      -0.457732       -12.4555
 259   2.0000      -0.456648       -12.4260
 260   2.0000      -0.455604       -12.3976
 261   2.0000      -0.452796       -12.3212
 262   2.0000      -0.452138       -12.3033
 263   2.0000      -0.450730       -12.2650
 264   2.0000      -0.450213       -12.2509
 265   2.0000      -0.448372       -12.2008
 266   2.0000      -0.444821       -12.1042
 267   2.0000      -0.443512       -12.0686
 268   2.0000      -0.441561       -12.0155
 269   2.0000      -0.438668       -11.9368
 270   2.0000      -0.437708       -11.9107
 271   2.0000      -0.435273       -11.8444
 272   2.0000      -0.429336       -11.6828
 273   2.0000      -0.429283       -11.6814
 274   2.0000      -0.428030       -11.6473
 275   2.0000      -0.426335       -11.6012
 276   2.0000      -0.425673       -11.5831
 277   2.0000      -0.425508       -11.5787
 278   2.0000      -0.424779       -11.5588
 279   2.0000      -0.423192       -11.5156
 280   2.0000      -0.422608       -11.4998
 281   2.0000      -0.419278       -11.4091
 282   2.0000      -0.417654       -11.3649
 283   2.0000      -0.416944       -11.3456
 284   2.0000      -0.408827       -11.1247
 285   2.0000      -0.407677       -11.0935
 286   2.0000      -0.406479       -11.0609
 287   2.0000      -0.397457       -10.8154
 288   2.0000      -0.386168       -10.5082
 289   2.0000      -0.375442       -10.2163
 290   2.0000      -0.361890        -9.8475
 291   2.0000      -0.354607        -9.6494
 292   2.0000      -0.354136        -9.6365
 293   2.0000      -0.348900        -9.4941
 294   2.0000      -0.347390        -9.4530
 295   2.0000      -0.346198        -9.4205
 296   2.0000      -0.344900        -9.3852
 297   2.0000      -0.343484        -9.3467
 298   2.0000      -0.341163        -9.2835
 299   2.0000      -0.339241        -9.2312
 300   2.0000      -0.337203        -9.1758
 301   2.0000      -0.335578        -9.1315
 302   2.0000      -0.333703        -9.0805
 303   2.0000      -0.329930        -8.9779
 304   2.0000      -0.327971        -8.9245
 305   2.0000      -0.322793        -8.7837
 306   2.0000      -0.315856        -8.5949
 307   2.0000      -0.311388        -8.4733
 308   2.0000      -0.299101        -8.1389
 309   2.0000      -0.281372        -7.6565
 310   2.0000      -0.261403        -7.1131
 311   2.0000      -0.245145        -6.6707
 312   2.0000      -0.222522        -6.0551
 313   0.0000      -0.099670        -2.7122
 314   0.0000      -0.097741        -2.6597
 315   0.0000      -0.074123        -2.0170
 316   0.0000      -0.066274        -1.8034
 317   0.0000      -0.061765        -1.6807

MULLIKEN ATOMIC CHARGES
-----------------------
   0 C :   -0.085561
   1 C :    0.232663
   2 F :   -0.165326
   3 C :    0.235328
   4 F :   -0.169562
   5 C :   -0.102731
   6 C :   -0.009969
   7 C :    0.041430
   8 C :    0.316437
   9 C :   -0.361234
  10 C :   -0.193815
  11 N :    0.155179
  12 C :   -0.181215
  13 N :    0.149797
  14 C :   -0.097636
  15 C :    0.153158
  16 O :   -0.154064
  17 C :    0.064213
  18 C :   -0.113530
  19 S :    0.145237
  20 C :   -0.018240
  21 C :   -0.017838
  22 C :    0.045255
  23 C :   -0.046385
  24 C :    0.008888
  25 C :   -0.009030
  26 C :   -0.026012
  27 S :    0.135232
  28 C :   -0.041297
  29 S :    0.108690
  30 C :   -0.039206
  31 C :    0.021855
  32 C :   -0.003907
  33 C :    0.030673
  34 C :    0.043816
  35 C :   -0.110857
  36 S :    0.125172
  37 C :   -0.063153
  38 C :   -0.225551
  39 N :   -0.013558
  40 C :    0.385947
  41 C :   -0.163635
  42 C :   -0.097322
  43 S :    0.146392
  44 C :   -0.081626
  45 C :   -0.016175
  46 C :    0.048072
  47 C :    0.052470
  48 C :   -0.068780
  49 S :    0.123743
  50 C :   -0.053586
  51 C :   -0.006271
  52 C :    0.009038
  53 C :   -0.020365
  54 C :   -0.014107
  55 C :   -0.000160
  56 C :   -0.038855
  57 S :    0.122802
  58 C :   -0.033224
  59 S :    0.140308
  60 C :   -0.094324
  61 C :    0.057817
  62 C :   -0.015689
  63 C :    0.082209
  64 C :    0.004197
  65 C :    0.023396
  66 C :   -0.118170
  67 C :    0.136833
  68 O :   -0.144135
  69 C :    0.002535
  70 C :    0.030917
  71 C :   -0.093642
  72 C :    0.235761
  73 C :    0.233820
  74 C :   -0.105007
  75 F :   -0.170417
  76 F :   -0.166849
  77 C :    0.286770
  78 C :   -0.339335
  79 C :   -0.217466
  80 N :    0.168402
  81 C :   -0.189903
  82 N :    0.152863
  83 H :    0.016058
  84 H :    0.008752
  85 H :   -0.000503
  86 H :   -0.004241
  87 H :    0.018918
  88 H :    0.000976
  89 H :   -0.003326
  90 H :   -0.012163
  91 H :   -0.007856
  92 H :    0.007898
  93 H :   -0.007046
  94 H :    0.036147
  95 H :    0.035710
  96 H :   -0.024051
  97 H :   -0.020630
  98 H :   -0.021946
  99 H :   -0.008562
 100 H :   -0.016370
 101 H :   -0.008087
 102 H :   -0.006811
 103 H :    0.002614
 104 H :   -0.002066
 105 H :    0.001210
 106 H :    0.014236
 107 H :    0.014047
 108 H :    0.017273
 109 H :    0.011224
Sum of atomic charges:   -0.0000000

LOEWDIN ATOMIC CHARGES
----------------------
   0 C :   -0.018058
   1 C :    0.072906
   2 F :   -0.044231
   3 C :    0.070528
   4 F :   -0.046332
   5 C :   -0.006673
   6 C :   -0.044136
   7 C :   -0.015637
   8 C :    0.077356
   9 C :   -0.142027
  10 C :   -0.019504
  11 N :   -0.051085
  12 C :   -0.023746
  13 N :   -0.050245
  14 C :   -0.109055
  15 C :    0.087303
  16 O :   -0.142697
  17 C :    0.050411
  18 C :   -0.184821
  19 S :    0.458427
  20 C :   -0.149515
  21 C :   -0.068171
  22 C :    0.004281
  23 C :   -0.194522
  24 C :   -0.037200
  25 C :   -0.060016
  26 C :   -0.167614
  27 S :    0.446268
  28 C :   -0.182425
  29 S :    0.434059
  30 C :   -0.161784
  31 C :   -0.046791
  32 C :   -0.055341
  33 C :   -0.011174
  34 C :   -0.067272
  35 C :   -0.123730
  36 S :    0.408433
  37 C :   -0.217967
  38 C :   -0.036114
  39 N :   -0.089732
  40 C :   -0.012277
  41 C :   -0.047628
  42 C :   -0.201204
  43 S :    0.437464
  44 C :   -0.167712
  45 C :   -0.051433
  46 C :   -0.034397
  47 C :   -0.047446
  48 C :   -0.160865
  49 S :    0.433820
  50 C :   -0.193592
  51 C :   -0.052812
  52 C :   -0.057504
  53 C :   -0.167711
  54 C :   -0.064376
  55 C :   -0.045041
  56 C :   -0.192383
  57 S :    0.441500
  58 C :   -0.159668
  59 S :    0.445988
  60 C :   -0.186933
  61 C :   -0.008554
  62 C :   -0.062509
  63 C :    0.026039
  64 C :   -0.041584
  65 C :    0.070687
  66 C :   -0.110765
  67 C :    0.080978
  68 O :   -0.145559
  69 C :   -0.045688
  70 C :   -0.012534
  71 C :   -0.021488
  72 C :    0.072960
  73 C :    0.068840
  74 C :   -0.006447
  75 F :   -0.047396
  76 F :   -0.045309
  77 C :    0.072060
  78 C :   -0.143853
  79 C :   -0.023366
  80 N :   -0.052911
  81 C :   -0.021607
  82 N :   -0.051921
  83 H :    0.051445
  84 H :    0.050982
  85 H :    0.042478
  86 H :    0.029812
  87 H :    0.036793
  88 H :    0.032387
  89 H :    0.030014
  90 H :    0.033417
  91 H :    0.028318
  92 H :    0.042237
  93 H :    0.022459
  94 H :    0.055703
  95 H :    0.055855
  96 H :    0.029838
  97 H :    0.026736
  98 H :    0.025930
  99 H :    0.027362
 100 H :    0.029163
 101 H :    0.028811
 102 H :    0.029576
 103 H :    0.038381
 104 H :    0.030211
 105 H :    0.036125
 106 H :    0.031079
 107 H :    0.044070
 108 H :    0.050882
 109 H :    0.051715

  Mayer bond orders larger than 0.100000
B(  0-C ,  1-C ) :   1.3376 B(  0-C ,  5-C ) :   0.1054 B(  0-C ,  7-C ) :   1.3120
B(  0-C , 83-H ) :   0.9902 B(  1-C ,  2-F ) :   1.1465 B(  1-C ,  3-C ) :   1.2920
B(  3-C ,  4-F ) :   1.1300 B(  3-C ,  5-C ) :   1.3140 B(  5-C ,  6-C ) :   1.3216
B(  5-C , 84-H ) :   1.0200 B(  6-C ,  7-C ) :   1.3423 B(  6-C , 15-C ) :   0.9607
B(  7-C ,  8-C ) :   0.9976 B(  8-C ,  9-C ) :   1.6145 B(  8-C , 14-C ) :   1.0994
B(  9-C , 10-C ) :   1.1474 B(  9-C , 12-C ) :   1.1399 B( 10-C , 11-N ) :   2.9742
B( 12-C , 13-N ) :   2.9584 B( 14-C , 15-C ) :   0.9493 B( 14-C , 17-C ) :   1.5564
B( 15-C , 16-O ) :   2.1745 B( 17-C , 18-C ) :   1.2550 B( 17-C , 85-H ) :   0.9041
B( 18-C , 19-S ) :   1.0835 B( 18-C , 22-C ) :   1.4082 B( 19-S , 20-C ) :   1.1743
B( 20-C , 21-C ) :   1.4105 B( 20-C , 23-C ) :   1.1723 B( 21-C , 22-C ) :   1.3213
B( 21-C , 86-H ) :   0.9949 B( 22-C , 87-H ) :   0.9771 B( 23-C , 24-C ) :   1.4771
B( 23-C , 27-S ) :   1.1107 B( 24-C , 25-C ) :   1.2929 B( 24-C , 88-H ) :   0.9927
B( 25-C , 26-C ) :   1.4749 B( 25-C , 89-H ) :   0.9931 B( 26-C , 27-S ) :   1.1341
B( 26-C , 28-C ) :   1.1673 B( 28-C , 29-S ) :   1.1227 B( 28-C , 32-C ) :   1.4852
B( 29-S , 30-C ) :   1.1060 B( 30-C , 31-C ) :   1.4665 B( 30-C , 33-C ) :   1.1531
B( 31-C , 32-C ) :   1.2723 B( 31-C , 90-H ) :   1.0014 B( 32-C , 91-H ) :   0.9935
B( 33-C , 34-C ) :   1.6656 B( 33-C , 92-H ) :   0.9823 B( 34-C , 35-C ) :   1.1354
B( 34-C , 93-H ) :   0.9404 B( 35-C , 36-S ) :   1.0675 B( 35-C , 39-N ) :   1.6503
B( 36-S , 37-C ) :   1.0896 B( 37-C , 38-C ) :   1.4747 B( 37-C , 42-C ) :   1.1956
B( 38-C , 39-N ) :   1.4487 B( 38-C , 40-C ) :   1.0440 B( 40-C , 41-C ) :   0.9831
B( 40-C , 94-H ) :   0.8626 B( 40-C , 95-H ) :   0.8609 B( 41-C , 42-C ) :   1.5124
B( 41-C , 45-C ) :   1.3232 B( 42-C , 43-S ) :   1.0884 B( 43-S , 44-C ) :   1.1025
B( 44-C , 45-C ) :   1.4561 B( 44-C , 46-C ) :   1.1359 B( 45-C , 96-H ) :   0.9968
B( 46-C , 47-C ) :   1.7046 B( 46-C , 97-H ) :   0.9557 B( 47-C , 48-C ) :   1.1259
B( 47-C , 98-H ) :   0.9608 B( 48-C , 49-S ) :   1.1179 B( 48-C , 52-C ) :   1.4852
B( 49-S , 50-C ) :   1.1206 B( 50-C , 51-C ) :   1.4789 B( 50-C , 53-C ) :   1.1630
B( 51-C , 52-C ) :   1.2932 B( 51-C , 99-H ) :   0.9908 B( 52-C ,100-H ) :   0.9924
B( 53-C , 54-C ) :   1.4865 B( 53-C , 57-S ) :   1.1317 B( 54-C , 55-C ) :   1.2824
B( 54-C ,101-H ) :   0.9939 B( 55-C , 56-C ) :   1.4840 B( 55-C ,102-H ) :   0.9935
B( 56-C , 57-S ) :   1.1099 B( 56-C , 58-C ) :   1.1737 B( 58-C , 59-S ) :   1.1575
B( 58-C , 62-C ) :   1.4338 B( 59-S , 60-C ) :   1.0863 B( 60-C , 61-C ) :   1.4421
B( 60-C , 63-C ) :   1.1596 B( 61-C , 62-C ) :   1.3315 B( 61-C ,103-H ) :   0.9875
B( 62-C ,104-H ) :   0.9921 B( 63-C , 64-C ) :   1.6035 B( 63-C ,105-H ) :   0.9710
B( 64-C , 65-C ) :   1.1925 B( 64-C ,106-H ) :   0.9593 B( 65-C , 66-C ) :   1.5449
B( 65-C ,107-H ) :   0.9556 B( 66-C , 67-C ) :   0.9587 B( 66-C , 77-C ) :   1.0626
B( 67-C , 68-O ) :   2.2606 B( 67-C , 69-C ) :   0.9302 B( 69-C , 70-C ) :   1.3436
B( 69-C , 74-C ) :   1.3286 B( 70-C , 71-C ) :   1.3180 B( 70-C , 77-C ) :   1.0124
B( 71-C , 72-C ) :   1.3353 B( 71-C , 74-C ) :   0.1052 B( 71-C ,108-H ) :   0.9917
B( 72-C , 73-C ) :   1.2943 B( 72-C , 76-F ) :   1.1420 B( 73-C , 74-C ) :   1.3167
B( 73-C , 75-F ) :   1.1298 B( 74-C ,109-H ) :   1.0193 B( 77-C , 78-C ) :   1.6269
B( 78-C , 79-C ) :   1.1644 B( 78-C , 81-C ) :   1.1283 B( 79-C , 80-N ) :   3.0037
B( 81-C , 82-N ) :   2.9884

-----------------------------------------------------------------------------
         ABSORPTION SPECTRUM VIA TRANSITION ELECTRIC DIPOLE MOMENTS
-----------------------------------------------------------------------------
State   Energy  Wavelength   fosc         T2         TX        TY        TZ
        (cm-1)    (nm)                  (au**2)     (au)      (au)      (au)
-----------------------------------------------------------------------------
   0   15222.3    656.9   4.261952779  92.17332   6.00658   7.46935   0.55066
   1   16770.5    596.3   0.438198380   8.60202   2.20571   1.05274  -1.62130
   2   20451.3    489.0   0.096718203   1.55691  -0.73619  -0.81479  -0.59249
   3   21845.3    457.8   0.123904502   1.86726   0.87676  -0.10536  -1.04281
   4   22584.3    442.8   0.715201782  10.42552  -1.96010  -2.56222  -0.13621
   5   23993.0    416.8   0.096159915   1.31943   0.96202   0.50281  -0.37566
   6   25000.4    400.0   0.063098021   0.83089   0.67738   0.60078   0.10539
   7   26229.8    381.2   0.019560185   0.24550   0.06365  -0.28126  -0.40292
   8   26436.7    378.3   0.056264087   0.70065   0.44168  -0.22227  -0.67540
   9   27189.6    367.8   0.029089334   0.35221  -0.17843  -0.56299  -0.05847
  10   27929.7    358.0   0.033399516   0.39369  -0.54161  -0.01196   0.31655
  11   28927.5    345.7   0.025983509   0.29571   0.40428   0.31487   0.18199
  12   29625.1    337.6   0.040747914   0.45282  -0.65104  -0.16873   0.02212
  13   29848.7    335.0   0.021596811   0.23820  -0.44670  -0.18810  -0.05724
  14   30210.3    331.0   0.050792293   0.55350   0.30470   0.35330   0.57952
  15   30474.4    328.1   0.048951648   0.52882   0.55353  -0.03152  -0.47056
  16   30822.6    324.4   0.008268129   0.08831  -0.14151   0.05907   0.25455
  17   31527.1    317.2   0.312363793   3.26176  -1.23281  -1.24533  -0.43715
  18   31728.3    315.2   0.089953853   0.93336   0.55438   0.75726   0.22931
  19   32158.0    311.0   0.158998654   1.62772   0.67679   0.92846   0.55466
  20   32290.0    309.7   0.032287598   0.32919   0.50280   0.23128   0.15129
  21   32947.7    303.5   0.016260109   0.16247  -0.06373   0.13821   0.37324
  22   33332.6    300.0   0.003529801   0.03486  -0.12697  -0.04489  -0.12933
  23   33438.2    299.1   0.008067682   0.07943  -0.15897  -0.22386  -0.06359
  24   33863.7    295.3   0.003279947   0.03189   0.00667  -0.11742   0.13437
  25   35182.7    284.2   0.061310890   0.57370  -0.23433  -0.58846  -0.41534
  26   35472.8    281.9   0.006779131   0.06291   0.18123  -0.11307  -0.13147
  27   35589.1    281.0   0.043749259   0.40470  -0.58612   0.04111   0.24385
  28   35973.3    278.0   0.005336606   0.04884  -0.14830  -0.03992   0.15891
  29   36399.9    274.7   0.155775685   1.40888  -0.76742  -0.85147  -0.30813
  30   36507.8    273.9   0.092868138   0.83745   0.54521   0.53351   0.50553
  31   36843.0    271.4   0.024856840   0.22211  -0.33822   0.12248   0.30449
  32   37073.7    269.7   0.161897774   1.43764   1.00135  -0.04743  -0.65779
  33   37305.2    268.1   0.249661289   2.20322  -0.83736  -0.81283  -0.91725
  34   37379.6    267.5   0.153877285   1.35524   0.71387  -0.31725  -0.86312
  35   37687.7    265.3   0.324752499   2.83679  -0.17968  -0.91217  -1.40444
  36   38033.8    262.9   0.028154477   0.24370  -0.06973  -0.39221  -0.29157
  37   38261.2    261.4   0.046973797   0.40418   0.41463  -0.04876  -0.47946
  38   38576.7    259.2   0.025270076   0.21565   0.22052   0.22414   0.34174
  39   38763.1    258.0   0.092067797   0.78192  -0.70805  -0.15063   0.50783
  40   38855.9    257.4   0.027730493   0.23495   0.32012  -0.02244  -0.36327
  41   38996.4    256.4   0.168766002   1.42474  -0.50158   0.40100   1.00616
  42   39211.6    255.0   0.215042764   1.80545   1.32087   0.19340  -0.15283
  43   39363.5    254.0   0.087620746   0.73281   0.56864  -0.09752  -0.63241
  44   39685.2    252.0   0.055542299   0.46076   0.10963   0.51613   0.42702
  45   39935.8    250.4   0.236519926   1.94976   0.17636  -0.68716  -1.20269
  46   40009.4    249.9   0.018280932   0.15042   0.28132   0.24831   0.09809

FINAL SINGLE POINT ENERGY     -6458.984935224024

DIPOLE MOMENT
-------------
                                X             Y             Z
Electronic contribution:     25.84859      11.41343     -24.89633
Nuclear contribution   :    -27.66955      -9.63999      27.90339
                        -----------------------------------------
Total Dipole Moment    :     -1.82096       1.77344       3.00706
                        -----------------------------------------
Magnitude (a.u.)       :      3.93743
Magnitude (Debye)      :     10.00815

Rotational constants in cm-1:     0.002705     0.000052     0.000051
Rotational constants in MHz :    81.096232     1.556156     1.529566

                             ****ORCA TERMINATED NORMALLY****
TOTAL RUN TIME: 0 days 0 hours 11 minutes 1 seconds 285 msec
