                         Program Version 4.2.0 -  RELEASE  -
|  1> # ORCA input file
|  2> # SCF done       -209.114346295177          0.000796643568
|  3> ! CAM-B3LYP def2-SVP def2/J RIJCOSX Grid4 TightSCF
|  4> %maxcore 5000
|  5> %tddft
|  6>     Mode sTDDFT
|  7>     Ethresh 5.0
|  8>     maxcore 5000
|  9> end
| 10>
| 11> %pal
| 12>   nprocs 6
| 13>   end
| 14> * xyz 0 1
| 15>    C       -3.53785        -4.22596        -3.88567
| 16>    C       -4.27672        -3.38400        -4.70255
| 17>    F       -4.64566        -2.18721        -4.23554
| 18>    C       -4.63990        -3.75435        -5.99901
| 19>    F       -5.35998        -2.91248        -6.74833
| 20>    C       -4.25954        -4.98129        -6.51798
| 21>    C       -3.51447        -5.81734        -5.70913
| 22>    C       -3.15593        -5.45603        -4.39781
| 23>    C       -2.41642        -6.56047        -3.78933
| 24>    C       -2.26799        -6.76823        -2.44569
| 25>    C       -2.65015        -5.83437        -1.45953
| 26>    N       -2.92430        -5.09759        -0.62417
| 27>    C       -1.79971        -7.97505        -1.88352
| 28>    N       -1.50017        -8.95287        -1.36342
| 29>    C       -2.12177        -7.51014        -4.84739
| 30>    C       -2.95985        -7.15416        -6.02450
| 31>    O       -3.11137        -7.80019        -7.03312
| 32>    C       -1.21742        -8.51591        -4.93718
| 33>    C       -0.09842        -8.78733        -4.07568
| 34>    C        0.31905       -10.11459        -3.89061
| 35>    C        1.36146       -10.37750        -3.03827
| 36>    C        2.04692        -9.32661        -2.40178
| 37>    C        1.68249        -8.00612        -2.62954
| 38>    C        0.60615        -7.74775        -3.45041
| 39>    C        3.07985        -9.89240        -1.56381
| 40>    C        3.02883       -11.29245        -1.67758
| 41>    C        1.93917       -11.71243        -2.63369
| 42>    C        0.88355       -12.58730        -1.93056
| 43>    C        0.27843       -11.91863        -0.70229
| 44>    C        2.51564       -12.46974        -3.84504
| 45>    C        3.56988       -11.66818        -4.59916
| 46>    C        3.88631       -12.08216        -0.95305
| 47>    C        4.81392       -11.48594        -0.08766
| 48>    C        4.86928       -10.08836        -0.00022
| 49>    C        4.01196        -9.29094        -0.73009
| 50>    C        5.67465       -12.31270         0.72589
| 51>    S        5.69532       -14.04547         0.53014
| 52>    C        6.82376       -14.25887         1.83012
| 53>    C        7.16806       -13.02386         2.36912
| 54>    C        6.51837       -11.94021         1.73892
| 55>    C        8.06446       -12.80958         3.42802
| 56>    N        8.78600       -12.57024         4.28885
| 57>    C        7.20987       -15.58086         2.19611
| 58>    C        7.93545       -15.89616         3.28785
| 59>    C        8.28704       -17.22545         3.72456
| 60>    C        8.75258       -17.38050         5.03999
| 61>    C        9.05513       -18.63297         5.51310
| 62>    C        8.92554       -19.75874         4.68191
| 63>    C        8.48803       -19.61653         3.37099
| 64>    C        8.16794       -18.35813         2.90648
| 65>    C        9.32201       -20.92882         5.43047
| 66>    C        9.68641       -20.52725         6.73139
| 67>    C        9.50029       -19.03728         6.90173
| 68>    C       10.80505       -18.33873         7.31770
| 69>    C       11.89682       -18.46316         6.26090
| 70>    C        8.33735       -18.70104         7.86541
| 71>    C        8.50913       -19.16005         9.30745
| 72>    C       10.15981       -21.44851         7.62955
| 73>    C       10.23625       -22.80398         7.26257
| 74>    C        9.81460       -23.19373         5.98259
| 75>    C        9.38468       -22.26570         5.05889
| 76>    C       10.66599       -23.80899         8.19264
| 77>    C       11.46326       -23.68931         9.28548
| 78>    C       11.41922       -24.73431        10.34377
| 79>    O       10.92803       -25.83448        10.26346
| 80>    C       12.05072       -24.10649        11.52829
| 81>    C       12.56316       -22.84533        11.17484
| 82>    C       13.17625       -22.04972        12.12964
| 83>    C       13.26242       -22.53993        13.42381
| 84>    C       12.76157       -23.79750        13.76546
| 85>    C       12.14758       -24.59784        12.81552
| 86>    F       12.87272       -24.23192        15.02589
| 87>    F       13.83610       -21.78481        14.36625
| 88>    C       12.34474       -22.63337         9.74505
| 89>    C       13.04348       -21.76140         8.95531
| 90>    C       12.99793       -21.78783         7.54537
| 91>    N       13.03946       -21.80061         6.39894
| 92>    C       13.93008       -20.78420         9.45223
| 93>    N       14.63439       -19.95365         9.81384
| 94>    H       -3.27790        -3.89718        -2.89253
| 95>    H       -4.53876        -5.26787        -7.51935
| 96>    H       -1.32979        -9.16163        -5.80289
| 97>    H       -0.21805       -10.91163        -4.38292
| 98>    H        2.22411        -7.19547        -2.16638
| 99>    H        0.31873        -6.72522        -3.65041
|100>    H        1.35406       -13.52922        -1.63945
|101>    H        0.09104       -12.81762        -2.64527
|102>    H        1.04770       -11.69883         0.03493
|103>    H       -0.45413       -12.57957        -0.24525
|104>    H       -0.21815       -10.98978        -0.96929
|105>    H        1.69668       -12.72018        -4.52223
|106>    H        2.95576       -13.40495        -3.49316
|107>    H        3.15068       -10.73805        -4.97672
|108>    H        3.94379       -12.24376        -5.44260
|109>    H        4.40817       -11.42706        -3.94920
|110>    H        3.84472       -13.15956        -1.02757
|111>    H        5.59332        -9.62447         0.65058
|112>    H        4.06418        -8.21623        -0.64438
|113>    H        6.67480       -10.92411         2.05346
|114>    H        6.83179       -16.35829         1.54602
|115>    H        8.25714       -15.09860         3.94336
|116>    H        8.85644       -16.50785         5.66833
|117>    H        8.39821       -20.47682         2.72495
|118>    H        7.83497       -18.24332         1.88657
|119>    H       11.16264       -18.77525         8.25192
|120>    H       10.59650       -17.28267         7.50060
|121>    H       12.09939       -19.50705         6.03101
|122>    H       12.81623       -18.00851         6.62221
|123>    H       11.60325       -17.96129         5.34194
|124>    H        7.42499       -19.14790         7.46092
|125>    H        8.20557       -17.61705         7.85308
|126>    H        8.51187       -20.24469         9.37556
|127>    H        7.67627       -18.79043         9.90186
|128>    H        9.42776       -18.77255         9.73994
|129>    H       10.44321       -21.15334         8.62793
|130>    H        9.86916       -24.23815         5.71336
|131>    H        9.09829       -22.57402         4.06505
|132>    H       10.23399       -24.79618         8.05614
|133>    H       13.57502       -21.07222        11.91141
|134>    H       11.76026       -25.56916        13.07873
|135> *
|136>
|137>                          ****END OF INPUT****

CARTESIAN COORDINATES (ANGSTROEM)
---------------------------------
  C     -3.537850   -4.225960   -3.885670
  C     -4.276720   -3.384000   -4.702550
  F     -4.645660   -2.187210   -4.235540
  C     -4.639900   -3.754350   -5.999010
  F     -5.359980   -2.912480   -6.748330
  C     -4.259540   -4.981290   -6.517980
  C     -3.514470   -5.817340   -5.709130
  C     -3.155930   -5.456030   -4.397810
  C     -2.416420   -6.560470   -3.789330
  C     -2.267990   -6.768230   -2.445690
  C     -2.650150   -5.834370   -1.459530
  N     -2.924300   -5.097590   -0.624170
  C     -1.799710   -7.975050   -1.883520
  N     -1.500170   -8.952870   -1.363420
  C     -2.121770   -7.510140   -4.847390
  C     -2.959850   -7.154160   -6.024500
  O     -3.111370   -7.800190   -7.033120
  C     -1.217420   -8.515910   -4.937180
  C     -0.098420   -8.787330   -4.075680
  C      0.319050  -10.114590   -3.890610
  C      1.361460  -10.377500   -3.038270
  C      2.046920   -9.326610   -2.401780
  C      1.682490   -8.006120   -2.629540
  C      0.606150   -7.747750   -3.450410
  C      3.079850   -9.892400   -1.563810
  C      3.028830  -11.292450   -1.677580
  C      1.939170  -11.712430   -2.633690
  C      0.883550  -12.587300   -1.930560
  C      0.278430  -11.918630   -0.702290
  C      2.515640  -12.469740   -3.845040
  C      3.569880  -11.668180   -4.599160
  C      3.886310  -12.082160   -0.953050
  C      4.813920  -11.485940   -0.087660
  C      4.869280  -10.088360   -0.000220
  C      4.011960   -9.290940   -0.730090
  C      5.674650  -12.312700    0.725890
  S      5.695320  -14.045470    0.530140
  C      6.823760  -14.258870    1.830120
  C      7.168060  -13.023860    2.369120
  C      6.518370  -11.940210    1.738920
  C      8.064460  -12.809580    3.428020
  N      8.786000  -12.570240    4.288850
  C      7.209870  -15.580860    2.196110
  C      7.935450  -15.896160    3.287850
  C      8.287040  -17.225450    3.724560
  C      8.752580  -17.380500    5.039990
  C      9.055130  -18.632970    5.513100
  C      8.925540  -19.758740    4.681910
  C      8.488030  -19.616530    3.370990
  C      8.167940  -18.358130    2.906480
  C      9.322010  -20.928820    5.430470
  C      9.686410  -20.527250    6.731390
  C      9.500290  -19.037280    6.901730
  C     10.805050  -18.338730    7.317700
  C     11.896820  -18.463160    6.260900
  C      8.337350  -18.701040    7.865410
  C      8.509130  -19.160050    9.307450
  C     10.159810  -21.448510    7.629550
  C     10.236250  -22.803980    7.262570
  C      9.814600  -23.193730    5.982590
  C      9.384680  -22.265700    5.058890
  C     10.665990  -23.808990    8.192640
  C     11.463260  -23.689310    9.285480
  C     11.419220  -24.734310   10.343770
  O     10.928030  -25.834480   10.263460
  C     12.050720  -24.106490   11.528290
  C     12.563160  -22.845330   11.174840
  C     13.176250  -22.049720   12.129640
  C     13.262420  -22.539930   13.423810
  C     12.761570  -23.797500   13.765460
  C     12.147580  -24.597840   12.815520
  F     12.872720  -24.231920   15.025890
  F     13.836100  -21.784810   14.366250
  C     12.344740  -22.633370    9.745050
  C     13.043480  -21.761400    8.955310
  C     12.997930  -21.787830    7.545370
  N     13.039460  -21.800610    6.398940
  C     13.930080  -20.784200    9.452230
  N     14.634390  -19.953650    9.813840
  H     -3.277900   -3.897180   -2.892530
  H     -4.538760   -5.267870   -7.519350
  H     -1.329790   -9.161630   -5.802890
  H     -0.218050  -10.911630   -4.382920
  H      2.224110   -7.195470   -2.166380
  H      0.318730   -6.725220   -3.650410
  H      1.354060  -13.529220   -1.639450
  H      0.091040  -12.817620   -2.645270
  H      1.047700  -11.698830    0.034930
  H     -0.454130  -12.579570   -0.245250
  H     -0.218150  -10.989780   -0.969290
  H      1.696680  -12.720180   -4.522230
  H      2.955760  -13.404950   -3.493160
  H      3.150680  -10.738050   -4.976720
  H      3.943790  -12.243760   -5.442600
  H      4.408170  -11.427060   -3.949200
  H      3.844720  -13.159560   -1.027570
  H      5.593320   -9.624470    0.650580
  H      4.064180   -8.216230   -0.644380
  H      6.674800  -10.924110    2.053460
  H      6.831790  -16.358290    1.546020
  H      8.257140  -15.098600    3.943360
  H      8.856440  -16.507850    5.668330
  H      8.398210  -20.476820    2.724950
  H      7.834970  -18.243320    1.886570
  H     11.162640  -18.775250    8.251920
  H     10.596500  -17.282670    7.500600
  H     12.099390  -19.507050    6.031010
  H     12.816230  -18.008510    6.622210
  H     11.603250  -17.961290    5.341940
  H      7.424990  -19.147900    7.460920
  H      8.205570  -17.617050    7.853080
  H      8.511870  -20.244690    9.375560
  H      7.676270  -18.790430    9.901860
  H      9.427760  -18.772550    9.739940
  H     10.443210  -21.153340    8.627930
  H      9.869160  -24.238150    5.713360
  H      9.098290  -22.574020    4.065050
  H     10.233990  -24.796180    8.056140
  H     13.575020  -21.072220   11.911410
  H     11.760260  -25.569160   13.078730

 Total Charge           Charge          ....    0
 Multiplicity           Mult            ....    1
 Number of Electrons    NEL             ....  546
 Basis Dimension        Dim             .... 1315

ORBITAL ENERGIES
----------------

  NO   OCC          E(Eh)            E(eV)
   0   2.0000     -88.971994     -2421.0511
   1   2.0000     -24.807769      -675.0537
   2   2.0000     -24.807329      -675.0417
   3   2.0000     -24.805189      -674.9835
   4   2.0000     -24.804799      -674.9729
   5   2.0000     -19.226339      -523.1753
   6   2.0000     -19.222895      -523.0816
   7   2.0000     -14.425152      -392.5283
   8   2.0000     -14.423266      -392.4770
   9   2.0000     -14.423188      -392.4749
  10   2.0000     -14.419776      -392.3821
  11   2.0000     -14.405813      -392.0021
  12   2.0000     -10.394077      -282.8372
  13   2.0000     -10.393460      -282.8204
  14   2.0000     -10.391438      -282.7654
  15   2.0000     -10.390618      -282.7431
  16   2.0000     -10.378039      -282.4008
  17   2.0000     -10.374748      -282.3112
  18   2.0000     -10.354585      -281.7626
  19   2.0000     -10.353319      -281.7281
  20   2.0000     -10.351219      -281.6710
  21   2.0000     -10.350021      -281.6384
  22   2.0000     -10.327160      -281.0163
  23   2.0000     -10.326833      -281.0074
  24   2.0000     -10.325392      -280.9682
  25   2.0000     -10.325382      -280.9679
  26   2.0000     -10.325110      -280.9605
  27   2.0000     -10.322924      -280.9010
  28   2.0000     -10.322357      -280.8856
  29   2.0000     -10.321015      -280.8491
  30   2.0000     -10.319805      -280.8162
  31   2.0000     -10.316318      -280.7213
  32   2.0000     -10.316199      -280.7180
  33   2.0000     -10.314870      -280.6819
  34   2.0000     -10.313756      -280.6516
  35   2.0000     -10.313570      -280.6465
  36   2.0000     -10.311028      -280.5773
  37   2.0000     -10.310725      -280.5691
  38   2.0000     -10.307755      -280.4883
  39   2.0000     -10.307414      -280.4790
  40   2.0000     -10.305091      -280.4158
  41   2.0000     -10.301005      -280.3046
  42   2.0000     -10.298448      -280.2350
  43   2.0000     -10.296701      -280.1875
  44   2.0000     -10.293497      -280.1003
  45   2.0000     -10.292659      -280.0775
  46   2.0000     -10.291318      -280.0410
  47   2.0000     -10.289719      -279.9975
  48   2.0000     -10.288192      -279.9559
  49   2.0000     -10.288157      -279.9550
  50   2.0000     -10.287384      -279.9340
  51   2.0000     -10.287225      -279.9296
  52   2.0000     -10.286774      -279.9174
  53   2.0000     -10.286556      -279.9114
  54   2.0000     -10.285844      -279.8920
  55   2.0000     -10.285655      -279.8869
  56   2.0000     -10.285389      -279.8797
  57   2.0000     -10.284636      -279.8592
  58   2.0000     -10.283854      -279.8379
  59   2.0000     -10.282430      -279.7992
  60   2.0000     -10.282169      -279.7920
  61   2.0000     -10.281913      -279.7851
  62   2.0000     -10.281274      -279.7677
  63   2.0000     -10.280872      -279.7568
  64   2.0000     -10.280593      -279.7492
  65   2.0000     -10.279902      -279.7304
  66   2.0000     -10.279550      -279.7208
  67   2.0000     -10.278913      -279.7034
  68   2.0000     -10.277943      -279.6771
  69   2.0000     -10.276088      -279.6266
  70   2.0000     -10.275542      -279.6117
  71   2.0000     -10.270746      -279.4812
  72   2.0000     -10.268933      -279.4319
  73   2.0000     -10.264944      -279.3233
  74   2.0000     -10.264018      -279.2981
  75   2.0000     -10.257424      -279.1187
  76   2.0000     -10.253667      -279.0165
  77   2.0000     -10.240088      -278.6470
  78   2.0000     -10.237862      -278.5864
  79   2.0000      -8.067473      -219.5271
  80   2.0000      -6.036593      -164.2640
  81   2.0000      -6.032600      -164.1554
  82   2.0000      -6.029797      -164.0791
  83   2.0000      -1.331644       -36.2359
  84   2.0000      -1.328982       -36.1634
  85   2.0000      -1.316353       -35.8198
  86   2.0000      -1.313696       -35.7475
  87   2.0000      -1.142229       -31.0816
  88   2.0000      -1.138789       -30.9880
  89   2.0000      -1.030260       -28.0348
  90   2.0000      -1.027267       -27.9534
  91   2.0000      -1.010713       -27.5029
  92   2.0000      -1.010583       -27.4994
  93   2.0000      -1.007785       -27.4232
  94   2.0000      -1.003513       -27.3070
  95   2.0000      -1.000741       -27.2315
  96   2.0000      -0.998904       -27.1816
  97   2.0000      -0.996137       -27.1063
  98   2.0000      -0.985100       -26.8059
  99   2.0000      -0.968952       -26.3665
 100   2.0000      -0.966045       -26.2874
 101   2.0000      -0.956905       -26.0387
 102   2.0000      -0.954439       -25.9716
 103   2.0000      -0.933399       -25.3991
 104   2.0000      -0.928788       -25.2736
 105   2.0000      -0.912442       -24.8288
 106   2.0000      -0.909350       -24.7447
 107   2.0000      -0.904323       -24.6079
 108   2.0000      -0.898672       -24.4541
 109   2.0000      -0.893524       -24.3140
 110   2.0000      -0.882650       -24.0181
 111   2.0000      -0.879873       -23.9426
 112   2.0000      -0.878366       -23.9016
 113   2.0000      -0.865921       -23.5629
 114   2.0000      -0.860865       -23.4253
 115   2.0000      -0.847333       -23.0571
 116   2.0000      -0.844507       -22.9802
 117   2.0000      -0.843778       -22.9604
 118   2.0000      -0.842166       -22.9165
 119   2.0000      -0.839474       -22.8432
 120   2.0000      -0.837404       -22.7869
 121   2.0000      -0.834407       -22.7054
 122   2.0000      -0.823534       -22.4095
 123   2.0000      -0.806683       -21.9510
 124   2.0000      -0.791169       -21.5288
 125   2.0000      -0.783458       -21.3190
 126   2.0000      -0.778105       -21.1733
 127   2.0000      -0.774518       -21.0757
 128   2.0000      -0.769792       -20.9471
 129   2.0000      -0.767922       -20.8962
 130   2.0000      -0.750588       -20.4245
 131   2.0000      -0.740896       -20.1608
 132   2.0000      -0.733720       -19.9655
 133   2.0000      -0.727237       -19.7891
 134   2.0000      -0.722734       -19.6666
 135   2.0000      -0.718975       -19.5643
 136   2.0000      -0.711340       -19.3566
 137   2.0000      -0.706531       -19.2257
 138   2.0000      -0.698891       -19.0178
 139   2.0000      -0.694138       -18.8885
 140   2.0000      -0.693635       -18.8748
 141   2.0000      -0.688079       -18.7236
 142   2.0000      -0.685463       -18.6524
 143   2.0000      -0.682025       -18.5588
 144   2.0000      -0.677629       -18.4392
 145   2.0000      -0.676008       -18.3951
 146   2.0000      -0.673052       -18.3147
 147   2.0000      -0.664968       -18.0947
 148   2.0000      -0.661396       -17.9975
 149   2.0000      -0.658509       -17.9189
 150   2.0000      -0.655570       -17.8390
 151   2.0000      -0.650038       -17.6884
 152   2.0000      -0.647137       -17.6095
 153   2.0000      -0.640269       -17.4226
 154   2.0000      -0.636307       -17.3148
 155   2.0000      -0.621866       -16.9218
 156   2.0000      -0.617178       -16.7943
 157   2.0000      -0.613037       -16.6816
 158   2.0000      -0.611494       -16.6396
 159   2.0000      -0.607450       -16.5295
 160   2.0000      -0.603345       -16.4178
 161   2.0000      -0.602788       -16.4027
 162   2.0000      -0.598331       -16.2814
 163   2.0000      -0.596558       -16.2332
 164   2.0000      -0.595680       -16.2093
 165   2.0000      -0.593684       -16.1550
 166   2.0000      -0.583833       -15.8869
 167   2.0000      -0.577711       -15.7203
 168   2.0000      -0.569947       -15.5090
 169   2.0000      -0.563827       -15.3425
 170   2.0000      -0.559848       -15.2343
 171   2.0000      -0.557022       -15.1573
 172   2.0000      -0.556814       -15.1517
 173   2.0000      -0.556168       -15.1341
 174   2.0000      -0.554724       -15.0948
 175   2.0000      -0.553680       -15.0664
 176   2.0000      -0.549066       -14.9409
 177   2.0000      -0.548147       -14.9158
 178   2.0000      -0.547009       -14.8849
 179   2.0000      -0.545637       -14.8475
 180   2.0000      -0.542707       -14.7678
 181   2.0000      -0.538388       -14.6503
 182   2.0000      -0.537903       -14.6371
 183   2.0000      -0.536522       -14.5995
 184   2.0000      -0.534042       -14.5320
 185   2.0000      -0.533787       -14.5251
 186   2.0000      -0.531786       -14.4706
 187   2.0000      -0.529484       -14.4080
 188   2.0000      -0.528567       -14.3830
 189   2.0000      -0.525741       -14.3061
 190   2.0000      -0.523762       -14.2523
 191   2.0000      -0.522214       -14.2102
 192   2.0000      -0.520603       -14.1663
 193   2.0000      -0.514851       -14.0098
 194   2.0000      -0.510594       -13.8940
 195   2.0000      -0.509538       -13.8652
 196   2.0000      -0.507493       -13.8096
 197   2.0000      -0.506439       -13.7809
 198   2.0000      -0.504882       -13.7385
 199   2.0000      -0.502364       -13.6700
 200   2.0000      -0.500845       -13.6287
 201   2.0000      -0.499989       -13.6054
 202   2.0000      -0.497161       -13.5284
 203   2.0000      -0.496304       -13.5051
 204   2.0000      -0.494514       -13.4564
 205   2.0000      -0.490748       -13.3539
 206   2.0000      -0.484522       -13.1845
 207   2.0000      -0.482716       -13.1354
 208   2.0000      -0.477715       -12.9993
 209   2.0000      -0.476672       -12.9709
 210   2.0000      -0.475637       -12.9427
 211   2.0000      -0.471053       -12.8180
 212   2.0000      -0.469108       -12.7651
 213   2.0000      -0.467123       -12.7111
 214   2.0000      -0.465862       -12.6767
 215   2.0000      -0.463854       -12.6221
 216   2.0000      -0.463316       -12.6075
 217   2.0000      -0.461903       -12.5690
 218   2.0000      -0.460927       -12.5425
 219   2.0000      -0.458275       -12.4703
 220   2.0000      -0.457040       -12.4367
 221   2.0000      -0.456318       -12.4170
 222   2.0000      -0.454471       -12.3668
 223   2.0000      -0.452237       -12.3060
 224   2.0000      -0.451827       -12.2948
 225   2.0000      -0.449347       -12.2274
 226   2.0000      -0.448189       -12.1958
 227   2.0000      -0.444699       -12.1009
 228   2.0000      -0.443765       -12.0755
 229   2.0000      -0.438030       -11.9194
 230   2.0000      -0.437315       -11.9000
 231   2.0000      -0.436548       -11.8791
 232   2.0000      -0.435495       -11.8504
 233   2.0000      -0.434758       -11.8304
 234   2.0000      -0.433643       -11.8000
 235   2.0000      -0.432958       -11.7814
 236   2.0000      -0.430669       -11.7191
 237   2.0000      -0.429893       -11.6980
 238   2.0000      -0.427455       -11.6316
 239   2.0000      -0.424604       -11.5541
 240   2.0000      -0.423928       -11.5357
 241   2.0000      -0.422069       -11.4851
 242   2.0000      -0.419327       -11.4105
 243   2.0000      -0.416217       -11.3258
 244   2.0000      -0.415184       -11.2977
 245   2.0000      -0.407412       -11.0863
 246   2.0000      -0.406298       -11.0559
 247   2.0000      -0.403433       -10.9780
 248   2.0000      -0.401068       -10.9136
 249   2.0000      -0.396872       -10.7994
 250   2.0000      -0.395178       -10.7533
 251   2.0000      -0.394618       -10.7381
 252   2.0000      -0.392587       -10.6828
 253   2.0000      -0.388947       -10.5838
 254   2.0000      -0.384981       -10.4759
 255   2.0000      -0.381329       -10.3765
 256   2.0000      -0.372345       -10.1320
 257   2.0000      -0.359189        -9.7740
 258   2.0000      -0.356005        -9.6874
 259   2.0000      -0.352955        -9.6044
 260   2.0000      -0.347265        -9.4495
 261   2.0000      -0.343529        -9.3479
 262   2.0000      -0.336630        -9.1602
 263   2.0000      -0.332994        -9.0612
 264   2.0000      -0.330781        -9.0010
 265   2.0000      -0.330114        -8.9829
 266   2.0000      -0.324910        -8.8412
 267   2.0000      -0.322193        -8.7673
 268   2.0000      -0.321440        -8.7468
 269   2.0000      -0.317357        -8.6357
 270   2.0000      -0.301341        -8.1999
 271   2.0000      -0.278367        -7.5747
 272   2.0000      -0.251037        -6.8311
 273   0.0000      -0.095174        -2.5898
 274   0.0000      -0.092861        -2.5269
 275   0.0000      -0.069172        -1.8823
 276   0.0000      -0.065353        -1.7783
 277   0.0000      -0.053473        -1.4551

MULLIKEN ATOMIC CHARGES
-----------------------
   0 C :   -0.086278
   1 C :    0.237477
   2 F :   -0.162769
   3 C :    0.234108
   4 F :   -0.166986
   5 C :   -0.099275
   6 C :    0.008949
   7 C :    0.025525
   8 C :    0.251564
   9 C :   -0.327493
  10 C :   -0.186703
  11 N :    0.162743
  12 C :   -0.188611
  13 N :    0.203502
  14 C :   -0.117062
  15 C :    0.136191
  16 O :   -0.132661
  17 C :    0.035818
  18 C :    0.046086
  19 C :   -0.064996
  20 C :    0.021398
  21 C :    0.129825
  22 C :   -0.050152
  23 C :    0.017718
  24 C :    0.104918
  25 C :    0.013842
  26 C :   -0.142635
  27 C :    0.067349
  28 C :    0.019787
  29 C :    0.070851
  30 C :    0.024933
  31 C :   -0.126038
  32 C :    0.179074
  33 C :   -0.037769
  34 C :   -0.039379
  35 C :   -0.063341
  36 S :    0.119356
  37 C :   -0.049626
  38 C :   -0.075945
  39 C :    0.001319
  40 C :   -0.178585
  41 N :    0.106696
  42 C :    0.064541
  43 C :   -0.015907
  44 C :    0.118282
  45 C :   -0.104500
  46 C :    0.024434
  47 C :    0.098007
  48 C :   -0.040020
  49 C :   -0.011981
  50 C :    0.119208
  51 C :    0.024869
  52 C :   -0.137508
  53 C :    0.047674
  54 C :    0.020068
  55 C :    0.073708
  56 C :    0.028825
  57 C :   -0.074226
  58 C :    0.069989
  59 C :    0.016697
  60 C :   -0.045200
  61 C :    0.036917
  62 C :   -0.119974
  63 C :    0.135096
  64 O :   -0.135577
  65 C :    0.010862
  66 C :    0.027868
  67 C :   -0.086541
  68 C :    0.234607
  69 C :    0.234298
  70 C :   -0.101483
  71 F :   -0.167773
  72 F :   -0.163887
  73 C :    0.248285
  74 C :   -0.342685
  75 C :   -0.162566
  76 N :    0.166379
  77 C :   -0.179957
  78 N :    0.164310
  79 H :    0.017980
  80 H :    0.014448
  81 H :    0.027748
  82 H :   -0.030677
  83 H :   -0.029123
  84 H :   -0.010810
  85 H :   -0.005332
  86 H :   -0.003356
  87 H :    0.013225
  88 H :    0.006266
  89 H :    0.033496
  90 H :   -0.000948
  91 H :   -0.000747
  92 H :    0.018032
  93 H :    0.012017
  94 H :    0.021732
  95 H :   -0.023658
  96 H :   -0.025334
  97 H :   -0.029824
  98 H :   -0.007306
  99 H :   -0.021838
 100 H :    0.000503
 101 H :   -0.023596
 102 H :   -0.032351
 103 H :   -0.025741
 104 H :    0.003291
 105 H :    0.004639
 106 H :    0.028834
 107 H :    0.015914
 108 H :    0.015797
 109 H :    0.003960
 110 H :    0.003324
 111 H :    0.018732
 112 H :    0.015777
 113 H :    0.007074
 114 H :   -0.017918
 115 H :   -0.016652
 116 H :   -0.028933
 117 H :    0.022348
 118 H :    0.016948
 119 H :    0.014196
Sum of atomic charges:   -0.0000000

LOEWDIN ATOMIC CHARGES
----------------------
   0 C :   -0.019596
   1 C :    0.075498
   2 F :   -0.041184
   3 C :    0.071239
   4 F :   -0.043378
   5 C :   -0.003586
   6 C :   -0.046786
   7 C :   -0.013339
   8 C :    0.067319
   9 C :   -0.129799
  10 C :   -0.021778
  11 N :   -0.043450
  12 C :   -0.007984
  13 N :   -0.030331
  14 C :   -0.095447
  15 C :    0.084250
  16 O :   -0.134199
  17 C :    0.087288
  18 C :   -0.045942
  19 C :    0.005208
  20 C :    0.010150
  21 C :    0.007207
  22 C :   -0.014312
  23 C :   -0.001936
  24 C :   -0.021098
  25 C :    0.013711
  26 C :   -0.035867
  27 C :   -0.010852
  28 C :   -0.062539
  29 C :   -0.010784
  30 C :   -0.057910
  31 C :   -0.030175
  32 C :   -0.029271
  33 C :   -0.013944
  34 C :   -0.007960
  35 C :   -0.159058
  36 S :    0.457393
  37 C :   -0.134014
  38 C :   -0.113077
  39 C :   -0.027216
  40 C :   -0.027770
  41 N :   -0.065935
  42 C :   -0.052908
  43 C :    0.009504
  44 C :   -0.020797
  45 C :   -0.012060
  46 C :    0.012450
  47 C :   -0.018913
  48 C :   -0.010920
  49 C :   -0.012844
  50 C :    0.010648
  51 C :    0.007283
  52 C :   -0.034779
  53 C :   -0.014308
  54 C :   -0.059809
  55 C :   -0.009384
  56 C :   -0.059784
  57 C :    0.000061
  58 C :   -0.045816
  59 C :    0.010373
  60 C :   -0.015561
  61 C :    0.087987
  62 C :   -0.099287
  63 C :    0.084460
  64 O :   -0.135795
  65 C :   -0.046450
  66 C :   -0.013094
  67 C :   -0.020246
  68 C :    0.075021
  69 C :    0.070675
  70 C :   -0.003946
  71 F :   -0.044419
  72 F :   -0.042047
  73 C :    0.066315
  74 C :   -0.133787
  75 C :   -0.012082
  76 N :   -0.033966
  77 C :   -0.022617
  78 N :   -0.044619
  79 H :    0.051649
  80 H :    0.053201
  81 H :    0.047767
  82 H :    0.029144
  83 H :    0.030181
  84 H :    0.029064
  85 H :    0.018087
  86 H :    0.019806
  87 H :    0.022547
  88 H :    0.024516
  89 H :    0.024925
  90 H :    0.020576
  91 H :    0.020929
  92 H :    0.024048
  93 H :    0.025391
  94 H :    0.025465
  95 H :    0.016997
  96 H :    0.028466
  97 H :    0.029837
  98 H :    0.036950
  99 H :    0.026102
 100 H :    0.037611
 101 H :    0.029913
 102 H :    0.028490
 103 H :    0.026199
 104 H :    0.018048
 105 H :    0.022545
 106 H :    0.025125
 107 H :    0.027603
 108 H :    0.024123
 109 H :    0.025896
 110 H :    0.022509
 111 H :    0.022227
 112 H :    0.029573
 113 H :    0.021591
 114 H :    0.025811
 115 H :    0.032217
 116 H :    0.029936
 117 H :    0.047280
 118 H :    0.051402
 119 H :    0.052967

  Mayer bond orders larger than 0.100000
B(  0-C ,  1-C ) :   1.3392 B(  0-C ,  5-C ) :   0.1050 B(  0-C ,  7-C ) :   1.3144
B(  0-C , 79-H ) :   0.9952 B(  1-C ,  2-F ) :   1.1444 B(  1-C ,  3-C ) :   1.2862
B(  3-C ,  4-F ) :   1.1328 B(  3-C ,  5-C ) :   1.3241 B(  5-C ,  6-C ) :   1.3186
B(  5-C , 80-H ) :   1.0195 B(  6-C ,  7-C ) :   1.3445 B(  6-C , 15-C ) :   0.9293
B(  7-C ,  8-C ) :   1.0193 B(  8-C ,  9-C ) :   1.6779 B(  8-C , 14-C ) :   1.0203
B(  9-C , 10-C ) :   1.1287 B(  9-C , 12-C ) :   1.1462 B( 10-C , 11-N ) :   2.9968
B( 12-C , 13-N ) :   3.0030 B( 14-C , 15-C ) :   0.9370 B( 14-C , 17-C ) :   1.6975
B( 15-C , 16-O ) :   2.2811 B( 17-C , 18-C ) :   1.0387 B( 17-C , 81-H ) :   0.9484
B( 18-C , 19-C ) :   1.2877 B( 18-C , 23-C ) :   1.3339 B( 19-C , 20-C ) :   1.3901
B( 19-C , 82-H ) :   1.0121 B( 20-C , 21-C ) :   1.3579 B( 20-C , 26-C ) :   0.9123
B( 21-C , 22-C ) :   1.3318 B( 21-C , 24-C ) :   1.0010 B( 22-C , 23-C ) :   1.3986
B( 22-C , 83-H ) :   0.9931 B( 23-C , 84-H ) :   0.9852 B( 24-C , 25-C ) :   1.3688
B( 24-C , 34-C ) :   1.3320 B( 25-C , 26-C ) :   0.9143 B( 25-C , 31-C ) :   1.4178
B( 26-C , 27-C ) :   1.0402 B( 26-C , 29-C ) :   1.0374 B( 27-C , 28-C ) :   1.1005
B( 27-C , 85-H ) :   0.9374 B( 27-C , 86-H ) :   0.9380 B( 28-C , 87-H ) :   0.9593
B( 28-C , 88-H ) :   0.9584 B( 28-C , 89-H ) :   0.9537 B( 29-C , 30-C ) :   1.0999
B( 29-C , 90-H ) :   0.9392 B( 29-C , 91-H ) :   0.9391 B( 30-C , 92-H ) :   0.9644
B( 30-C , 93-H ) :   0.9638 B( 30-C , 94-H ) :   0.9646 B( 31-C , 32-C ) :   1.2893
B( 31-C , 95-H ) :   0.9905 B( 32-C , 33-C ) :   1.3542 B( 32-C , 35-C ) :   1.0480
B( 33-C , 34-C ) :   1.3971 B( 33-C , 96-H ) :   0.9882 B( 34-C , 97-H ) :   0.9895
B( 35-C , 36-S ) :   1.1127 B( 35-C , 39-C ) :   1.5340 B( 36-S , 37-C ) :   1.1331
B( 37-C , 38-C ) :   1.4753 B( 37-C , 42-C ) :   1.1314 B( 38-C , 39-C ) :   1.2607
B( 38-C , 40-C ) :   1.1171 B( 39-C , 98-H ) :   0.9985 B( 40-C , 41-N ) :   2.9683
B( 42-C , 43-C ) :   1.6909 B( 42-C , 99-H ) :   0.9431 B( 43-C , 44-C ) :   1.0740
B( 43-C ,100-H ) :   0.9700 B( 44-C , 45-C ) :   1.2880 B( 44-C , 49-C ) :   1.3422
B( 45-C , 46-C ) :   1.3713 B( 45-C ,101-H ) :   1.0146 B( 46-C , 47-C ) :   1.3827
B( 46-C , 52-C ) :   0.9243 B( 47-C , 48-C ) :   1.3188 B( 47-C , 50-C ) :   1.0025
B( 48-C , 49-C ) :   1.4057 B( 48-C ,102-H ) :   0.9906 B( 49-C ,103-H ) :   0.9839
B( 50-C , 51-C ) :   1.3662 B( 50-C , 60-C ) :   1.3346 B( 51-C , 52-C ) :   0.9184
B( 51-C , 57-C ) :   1.4536 B( 52-C , 53-C ) :   1.0268 B( 52-C , 55-C ) :   1.0161
B( 53-C , 54-C ) :   1.1054 B( 53-C ,104-H ) :   0.9393 B( 53-C ,105-H ) :   0.9370
B( 54-C ,106-H ) :   0.9595 B( 54-C ,107-H ) :   0.9622 B( 54-C ,108-H ) :   0.9552
B( 55-C , 56-C ) :   1.1163 B( 55-C ,109-H ) :   0.9396 B( 55-C ,110-H ) :   0.9372
B( 56-C ,111-H ) :   0.9593 B( 56-C ,112-H ) :   0.9587 B( 56-C ,113-H ) :   0.9628
B( 57-C , 58-C ) :   1.2691 B( 57-C ,114-H ) :   0.9820 B( 58-C , 59-C ) :   1.3290
B( 58-C , 61-C ) :   1.0628 B( 59-C , 60-C ) :   1.3786 B( 59-C ,115-H ) :   0.9956
B( 60-C ,116-H ) :   0.9899 B( 61-C , 62-C ) :   1.6739 B( 61-C ,117-H ) :   0.9461
B( 62-C , 63-C ) :   0.9418 B( 62-C , 73-C ) :   1.0246 B( 63-C , 64-O ) :   2.2746
B( 63-C , 65-C ) :   0.9266 B( 65-C , 66-C ) :   1.3429 B( 65-C , 70-C ) :   1.3216
B( 66-C , 67-C ) :   1.3170 B( 66-C , 73-C ) :   1.0209 B( 67-C , 68-C ) :   1.3391
B( 67-C , 70-C ) :   0.1050 B( 67-C ,118-H ) :   0.9951 B( 68-C , 69-C ) :   1.2889
B( 68-C , 72-F ) :   1.1431 B( 69-C , 70-C ) :   1.3224 B( 69-C , 71-F ) :   1.1319
B( 70-C ,119-H ) :   1.0192 B( 73-C , 74-C ) :   1.6704 B( 74-C , 75-C ) :   1.1704
B( 74-C , 77-C ) :   1.1253 B( 75-C , 76-N ) :   2.9238 B( 77-C , 78-N ) :   2.9928

-----------------------------------------------------------------------------
         ABSORPTION SPECTRUM VIA TRANSITION ELECTRIC DIPOLE MOMENTS
-----------------------------------------------------------------------------
State   Energy  Wavelength   fosc         T2         TX        TY        TZ
        (cm-1)    (nm)                  (au**2)     (au)      (au)      (au)
-----------------------------------------------------------------------------
   0   20414.9    489.8   1.673851691  26.99264  -3.24646   3.05134  -2.67253
   1   21249.3    470.6   0.061909873   0.95916   0.45467  -0.07931  -0.86379
   2   25900.4    386.1   1.162527907  14.77652   1.24283  -2.98073   2.08498
   3   27983.9    357.3   0.067773829   0.79731  -0.43168  -0.60284  -0.49754
   4   28507.5    350.8   0.030555080   0.35286  -0.47141  -0.14194   0.33239
   5   28748.9    347.8   0.230196725   2.63605  -1.44035   0.52796  -0.53171
   6   29495.4    339.0   0.121227872   1.35308   0.08028  -1.10885   0.34218
   7   31159.3    320.9   0.126908018   1.34084   0.21349   0.63416  -0.94504
   8   31345.1    319.0   0.022971764   0.24127  -0.41260   0.26583   0.01905
   9   31578.2    316.7   0.325515458   3.39359   0.63092  -0.93562   1.45607
  10   31686.5    315.6   0.063392431   0.65863   0.00651   0.31377   0.74842
  11   32679.6    306.0   0.063641671   0.64112  -0.14904  -0.15919  -0.77043
  12   32966.2    303.3   0.060184235   0.60102   0.07140  -0.60664   0.47740
  13   33289.0    300.4   0.067944695   0.67194   0.78084   0.23907   0.07127
  14   33327.4    300.1   0.031741978   0.31355  -0.23902  -0.40890  -0.29870
  15   34457.9    290.2   0.033670188   0.32169  -0.08398  -0.54484   0.13337
  16   34887.7    286.6   0.131841036   1.24410   0.03129   0.43132  -1.02814
  17   35263.4    283.6   0.090857280   0.84823  -0.37018   0.69553  -0.47689
  18   35586.6    281.0   0.051473338   0.47618   0.29527  -0.11921   0.61220
  19   35706.4    280.1   0.066276435   0.61107   0.41826  -0.58001   0.31577
  20   35903.6    278.5   0.373797941   3.42748  -0.98593   0.20462  -1.55356
  21   37094.8    269.6   0.135259813   1.20042   0.64597   0.25828  -0.84642
  22   37143.6    269.2   0.772267552   6.84479   0.39339  -1.17559   2.30391
  23   37365.4    267.6   0.061575800   0.54252   0.73217  -0.02360   0.07675
  24   38611.1    259.0   0.116707319   0.99509   0.23482   0.41075  -0.87820
  25   38783.9    257.8   0.012860874   0.10917   0.24004  -0.19031   0.12382
  26   38994.2    256.4   0.011248045   0.09496  -0.07819  -0.28404   0.09040
  27   39059.7    256.0   0.025450082   0.21450  -0.02329   0.46256   0.00193
  28   39319.0    254.3   0.138393437   1.15875  -0.47748  -0.94374  -0.20027
  29   39630.5    252.3   0.009426955   0.07831  -0.03932   0.23899   0.14017
  30   39733.7    251.7   0.052002595   0.43087   0.29628  -0.52767   0.25427

FINAL SINGLE POINT ENERGY     -3795.136662515637

DIPOLE MOMENT
-------------
                                X             Y             Z
Electronic contribution:    -17.63309      26.22149      17.33924
Nuclear contribution   :     16.28639     -26.88062     -19.26521
                        -----------------------------------------
Total Dipole Moment    :     -1.34669      -0.65913      -1.92597
                        -----------------------------------------
Magnitude (a.u.)       :      2.44078
Magnitude (Debye)      :      6.20396

Rotational constants in cm-1:     0.002965     0.000137     0.000136
Rotational constants in MHz :    88.880862     4.104406     4.064208

                             ****ORCA TERMINATED NORMALLY****
TOTAL RUN TIME: 0 days 0 hours 16 minutes 0 seconds 252 msec
