                         Program Version 4.2.0 -  RELEASE  -
|  1> # ORCA input file
|  2> # SCF done       -222.043180478077          0.000567837911
|  3> ! CAM-B3LYP def2-SVP def2/J RIJCOSX Grid4 TightSCF
|  4> %maxcore 5000
|  5> %tddft
|  6>     Mode sTDDFT
|  7>     Ethresh 5.0
|  8>     maxcore 5000
|  9> end
| 10>
| 11> %pal
| 12>   nprocs 6
| 13>   end
| 14> * xyz 0 1
| 15>    C        2.77453        -3.74115         8.28168
| 16>    C        2.77804        -2.81896         9.31543
| 17>    F        3.89541        -2.12864         9.56316
| 18>    C        1.64442        -2.58980        10.09736
| 19>    F        1.70454        -1.69891        11.09171
| 20>    C        0.46083        -3.26625         9.84471
| 21>    C        0.44622        -4.16179         8.79196
| 22>    C        1.59223        -4.41519         8.01642
| 23>    C        1.27438        -5.42736         7.01408
| 24>    C        2.18173        -6.17673         6.31973
| 25>    C        3.56894        -5.91888         6.32589
| 26>    N        4.69324        -5.69820         6.27069
| 27>    C        1.83441        -7.31032         5.55358
| 28>    N        1.60260        -8.26534         4.96310
| 29>    C       -0.16789        -5.60374         7.02614
| 30>    C       -0.68843        -4.96186         8.27384
| 31>    O       -1.80419        -5.04355         8.71909
| 32>    C       -1.04654        -6.09089         6.11816
| 33>    C       -0.86410        -6.47774         4.73807
| 34>    C       -1.61666        -7.57129         4.27841
| 35>    C       -1.41394        -8.01838         2.99690
| 36>    C       -0.50999        -7.37832         2.13965
| 37>    C       -0.52722        -8.09618         0.83707
| 38>    O        0.08389        -7.86352        -0.17204
| 39>    N       -1.43990        -9.12711         1.00119
| 40>    C       -2.02036        -9.15737         2.25962
| 41>    O       -2.84794        -9.95014         2.62568
| 42>    C       -1.72410       -10.10517        -0.02820
| 43>    C       -0.77484       -11.29390         0.06779
| 44>    C        0.19795        -6.27453         2.54621
| 45>    C        0.02215        -5.80889         3.85771
| 46>    C        0.71448        -4.62431         4.30783
| 47>    C        1.96897        -4.28174         3.95242
| 48>    C        2.61819        -3.15858         4.55665
| 49>    O        1.94845        -2.48031         5.50516
| 50>    C        2.73901        -1.48303         5.96477
| 51>    C        3.96474        -1.50815         5.29506
| 52>    C        3.88595        -2.60024         4.38751
| 53>    C        4.90480        -3.03058         3.38998
| 54>    F        4.52006        -4.07229         2.65223
| 55>    F        5.17768        -2.03877         2.50546
| 56>    F        6.08046        -3.37101         3.93568
| 57>    O        4.88325        -0.57526         5.56439
| 58>    C        6.21457        -0.68303         5.08805
| 59>    C        2.27653        -0.49709         6.87936
| 60>    C        1.06118        -0.46184         7.46297
| 61>    C        0.56354         0.68364         8.20716
| 62>    C       -0.13623         0.45646         9.39863
| 63>    C       -0.55379         1.53371        10.14147
| 64>    C       -0.32435         2.84557         9.70740
| 65>    C       -0.87196         3.76932        10.73329
| 66>    O       -0.87874         4.97259        10.75307
| 67>    N       -1.40844         2.94905        11.71504
| 68>    C       -1.26579         1.59700        11.44329
| 69>    O       -1.66236         0.70005        12.14074
| 70>    C       -2.01965         3.45680        12.92557
| 71>    C       -0.97547         3.69685        14.01005
| 72>    C        0.27784         3.09661         8.50073
| 73>    C        0.72115         2.01299         7.72268
| 74>    C        1.17184         2.20120         6.37264
| 75>    C        1.26480         3.32577         5.62601
| 76>    C        1.65958         3.25881         4.25977
| 77>    C        1.63735         2.19990         3.39684
| 78>    C        2.52543         2.25401         2.20010
| 79>    O        3.09511         3.22344         1.76263
| 80>    C        2.59651         0.85989         1.70309
| 81>    C        1.71686         0.05606         2.44800
| 82>    C        1.58813        -1.29078         2.14794
| 83>    C        2.35723        -1.80794         1.11760
| 84>    C        3.23409        -1.00549         0.38488
| 85>    C        3.35892         0.34538         0.67256
| 86>    F        3.94784        -1.53989        -0.60559
| 87>    F        2.24634        -3.10947         0.83199
| 88>    C        1.01899         0.88747         3.42774
| 89>    C       -0.12985         0.51146         4.07616
| 90>    C       -0.95360         1.39975         4.79928
| 91>    N       -1.67997         2.08258         5.36645
| 92>    C       -0.61737        -0.80858         4.12605
| 93>    N       -1.01732        -1.87576         4.26958
| 94>    H        3.67875        -3.89633         7.71669
| 95>    H       -0.41513        -3.09513        10.45148
| 96>    H       -2.06382        -6.18534         6.48944
| 97>    H       -2.30797        -8.07568         4.93581
| 98>    H       -1.61294        -9.60532        -0.99334
| 99>    H       -2.75832       -10.43033         0.10695
|100>    H        0.25396       -10.96389        -0.05432
|101>    H       -1.00679       -12.01288        -0.71255
|102>    H       -0.87819       -11.78055         1.03466
|103>    H        0.85999        -5.76054         1.86686
|104>    H        0.18922        -3.99816         5.01731
|105>    H        2.53600        -4.87669         3.25612
|106>    H        6.73750         0.16181         5.53238
|107>    H        6.26465        -0.60215         4.00101
|108>    H        6.68184        -1.61221         5.41864
|109>    H        2.99847         0.28635         7.06566
|110>    H        0.39503        -1.30985         7.36793
|111>    H       -0.32318        -0.54856         9.74091
|112>    H       -2.75056         2.71510        13.25569
|113>    H       -2.52517         4.39149        12.67150
|114>    H       -0.46256         2.76864        14.25134
|115>    H       -1.45802         4.07338        14.90728
|116>    H       -0.24501         4.42842        13.67243
|117>    H        0.40032         4.10956         8.15340
|118>    H        1.43767         1.28833         5.86361
|119>    H        1.12214         4.30980         6.04668
|120>    H        2.12152         4.15124         3.84746
|121>    H        0.91721        -1.94898         2.67451
|122>    H        4.02815         0.96871         0.10132
|123> *
|124>
|125>                          ****END OF INPUT****

CARTESIAN COORDINATES (ANGSTROEM)
---------------------------------
  C      2.774530   -3.741150    8.281680
  C      2.778040   -2.818960    9.315430
  F      3.895410   -2.128640    9.563160
  C      1.644420   -2.589800   10.097360
  F      1.704540   -1.698910   11.091710
  C      0.460830   -3.266250    9.844710
  C      0.446220   -4.161790    8.791960
  C      1.592230   -4.415190    8.016420
  C      1.274380   -5.427360    7.014080
  C      2.181730   -6.176730    6.319730
  C      3.568940   -5.918880    6.325890
  N      4.693240   -5.698200    6.270690
  C      1.834410   -7.310320    5.553580
  N      1.602600   -8.265340    4.963100
  C     -0.167890   -5.603740    7.026140
  C     -0.688430   -4.961860    8.273840
  O     -1.804190   -5.043550    8.719090
  C     -1.046540   -6.090890    6.118160
  C     -0.864100   -6.477740    4.738070
  C     -1.616660   -7.571290    4.278410
  C     -1.413940   -8.018380    2.996900
  C     -0.509990   -7.378320    2.139650
  C     -0.527220   -8.096180    0.837070
  O      0.083890   -7.863520   -0.172040
  N     -1.439900   -9.127110    1.001190
  C     -2.020360   -9.157370    2.259620
  O     -2.847940   -9.950140    2.625680
  C     -1.724100  -10.105170   -0.028200
  C     -0.774840  -11.293900    0.067790
  C      0.197950   -6.274530    2.546210
  C      0.022150   -5.808890    3.857710
  C      0.714480   -4.624310    4.307830
  C      1.968970   -4.281740    3.952420
  C      2.618190   -3.158580    4.556650
  O      1.948450   -2.480310    5.505160
  C      2.739010   -1.483030    5.964770
  C      3.964740   -1.508150    5.295060
  C      3.885950   -2.600240    4.387510
  C      4.904800   -3.030580    3.389980
  F      4.520060   -4.072290    2.652230
  F      5.177680   -2.038770    2.505460
  F      6.080460   -3.371010    3.935680
  O      4.883250   -0.575260    5.564390
  C      6.214570   -0.683030    5.088050
  C      2.276530   -0.497090    6.879360
  C      1.061180   -0.461840    7.462970
  C      0.563540    0.683640    8.207160
  C     -0.136230    0.456460    9.398630
  C     -0.553790    1.533710   10.141470
  C     -0.324350    2.845570    9.707400
  C     -0.871960    3.769320   10.733290
  O     -0.878740    4.972590   10.753070
  N     -1.408440    2.949050   11.715040
  C     -1.265790    1.597000   11.443290
  O     -1.662360    0.700050   12.140740
  C     -2.019650    3.456800   12.925570
  C     -0.975470    3.696850   14.010050
  C      0.277840    3.096610    8.500730
  C      0.721150    2.012990    7.722680
  C      1.171840    2.201200    6.372640
  C      1.264800    3.325770    5.626010
  C      1.659580    3.258810    4.259770
  C      1.637350    2.199900    3.396840
  C      2.525430    2.254010    2.200100
  O      3.095110    3.223440    1.762630
  C      2.596510    0.859890    1.703090
  C      1.716860    0.056060    2.448000
  C      1.588130   -1.290780    2.147940
  C      2.357230   -1.807940    1.117600
  C      3.234090   -1.005490    0.384880
  C      3.358920    0.345380    0.672560
  F      3.947840   -1.539890   -0.605590
  F      2.246340   -3.109470    0.831990
  C      1.018990    0.887470    3.427740
  C     -0.129850    0.511460    4.076160
  C     -0.953600    1.399750    4.799280
  N     -1.679970    2.082580    5.366450
  C     -0.617370   -0.808580    4.126050
  N     -1.017320   -1.875760    4.269580
  H      3.678750   -3.896330    7.716690
  H     -0.415130   -3.095130   10.451480
  H     -2.063820   -6.185340    6.489440
  H     -2.307970   -8.075680    4.935810
  H     -1.612940   -9.605320   -0.993340
  H     -2.758320  -10.430330    0.106950
  H      0.253960  -10.963890   -0.054320
  H     -1.006790  -12.012880   -0.712550
  H     -0.878190  -11.780550    1.034660
  H      0.859990   -5.760540    1.866860
  H      0.189220   -3.998160    5.017310
  H      2.536000   -4.876690    3.256120
  H      6.737500    0.161810    5.532380
  H      6.264650   -0.602150    4.001010
  H      6.681840   -1.612210    5.418640
  H      2.998470    0.286350    7.065660
  H      0.395030   -1.309850    7.367930
  H     -0.323180   -0.548560    9.740910
  H     -2.750560    2.715100   13.255690
  H     -2.525170    4.391490   12.671500
  H     -0.462560    2.768640   14.251340
  H     -1.458020    4.073380   14.907280
  H     -0.245010    4.428420   13.672430
  H      0.400320    4.109560    8.153400
  H      1.437670    1.288330    5.863610
  H      1.122140    4.309800    6.046680
  H      2.121520    4.151240    3.847460
  H      0.917210   -1.948980    2.674510
  H      4.028150    0.968710    0.101320

 Total Charge           Charge          ....    0
 Multiplicity           Mult            ....    1
 Number of Electrons    NEL             ....  546
 Basis Dimension        Dim             .... 1251

ORBITAL ENERGIES
----------------

  NO   OCC          E(Eh)            E(eV)
   0   2.0000     -24.824953      -675.5213
   1   2.0000     -24.819014      -675.3597
   2   2.0000     -24.816867      -675.3013
   3   2.0000     -24.814985      -675.2501
   4   2.0000     -24.814805      -675.2452
   5   2.0000     -24.814363      -675.2331
   6   2.0000     -24.810420      -675.1259
   7   2.0000     -19.326192      -525.8924
   8   2.0000     -19.280929      -524.6608
   9   2.0000     -19.235066      -523.4128
  10   2.0000     -19.228039      -523.2215
  11   2.0000     -19.215835      -522.8894
  12   2.0000     -19.214973      -522.8660
  13   2.0000     -19.214222      -522.8456
  14   2.0000     -19.213276      -522.8198
  15   2.0000     -14.457186      -393.4000
  16   2.0000     -14.455400      -393.3514
  17   2.0000     -14.436256      -392.8305
  18   2.0000     -14.434756      -392.7897
  19   2.0000     -14.431026      -392.6882
  20   2.0000     -14.427620      -392.5955
  21   2.0000     -10.544607      -286.9333
  22   2.0000     -10.399594      -282.9873
  23   2.0000     -10.398694      -282.9629
  24   2.0000     -10.396510      -282.9034
  25   2.0000     -10.396119      -282.8928
  26   2.0000     -10.395857      -282.8856
  27   2.0000     -10.395168      -282.8669
  28   2.0000     -10.394301      -282.8433
  29   2.0000     -10.393724      -282.8276
  30   2.0000     -10.386123      -282.6208
  31   2.0000     -10.379800      -282.4487
  32   2.0000     -10.379136      -282.4307
  33   2.0000     -10.374299      -282.2990
  34   2.0000     -10.363662      -282.0096
  35   2.0000     -10.359092      -281.8852
  36   2.0000     -10.357297      -281.8364
  37   2.0000     -10.356713      -281.8205
  38   2.0000     -10.351929      -281.6903
  39   2.0000     -10.340348      -281.3752
  40   2.0000     -10.338428      -281.3229
  41   2.0000     -10.337653      -281.3018
  42   2.0000     -10.331525      -281.1351
  43   2.0000     -10.331418      -281.1322
  44   2.0000     -10.331270      -281.1281
  45   2.0000     -10.328315      -281.0477
  46   2.0000     -10.328296      -281.0472
  47   2.0000     -10.327095      -281.0146
  48   2.0000     -10.322653      -280.8937
  49   2.0000     -10.322023      -280.8765
  50   2.0000     -10.320809      -280.8435
  51   2.0000     -10.319497      -280.8078
  52   2.0000     -10.319120      -280.7975
  53   2.0000     -10.318764      -280.7878
  54   2.0000     -10.318282      -280.7747
  55   2.0000     -10.318039      -280.7681
  56   2.0000     -10.317782      -280.7611
  57   2.0000     -10.317017      -280.7403
  58   2.0000     -10.314184      -280.6632
  59   2.0000     -10.313210      -280.6367
  60   2.0000     -10.311409      -280.5877
  61   2.0000     -10.309240      -280.5287
  62   2.0000     -10.308869      -280.5186
  63   2.0000     -10.308743      -280.5152
  64   2.0000     -10.307970      -280.4941
  65   2.0000     -10.307826      -280.4902
  66   2.0000     -10.307638      -280.4851
  67   2.0000     -10.306502      -280.4542
  68   2.0000     -10.306081      -280.4427
  69   2.0000     -10.305750      -280.4337
  70   2.0000     -10.304964      -280.4123
  71   2.0000     -10.304208      -280.3918
  72   2.0000     -10.304107      -280.3890
  73   2.0000     -10.301796      -280.3261
  74   2.0000     -10.301277      -280.3120
  75   2.0000     -10.300925      -280.3024
  76   2.0000     -10.299306      -280.2584
  77   2.0000     -10.260849      -279.2119
  78   2.0000     -10.257728      -279.1270
  79   2.0000      -1.411647       -38.4129
  80   2.0000      -1.338318       -36.4175
  81   2.0000      -1.336778       -36.3756
  82   2.0000      -1.322928       -35.9987
  83   2.0000      -1.321777       -35.9674
  84   2.0000      -1.315359       -35.7927
  85   2.0000      -1.308346       -35.6019
  86   2.0000      -1.247631       -33.9498
  87   2.0000      -1.183582       -32.2069
  88   2.0000      -1.161775       -31.6135
  89   2.0000      -1.160409       -31.5763
  90   2.0000      -1.151819       -31.3426
  91   2.0000      -1.144758       -31.1504
  92   2.0000      -1.138329       -30.9755
  93   2.0000      -1.136978       -30.9387
  94   2.0000      -1.052919       -28.6514
  95   2.0000      -1.051463       -28.6118
  96   2.0000      -1.038640       -28.2628
  97   2.0000      -1.035242       -28.1704
  98   2.0000      -1.018286       -27.7090
  99   2.0000      -1.015641       -27.6370
 100   2.0000      -1.012733       -27.5579
 101   2.0000      -1.009419       -27.4677
 102   2.0000      -0.994966       -27.0744
 103   2.0000      -0.993409       -27.0320
 104   2.0000      -0.971116       -26.4254
 105   2.0000      -0.969682       -26.3864
 106   2.0000      -0.951615       -25.8948
 107   2.0000      -0.944326       -25.6964
 108   2.0000      -0.937708       -25.5163
 109   2.0000      -0.929529       -25.2938
 110   2.0000      -0.925683       -25.1891
 111   2.0000      -0.916711       -24.9450
 112   2.0000      -0.911895       -24.8139
 113   2.0000      -0.902137       -24.5484
 114   2.0000      -0.889167       -24.1955
 115   2.0000      -0.887625       -24.1535
 116   2.0000      -0.885092       -24.0846
 117   2.0000      -0.877872       -23.8881
 118   2.0000      -0.869078       -23.6488
 119   2.0000      -0.860079       -23.4039
 120   2.0000      -0.850468       -23.1424
 121   2.0000      -0.842000       -22.9120
 122   2.0000      -0.836120       -22.7520
 123   2.0000      -0.814215       -22.1559
 124   2.0000      -0.809583       -22.0299
 125   2.0000      -0.804990       -21.9049
 126   2.0000      -0.800433       -21.7809
 127   2.0000      -0.787091       -21.4178
 128   2.0000      -0.784701       -21.3528
 129   2.0000      -0.779355       -21.2073
 130   2.0000      -0.766787       -20.8653
 131   2.0000      -0.762282       -20.7427
 132   2.0000      -0.757329       -20.6080
 133   2.0000      -0.743591       -20.2341
 134   2.0000      -0.740129       -20.1399
 135   2.0000      -0.738834       -20.1047
 136   2.0000      -0.733295       -19.9540
 137   2.0000      -0.724112       -19.7041
 138   2.0000      -0.719003       -19.5651
 139   2.0000      -0.713005       -19.4018
 140   2.0000      -0.710042       -19.3212
 141   2.0000      -0.709130       -19.2964
 142   2.0000      -0.702992       -19.1294
 143   2.0000      -0.700703       -19.0671
 144   2.0000      -0.699307       -19.0291
 145   2.0000      -0.693419       -18.8689
 146   2.0000      -0.692238       -18.8367
 147   2.0000      -0.688475       -18.7343
 148   2.0000      -0.679670       -18.4948
 149   2.0000      -0.673941       -18.3389
 150   2.0000      -0.667295       -18.1580
 151   2.0000      -0.659488       -17.9456
 152   2.0000      -0.657286       -17.8857
 153   2.0000      -0.653922       -17.7941
 154   2.0000      -0.653472       -17.7819
 155   2.0000      -0.650087       -17.6898
 156   2.0000      -0.633774       -17.2459
 157   2.0000      -0.630559       -17.1584
 158   2.0000      -0.630086       -17.1455
 159   2.0000      -0.625426       -17.0187
 160   2.0000      -0.619363       -16.8537
 161   2.0000      -0.618025       -16.8173
 162   2.0000      -0.617648       -16.8070
 163   2.0000      -0.613089       -16.6830
 164   2.0000      -0.608448       -16.5567
 165   2.0000      -0.604856       -16.4590
 166   2.0000      -0.603219       -16.4144
 167   2.0000      -0.601184       -16.3591
 168   2.0000      -0.599579       -16.3154
 169   2.0000      -0.595384       -16.2012
 170   2.0000      -0.589802       -16.0493
 171   2.0000      -0.580860       -15.8060
 172   2.0000      -0.576259       -15.6808
 173   2.0000      -0.575344       -15.6559
 174   2.0000      -0.574697       -15.6383
 175   2.0000      -0.573638       -15.6095
 176   2.0000      -0.570705       -15.5297
 177   2.0000      -0.568921       -15.4811
 178   2.0000      -0.565539       -15.3891
 179   2.0000      -0.564705       -15.3664
 180   2.0000      -0.564210       -15.3529
 181   2.0000      -0.562204       -15.2984
 182   2.0000      -0.561045       -15.2668
 183   2.0000      -0.559723       -15.2308
 184   2.0000      -0.557809       -15.1788
 185   2.0000      -0.556046       -15.1308
 186   2.0000      -0.554095       -15.0777
 187   2.0000      -0.550705       -14.9854
 188   2.0000      -0.549667       -14.9572
 189   2.0000      -0.546339       -14.8667
 190   2.0000      -0.545667       -14.8484
 191   2.0000      -0.543394       -14.7865
 192   2.0000      -0.542181       -14.7535
 193   2.0000      -0.540255       -14.7011
 194   2.0000      -0.539009       -14.6672
 195   2.0000      -0.533557       -14.5188
 196   2.0000      -0.532908       -14.5012
 197   2.0000      -0.530339       -14.4313
 198   2.0000      -0.528364       -14.3775
 199   2.0000      -0.526676       -14.3316
 200   2.0000      -0.525698       -14.3050
 201   2.0000      -0.522711       -14.2237
 202   2.0000      -0.519561       -14.1380
 203   2.0000      -0.514493       -14.0001
 204   2.0000      -0.513976       -13.9860
 205   2.0000      -0.511626       -13.9221
 206   2.0000      -0.510411       -13.8890
 207   2.0000      -0.509268       -13.8579
 208   2.0000      -0.508915       -13.8483
 209   2.0000      -0.506944       -13.7946
 210   2.0000      -0.506040       -13.7700
 211   2.0000      -0.505440       -13.7537
 212   2.0000      -0.501988       -13.6598
 213   2.0000      -0.499799       -13.6002
 214   2.0000      -0.494706       -13.4616
 215   2.0000      -0.491877       -13.3847
 216   2.0000      -0.487626       -13.2690
 217   2.0000      -0.485503       -13.2112
 218   2.0000      -0.484626       -13.1873
 219   2.0000      -0.482925       -13.1410
 220   2.0000      -0.482154       -13.1201
 221   2.0000      -0.481277       -13.0962
 222   2.0000      -0.476689       -12.9714
 223   2.0000      -0.474647       -12.9158
 224   2.0000      -0.472537       -12.8584
 225   2.0000      -0.469437       -12.7740
 226   2.0000      -0.469131       -12.7657
 227   2.0000      -0.467964       -12.7340
 228   2.0000      -0.466047       -12.6818
 229   2.0000      -0.465080       -12.6555
 230   2.0000      -0.464103       -12.6289
 231   2.0000      -0.462801       -12.5935
 232   2.0000      -0.459484       -12.5032
 233   2.0000      -0.458494       -12.4762
 234   2.0000      -0.457586       -12.4516
 235   2.0000      -0.455665       -12.3993
 236   2.0000      -0.454537       -12.3686
 237   2.0000      -0.451839       -12.2952
 238   2.0000      -0.450677       -12.2636
 239   2.0000      -0.446565       -12.1517
 240   2.0000      -0.445410       -12.1202
 241   2.0000      -0.442392       -12.0381
 242   2.0000      -0.439133       -11.9494
 243   2.0000      -0.436055       -11.8657
 244   2.0000      -0.432063       -11.7570
 245   2.0000      -0.431888       -11.7523
 246   2.0000      -0.428419       -11.6579
 247   2.0000      -0.426175       -11.5968
 248   2.0000      -0.425665       -11.5829
 249   2.0000      -0.421710       -11.4753
 250   2.0000      -0.415781       -11.3140
 251   2.0000      -0.396891       -10.8000
 252   2.0000      -0.395785       -10.7699
 253   2.0000      -0.383912       -10.4468
 254   2.0000      -0.371107       -10.0983
 255   2.0000      -0.369203       -10.0465
 256   2.0000      -0.368122       -10.0171
 257   2.0000      -0.367318        -9.9952
 258   2.0000      -0.363017        -9.8782
 259   2.0000      -0.356717        -9.7068
 260   2.0000      -0.355732        -9.6800
 261   2.0000      -0.352677        -9.5968
 262   2.0000      -0.349997        -9.5239
 263   2.0000      -0.347569        -9.4578
 264   2.0000      -0.347105        -9.4452
 265   2.0000      -0.345375        -9.3981
 266   2.0000      -0.343704        -9.3527
 267   2.0000      -0.341055        -9.2806
 268   2.0000      -0.325802        -8.8655
 269   2.0000      -0.320803        -8.7295
 270   2.0000      -0.318477        -8.6662
 271   2.0000      -0.298403        -8.1200
 272   2.0000      -0.268126        -7.2961
 273   0.0000      -0.107570        -2.9271
 274   0.0000      -0.101615        -2.7651
 275   0.0000      -0.085992        -2.3400
 276   0.0000      -0.075228        -2.0471
 277   0.0000      -0.063390        -1.7249

MULLIKEN ATOMIC CHARGES
-----------------------
   0 C :   -0.079244
   1 C :    0.243896
   2 F :   -0.164556
   3 C :    0.222563
   4 F :   -0.162602
   5 C :   -0.117107
   6 C :    0.006721
   7 C :    0.045595
   8 C :    0.257751
   9 C :   -0.311674
  10 C :   -0.194741
  11 N :    0.166489
  12 C :   -0.201034
  13 N :    0.194966
  14 C :   -0.139544
  15 C :    0.142566
  16 O :   -0.118849
  17 C :    0.014241
  18 C :    0.065777
  19 C :   -0.069989
  20 C :    0.022974
  21 C :    0.035708
  22 C :    0.190018
  23 O :   -0.149812
  24 N :   -0.301389
  25 C :    0.193870
  26 O :   -0.152572
  27 C :    0.132548
  28 C :   -0.009425
  29 C :   -0.079694
  30 C :    0.078383
  31 C :    0.007906
  32 C :   -0.048092
  33 C :    0.092471
  34 O :   -0.209349
  35 C :    0.045467
  36 C :    0.162907
  37 C :   -0.156253
  38 C :    0.528121
  39 F :   -0.138758
  40 F :   -0.173774
  41 F :   -0.146991
  42 O :   -0.294817
  43 C :    0.172465
  44 C :    0.012564
  45 C :   -0.073229
  46 C :    0.086426
  47 C :   -0.066253
  48 C :    0.020881
  49 C :    0.017228
  50 C :    0.190829
  51 O :   -0.155212
  52 N :   -0.301471
  53 C :    0.192139
  54 O :   -0.153608
  55 C :    0.132483
  56 C :   -0.009985
  57 C :   -0.081140
  58 C :    0.116706
  59 C :   -0.041583
  60 C :    0.035137
  61 C :    0.047658
  62 C :   -0.119186
  63 C :    0.126647
  64 O :   -0.132187
  65 C :    0.017170
  66 C :    0.029034
  67 C :   -0.087614
  68 C :    0.222347
  69 C :    0.246672
  70 C :   -0.115340
  71 F :   -0.159705
  72 F :   -0.165056
  73 C :    0.273286
  74 C :   -0.354522
  75 C :   -0.214531
  76 N :    0.188450
  77 C :   -0.152504
  78 N :    0.139883
  79 H :    0.008826
  80 H :    0.031380
  81 H :    0.037734
  82 H :    0.001875
  83 H :    0.032063
  84 H :    0.031783
  85 H :    0.029445
  86 H :    0.023813
  87 H :    0.029086
  88 H :   -0.003792
  89 H :    0.047868
  90 H :    0.027008
  91 H :    0.043194
  92 H :    0.040973
  93 H :    0.043648
  94 H :    0.026873
  95 H :    0.027996
  96 H :   -0.037942
  97 H :    0.034629
  98 H :    0.031984
  99 H :    0.025317
 100 H :    0.024161
 101 H :    0.028739
 102 H :   -0.007380
 103 H :    0.045863
 104 H :    0.001829
 105 H :    0.031125
 106 H :    0.011762
 107 H :    0.014589
Sum of atomic charges:   -0.0000000

LOEWDIN ATOMIC CHARGES
----------------------
   0 C :   -0.021649
   1 C :    0.079201
   2 F :   -0.040033
   3 C :    0.067196
   4 F :   -0.038032
   5 C :   -0.010322
   6 C :   -0.049298
   7 C :   -0.010340
   8 C :    0.061235
   9 C :   -0.120368
  10 C :   -0.017741
  11 N :   -0.042862
  12 C :   -0.018618
  13 N :   -0.030960
  14 C :   -0.079194
  15 C :    0.086897
  16 O :   -0.120545
  17 C :    0.075897
  18 C :   -0.018938
  19 C :    0.037467
  20 C :   -0.042356
  21 C :   -0.031641
  22 C :    0.088689
  23 O :   -0.151302
  24 N :   -0.032635
  25 C :    0.089288
  26 O :   -0.153437
  27 C :    0.044996
  28 C :   -0.058862
  29 C :    0.027031
  30 C :    0.002514
  31 C :    0.017747
  32 C :   -0.051418
  33 C :    0.058074
  34 O :    0.034270
  35 C :   -0.022433
  36 C :    0.037642
  37 C :   -0.155439
  38 C :    0.172082
  39 F :   -0.034463
  40 F :   -0.069029
  41 F :   -0.044991
  42 O :   -0.087431
  43 C :    0.078923
  44 C :   -0.023749
  45 C :   -0.036986
  46 C :    0.010762
  47 C :    0.016714
  48 C :   -0.036411
  49 C :   -0.050081
  50 C :    0.088820
  51 O :   -0.155249
  52 N :   -0.033377
  53 C :    0.087858
  54 O :   -0.154856
  55 C :    0.045154
  56 C :   -0.059411
  57 C :    0.039241
  58 C :   -0.019061
  59 C :    0.044058
  60 C :   -0.040389
  61 C :    0.081871
  62 C :   -0.100276
  63 C :    0.082986
  64 O :   -0.134266
  65 C :   -0.044496
  66 C :   -0.016775
  67 C :   -0.023881
  68 C :    0.067994
  69 C :    0.072401
  70 C :   -0.004692
  71 F :   -0.036441
  72 F :   -0.041419
  73 C :    0.069360
  74 C :   -0.143852
  75 C :   -0.019009
  76 N :   -0.033635
  77 C :   -0.008750
  78 N :   -0.059551
  79 H :    0.048206
  80 H :    0.055646
  81 H :    0.052724
  82 H :    0.043794
  83 H :    0.032472
  84 H :    0.032583
  85 H :    0.029170
  86 H :    0.030736
  87 H :    0.029263
  88 H :    0.041743
  89 H :    0.034719
  90 H :    0.036379
  91 H :    0.032879
  92 H :    0.016974
  93 H :    0.021951
  94 H :    0.045288
  95 H :    0.034486
  96 H :    0.034572
  97 H :    0.033288
  98 H :    0.032823
  99 H :    0.027859
 100 H :    0.031007
 101 H :    0.028534
 102 H :    0.040033
 103 H :    0.035033
 104 H :    0.033774
 105 H :    0.048373
 106 H :    0.047036
 107 H :    0.053237

  Mayer bond orders larger than 0.100000
B(  0-C ,  1-C ) :   1.3475 B(  0-C ,  5-C ) :   0.1013 B(  0-C ,  7-C ) :   1.3186
B(  0-C , 79-H ) :   0.9827 B(  1-C ,  2-F ) :   1.1413 B(  1-C ,  3-C ) :   1.2934
B(  3-C ,  4-F ) :   1.1311 B(  3-C ,  5-C ) :   1.3200 B(  5-C ,  6-C ) :   1.3067
B(  5-C , 80-H ) :   1.0118 B(  6-C ,  7-C ) :   1.3469 B(  6-C , 15-C ) :   0.9250
B(  7-C ,  8-C ) :   1.0351 B(  8-C ,  9-C ) :   1.6707 B(  8-C , 14-C ) :   1.0171
B(  9-C , 10-C ) :   1.1228 B(  9-C , 12-C ) :   1.1677 B( 10-C , 11-N ) :   2.9758
B( 12-C , 13-N ) :   3.0121 B( 14-C , 15-C ) :   0.9243 B( 14-C , 17-C ) :   1.7284
B( 15-C , 16-O ) :   2.2908 B( 17-C , 18-C ) :   1.0445 B( 17-C , 81-H ) :   0.9369
B( 18-C , 19-C ) :   1.2776 B( 18-C , 30-C ) :   1.3223 B( 19-C , 20-C ) :   1.4075
B( 19-C , 82-H ) :   1.0138 B( 20-C , 21-C ) :   1.3394 B( 20-C , 25-C ) :   0.8725
B( 21-C , 22-C ) :   0.8679 B( 21-C , 29-C ) :   1.4032 B( 22-C , 23-O ) :   2.2341
B( 22-C , 24-N ) :   1.0684 B( 24-N , 25-C ) :   1.0633 B( 24-N , 27-C ) :   0.9163
B( 25-C , 26-O ) :   2.2337 B( 27-C , 28-C ) :   1.1236 B( 27-C , 83-H ) :   0.9427
B( 27-C , 84-H ) :   0.9421 B( 28-C , 85-H ) :   0.9695 B( 28-C , 86-H ) :   0.9705
B( 28-C , 87-H ) :   0.9696 B( 29-C , 30-C ) :   1.3076 B( 29-C , 88-H ) :   1.0079
B( 30-C , 31-C ) :   1.0932 B( 31-C , 32-C ) :   1.6623 B( 31-C , 89-H ) :   0.9244
B( 32-C , 33-C ) :   1.1633 B( 32-C , 90-H ) :   0.9679 B( 33-C , 34-O ) :   1.1770
B( 33-C , 35-C ) :   0.1179 B( 33-C , 37-C ) :   1.4214 B( 34-O , 35-C ) :   1.0899
B( 35-C , 36-C ) :   1.4100 B( 35-C , 44-C ) :   1.1820 B( 36-C , 37-C ) :   1.2057
B( 36-C , 42-O ) :   1.2530 B( 37-C , 38-C ) :   0.9461 B( 38-C , 39-F ) :   1.1541
B( 38-C , 40-F ) :   1.1225 B( 38-C , 41-F ) :   1.1668 B( 42-O , 43-C ) :   0.9127
B( 43-C , 91-H ) :   0.9772 B( 43-C , 92-H ) :   0.9633 B( 43-C , 93-H ) :   0.9695
B( 44-C , 45-C ) :   1.6601 B( 44-C , 94-H ) :   0.9580 B( 45-C , 46-C ) :   1.0427
B( 45-C , 95-H ) :   0.9656 B( 46-C , 47-C ) :   1.3023 B( 46-C , 58-C ) :   1.3229
B( 47-C , 48-C ) :   1.4153 B( 47-C , 96-H ) :   1.0070 B( 48-C , 49-C ) :   1.3281
B( 48-C , 53-C ) :   0.8721 B( 49-C , 50-C ) :   0.8750 B( 49-C , 57-C ) :   1.4257
B( 50-C , 51-O ) :   2.2288 B( 50-C , 52-N ) :   1.0623 B( 52-N , 53-C ) :   1.0694
B( 52-N , 55-C ) :   0.9162 B( 53-C , 54-O ) :   2.2272 B( 55-C , 56-C ) :   1.1245
B( 55-C , 97-H ) :   0.9421 B( 55-C , 98-H ) :   0.9429 B( 56-C , 99-H ) :   0.9693
B( 56-C ,100-H ) :   0.9704 B( 56-C ,101-H ) :   0.9698 B( 57-C , 58-C ) :   1.2820
B( 57-C ,102-H ) :   1.0059 B( 58-C , 59-C ) :   1.1176 B( 59-C , 60-C ) :   1.6546
B( 59-C ,103-H ) :   0.9549 B( 60-C , 61-C ) :   1.1508 B( 60-C ,104-H ) :   0.9657
B( 61-C , 62-C ) :   1.6491 B( 61-C ,105-H ) :   0.9313 B( 62-C , 63-C ) :   0.9498
B( 62-C , 73-C ) :   1.0324 B( 63-C , 64-O ) :   2.2743 B( 63-C , 65-C ) :   0.9251
B( 65-C , 66-C ) :   1.3461 B( 65-C , 70-C ) :   1.3156 B( 66-C , 67-C ) :   1.3239
B( 66-C , 73-C ) :   1.0369 B( 67-C , 68-C ) :   1.3432 B( 67-C , 70-C ) :   0.1049
B( 67-C ,106-H ) :   0.9795 B( 68-C , 69-C ) :   1.2935 B( 68-C , 72-F ) :   1.1215
B( 69-C , 70-C ) :   1.3192 B( 69-C , 71-F ) :   1.1430 B( 70-C ,107-H ) :   1.0211
B( 73-C , 74-C ) :   1.6289 B( 74-C , 75-C ) :   1.1791 B( 74-C , 77-C ) :   1.1388
B( 75-C , 76-N ) :   2.9953 B( 77-C , 78-N ) :   2.9262

-----------------------------------------------------------------------------
         ABSORPTION SPECTRUM VIA TRANSITION ELECTRIC DIPOLE MOMENTS
-----------------------------------------------------------------------------
State   Energy  Wavelength   fosc         T2         TX        TY        TZ
        (cm-1)    (nm)                  (au**2)     (au)      (au)      (au)
-----------------------------------------------------------------------------
   0   16006.6    624.7   0.027160523   0.55862   0.15139  -0.50356   0.53116
   1   18278.6    547.1   0.058143649   1.04721  -0.14281  -0.87459   0.51177
   2   22303.5    448.4   0.177623643   2.62183  -0.22968  -1.60242  -0.03630
   3   23004.0    434.7   0.311381386   4.45621  -0.23289  -1.04043  -1.82194
   4   24468.2    408.7   0.048261364   0.64934   0.28302  -0.73853   0.15433
   5   27271.1    366.7   0.150745526   1.81977  -0.03874   1.10635   0.77088
   6   27588.7    362.5   0.171622339   2.04794   0.14730   1.01476   0.99826
   7   27991.4    357.3   0.071432695   0.84013   0.48664   0.48968   0.60293
   8   28899.6    346.0   0.168372237   1.91803   0.97103   0.22851   0.96068
   9   29846.2    335.1   0.320671204   3.53709  -0.16083  -0.81272  -1.68841
  10   30221.8    330.9   0.031408662   0.34214  -0.27419   0.00964   0.51659
  11   30522.0    327.6   0.008663645   0.09345   0.21776   0.16714   0.13451
  12   30718.2    325.5   0.065827867   0.70549   0.29158  -0.59595  -0.51509
  13   30996.8    322.6   0.073190208   0.77734   0.80831  -0.29796   0.18760
  14   31233.7    320.2   0.036761857   0.38748   0.44584   0.09094  -0.42478
  15   31684.1    315.6   0.076688109   0.79682   0.41502  -0.12127  -0.78095
  16   32045.1    312.1   0.137812469   1.41580  -0.77786  -0.23181   0.87006
  17   32404.7    308.6   0.182784797   1.85698  -0.70954   0.51674   1.04236
  18   32583.8    306.9   0.233763755   2.36184   0.28844  -0.80942  -1.27416
  19   32925.9    303.7   0.041900558   0.41895   0.04363   0.57227   0.29925
  20   33193.5    301.3   0.016080950   0.15949   0.09820  -0.30967  -0.23227
  21   33422.6    299.2   0.006782715   0.06681  -0.08046   0.05677   0.23898
  22   33454.1    298.9   0.011100867   0.10924  -0.18545   0.23413   0.14153
  23   33652.7    297.2   0.195755823   1.91501  -0.56515   0.18162   1.25005
  24   33856.0    295.4   0.020471839   0.19907   0.31017  -0.15086  -0.28303
  25   34446.4    290.3   0.141808248   1.35529  -0.19684   0.72995   0.88528
  26   34914.0    286.4   0.060577022   0.57119   0.42820  -0.23284  -0.57760
  27   35105.7    284.9   0.038815108   0.36400  -0.45271  -0.19649   0.34705
  28   35404.9    282.4   0.063613159   0.59151  -0.53181   0.20826   0.51508
  29   35711.6    280.0   0.046041351   0.42444  -0.29551  -0.35569   0.45891
  30   36057.4    277.3   0.441449055   4.03053  -1.27162   0.44459   1.48858
  31   36225.2    276.1   0.061274633   0.55686  -0.61762  -0.03913   0.41698
  32   36484.0    274.1   0.015112814   0.13637  -0.04071   0.30852   0.19882
  33   36722.6    272.3   0.025364419   0.22739   0.42051   0.00091   0.22484
  34   37000.6    270.3   0.059788126   0.53196   0.36216   0.55574  -0.30323
  35   37097.4    269.6   0.003639607   0.03230   0.16448   0.03503   0.06338
  36   37340.8    267.8   0.110802248   0.97688  -0.32933   0.51904   0.77397
  37   37465.9    266.9   0.587880221   5.16570  -0.15277  -1.53598  -1.66827
  38   37674.2    265.4   0.280859683   2.45426  -1.40358  -0.67520   0.16828
  39   37994.0    263.2   0.029228362   0.25326   0.04729   0.36483   0.34340
  40   38315.3    261.0   0.075525263   0.64893  -0.52049   0.06807   0.61105
  41   38708.0    258.3   0.048940481   0.41624   0.32246  -0.03850  -0.55747
  42   38909.1    257.0   0.031035780   0.26260   0.31602   0.17200   0.36489
  43   39033.6    256.2   0.070336049   0.59322  -0.46196  -0.60766   0.10279
  44   39110.8    255.7   0.024958999   0.21009  -0.26034   0.30169   0.22650
  45   39202.4    255.1   0.035576002   0.29876   0.53525   0.03983  -0.10337
  46   39678.4    252.0   0.001512259   0.01255   0.03179  -0.07208  -0.07963
  47   39760.5    251.5   0.043968429   0.36405  -0.13396  -0.28499  -0.51467
  48   39966.0    250.2   0.030444384   0.25078  -0.18426  -0.31617   0.34185

FINAL SINGLE POINT ENERGY     -3852.143971243946

DIPOLE MOMENT
-------------
                                X             Y             Z
Electronic contribution:     30.96044      -4.99136     -21.25976
Nuclear contribution   :    -29.77626       6.07081      21.54608
                        -----------------------------------------
Total Dipole Moment    :      1.18418       1.07945       0.28632
                        -----------------------------------------
Magnitude (a.u.)       :      1.62772
Magnitude (Debye)      :      4.13733

Rotational constants in cm-1:     0.001239     0.000648     0.000535
Rotational constants in MHz :    37.132601    19.412329    16.038919

                             ****ORCA TERMINATED NORMALLY****
TOTAL RUN TIME: 0 days 0 hours 16 minutes 53 seconds 50 msec
