                         Program Version 4.2.0 -  RELEASE  -
|  1> # ORCA input file
|  2> # SCF done       -211.827681647511          0.000499394656
|  3> ! CAM-B3LYP def2-SVP def2/J RIJCOSX Grid4 TightSCF
|  4> %maxcore 5000
|  5> %tddft
|  6>     Mode sTDDFT
|  7>     Ethresh 5.0
|  8>     maxcore 5000
|  9> end
| 10>
| 11> %pal
| 12>   nprocs 6
| 13>   end
| 14> * xyz 0 1
| 15>    C       -1.88999       -13.98392         1.25025
| 16>    C       -0.78541       -14.48581         1.92279
| 17>    F       -0.80486       -15.75363         2.34488
| 18>    C        0.34272       -13.70035         2.16632
| 19>    F        1.38120       -14.22361         2.82662
| 20>    C        0.39934       -12.38641         1.72909
| 21>    C       -0.69488       -11.88872         1.04890
| 22>    C       -1.84014       -12.67116         0.81138
| 23>    C       -2.83909       -11.84798         0.12981
| 24>    C       -4.18749       -12.08605         0.11343
| 25>    C       -5.12849       -11.09500        -0.23572
| 26>    N       -5.90648       -10.27885        -0.44873
| 27>    C       -4.78231       -13.28736         0.54922
| 28>    N       -5.30792       -14.25593         0.86847
| 29>    C       -2.18334       -10.61993        -0.25746
| 30>    C       -0.88207       -10.54588         0.45514
| 31>    O       -0.13003        -9.60040         0.49300
| 32>    C       -2.49179        -9.65942        -1.17732
| 33>    C       -3.42472        -9.70568        -2.23022
| 34>    O       -4.01614       -10.87785        -2.60660
| 35>    C       -4.78696       -10.63546        -3.64321
| 36>    C       -4.73706        -9.31032        -4.01714
| 37>    N       -5.43690        -8.85443        -5.17179
| 38>    O       -6.38722        -9.52065        -5.51588
| 39>    O       -5.01829        -7.88501        -5.76795
| 40>    C       -3.84404        -8.67022        -3.09133
| 41>    N       -3.49308        -7.37682        -2.92677
| 42>    C       -4.00234        -6.28759        -3.57163
| 43>    C       -3.74188        -5.02325        -3.19249
| 44>    C       -4.33448        -3.88089        -3.81643
| 45>    S       -3.41595        -2.40748        -3.81647
| 46>    C       -5.56046        -3.71842        -4.45033
| 47>    C       -6.65417        -4.71685        -4.45516
| 48>    O       -6.61987        -5.78648        -3.86890
| 49>    C       -7.81391        -4.27366        -5.20538
| 50>    C       -8.97155        -4.96304        -5.49590
| 51>    N       -9.77835        -4.16142        -6.22948
| 52>    C      -11.04607        -4.55481        -6.79161
| 53>    C      -10.85793        -5.21153        -8.15761
| 54>    C       -9.17240        -2.96777        -6.42837
| 55>    C       -7.94242        -2.98995        -5.80556
| 56>    C       -6.92916        -1.95673        -5.71616
| 57>    O       -7.05318        -0.84811        -6.21160
| 58>    C       -5.73256        -2.39977        -4.96782
| 59>    C       -4.65373        -1.56490        -4.70763
| 60>    C       -4.51150        -0.19922        -5.06176
| 61>    C       -3.37552         0.51657        -4.89523
| 62>    C       -3.27171         1.89847        -5.22019
| 63>    O       -4.37657         2.60677        -5.56207
| 64>    C       -4.02068         3.85394        -5.78597
| 65>    C       -2.66298         4.02801        -5.59699
| 66>    N       -2.05945         5.30102        -5.76436
| 67>    O       -2.73978         6.14805        -6.30138
| 68>    O       -0.92898         5.48072        -5.36006
| 69>    C       -2.14992         2.73776        -5.22876
| 70>    N       -0.88768         2.25978        -5.00936
| 71>    C        0.29108         2.89359        -4.84681
| 72>    C        1.44434         2.18935        -4.67359
| 73>    C        2.67058         2.81705        -4.41162
| 74>    C        3.88084         2.24207        -4.12403
| 75>    C        5.09573         3.08808        -4.20246
| 76>    O        5.14069         4.29237        -4.30302
| 77>    C        6.23507         2.14238        -4.17720
| 78>    C        5.74824         0.83616        -4.00145
| 79>    C        6.63057        -0.23235        -3.99246
| 80>    C        7.98206         0.03650        -4.15186
| 81>    C        8.45713         1.33809        -4.31024
| 82>    C        7.58069         2.41140        -4.32645
| 83>    F        9.77089         1.55103        -4.45442
| 84>    F        8.84771        -0.98423        -4.15781
| 85>    C        4.29028         0.88781        -3.83828
| 86>    C        3.54387        -0.14450        -3.32582
| 87>    C        2.18976        -0.08961        -2.94199
| 88>    N        1.09646        -0.13774        -2.59072
| 89>    C        4.06194        -1.42533        -3.03623
| 90>    N        4.40083        -2.49522        -2.79478
| 91>    H       -2.73926       -14.62665         1.08382
| 92>    H        1.27032       -11.77919         1.91747
| 93>    H       -1.85189        -8.78396        -1.14392
| 94>    H       -5.33245       -11.44666        -4.08734
| 95>    H       -2.88360        -7.18959        -2.13756
| 96>    H       -4.62674        -6.48838        -4.42398
| 97>    H       -3.03762        -4.81986        -2.39493
| 98>    H       -9.25047        -5.96179        -5.22457
| 99>    H      -11.67478        -3.66584        -6.88608
|100>    H      -11.52879        -5.25413        -6.10428
|101>    H      -10.38291        -4.51952        -8.84888
|102>    H      -11.82151        -5.50484        -8.56408
|103>    H      -10.23211        -6.09618        -8.06923
|104>    H       -9.63608        -2.17770        -6.98504
|105>    H       -5.38243         0.26181        -5.50725
|106>    H       -2.49570         0.04085        -4.48177
|107>    H       -4.76813         4.57234        -6.06184
|108>    H       -0.85032         1.24989        -4.91169
|109>    H        0.28169         3.97365        -4.84066
|110>    H        1.40467         1.11225        -4.73306
|111>    H        2.69520         3.89878        -4.49362
|112>    H        6.31689        -1.25690        -3.87886
|113>    H        7.94227         3.41929        -4.45324
|114> *
|115>
|116>                          ****END OF INPUT****

CARTESIAN COORDINATES (ANGSTROEM)
---------------------------------
  C     -1.889990  -13.983920    1.250250
  C     -0.785410  -14.485810    1.922790
  F     -0.804860  -15.753630    2.344880
  C      0.342720  -13.700350    2.166320
  F      1.381200  -14.223610    2.826620
  C      0.399340  -12.386410    1.729090
  C     -0.694880  -11.888720    1.048900
  C     -1.840140  -12.671160    0.811380
  C     -2.839090  -11.847980    0.129810
  C     -4.187490  -12.086050    0.113430
  C     -5.128490  -11.095000   -0.235720
  N     -5.906480  -10.278850   -0.448730
  C     -4.782310  -13.287360    0.549220
  N     -5.307920  -14.255930    0.868470
  C     -2.183340  -10.619930   -0.257460
  C     -0.882070  -10.545880    0.455140
  O     -0.130030   -9.600400    0.493000
  C     -2.491790   -9.659420   -1.177320
  C     -3.424720   -9.705680   -2.230220
  O     -4.016140  -10.877850   -2.606600
  C     -4.786960  -10.635460   -3.643210
  C     -4.737060   -9.310320   -4.017140
  N     -5.436900   -8.854430   -5.171790
  O     -6.387220   -9.520650   -5.515880
  O     -5.018290   -7.885010   -5.767950
  C     -3.844040   -8.670220   -3.091330
  N     -3.493080   -7.376820   -2.926770
  C     -4.002340   -6.287590   -3.571630
  C     -3.741880   -5.023250   -3.192490
  C     -4.334480   -3.880890   -3.816430
  S     -3.415950   -2.407480   -3.816470
  C     -5.560460   -3.718420   -4.450330
  C     -6.654170   -4.716850   -4.455160
  O     -6.619870   -5.786480   -3.868900
  C     -7.813910   -4.273660   -5.205380
  C     -8.971550   -4.963040   -5.495900
  N     -9.778350   -4.161420   -6.229480
  C    -11.046070   -4.554810   -6.791610
  C    -10.857930   -5.211530   -8.157610
  C     -9.172400   -2.967770   -6.428370
  C     -7.942420   -2.989950   -5.805560
  C     -6.929160   -1.956730   -5.716160
  O     -7.053180   -0.848110   -6.211600
  C     -5.732560   -2.399770   -4.967820
  C     -4.653730   -1.564900   -4.707630
  C     -4.511500   -0.199220   -5.061760
  C     -3.375520    0.516570   -4.895230
  C     -3.271710    1.898470   -5.220190
  O     -4.376570    2.606770   -5.562070
  C     -4.020680    3.853940   -5.785970
  C     -2.662980    4.028010   -5.596990
  N     -2.059450    5.301020   -5.764360
  O     -2.739780    6.148050   -6.301380
  O     -0.928980    5.480720   -5.360060
  C     -2.149920    2.737760   -5.228760
  N     -0.887680    2.259780   -5.009360
  C      0.291080    2.893590   -4.846810
  C      1.444340    2.189350   -4.673590
  C      2.670580    2.817050   -4.411620
  C      3.880840    2.242070   -4.124030
  C      5.095730    3.088080   -4.202460
  O      5.140690    4.292370   -4.303020
  C      6.235070    2.142380   -4.177200
  C      5.748240    0.836160   -4.001450
  C      6.630570   -0.232350   -3.992460
  C      7.982060    0.036500   -4.151860
  C      8.457130    1.338090   -4.310240
  C      7.580690    2.411400   -4.326450
  F      9.770890    1.551030   -4.454420
  F      8.847710   -0.984230   -4.157810
  C      4.290280    0.887810   -3.838280
  C      3.543870   -0.144500   -3.325820
  C      2.189760   -0.089610   -2.941990
  N      1.096460   -0.137740   -2.590720
  C      4.061940   -1.425330   -3.036230
  N      4.400830   -2.495220   -2.794780
  H     -2.739260  -14.626650    1.083820
  H      1.270320  -11.779190    1.917470
  H     -1.851890   -8.783960   -1.143920
  H     -5.332450  -11.446660   -4.087340
  H     -2.883600   -7.189590   -2.137560
  H     -4.626740   -6.488380   -4.423980
  H     -3.037620   -4.819860   -2.394930
  H     -9.250470   -5.961790   -5.224570
  H    -11.674780   -3.665840   -6.886080
  H    -11.528790   -5.254130   -6.104280
  H    -10.382910   -4.519520   -8.848880
  H    -11.821510   -5.504840   -8.564080
  H    -10.232110   -6.096180   -8.069230
  H     -9.636080   -2.177700   -6.985040
  H     -5.382430    0.261810   -5.507250
  H     -2.495700    0.040850   -4.481770
  H     -4.768130    4.572340   -6.061840
  H     -0.850320    1.249890   -4.911690
  H      0.281690    3.973650   -4.840660
  H      1.404670    1.112250   -4.733060
  H      2.695200    3.898780   -4.493620
  H      6.316890   -1.256900   -3.878860
  H      7.942270    3.419290   -4.453240

 Total Charge           Charge          ....    0
 Multiplicity           Mult            ....    1
 Number of Electrons    NEL             ....  530
 Basis Dimension        Dim             .... 1183

ORBITAL ENERGIES
----------------

  NO   OCC          E(Eh)            E(eV)
   0   2.0000     -88.968807     -2420.9643
   1   2.0000     -24.805400      -674.9893
   2   2.0000     -24.805175      -674.9831
   3   2.0000     -24.795884      -674.7303
   4   2.0000     -24.794744      -674.6993
   5   2.0000     -19.341134      -526.2990
   6   2.0000     -19.335099      -526.1348
   7   2.0000     -19.264480      -524.2131
   8   2.0000     -19.263961      -524.1990
   9   2.0000     -19.262929      -524.1709
  10   2.0000     -19.260783      -524.1125
  11   2.0000     -19.225997      -523.1660
  12   2.0000     -19.208330      -522.6852
  13   2.0000     -19.200885      -522.4826
  14   2.0000     -19.197753      -522.3974
  15   2.0000     -14.676306      -399.3626
  16   2.0000     -14.675374      -399.3372
  17   2.0000     -14.497382      -394.4938
  18   2.0000     -14.496850      -394.4793
  19   2.0000     -14.488090      -394.2410
  20   2.0000     -14.423174      -392.4745
  21   2.0000     -14.420183      -392.3931
  22   2.0000     -14.415545      -392.2669
  23   2.0000     -14.411609      -392.1598
  24   2.0000     -10.392288      -282.7885
  25   2.0000     -10.391781      -282.7747
  26   2.0000     -10.390696      -282.7452
  27   2.0000     -10.384122      -282.5663
  28   2.0000     -10.380072      -282.4561
  29   2.0000     -10.379686      -282.4456
  30   2.0000     -10.377618      -282.3893
  31   2.0000     -10.376904      -282.3699
  32   2.0000     -10.366692      -282.0920
  33   2.0000     -10.364484      -282.0319
  34   2.0000     -10.361098      -281.9398
  35   2.0000     -10.361029      -281.9379
  36   2.0000     -10.360057      -281.9115
  37   2.0000     -10.359675      -281.9011
  38   2.0000     -10.357665      -281.8464
  39   2.0000     -10.352027      -281.6930
  40   2.0000     -10.351593      -281.6812
  41   2.0000     -10.350685      -281.6564
  42   2.0000     -10.349464      -281.6232
  43   2.0000     -10.340818      -281.3880
  44   2.0000     -10.338577      -281.3270
  45   2.0000     -10.338143      -281.3152
  46   2.0000     -10.333605      -281.1917
  47   2.0000     -10.329543      -281.0812
  48   2.0000     -10.326200      -280.9902
  49   2.0000     -10.325181      -280.9625
  50   2.0000     -10.323292      -280.9111
  51   2.0000     -10.323090      -280.9056
  52   2.0000     -10.320125      -280.8249
  53   2.0000     -10.317975      -280.7664
  54   2.0000     -10.315225      -280.6915
  55   2.0000     -10.314324      -280.6670
  56   2.0000     -10.313894      -280.6553
  57   2.0000     -10.312627      -280.6208
  58   2.0000     -10.312483      -280.6169
  59   2.0000     -10.311155      -280.5808
  60   2.0000     -10.310302      -280.5576
  61   2.0000     -10.308736      -280.5150
  62   2.0000     -10.307524      -280.4820
  63   2.0000     -10.304125      -280.3895
  64   2.0000     -10.302539      -280.3463
  65   2.0000     -10.302387      -280.3422
  66   2.0000     -10.295196      -280.1465
  67   2.0000     -10.292757      -280.0802
  68   2.0000     -10.290035      -280.0061
  69   2.0000     -10.285827      -279.8916
  70   2.0000     -10.284686      -279.8605
  71   2.0000     -10.283344      -279.8240
  72   2.0000     -10.282271      -279.7948
  73   2.0000     -10.281810      -279.7823
  74   2.0000     -10.268642      -279.4240
  75   2.0000     -10.267762      -279.4000
  76   2.0000      -8.064840      -219.4555
  77   2.0000      -6.033905      -164.1909
  78   2.0000      -6.029943      -164.0831
  79   2.0000      -6.027094      -164.0056
  80   2.0000      -1.347612       -36.6704
  81   2.0000      -1.346147       -36.6305
  82   2.0000      -1.329499       -36.1775
  83   2.0000      -1.318909       -35.8893
  84   2.0000      -1.314230       -35.7620
  85   2.0000      -1.303741       -35.4766
  86   2.0000      -1.265463       -34.4350
  87   2.0000      -1.258918       -34.2569
  88   2.0000      -1.165858       -31.7246
  89   2.0000      -1.164011       -31.6744
  90   2.0000      -1.141721       -31.0678
  91   2.0000      -1.124294       -30.5936
  92   2.0000      -1.119874       -30.4733
  93   2.0000      -1.115139       -30.3445
  94   2.0000      -1.107411       -30.1342
  95   2.0000      -1.096973       -29.8502
  96   2.0000      -1.095274       -29.8039
  97   2.0000      -1.028004       -27.9734
  98   2.0000      -1.017192       -27.6792
  99   2.0000      -1.008599       -27.4454
 100   2.0000      -1.000925       -27.2366
 101   2.0000      -0.999243       -27.1908
 102   2.0000      -0.998815       -27.1791
 103   2.0000      -0.992005       -26.9938
 104   2.0000      -0.970151       -26.3992
 105   2.0000      -0.966127       -26.2896
 106   2.0000      -0.966019       -26.2867
 107   2.0000      -0.951836       -25.9008
 108   2.0000      -0.939687       -25.5702
 109   2.0000      -0.937403       -25.5080
 110   2.0000      -0.933822       -25.4106
 111   2.0000      -0.913426       -24.8556
 112   2.0000      -0.908564       -24.7233
 113   2.0000      -0.899514       -24.4770
 114   2.0000      -0.894184       -24.3320
 115   2.0000      -0.884464       -24.0675
 116   2.0000      -0.880338       -23.9552
 117   2.0000      -0.875458       -23.8224
 118   2.0000      -0.868785       -23.6409
 119   2.0000      -0.860954       -23.4277
 120   2.0000      -0.843306       -22.9475
 121   2.0000      -0.840140       -22.8614
 122   2.0000      -0.837163       -22.7804
 123   2.0000      -0.834259       -22.7013
 124   2.0000      -0.830086       -22.5878
 125   2.0000      -0.809910       -22.0388
 126   2.0000      -0.803951       -21.8766
 127   2.0000      -0.790446       -21.5091
 128   2.0000      -0.778493       -21.1839
 129   2.0000      -0.768565       -20.9137
 130   2.0000      -0.767362       -20.8810
 131   2.0000      -0.764184       -20.7945
 132   2.0000      -0.760140       -20.6845
 133   2.0000      -0.751088       -20.4381
 134   2.0000      -0.742928       -20.2161
 135   2.0000      -0.729680       -19.8556
 136   2.0000      -0.728708       -19.8291
 137   2.0000      -0.714946       -19.4547
 138   2.0000      -0.712987       -19.4014
 139   2.0000      -0.711206       -19.3529
 140   2.0000      -0.700796       -19.0696
 141   2.0000      -0.696826       -18.9616
 142   2.0000      -0.690755       -18.7964
 143   2.0000      -0.683754       -18.6059
 144   2.0000      -0.682385       -18.5686
 145   2.0000      -0.679724       -18.4962
 146   2.0000      -0.671686       -18.2775
 147   2.0000      -0.664624       -18.0854
 148   2.0000      -0.657024       -17.8785
 149   2.0000      -0.656521       -17.8648
 150   2.0000      -0.654150       -17.8003
 151   2.0000      -0.651166       -17.7191
 152   2.0000      -0.649124       -17.6636
 153   2.0000      -0.647331       -17.6148
 154   2.0000      -0.646342       -17.5879
 155   2.0000      -0.642419       -17.4811
 156   2.0000      -0.636205       -17.3120
 157   2.0000      -0.635672       -17.2975
 158   2.0000      -0.627926       -17.0867
 159   2.0000      -0.624604       -16.9963
 160   2.0000      -0.619541       -16.8586
 161   2.0000      -0.615875       -16.7588
 162   2.0000      -0.611446       -16.6383
 163   2.0000      -0.609779       -16.5929
 164   2.0000      -0.608273       -16.5519
 165   2.0000      -0.605582       -16.4787
 166   2.0000      -0.604998       -16.4628
 167   2.0000      -0.600509       -16.3407
 168   2.0000      -0.595231       -16.1971
 169   2.0000      -0.594306       -16.1719
 170   2.0000      -0.593753       -16.1568
 171   2.0000      -0.590408       -16.0658
 172   2.0000      -0.586250       -15.9527
 173   2.0000      -0.583825       -15.8867
 174   2.0000      -0.582084       -15.8393
 175   2.0000      -0.579415       -15.7667
 176   2.0000      -0.571947       -15.5635
 177   2.0000      -0.568844       -15.4790
 178   2.0000      -0.567185       -15.4339
 179   2.0000      -0.559750       -15.2316
 180   2.0000      -0.557377       -15.1670
 181   2.0000      -0.554034       -15.0760
 182   2.0000      -0.552844       -15.0437
 183   2.0000      -0.547119       -14.8879
 184   2.0000      -0.546401       -14.8683
 185   2.0000      -0.544051       -14.8044
 186   2.0000      -0.544020       -14.8035
 187   2.0000      -0.542979       -14.7752
 188   2.0000      -0.540092       -14.6967
 189   2.0000      -0.534714       -14.5503
 190   2.0000      -0.533080       -14.5058
 191   2.0000      -0.530676       -14.4404
 192   2.0000      -0.527659       -14.3583
 193   2.0000      -0.523345       -14.2410
 194   2.0000      -0.521921       -14.2022
 195   2.0000      -0.520114       -14.1530
 196   2.0000      -0.518267       -14.1028
 197   2.0000      -0.517851       -14.0915
 198   2.0000      -0.513941       -13.9850
 199   2.0000      -0.512759       -13.9529
 200   2.0000      -0.511673       -13.9233
 201   2.0000      -0.509474       -13.8635
 202   2.0000      -0.505373       -13.7519
 203   2.0000      -0.504247       -13.7212
 204   2.0000      -0.500719       -13.6253
 205   2.0000      -0.496961       -13.5230
 206   2.0000      -0.493930       -13.4405
 207   2.0000      -0.492949       -13.4138
 208   2.0000      -0.489251       -13.3132
 209   2.0000      -0.488559       -13.2944
 210   2.0000      -0.487613       -13.2686
 211   2.0000      -0.485136       -13.2012
 212   2.0000      -0.483255       -13.1500
 213   2.0000      -0.476610       -12.9692
 214   2.0000      -0.474286       -12.9060
 215   2.0000      -0.471812       -12.8387
 216   2.0000      -0.466290       -12.6884
 217   2.0000      -0.464549       -12.6410
 218   2.0000      -0.461746       -12.5647
 219   2.0000      -0.459368       -12.5000
 220   2.0000      -0.455284       -12.3889
 221   2.0000      -0.455138       -12.3849
 222   2.0000      -0.454535       -12.3685
 223   2.0000      -0.450965       -12.2714
 224   2.0000      -0.450874       -12.2689
 225   2.0000      -0.450126       -12.2486
 226   2.0000      -0.447699       -12.1825
 227   2.0000      -0.445330       -12.1181
 228   2.0000      -0.440272       -11.9804
 229   2.0000      -0.438402       -11.9295
 230   2.0000      -0.433226       -11.7887
 231   2.0000      -0.432308       -11.7637
 232   2.0000      -0.431123       -11.7314
 233   2.0000      -0.428369       -11.6565
 234   2.0000      -0.425379       -11.5751
 235   2.0000      -0.422169       -11.4878
 236   2.0000      -0.419517       -11.4156
 237   2.0000      -0.416641       -11.3374
 238   2.0000      -0.409670       -11.1477
 239   2.0000      -0.409177       -11.1343
 240   2.0000      -0.405582       -11.0364
 241   2.0000      -0.403428       -10.9778
 242   2.0000      -0.402346       -10.9484
 243   2.0000      -0.400531       -10.8990
 244   2.0000      -0.396869       -10.7994
 245   2.0000      -0.392824       -10.6893
 246   2.0000      -0.387082       -10.5330
 247   2.0000      -0.381637       -10.3849
 248   2.0000      -0.368003       -10.0139
 249   2.0000      -0.358059        -9.7433
 250   2.0000      -0.355244        -9.6667
 251   2.0000      -0.349262        -9.5039
 252   2.0000      -0.343532        -9.3480
 253   2.0000      -0.339562        -9.2399
 254   2.0000      -0.334310        -9.0970
 255   2.0000      -0.332182        -9.0391
 256   2.0000      -0.329595        -8.9687
 257   2.0000      -0.324416        -8.8278
 258   2.0000      -0.323139        -8.7931
 259   2.0000      -0.315333        -8.5806
 260   2.0000      -0.310439        -8.4475
 261   2.0000      -0.303482        -8.2582
 262   2.0000      -0.294492        -8.0135
 263   2.0000      -0.271470        -7.3871
 264   2.0000      -0.247063        -6.7229
 265   0.0000      -0.099658        -2.7118
 266   0.0000      -0.083990        -2.2855
 267   0.0000      -0.068645        -1.8679
 268   0.0000      -0.064274        -1.7490
 269   0.0000      -0.059681        -1.6240

MULLIKEN ATOMIC CHARGES
-----------------------
   0 C :   -0.092200
   1 C :    0.238499
   2 F :   -0.163153
   3 C :    0.234591
   4 F :   -0.167176
   5 C :   -0.101513
   6 C :    0.007370
   7 C :    0.028941
   8 C :    0.256054
   9 C :   -0.314401
  10 C :   -0.201980
  11 N :    0.158282
  12 C :   -0.176531
  13 N :    0.156732
  14 C :   -0.130039
  15 C :    0.136425
  16 O :   -0.141459
  17 C :   -0.023776
  18 C :    0.069809
  19 O :   -0.163499
  20 C :    0.144712
  21 C :    0.064081
  22 N :    0.285188
  23 O :   -0.231240
  24 O :   -0.228816
  25 C :    0.085468
  26 N :    0.023042
  27 C :    0.113047
  28 C :   -0.015638
  29 C :   -0.139092
  30 S :    0.135399
  31 C :    0.003442
  32 C :    0.131365
  33 O :   -0.190216
  34 C :   -0.005935
  35 C :    0.010170
  36 N :   -0.133180
  37 C :    0.088743
  38 C :    0.000842
  39 C :    0.007583
  40 C :   -0.015386
  41 C :    0.137828
  42 O :   -0.178033
  43 C :    0.019100
  44 C :   -0.147549
  45 C :    0.017006
  46 C :   -0.085848
  47 C :    0.096561
  48 O :   -0.142534
  49 C :    0.109432
  50 C :    0.067676
  51 N :    0.283380
  52 O :   -0.231560
  53 O :   -0.241092
  54 C :    0.035242
  55 N :    0.020627
  56 C :    0.068598
  57 C :   -0.019070
  58 C :    0.023815
  59 C :   -0.132822
  60 C :    0.134526
  61 O :   -0.147969
  62 C :    0.002373
  63 C :    0.025065
  64 C :   -0.088744
  65 C :    0.232949
  66 C :    0.231939
  67 C :   -0.101264
  68 F :   -0.171559
  69 F :   -0.168903
  70 C :    0.306359
  71 C :   -0.360019
  72 C :   -0.204446
  73 N :    0.140596
  74 C :   -0.186807
  75 N :    0.145636
  76 H :    0.018916
  77 H :    0.015147
  78 H :    0.013766
  79 H :    0.043298
  80 H :    0.137306
  81 H :    0.045019
  82 H :   -0.010495
  83 H :    0.009114
  84 H :    0.033658
  85 H :    0.036061
  86 H :    0.029866
  87 H :    0.030457
  88 H :    0.034383
  89 H :    0.005337
  90 H :    0.032824
  91 H :    0.010091
  92 H :    0.036021
  93 H :    0.143128
  94 H :    0.052913
  95 H :    0.004138
  96 H :    0.019606
  97 H :    0.014415
  98 H :    0.009981
Sum of atomic charges:   -0.0000000

LOEWDIN ATOMIC CHARGES
----------------------
   0 C :   -0.020936
   1 C :    0.075353
   2 F :   -0.041506
   3 C :    0.069657
   4 F :   -0.043906
   5 C :   -0.003631
   6 C :   -0.047626
   7 C :   -0.011111
   8 C :    0.067872
   9 C :   -0.133153
  10 C :   -0.024022
  11 N :   -0.055599
  12 C :   -0.022853
  13 N :   -0.045794
  14 C :   -0.098424
  15 C :    0.082637
  16 O :   -0.141597
  17 C :    0.039600
  18 C :   -0.028059
  19 O :    0.058742
  20 C :    0.125972
  21 C :   -0.094531
  22 N :    0.293156
  23 O :   -0.191261
  24 O :   -0.188864
  25 C :    0.048663
  26 N :    0.072185
  27 C :    0.074535
  28 C :   -0.116609
  29 C :   -0.113603
  30 S :    0.454038
  31 C :   -0.104173
  32 C :    0.082905
  33 O :   -0.174905
  34 C :   -0.100035
  35 C :    0.032661
  36 N :    0.090693
  37 C :    0.044132
  38 C :   -0.057169
  39 C :    0.030323
  40 C :   -0.102632
  41 C :    0.081789
  42 O :   -0.169836
  43 C :   -0.076528
  44 C :   -0.144519
  45 C :   -0.012767
  46 C :   -0.062935
  47 C :    0.006937
  48 O :    0.063831
  49 C :    0.092895
  50 C :   -0.100701
  51 N :    0.292439
  52 O :   -0.192910
  53 O :   -0.201062
  54 C :   -0.011367
  55 N :    0.073448
  56 C :    0.094890
  57 C :   -0.100859
  58 C :    0.078969
  59 C :   -0.127860
  60 C :    0.080323
  61 O :   -0.147729
  62 C :   -0.045086
  63 C :   -0.013599
  64 C :   -0.022042
  65 C :    0.071190
  66 C :    0.068009
  67 C :   -0.007081
  68 F :   -0.047789
  69 F :   -0.046602
  70 C :    0.076934
  71 C :   -0.153983
  72 C :   -0.015396
  73 N :   -0.075499
  74 C :   -0.021635
  75 N :   -0.058657
  76 H :    0.051694
  77 H :    0.053413
  78 H :    0.047167
  79 H :    0.046491
  80 H :    0.099234
  81 H :    0.025488
  82 H :    0.025508
  83 H :    0.030536
  84 H :    0.033576
  85 H :    0.034444
  86 H :    0.030417
  87 H :    0.033089
  88 H :    0.031933
  89 H :    0.028961
  90 H :    0.042028
  91 H :    0.025873
  92 H :    0.042296
  93 H :    0.102277
  94 H :    0.034496
  95 H :    0.026797
  96 H :    0.046493
  97 H :    0.050101
  98 H :    0.051351

  Mayer bond orders larger than 0.100000
B(  0-C ,  1-C ) :   1.3339 B(  0-C ,  5-C ) :   0.1042 B(  0-C ,  7-C ) :   1.3209
B(  0-C , 76-H ) :   0.9942 B(  1-C ,  2-F ) :   1.1437 B(  1-C ,  3-C ) :   1.2901
B(  3-C ,  4-F ) :   1.1321 B(  3-C ,  5-C ) :   1.3207 B(  5-C ,  6-C ) :   1.3248
B(  5-C , 77-H ) :   1.0194 B(  6-C ,  7-C ) :   1.3401 B(  6-C , 15-C ) :   0.9352
B(  7-C ,  8-C ) :   1.0163 B(  8-C ,  9-C ) :   1.6668 B(  8-C , 14-C ) :   1.0444
B(  9-C , 10-C ) :   1.1634 B(  9-C , 12-C ) :   1.1243 B( 10-C , 11-N ) :   3.0032
B( 12-C , 13-N ) :   2.9937 B( 14-C , 15-C ) :   0.9508 B( 14-C , 17-C ) :   1.6243
B( 15-C , 16-O ) :   2.2571 B( 17-C , 18-C ) :   1.1768 B( 17-C , 78-H ) :   0.9315
B( 18-C , 19-O ) :   1.0629 B( 18-C , 25-C ) :   1.3136 B( 19-O , 20-C ) :   1.2349
B( 20-C , 21-C ) :   1.4536 B( 20-C , 79-H ) :   1.0077 B( 21-C , 22-N ) :   0.9138
B( 21-C , 25-C ) :   1.2453 B( 22-N , 23-O ) :   1.5534 B( 22-N , 24-O ) :   1.5040
B( 23-O , 24-O ) :   0.2618 B( 25-C , 26-N ) :   1.2833 B( 26-N , 27-C ) :   1.1376
B( 26-N , 80-H ) :   0.8939 B( 27-C , 28-C ) :   1.6923 B( 27-C , 81-H ) :   0.9313
B( 28-C , 29-C ) :   1.1181 B( 28-C , 82-H ) :   0.9457 B( 29-C , 30-S ) :   1.1456
B( 29-C , 31-C ) :   1.5009 B( 30-S , 44-C ) :   1.1047 B( 31-C , 32-C ) :   0.9454
B( 31-C , 43-C ) :   1.1827 B( 32-C , 33-O ) :   2.1910 B( 32-C , 34-C ) :   0.9919
B( 34-C , 35-C ) :   1.4244 B( 34-C , 40-C ) :   1.2899 B( 35-C , 36-N ) :   1.2339
B( 35-C , 83-H ) :   0.9933 B( 36-N , 37-C ) :   0.9499 B( 36-N , 39-C ) :   1.2374
B( 37-C , 38-C ) :   1.1125 B( 37-C , 84-H ) :   0.9509 B( 37-C , 85-H ) :   0.9512
B( 38-C , 86-H ) :   0.9674 B( 38-C , 87-H ) :   0.9679 B( 38-C , 88-H ) :   0.9674
B( 39-C , 40-C ) :   1.4202 B( 39-C , 89-H ) :   0.9937 B( 40-C , 41-C ) :   1.0000
B( 41-C , 42-O ) :   2.1784 B( 41-C , 43-C ) :   0.9433 B( 43-C , 44-C ) :   1.4978
B( 44-C , 45-C ) :   1.1595 B( 45-C , 46-C ) :   1.6247 B( 45-C , 90-H ) :   0.9631
B( 46-C , 47-C ) :   1.1471 B( 46-C , 91-H ) :   0.9540 B( 47-C , 48-O ) :   1.1178
B( 47-C , 54-C ) :   1.3870 B( 48-O , 49-C ) :   1.2275 B( 49-C , 50-C ) :   1.4452
B( 49-C , 92-H ) :   1.0096 B( 50-C , 51-N ) :   0.9292 B( 50-C , 54-C ) :   1.2387
B( 51-N , 52-O ) :   1.5601 B( 51-N , 53-O ) :   1.4956 B( 52-O , 53-O ) :   0.2607
B( 54-C , 55-N ) :   1.1795 B( 55-N , 56-C ) :   1.2339 B( 55-N , 93-H ) :   0.8904
B( 56-C , 57-C ) :   1.5170 B( 56-C , 94-H ) :   0.9547 B( 57-C , 58-C ) :   1.2324
B( 57-C , 95-H ) :   0.9523 B( 58-C , 59-C ) :   1.5376 B( 58-C , 96-H ) :   0.9511
B( 59-C , 60-C ) :   0.9644 B( 59-C , 70-C ) :   1.0731 B( 60-C , 61-O ) :   2.2553
B( 60-C , 62-C ) :   0.9287 B( 62-C , 63-C ) :   1.3464 B( 62-C , 67-C ) :   1.3302
B( 63-C , 64-C ) :   1.3165 B( 63-C , 70-C ) :   1.0107 B( 64-C , 65-C ) :   1.3362
B( 64-C , 67-C ) :   0.1043 B( 64-C , 97-H ) :   0.9923 B( 65-C , 66-C ) :   1.2956
B( 65-C , 69-F ) :   1.1399 B( 66-C , 67-C ) :   1.3135 B( 66-C , 68-F ) :   1.1284
B( 67-C , 98-H ) :   1.0206 B( 70-C , 71-C ) :   1.6064 B( 71-C , 72-C ) :   1.1749
B( 71-C , 74-C ) :   1.1254 B( 72-C , 73-N ) :   2.9978 B( 74-C , 75-N ) :   2.9865

-----------------------------------------------------------------------------
         ABSORPTION SPECTRUM VIA TRANSITION ELECTRIC DIPOLE MOMENTS
-----------------------------------------------------------------------------
State   Energy  Wavelength   fosc         T2         TX        TY        TZ
        (cm-1)    (nm)                  (au**2)     (au)      (au)      (au)
-----------------------------------------------------------------------------
   0   18032.6    554.6   0.816713330  14.91035  -0.80484  -3.41278   1.61726
   1   20048.8    498.8   0.851898649  13.98865   3.48775  -0.45050   1.27331
   2   23320.6    428.8   0.279183939   3.94118  -0.15918   1.97431  -0.13400
   3   23701.1    421.9   0.040892428   0.56800  -0.47465  -0.57015   0.13279
   4   24632.9    406.0   0.356275100   4.76151   0.96650   1.89818  -0.47359
   5   24872.1    402.1   0.029161967   0.38599   0.21072   0.17155   0.55872
   6   25776.5    387.9   0.264543617   3.37869   1.07729  -1.07140   1.03452
   7   26882.6    372.0   0.109087494   1.33592  -1.15501   0.02891  -0.03200
   8   27366.5    365.4   0.033265041   0.40017  -0.03450  -0.61606  -0.13948
   9   28718.3    348.2   0.225893178   2.58953  -1.40887   0.77586  -0.05143
  10   29113.9    343.5   0.017643247   0.19950   0.12018  -0.18147   0.39004
  11   29649.8    337.3   0.045468251   0.50485   0.10366   0.69562  -0.10110
  12   29999.3    333.3   0.189529643   2.07990   0.90965  -0.70349   0.87037
  13   30814.6    324.5   0.069189204   0.73919  -0.56357  -0.61971   0.19374
  14   31169.7    320.8   0.036588442   0.38644  -0.22684   0.57840  -0.02102
  15   31464.5    317.8   0.054883128   0.57424   0.68586  -0.10008   0.30629
  16   31862.2    313.9   0.141213296   1.45907   0.11068   1.06794  -0.55347
  17   31929.5    313.2   0.186958213   1.92765  -1.38647  -0.07215   0.01254
  18   31990.1    312.6   0.003681368   0.03789   0.02507  -0.16029   0.10753
  19   32208.5    310.5   0.023785041   0.24311  -0.47670   0.04438  -0.11792
  20   32545.7    307.3   0.001132506   0.01146   0.06397   0.08547  -0.00762
  21   32801.3    304.9   0.133409839   1.33898   0.95119  -0.18584   0.63219
  22   33000.0    303.0   0.122907276   1.22614  -0.68468  -0.82069   0.28952
  23   33089.8    302.2   0.053746869   0.53473   0.03971  -0.56169   0.46654
  24   33522.7    298.3   0.227520849   2.23439   1.43124  -0.42281   0.08467
  25   34132.3    293.0   0.044786001   0.43197   0.62236   0.03642   0.20812
  26   34359.8    291.0   0.026810606   0.25688  -0.01439  -0.50454  -0.04596
  27   35094.4    284.9   0.035243555   0.33061   0.14594  -0.20990  -0.51503
  28   35234.1    283.8   0.046998576   0.43913  -0.62659   0.20950  -0.05132
  29   35789.7    279.4   0.066326323   0.61010   0.74589  -0.23095  -0.02037
  30   35840.6    279.0   0.011210806   0.10298   0.27369  -0.09380   0.13881
  31   36186.9    276.3   0.062828674   0.57159  -0.59560   0.25821  -0.38753
  32   36394.1    274.8   0.219879589   1.98898   1.30310  -0.07164   0.53459
  33   36500.3    274.0   0.044036955   0.39719   0.58530  -0.15161   0.17785
  34   36846.4    271.4   0.021137466   0.18886   0.22339  -0.01132  -0.37259
  35   36951.3    270.6   0.208617121   1.85864   1.27645   0.02464   0.47823
  36   37057.3    269.9   0.080448962   0.71470  -0.82021  -0.15606  -0.13264
  37   37208.3    268.8   0.320748846   2.83792   1.55812   0.62012   0.16009
  38   37498.6    266.7   0.219863224   1.93025   1.17022   0.64022  -0.38852
  39   37607.7    265.9   0.017706303   0.15500   0.37113   0.03350   0.12705
  40   37761.1    264.8   0.001904254   0.01660  -0.02028  -0.04447  -0.11922
  41   37989.4    263.2   0.024926284   0.21601   0.28341   0.33859  -0.14506
  42   38302.3    261.1   0.083533580   0.71798  -0.80126  -0.12114  -0.24756
  43   38577.4    259.2   0.054951265   0.46894   0.21944  -0.42305   0.49175
  44   38637.1    258.8   0.009181391   0.07823   0.27034   0.03783   0.06097
  45   39086.0    255.8   0.026796956   0.22570   0.06645   0.43897  -0.16909
  46   39246.3    254.8   0.262731442   2.20388   0.75764   1.27278  -0.09945
  47   39472.1    253.3   0.003393760   0.02831   0.00673  -0.15997   0.05165
  48   39652.4    252.2   0.060673146   0.50374   0.11411  -0.68245   0.15805
  49   40131.4    249.2   0.010453685   0.08576   0.24608   0.13397   0.08516
  50   40319.3    248.0   0.012458597   0.10173  -0.11878   0.13091  -0.26548

FINAL SINGLE POINT ENERGY     -4033.098073459037

DIPOLE MOMENT
-------------
                                X             Y             Z
Electronic contribution:     66.97294     -26.05891      33.98726
Nuclear contribution   :    -69.81290      25.61209     -36.18133
                        -----------------------------------------
Total Dipole Moment    :     -2.83996      -0.44682      -2.19406
                        -----------------------------------------
Magnitude (a.u.)       :      3.61648
Magnitude (Debye)      :      9.19236

Rotational constants in cm-1:     0.000694     0.000353     0.000243
Rotational constants in MHz :    20.792470    10.596147     7.274593

                             ****ORCA TERMINATED NORMALLY****
TOTAL RUN TIME: 0 days 0 hours 14 minutes 25 seconds 835 msec
