                         Program Version 4.2.0 -  RELEASE  -
|  1> # ORCA input file
|  2> # SCF done       -184.230889759103          0.000886279212
|  3> ! CAM-B3LYP def2-SVP def2/J RIJCOSX Grid4 TightSCF
|  4> %maxcore 5000
|  5> %tddft
|  6>     Mode sTDDFT
|  7>     Ethresh 5.0
|  8>     maxcore 5000
|  9> end
| 10>
| 11> %pal
| 12>   nprocs 6
| 13>   end
| 14> * xyz 0 1
| 15>    C        5.32899         2.04228        -5.93250
| 16>    C        6.67559         2.29162        -5.68388
| 17>    F        7.31964         3.18517        -6.44631
| 18>    C        7.36110         1.63780        -4.66597
| 19>    F        8.65928         1.90320        -4.45819
| 20>    C        6.71812         0.71217        -3.85373
| 21>    C        5.38134         0.47434        -4.09171
| 22>    C        4.68228         1.12658        -5.12802
| 23>    C        3.30449         0.61697        -5.13668
| 24>    C        2.35273         0.87360        -6.09726
| 25>    C        2.54285         1.75568        -7.17842
| 26>    N        2.63375         2.47852        -8.06603
| 27>    C        1.09646         0.24402        -6.14816
| 28>    N        0.06964        -0.26608        -6.25429
| 29>    C        3.18126        -0.25589        -4.01286
| 30>    C        4.44454        -0.41075        -3.38393
| 31>    O        4.74168        -1.20217        -2.44974
| 32>    C        2.13631        -1.16615        -3.73405
| 33>    C        2.10675        -1.91636        -2.61323
| 34>    C        1.47344        -3.19267        -2.42936
| 35>    C        2.34387        -4.02669        -1.59929
| 36>    C        3.31814        -3.32846        -0.96975
| 37>    S        3.12323        -1.59378        -1.17705
| 38>    O        1.81258        -1.54447        -0.08752
| 39>    O        2.24755        -5.34836        -1.53750
| 40>    C        0.29085        -3.49802        -3.04815
| 41>    C       -0.48769        -4.65450        -2.90020
| 42>    C       -1.51492        -5.03648        -3.73690
| 43>    S       -2.19458        -6.64560        -3.49080
| 44>    C       -2.90640        -6.64124        -5.08600
| 45>    C       -2.78787        -5.35986        -5.67372
| 46>    C       -2.04523        -4.46943        -4.92842
| 47>    C       -1.85254        -3.04306        -5.34350
| 48>    C       -2.89810        -2.59480        -6.37685
| 49>    C       -4.17595        -2.39605        -5.73234
| 50>    N       -5.18666        -2.26272        -5.21623
| 51>    C       -3.05049        -3.65191        -7.49011
| 52>    C       -1.77258        -3.86811        -8.12421
| 53>    N       -0.75406        -4.05652        -8.60643
| 54>    C       -3.56840        -4.96819        -6.89362
| 55>    C       -3.40905        -7.80408        -5.65328
| 56>    C       -3.17128        -8.32317        -6.95473
| 57>    C       -3.83580        -9.59410        -7.10891
| 58>    C       -4.44650       -10.04336        -5.97102
| 59>    S       -4.24092        -8.98049        -4.63413
| 60>    O       -5.66389        -8.08606        -4.54451
| 61>    O       -3.85215       -10.32798        -8.21874
| 62>    C       -2.13098        -7.79022        -7.72146
| 63>    C       -1.54756        -8.19366        -8.90764
| 64>    C       -0.36269        -7.64715        -9.39286
| 65>    C        0.55446        -6.76842        -8.82912
| 66>    C        1.39768        -6.00812        -9.78326
| 67>    O        1.51830        -6.20783       -10.97055
| 68>    C        2.04951        -4.94580        -8.97982
| 69>    C        1.71787        -5.13638        -7.62961
| 70>    C        2.16526        -4.23866        -6.67667
| 71>    C        2.94410        -3.17395        -7.10742
| 72>    C        3.26984        -2.99322        -8.44654
| 73>    C        2.82102        -3.88762        -9.40762
| 74>    F        4.02312        -1.94256        -8.80446
| 75>    F        3.39417        -2.28912        -6.19833
| 76>    C        0.89149        -6.34572        -7.51023
| 77>    C        0.71175        -7.01363        -6.30626
| 78>    C        0.14798        -8.29622        -6.18593
| 79>    N       -0.28753        -9.34665        -6.01823
| 80>    C        1.13282        -6.53890        -5.06509
| 81>    N        1.40483        -6.19441        -3.99694
| 82>    H        4.84158         2.56582        -6.73884
| 83>    H        7.25528         0.20407        -3.06943
| 84>    H        1.44040        -1.39409        -4.52766
| 85>    H        4.07307        -3.71765        -0.32034
| 86>    H        1.70008        -0.65994         0.26796
| 87>    H        1.81914        -5.70848        -2.35092
| 88>    H       -0.07584        -2.73120        -3.70962
| 89>    H       -0.26623        -5.32596        -2.08253
| 90>    H       -0.86011        -2.91213        -5.78828
| 91>    H       -1.92954        -2.38674        -4.47371
| 92>    H       -2.57624        -1.63715        -6.80325
| 93>    H       -3.75140        -3.29387        -8.25390
| 94>    H       -3.54684        -5.75517        -7.64876
| 95>    H       -4.61410        -4.83154        -6.59534
| 96>    H       -4.89818       -11.00600        -5.85102
| 97>    H       -6.21196        -8.33678        -3.79376
| 98>    H       -3.31553        -9.91490        -8.90823
| 99>    H       -1.65502        -6.92958        -7.26947
|100>    H       -2.01111        -8.92818        -9.55338
|101>    H       -0.12950        -7.87244       -10.42959
|102>    H        1.93124        -4.31912        -5.62750
|103>    H        3.06597        -3.74954       -10.44830
|104> *
|105>
|106>                          ****END OF INPUT****

CARTESIAN COORDINATES (ANGSTROEM)
---------------------------------
  C      5.328990    2.042280   -5.932500
  C      6.675590    2.291620   -5.683880
  F      7.319640    3.185170   -6.446310
  C      7.361100    1.637800   -4.665970
  F      8.659280    1.903200   -4.458190
  C      6.718120    0.712170   -3.853730
  C      5.381340    0.474340   -4.091710
  C      4.682280    1.126580   -5.128020
  C      3.304490    0.616970   -5.136680
  C      2.352730    0.873600   -6.097260
  C      2.542850    1.755680   -7.178420
  N      2.633750    2.478520   -8.066030
  C      1.096460    0.244020   -6.148160
  N      0.069640   -0.266080   -6.254290
  C      3.181260   -0.255890   -4.012860
  C      4.444540   -0.410750   -3.383930
  O      4.741680   -1.202170   -2.449740
  C      2.136310   -1.166150   -3.734050
  C      2.106750   -1.916360   -2.613230
  C      1.473440   -3.192670   -2.429360
  C      2.343870   -4.026690   -1.599290
  C      3.318140   -3.328460   -0.969750
  S      3.123230   -1.593780   -1.177050
  O      1.812580   -1.544470   -0.087520
  O      2.247550   -5.348360   -1.537500
  C      0.290850   -3.498020   -3.048150
  C     -0.487690   -4.654500   -2.900200
  C     -1.514920   -5.036480   -3.736900
  S     -2.194580   -6.645600   -3.490800
  C     -2.906400   -6.641240   -5.086000
  C     -2.787870   -5.359860   -5.673720
  C     -2.045230   -4.469430   -4.928420
  C     -1.852540   -3.043060   -5.343500
  C     -2.898100   -2.594800   -6.376850
  C     -4.175950   -2.396050   -5.732340
  N     -5.186660   -2.262720   -5.216230
  C     -3.050490   -3.651910   -7.490110
  C     -1.772580   -3.868110   -8.124210
  N     -0.754060   -4.056520   -8.606430
  C     -3.568400   -4.968190   -6.893620
  C     -3.409050   -7.804080   -5.653280
  C     -3.171280   -8.323170   -6.954730
  C     -3.835800   -9.594100   -7.108910
  C     -4.446500  -10.043360   -5.971020
  S     -4.240920   -8.980490   -4.634130
  O     -5.663890   -8.086060   -4.544510
  O     -3.852150  -10.327980   -8.218740
  C     -2.130980   -7.790220   -7.721460
  C     -1.547560   -8.193660   -8.907640
  C     -0.362690   -7.647150   -9.392860
  C      0.554460   -6.768420   -8.829120
  C      1.397680   -6.008120   -9.783260
  O      1.518300   -6.207830  -10.970550
  C      2.049510   -4.945800   -8.979820
  C      1.717870   -5.136380   -7.629610
  C      2.165260   -4.238660   -6.676670
  C      2.944100   -3.173950   -7.107420
  C      3.269840   -2.993220   -8.446540
  C      2.821020   -3.887620   -9.407620
  F      4.023120   -1.942560   -8.804460
  F      3.394170   -2.289120   -6.198330
  C      0.891490   -6.345720   -7.510230
  C      0.711750   -7.013630   -6.306260
  C      0.147980   -8.296220   -6.185930
  N     -0.287530   -9.346650   -6.018230
  C      1.132820   -6.538900   -5.065090
  N      1.404830   -6.194410   -3.996940
  H      4.841580    2.565820   -6.738840
  H      7.255280    0.204070   -3.069430
  H      1.440400   -1.394090   -4.527660
  H      4.073070   -3.717650   -0.320340
  H      1.700080   -0.659940    0.267960
  H      1.819140   -5.708480   -2.350920
  H     -0.075840   -2.731200   -3.709620
  H     -0.266230   -5.325960   -2.082530
  H     -0.860110   -2.912130   -5.788280
  H     -1.929540   -2.386740   -4.473710
  H     -2.576240   -1.637150   -6.803250
  H     -3.751400   -3.293870   -8.253900
  H     -3.546840   -5.755170   -7.648760
  H     -4.614100   -4.831540   -6.595340
  H     -4.898180  -11.006000   -5.851020
  H     -6.211960   -8.336780   -3.793760
  H     -3.315530   -9.914900   -8.908230
  H     -1.655020   -6.929580   -7.269470
  H     -2.011110   -8.928180   -9.553380
  H     -0.129500   -7.872440  -10.429590
  H      1.931240   -4.319120   -5.627500
  H      3.065970   -3.749540  -10.448300

 Total Charge           Charge          ....    0
 Multiplicity           Mult            ....    1
 Number of Electrons    NEL             ....  484
 Basis Dimension        Dim             .... 1060

ORBITAL ENERGIES
----------------

  NO   OCC          E(Eh)            E(eV)
   0   2.0000     -89.089478     -2424.2480
   1   2.0000     -89.076037     -2423.8822
   2   2.0000     -88.967555     -2420.9302
   3   2.0000     -24.797070      -674.7626
   4   2.0000     -24.788834      -674.5385
   5   2.0000     -24.787826      -674.5110
   6   2.0000     -24.787240      -674.4951
   7   2.0000     -19.291847      -524.9579
   8   2.0000     -19.277006      -524.5540
   9   2.0000     -19.252933      -523.8989
  10   2.0000     -19.237996      -523.4925
  11   2.0000     -19.225818      -523.1611
  12   2.0000     -19.200356      -522.4683
  13   2.0000     -14.427226      -392.5848
  14   2.0000     -14.425128      -392.5277
  15   2.0000     -14.418903      -392.3583
  16   2.0000     -14.414094      -392.2274
  17   2.0000     -14.406561      -392.0225
  18   2.0000     -14.399027      -391.8175
  19   2.0000     -10.388909      -282.6966
  20   2.0000     -10.372862      -282.2599
  21   2.0000     -10.371768      -282.2302
  22   2.0000     -10.371107      -282.2122
  23   2.0000     -10.370936      -282.2075
  24   2.0000     -10.370755      -282.2026
  25   2.0000     -10.362184      -281.9694
  26   2.0000     -10.350098      -281.6405
  27   2.0000     -10.348068      -281.5852
  28   2.0000     -10.343511      -281.4612
  29   2.0000     -10.341509      -281.4068
  30   2.0000     -10.338610      -281.3279
  31   2.0000     -10.332829      -281.1706
  32   2.0000     -10.329086      -281.0687
  33   2.0000     -10.328785      -281.0605
  34   2.0000     -10.328063      -281.0409
  35   2.0000     -10.325755      -280.9781
  36   2.0000     -10.324382      -280.9407
  37   2.0000     -10.323619      -280.9199
  38   2.0000     -10.320475      -280.8344
  39   2.0000     -10.320109      -280.8244
  40   2.0000     -10.317285      -280.7476
  41   2.0000     -10.315519      -280.6995
  42   2.0000     -10.312678      -280.6222
  43   2.0000     -10.311627      -280.5936
  44   2.0000     -10.311433      -280.5884
  45   2.0000     -10.311189      -280.5817
  46   2.0000     -10.309618      -280.5390
  47   2.0000     -10.309308      -280.5305
  48   2.0000     -10.307720      -280.4873
  49   2.0000     -10.303797      -280.3806
  50   2.0000     -10.303385      -280.3694
  51   2.0000     -10.301383      -280.3149
  52   2.0000     -10.301343      -280.3138
  53   2.0000     -10.300508      -280.2911
  54   2.0000     -10.300307      -280.2856
  55   2.0000     -10.299774      -280.2711
  56   2.0000     -10.299328      -280.2590
  57   2.0000     -10.297942      -280.2213
  58   2.0000     -10.297705      -280.2148
  59   2.0000     -10.297427      -280.2072
  60   2.0000     -10.295456      -280.1536
  61   2.0000     -10.293096      -280.0894
  62   2.0000     -10.292811      -280.0816
  63   2.0000     -10.284578      -279.8576
  64   2.0000     -10.284147      -279.8459
  65   2.0000     -10.274132      -279.5733
  66   2.0000     -10.269383      -279.4441
  67   2.0000      -8.173802      -222.4205
  68   2.0000      -8.156613      -221.9527
  69   2.0000      -8.063957      -219.4314
  70   2.0000      -6.144588      -167.2027
  71   2.0000      -6.140223      -167.0840
  72   2.0000      -6.135293      -166.9498
  73   2.0000      -6.128866      -166.7749
  74   2.0000      -6.122135      -166.5918
  75   2.0000      -6.117636      -166.4693
  76   2.0000      -6.033717      -164.1858
  77   2.0000      -6.029707      -164.0767
  78   2.0000      -6.024694      -163.9403
  79   2.0000      -1.314450       -35.7680
  80   2.0000      -1.310956       -35.6729
  81   2.0000      -1.297617       -35.3099
  82   2.0000      -1.295894       -35.2631
  83   2.0000      -1.191591       -32.4248
  84   2.0000      -1.162757       -31.6402
  85   2.0000      -1.158062       -31.5125
  86   2.0000      -1.137702       -30.9585
  87   2.0000      -1.122998       -30.5583
  88   2.0000      -1.115438       -30.3526
  89   2.0000      -1.032432       -28.0939
  90   2.0000      -1.020768       -27.7765
  91   2.0000      -1.017075       -27.6760
  92   2.0000      -1.010420       -27.4949
  93   2.0000      -1.007790       -27.4234
  94   2.0000      -1.000582       -27.2272
  95   2.0000      -0.995671       -27.0936
  96   2.0000      -0.994916       -27.0730
  97   2.0000      -0.990717       -26.9588
  98   2.0000      -0.989261       -26.9192
  99   2.0000      -0.982584       -26.7375
 100   2.0000      -0.963820       -26.2269
 101   2.0000      -0.945517       -25.7288
 102   2.0000      -0.944357       -25.6973
 103   2.0000      -0.930233       -25.3129
 104   2.0000      -0.921928       -25.0869
 105   2.0000      -0.901512       -24.5314
 106   2.0000      -0.894904       -24.3516
 107   2.0000      -0.892984       -24.2993
 108   2.0000      -0.883243       -24.0343
 109   2.0000      -0.878675       -23.9100
 110   2.0000      -0.876149       -23.8412
 111   2.0000      -0.871197       -23.7065
 112   2.0000      -0.862385       -23.4667
 113   2.0000      -0.861669       -23.4472
 114   2.0000      -0.847395       -23.0588
 115   2.0000      -0.829827       -22.5808
 116   2.0000      -0.823210       -22.4007
 117   2.0000      -0.807011       -21.9599
 118   2.0000      -0.784919       -21.3587
 119   2.0000      -0.783453       -21.3188
 120   2.0000      -0.766946       -20.8697
 121   2.0000      -0.765393       -20.8274
 122   2.0000      -0.763250       -20.7691
 123   2.0000      -0.757506       -20.6128
 124   2.0000      -0.742614       -20.2076
 125   2.0000      -0.732080       -19.9209
 126   2.0000      -0.723411       -19.6850
 127   2.0000      -0.714672       -19.4472
 128   2.0000      -0.703643       -19.1471
 129   2.0000      -0.702644       -19.1199
 130   2.0000      -0.697114       -18.9694
 131   2.0000      -0.686039       -18.6681
 132   2.0000      -0.685365       -18.6497
 133   2.0000      -0.679693       -18.4954
 134   2.0000      -0.672439       -18.2980
 135   2.0000      -0.668776       -18.1983
 136   2.0000      -0.658382       -17.9155
 137   2.0000      -0.654627       -17.8133
 138   2.0000      -0.652089       -17.7442
 139   2.0000      -0.641961       -17.4686
 140   2.0000      -0.640905       -17.4399
 141   2.0000      -0.635750       -17.2996
 142   2.0000      -0.631455       -17.1828
 143   2.0000      -0.628775       -17.1098
 144   2.0000      -0.622655       -16.9433
 145   2.0000      -0.616551       -16.7772
 146   2.0000      -0.613809       -16.7026
 147   2.0000      -0.609388       -16.5823
 148   2.0000      -0.606055       -16.4916
 149   2.0000      -0.603106       -16.4114
 150   2.0000      -0.596909       -16.2427
 151   2.0000      -0.588714       -16.0197
 152   2.0000      -0.585413       -15.9299
 153   2.0000      -0.583121       -15.8675
 154   2.0000      -0.579524       -15.7696
 155   2.0000      -0.577899       -15.7254
 156   2.0000      -0.576548       -15.6887
 157   2.0000      -0.569508       -15.4971
 158   2.0000      -0.564448       -15.3594
 159   2.0000      -0.559000       -15.2112
 160   2.0000      -0.556406       -15.1406
 161   2.0000      -0.555861       -15.1257
 162   2.0000      -0.550537       -14.9809
 163   2.0000      -0.548646       -14.9294
 164   2.0000      -0.542708       -14.7678
 165   2.0000      -0.542357       -14.7583
 166   2.0000      -0.540147       -14.6981
 167   2.0000      -0.539041       -14.6680
 168   2.0000      -0.538315       -14.6483
 169   2.0000      -0.536724       -14.6050
 170   2.0000      -0.536286       -14.5931
 171   2.0000      -0.529523       -14.4090
 172   2.0000      -0.529478       -14.4078
 173   2.0000      -0.527378       -14.3507
 174   2.0000      -0.525449       -14.2982
 175   2.0000      -0.524050       -14.2601
 176   2.0000      -0.521472       -14.1900
 177   2.0000      -0.516764       -14.0619
 178   2.0000      -0.515972       -14.0403
 179   2.0000      -0.512481       -13.9453
 180   2.0000      -0.511852       -13.9282
 181   2.0000      -0.507679       -13.8147
 182   2.0000      -0.503579       -13.7031
 183   2.0000      -0.500687       -13.6244
 184   2.0000      -0.497620       -13.5409
 185   2.0000      -0.492894       -13.4123
 186   2.0000      -0.488700       -13.2982
 187   2.0000      -0.487332       -13.2610
 188   2.0000      -0.485964       -13.2238
 189   2.0000      -0.484401       -13.1812
 190   2.0000      -0.481002       -13.0887
 191   2.0000      -0.479711       -13.0536
 192   2.0000      -0.478309       -13.0154
 193   2.0000      -0.475703       -12.9445
 194   2.0000      -0.468154       -12.7391
 195   2.0000      -0.461653       -12.5622
 196   2.0000      -0.459719       -12.5096
 197   2.0000      -0.457555       -12.4507
 198   2.0000      -0.456014       -12.4088
 199   2.0000      -0.453715       -12.3462
 200   2.0000      -0.452116       -12.3027
 201   2.0000      -0.451462       -12.2849
 202   2.0000      -0.450957       -12.2712
 203   2.0000      -0.446506       -12.1500
 204   2.0000      -0.445580       -12.1248
 205   2.0000      -0.443125       -12.0580
 206   2.0000      -0.442662       -12.0454
 207   2.0000      -0.438401       -11.9295
 208   2.0000      -0.437868       -11.9150
 209   2.0000      -0.436704       -11.8833
 210   2.0000      -0.433079       -11.7847
 211   2.0000      -0.432052       -11.7567
 212   2.0000      -0.430251       -11.7077
 213   2.0000      -0.426880       -11.6160
 214   2.0000      -0.425246       -11.5715
 215   2.0000      -0.423157       -11.5147
 216   2.0000      -0.420691       -11.4476
 217   2.0000      -0.419593       -11.4177
 218   2.0000      -0.417104       -11.3500
 219   2.0000      -0.414917       -11.2905
 220   2.0000      -0.410223       -11.1627
 221   2.0000      -0.407437       -11.0869
 222   2.0000      -0.402784       -10.9603
 223   2.0000      -0.402504       -10.9527
 224   2.0000      -0.399195       -10.8627
 225   2.0000      -0.394006       -10.7215
 226   2.0000      -0.384197       -10.4545
 227   2.0000      -0.375622       -10.2212
 228   2.0000      -0.372260       -10.1297
 229   2.0000      -0.350670        -9.5422
 230   2.0000      -0.344173        -9.3654
 231   2.0000      -0.340352        -9.2614
 232   2.0000      -0.336481        -9.1561
 233   2.0000      -0.332954        -9.0601
 234   2.0000      -0.330674        -8.9981
 235   2.0000      -0.324612        -8.8331
 236   2.0000      -0.315734        -8.5916
 237   2.0000      -0.307252        -8.3608
 238   2.0000      -0.302931        -8.2432
 239   2.0000      -0.274918        -7.4809
 240   2.0000      -0.255639        -6.9563
 241   2.0000      -0.225342        -6.1319
 242   0.0000      -0.103013        -2.8031
 243   0.0000      -0.077996        -2.1224
 244   0.0000      -0.067188        -1.8283
 245   0.0000      -0.046694        -1.2706
 246   0.0000      -0.036446        -0.9917

MULLIKEN ATOMIC CHARGES
-----------------------
   0 C :   -0.097874
   1 C :    0.232820
   2 F :   -0.171394
   3 C :    0.227237
   4 F :   -0.177465
   5 C :   -0.115016
   6 C :    0.030531
   7 C :    0.040658
   8 C :    0.302829
   9 C :   -0.365060
  10 C :   -0.193211
  11 N :    0.143141
  12 C :   -0.184209
  13 N :    0.111154
  14 C :   -0.177808
  15 C :    0.196251
  16 O :   -0.317171
  17 C :    0.053771
  18 C :   -0.177337
  19 C :    0.150205
  20 C :    0.228528
  21 C :   -0.110913
  22 S :    0.530474
  23 O :   -0.401193
  24 O :   -0.177874
  25 C :   -0.074041
  26 C :    0.072839
  27 C :   -0.130340
  28 S :    0.118847
  29 C :   -0.101636
  30 C :   -0.058488
  31 C :   -0.073578
  32 C :    0.104229
  33 C :   -0.034651
  34 C :   -0.261303
  35 N :    0.148145
  36 C :   -0.075301
  37 C :   -0.230521
  38 N :    0.145334
  39 C :    0.151457
  40 C :   -0.227173
  41 C :    0.127569
  42 C :    0.163888
  43 C :   -0.173615
  44 S :    0.506785
  45 O :   -0.368336
  46 O :   -0.126225
  47 C :   -0.017782
  48 C :   -0.030103
  49 C :    0.025491
  50 C :   -0.141856
  51 C :    0.134962
  52 O :   -0.151724
  53 C :    0.053365
  54 C :    0.041066
  55 C :   -0.108615
  56 C :    0.235205
  57 C :    0.239316
  58 C :   -0.114249
  59 F :   -0.174468
  60 F :   -0.177710
  61 C :    0.289328
  62 C :   -0.407386
  63 C :   -0.218347
  64 N :    0.157073
  65 C :   -0.098919
  66 N :    0.085682
  67 H :    0.013778
  68 H :    0.001119
  69 H :    0.006533
  70 H :    0.027507
  71 H :    0.185170
  72 H :    0.187029
  73 H :   -0.019705
  74 H :   -0.001327
  75 H :    0.075325
  76 H :    0.071812
  77 H :    0.068744
  78 H :    0.058261
  79 H :    0.043206
  80 H :    0.063611
  81 H :    0.023433
  82 H :    0.195689
  83 H :    0.194126
  84 H :    0.042395
  85 H :   -0.053801
  86 H :    0.016238
  87 H :   -0.010946
  88 H :    0.006516
Sum of atomic charges:   -0.0000000

LOEWDIN ATOMIC CHARGES
----------------------
   0 C :   -0.017754
   1 C :    0.066539
   2 F :   -0.049503
   3 C :    0.063313
   4 F :   -0.053377
   5 C :   -0.014191
   6 C :   -0.035856
   7 C :   -0.009746
   8 C :    0.086131
   9 C :   -0.170863
  10 C :   -0.023651
  11 N :   -0.067790
  12 C :    0.002130
  13 N :   -0.102753
  14 C :   -0.171746
  15 C :    0.089973
  16 O :   -0.251850
  17 C :    0.019285
  18 C :   -0.190615
  19 C :   -0.038122
  20 C :    0.082940
  21 C :   -0.218539
  22 S :    0.941684
  23 O :   -0.303423
  24 O :   -0.024143
  25 C :   -0.027593
  26 C :   -0.024828
  27 C :   -0.147107
  28 S :    0.394680
  29 C :   -0.150483
  30 C :   -0.054742
  31 C :   -0.021756
  32 C :   -0.008423
  33 C :   -0.028498
  34 C :   -0.035437
  35 N :   -0.053181
  36 C :   -0.033118
  37 C :   -0.019736
  38 N :   -0.044472
  39 C :   -0.004850
  40 C :   -0.211150
  41 C :   -0.137504
  42 C :    0.105012
  43 C :   -0.302866
  44 S :    0.892641
  45 O :   -0.272899
  46 O :    0.005076
  47 C :    0.033628
  48 C :   -0.103708
  49 C :    0.061531
  50 C :   -0.126516
  51 C :    0.089793
  52 O :   -0.147991
  53 C :   -0.031547
  54 C :   -0.007707
  55 C :   -0.037310
  56 C :    0.067097
  57 C :    0.068133
  58 C :   -0.003065
  59 F :   -0.051227
  60 F :   -0.049693
  61 C :    0.073465
  62 C :   -0.192839
  63 C :   -0.017060
  64 N :   -0.072296
  65 C :    0.044034
  66 N :   -0.088768
  67 H :    0.050926
  68 H :    0.047881
  69 H :    0.037624
  70 H :    0.031990
  71 H :    0.062244
  72 H :    0.052694
  73 H :    0.035124
  74 H :    0.030908
  75 H :    0.048307
  76 H :    0.049767
  77 H :    0.069548
  78 H :    0.064762
  79 H :    0.042873
  80 H :    0.053428
  81 H :    0.029439
  82 H :    0.071756
  83 H :    0.096328
  84 H :    0.040655
  85 H :    0.015453
  86 H :    0.042854
  87 H :    0.039974
  88 H :    0.050673

  Mayer bond orders larger than 0.100000
B(  0-C ,  1-C ) :   1.2931 B(  0-C ,  7-C ) :   1.3547 B(  0-C , 67-H ) :   0.9963
B(  1-C ,  2-F ) :   1.1370 B(  1-C ,  3-C ) :   1.3292 B(  3-C ,  4-F ) :   1.1205
B(  3-C ,  5-C ) :   1.2852 B(  5-C ,  6-C ) :   1.3350 B(  5-C , 68-H ) :   1.0234
B(  6-C ,  7-C ) :   1.3373 B(  6-C , 15-C ) :   1.0041 B(  7-C ,  8-C ) :   0.9853
B(  8-C ,  9-C ) :   1.5762 B(  8-C , 14-C ) :   1.1689 B(  9-C , 10-C ) :   1.1415
B(  9-C , 12-C ) :   1.1645 B( 10-C , 11-N ) :   2.9818 B( 12-C , 13-N ) :   2.9561
B( 14-C , 15-C ) :   1.2007 B( 14-C , 17-C ) :   1.1743 B( 15-C , 16-O ) :   1.7463
B( 16-O , 22-S ) :   0.2573 B( 17-C , 18-C ) :   1.7090 B( 17-C , 69-H ) :   0.9343
B( 18-C , 19-C ) :   0.9649 B( 18-C , 22-S ) :   0.9503 B( 19-C , 20-C ) :   1.0031
B( 19-C , 25-C ) :   1.6573 B( 20-C , 21-C ) :   1.6114 B( 20-C , 24-O ) :   1.3198
B( 21-C , 22-S ) :   0.9948 B( 21-C , 70-H ) :   0.9756 B( 22-S , 23-O ) :   0.8403
B( 23-O , 71-H ) :   0.9674 B( 24-O , 72-H ) :   0.8858 B( 25-C , 26-C ) :   1.1786
B( 25-C , 73-H ) :   0.9471 B( 26-C , 27-C ) :   1.5585 B( 26-C , 74-H ) :   0.9360
B( 27-C , 28-S ) :   1.0340 B( 27-C , 31-C ) :   1.1924 B( 28-S , 29-C ) :   1.1002
B( 29-C , 30-C ) :   1.2384 B( 29-C , 40-C ) :   1.4444 B( 30-C , 31-C ) :   1.5772
B( 30-C , 39-C ) :   1.0366 B( 31-C , 32-C ) :   1.0273 B( 32-C , 33-C ) :   1.0457
B( 32-C , 75-H ) :   0.8935 B( 32-C , 76-H ) :   0.9081 B( 33-C , 34-C ) :   1.1116
B( 33-C , 36-C ) :   1.0837 B( 33-C , 77-H ) :   0.8432 B( 34-C , 35-N ) :   3.1034
B( 36-C , 37-C ) :   1.1169 B( 36-C , 39-C ) :   1.0592 B( 36-C , 78-H ) :   0.8523
B( 37-C , 38-N ) :   3.0435 B( 39-C , 79-H ) :   0.9055 B( 39-C , 80-H ) :   0.9041
B( 40-C , 41-C ) :   1.1590 B( 40-C , 44-S ) :   1.0283 B( 41-C , 42-C ) :   1.0888
B( 41-C , 47-C ) :   1.3846 B( 42-C , 43-C ) :   1.5133 B( 42-C , 46-O ) :   1.3198
B( 43-C , 44-S ) :   1.0969 B( 43-C , 81-H ) :   0.9643 B( 44-S , 45-O ) :   0.8756
B( 45-O , 82-H ) :   0.9537 B( 46-O , 83-H ) :   0.9572 B( 47-C , 48-C ) :   1.3483
B( 47-C , 84-H ) :   0.9393 B( 48-C , 49-C ) :   1.4135 B( 48-C , 85-H ) :   0.9481
B( 49-C , 50-C ) :   1.4122 B( 49-C , 86-H ) :   0.9257 B( 50-C , 51-C ) :   0.9749
B( 50-C , 61-C ) :   1.1789 B( 51-C , 52-O ) :   2.2484 B( 51-C , 53-C ) :   0.9245
B( 53-C , 54-C ) :   1.3507 B( 53-C , 58-C ) :   1.3398 B( 54-C , 55-C ) :   1.3286
B( 54-C , 61-C ) :   1.0056 B( 55-C , 56-C ) :   1.3242 B( 55-C , 58-C ) :   0.1052
B( 55-C , 87-H ) :   0.9938 B( 56-C , 57-C ) :   1.3235 B( 56-C , 60-F ) :   1.0852
B( 57-C , 58-C ) :   1.2970 B( 57-C , 59-F ) :   1.1275 B( 58-C , 88-H ) :   1.0219
B( 61-C , 62-C ) :   1.4731 B( 62-C , 63-C ) :   1.1873 B( 62-C , 65-C ) :   1.2087
B( 63-C , 64-N ) :   2.9864 B( 65-C , 66-N ) :   2.7969 B( 66-N , 72-H ) :   0.1710

-----------------------------------------------------------------------------
         ABSORPTION SPECTRUM VIA TRANSITION ELECTRIC DIPOLE MOMENTS
-----------------------------------------------------------------------------
State   Energy  Wavelength   fosc         T2         TX        TY        TZ
        (cm-1)    (nm)                  (au**2)     (au)      (au)      (au)
-----------------------------------------------------------------------------
   0   10349.7    966.2   0.295982810   9.41483  -0.83486  -2.34570  -1.79319
   1   15082.2    663.0   0.208558390   4.55237  -1.82906  -1.08042   0.19904
   2   17266.3    579.2   0.538720362  10.27166   2.57509   1.88262  -0.31037
   3   19322.0    517.5   0.066425619   1.13177   0.73427  -0.19495   0.74472
   4   20772.2    481.4   0.029373606   0.46553  -0.15263   0.02215  -0.66464
   5   21590.5    463.2   0.292763916   4.46406  -1.82721  -1.01081  -0.32191
   6   22722.3    440.1   0.145797662   2.11239   0.03262  -0.01738   1.45294
   7   24248.6    412.4   0.170546050   2.31542  -1.34165  -0.67351  -0.24858
   8   24982.6    400.3   0.015826526   0.20856  -0.00256  -0.28643   0.35568
   9   26788.7    373.3   0.172304273   2.11748   0.91205   1.03504   0.46297
  10   26905.6    371.7   0.014504710   0.17748   0.07529   0.12409   0.39549
  11   27963.0    357.6   0.106690794   1.25608   0.11606   0.51432  -0.98898
  12   28956.6    345.3   0.080697542   0.91746  -0.03107   0.05174  -0.95594
  13   29659.0    337.2   0.078228945   0.86833   0.89253   0.22136  -0.15073
  14   30152.3    331.6   0.082470251   0.90043  -0.47881  -0.49613   0.65194
  15   30695.9    325.8   0.040216115   0.43132   0.01603  -0.00774  -0.65650
  16   30802.5    324.6   0.121715055   1.30087   0.84892   0.68853  -0.32576
  17   31035.2    322.2   0.025189899   0.26721   0.31105   0.18521  -0.36899
  18   31160.5    320.9   0.054471681   0.57550   0.59781   0.40306   0.23592
  19   31570.3    316.8   0.002307293   0.02406  -0.12251  -0.01838  -0.09335
  20   31890.6    313.6   0.020385868   0.21045   0.23159   0.09840   0.38357
  21   32119.3    311.3   0.125911043   1.29054   0.50855   0.66632  -0.76677
  22   32213.5    310.4   0.155233303   1.58644   0.96364   0.71660  -0.37990
  23   32828.5    304.6   0.119122737   1.19459  -0.54426  -0.86339  -0.39106
  24   33103.6    302.1   0.001808919   0.01799  -0.00692  -0.12997   0.03240
  25   33670.8    297.0   0.329759102   3.22418  -1.16796   0.42721  -1.29520
  26   34215.4    292.3   0.117476369   1.13033   0.28315   0.42805  -0.93109
  27   34271.6    291.8   0.228103058   2.19115   1.44548   0.31367  -0.05780
  28   34474.5    290.1   0.086366488   0.82475   0.20391   0.55707  -0.68764
  29   34713.3    288.1   0.041820611   0.39662   0.06332  -0.00584   0.62656
  30   35173.2    284.3   0.028208483   0.26402  -0.16651  -0.40586   0.26753
  31   35354.4    282.9   0.009329995   0.08688   0.09222  -0.00657  -0.27988
  32   35625.7    280.7   0.053102082   0.49071  -0.47131   0.15486  -0.49457
  33   35810.5    279.2   0.021795745   0.20037  -0.41944   0.15613  -0.00820
  34   35984.7    277.9   0.002452216   0.02243  -0.05147  -0.05687   0.12865
  35   36432.6    274.5   0.014955689   0.13514  -0.01014   0.16166  -0.33001
  36   36687.1    272.6   0.009891759   0.08876   0.16782   0.20130   0.14170
  37   37221.0    268.7   0.061572087   0.54459   0.50648   0.53536  -0.03810
  38   37283.3    268.2   0.167862964   1.48223   0.54579  -0.70532   0.82877
  39   37662.1    265.5   0.005080593   0.04441   0.15816  -0.00562   0.13916
  40   38062.8    262.7   0.042121382   0.36431   0.06673  -0.08572  -0.59373
  41   38424.0    260.3   0.068701839   0.58863   0.04205  -0.63312  -0.43130
  42   38635.5    258.8   0.073274281   0.62437   0.50571   0.59551  -0.11832
  43   38850.7    257.4   0.008121441   0.06882  -0.14561  -0.21331   0.04598
  44   39196.0    255.1   0.139727411   1.17359  -0.17404   0.03273   1.06875
  45   39555.3    252.8   0.016146342   0.13438   0.03936   0.35458  -0.08430
  46   39652.4    252.2   0.006359455   0.05280  -0.08155   0.03718  -0.21158
  47   39972.5    250.2   0.026458800   0.21791  -0.43650   0.06167  -0.15357
  48   40316.8    248.0   0.003814517   0.03115   0.12952   0.02334   0.11759

FINAL SINGLE POINT ENERGY     -4211.735713929172

DIPOLE MOMENT
-------------
                                X             Y             Z
Electronic contribution:     41.63518      27.42496       0.99810
Nuclear contribution   :    -44.52576     -29.81039       1.51438
                        -----------------------------------------
Total Dipole Moment    :     -2.89058      -2.38543       2.51248
                        -----------------------------------------
Magnitude (a.u.)       :      4.51202
Magnitude (Debye)      :     11.46864

Rotational constants in cm-1:     0.002048     0.000713     0.000646
Rotational constants in MHz :    61.405039    21.383651    19.367652

                             ****ORCA TERMINATED NORMALLY****
TOTAL RUN TIME: 0 days 0 hours 12 minutes 39 seconds 732 msec
