                         Program Version 4.2.0 -  RELEASE  -
|  1> # ORCA input file
|  2> # SCF done       -214.995109876903          0.000670705458
|  3> ! CAM-B3LYP def2-SVP def2/J RIJCOSX Grid4 TightSCF
|  4> %maxcore 5000
|  5> %tddft
|  6>     Mode sTDDFT
|  7>     Ethresh 5.0
|  8>     maxcore 5000
|  9> end
| 10>
| 11> %pal
| 12>   nprocs 6
| 13>   end
| 14> * xyz 0 1
| 15>    C       -5.27258        -2.51448         0.10068
| 16>    C       -5.80328        -2.03654         1.28926
| 17>    F       -6.63846        -0.99209         1.25162
| 18>    C       -5.48604        -2.61383         2.51952
| 19>    F       -6.02342        -2.11917         3.64137
| 20>    C       -4.61843        -3.69123         2.58990
| 21>    C       -4.08915        -4.16522         1.40577
| 22>    C       -4.40457        -3.59413         0.16368
| 23>    C       -3.68929        -4.32589        -0.88031
| 24>    C       -3.86338        -4.14159        -2.22689
| 25>    C       -4.71496        -3.16384        -2.78518
| 26>    N       -5.38473        -2.38868        -3.30259
| 27>    C       -3.26914        -4.90861        -3.25276
| 28>    N       -2.85896        -5.48834        -4.15513
| 29>    C       -2.85096        -5.32158        -0.23449
| 30>    C       -3.13190        -5.28156         1.22034
| 31>    O       -2.66998        -5.95861         2.11056
| 32>    C       -1.88005        -6.03611        -0.88885
| 33>    C       -1.04816        -7.09336        -0.46641
| 34>    C        0.02815        -7.52857        -1.22527
| 35>    C        0.65964        -8.61868        -0.56068
| 36>    C       -0.13517        -8.83523         0.64418
| 37>    C       -1.13792        -7.94482         0.71961
| 38>    F        0.13109        -9.80500         1.53138
| 39>    C        1.79113        -9.31071        -0.93687
| 40>    C        2.42391       -10.38910        -0.27647
| 41>    C        3.56674       -10.74260        -0.96653
| 42>    C        3.68405        -9.86606        -2.13973
| 43>    C        2.63156        -9.03849        -2.11748
| 44>    F        2.35886        -8.08331        -3.00883
| 45>    C        4.46630       -11.76140        -0.58305
| 46>    C        5.63723       -12.02686        -1.21738
| 47>    N        6.50600       -13.01319        -0.90109
| 48>    C        6.33432       -13.98241         0.16250
| 49>    C        6.67786       -13.39040         1.52855
| 50>    C        6.57310       -14.44412         2.63179
| 51>    N        7.09021       -13.86728         3.85851
| 52>    S        8.72676       -14.37706         3.99225
| 53>    N        8.40403       -15.93140         3.32951
| 54>    C        7.42641       -15.72359         2.27870
| 55>    C        8.19176       -15.53342         0.96850
| 56>    C        7.26578       -15.17051        -0.19322
| 57>    N        8.02770       -14.76755        -1.36423
| 58>    S        8.10404       -13.06633        -1.47103
| 59>    C        8.87187       -15.60234        -2.01477
| 60>    C        9.82805       -15.18198        -2.87855
| 61>    C       10.70334       -16.02733        -3.59471
| 62>    C       11.73769       -15.61209        -4.40847
| 63>    C       12.42405       -16.74386        -4.91019
| 64>    C       11.70948       -17.90341        -4.35086
| 65>    C       10.69892       -17.49574        -3.57219
| 66>    F       12.05056       -19.17185        -4.59973
| 67>    C       13.54167       -16.78711        -5.71621
| 68>    C       14.25127       -17.92902        -6.18344
| 69>    C       15.34545       -17.51309        -6.92118
| 70>    C       15.34195       -16.04967        -6.95479
| 71>    C       14.27597       -15.64010        -6.24871
| 72>    F       13.90876       -14.37060        -6.03298
| 73>    C       16.29612       -18.36544        -7.51774
| 74>    C       17.42820       -17.95238        -8.16252
| 75>    C       18.34048       -18.86318        -8.72029
| 76>    C       19.49530       -18.59935        -9.40845
| 77>    C       20.50416       -19.67715        -9.55540
| 78>    O       20.34856       -20.85689        -9.33942
| 79>    C       21.74986       -18.98942        -9.96657
| 80>    C       21.48527       -17.62215       -10.15855
| 81>    C       22.51272       -16.76055       -10.50694
| 82>    C       23.78440       -17.29305       -10.66056
| 83>    C       24.03577       -18.65351       -10.48179
| 84>    C       23.01384       -19.52058       -10.12952
| 85>    F       25.27810       -19.12440       -10.64645
| 86>    F       24.79340       -16.47634       -10.98419
| 87>    C       20.05373       -17.38322        -9.95060
| 88>    C       19.37577       -16.27828       -10.39682
| 89>    C       17.97082       -16.15959       -10.45284
| 90>    N       16.83906       -16.00958       -10.57194
| 91>    C       20.00299       -15.14800       -10.96248
| 92>    N       20.45868       -14.19490       -11.41095
| 93>    H       -5.54646        -2.03002        -0.82194
| 94>    H       -4.36729        -4.14000         3.53774
| 95>    H       -1.68837        -5.73961        -1.91443
| 96>    H        0.34644        -7.10509        -2.15848
| 97>    H       -1.86995        -7.85444         1.49502
| 98>    H        2.07333       -10.84621         0.62748
| 99>    H        4.46103        -9.89826        -2.87711
|100>    H        4.17356       -12.33810         0.28236
|101>    H        5.95558       -11.43261        -2.06102
|102>    H        5.28926       -14.30926         0.15288
|103>    H        5.99864       -12.57015         1.76042
|104>    H        7.68909       -12.98207         1.52324
|105>    H        5.52309       -14.71963         2.77191
|106>    H        6.55548       -14.13084         4.67945
|107>    H        8.08778       -16.57718         4.04596
|108>    H        6.77921       -16.60236         2.20108
|109>    H        8.72699       -16.45618         0.74278
|110>    H        8.94026       -14.75307         1.11387
|111>    H        6.66663       -16.04565        -0.47278
|112>    H        8.71851       -16.64975        -1.80203
|113>    H        9.95869       -14.11582        -3.01991
|114>    H       11.99413       -14.59317        -4.61978
|115>    H       10.00792       -18.11747        -3.03850
|116>    H       13.98639       -18.94794        -5.97801
|117>    H       16.04599       -15.43177        -7.47506
|118>    H       16.09564       -19.42810        -7.45240
|119>    H       17.64739       -16.89786        -8.21307
|120>    H       18.16950       -19.91634        -8.51912
|121>    H       22.37074       -15.70219       -10.65231
|122>    H       23.20537       -20.57219        -9.98766
|123> *
|124>
|125>                          ****END OF INPUT****

CARTESIAN COORDINATES (ANGSTROEM)
---------------------------------
  C     -5.272580   -2.514480    0.100680
  C     -5.803280   -2.036540    1.289260
  F     -6.638460   -0.992090    1.251620
  C     -5.486040   -2.613830    2.519520
  F     -6.023420   -2.119170    3.641370
  C     -4.618430   -3.691230    2.589900
  C     -4.089150   -4.165220    1.405770
  C     -4.404570   -3.594130    0.163680
  C     -3.689290   -4.325890   -0.880310
  C     -3.863380   -4.141590   -2.226890
  C     -4.714960   -3.163840   -2.785180
  N     -5.384730   -2.388680   -3.302590
  C     -3.269140   -4.908610   -3.252760
  N     -2.858960   -5.488340   -4.155130
  C     -2.850960   -5.321580   -0.234490
  C     -3.131900   -5.281560    1.220340
  O     -2.669980   -5.958610    2.110560
  C     -1.880050   -6.036110   -0.888850
  C     -1.048160   -7.093360   -0.466410
  C      0.028150   -7.528570   -1.225270
  C      0.659640   -8.618680   -0.560680
  C     -0.135170   -8.835230    0.644180
  C     -1.137920   -7.944820    0.719610
  F      0.131090   -9.805000    1.531380
  C      1.791130   -9.310710   -0.936870
  C      2.423910  -10.389100   -0.276470
  C      3.566740  -10.742600   -0.966530
  C      3.684050   -9.866060   -2.139730
  C      2.631560   -9.038490   -2.117480
  F      2.358860   -8.083310   -3.008830
  C      4.466300  -11.761400   -0.583050
  C      5.637230  -12.026860   -1.217380
  N      6.506000  -13.013190   -0.901090
  C      6.334320  -13.982410    0.162500
  C      6.677860  -13.390400    1.528550
  C      6.573100  -14.444120    2.631790
  N      7.090210  -13.867280    3.858510
  S      8.726760  -14.377060    3.992250
  N      8.404030  -15.931400    3.329510
  C      7.426410  -15.723590    2.278700
  C      8.191760  -15.533420    0.968500
  C      7.265780  -15.170510   -0.193220
  N      8.027700  -14.767550   -1.364230
  S      8.104040  -13.066330   -1.471030
  C      8.871870  -15.602340   -2.014770
  C      9.828050  -15.181980   -2.878550
  C     10.703340  -16.027330   -3.594710
  C     11.737690  -15.612090   -4.408470
  C     12.424050  -16.743860   -4.910190
  C     11.709480  -17.903410   -4.350860
  C     10.698920  -17.495740   -3.572190
  F     12.050560  -19.171850   -4.599730
  C     13.541670  -16.787110   -5.716210
  C     14.251270  -17.929020   -6.183440
  C     15.345450  -17.513090   -6.921180
  C     15.341950  -16.049670   -6.954790
  C     14.275970  -15.640100   -6.248710
  F     13.908760  -14.370600   -6.032980
  C     16.296120  -18.365440   -7.517740
  C     17.428200  -17.952380   -8.162520
  C     18.340480  -18.863180   -8.720290
  C     19.495300  -18.599350   -9.408450
  C     20.504160  -19.677150   -9.555400
  O     20.348560  -20.856890   -9.339420
  C     21.749860  -18.989420   -9.966570
  C     21.485270  -17.622150  -10.158550
  C     22.512720  -16.760550  -10.506940
  C     23.784400  -17.293050  -10.660560
  C     24.035770  -18.653510  -10.481790
  C     23.013840  -19.520580  -10.129520
  F     25.278100  -19.124400  -10.646450
  F     24.793400  -16.476340  -10.984190
  C     20.053730  -17.383220   -9.950600
  C     19.375770  -16.278280  -10.396820
  C     17.970820  -16.159590  -10.452840
  N     16.839060  -16.009580  -10.571940
  C     20.002990  -15.148000  -10.962480
  N     20.458680  -14.194900  -11.410950
  H     -5.546460   -2.030020   -0.821940
  H     -4.367290   -4.140000    3.537740
  H     -1.688370   -5.739610   -1.914430
  H      0.346440   -7.105090   -2.158480
  H     -1.869950   -7.854440    1.495020
  H      2.073330  -10.846210    0.627480
  H      4.461030   -9.898260   -2.877110
  H      4.173560  -12.338100    0.282360
  H      5.955580  -11.432610   -2.061020
  H      5.289260  -14.309260    0.152880
  H      5.998640  -12.570150    1.760420
  H      7.689090  -12.982070    1.523240
  H      5.523090  -14.719630    2.771910
  H      6.555480  -14.130840    4.679450
  H      8.087780  -16.577180    4.045960
  H      6.779210  -16.602360    2.201080
  H      8.726990  -16.456180    0.742780
  H      8.940260  -14.753070    1.113870
  H      6.666630  -16.045650   -0.472780
  H      8.718510  -16.649750   -1.802030
  H      9.958690  -14.115820   -3.019910
  H     11.994130  -14.593170   -4.619780
  H     10.007920  -18.117470   -3.038500
  H     13.986390  -18.947940   -5.978010
  H     16.045990  -15.431770   -7.475060
  H     16.095640  -19.428100   -7.452400
  H     17.647390  -16.897860   -8.213070
  H     18.169500  -19.916340   -8.519120
  H     22.370740  -15.702190  -10.652310
  H     23.205370  -20.572190   -9.987660

 Total Charge           Charge          ....    0
 Multiplicity           Mult            ....    1
 Number of Electrons    NEL             ....  554
 Basis Dimension        Dim             .... 1250

ORBITAL ENERGIES
----------------

  NO   OCC          E(Eh)            E(eV)
   0   2.0000     -89.028729     -2422.5949
   1   2.0000     -88.978007     -2421.2147
   2   2.0000     -24.805229      -674.9846
   3   2.0000     -24.803002      -674.9240
   4   2.0000     -24.799736      -674.8351
   5   2.0000     -24.798745      -674.8082
   6   2.0000     -24.798163      -674.7923
   7   2.0000     -24.798012      -674.7882
   8   2.0000     -24.786337      -674.4705
   9   2.0000     -24.783680      -674.3982
  10   2.0000     -19.218146      -522.9523
  11   2.0000     -19.214502      -522.8532
  12   2.0000     -14.501739      -394.6124
  13   2.0000     -14.494103      -394.4046
  14   2.0000     -14.440834      -392.9551
  15   2.0000     -14.439678      -392.9236
  16   2.0000     -14.414871      -392.2486
  17   2.0000     -14.414487      -392.2381
  18   2.0000     -14.413793      -392.2193
  19   2.0000     -14.413205      -392.2032
  20   2.0000     -10.384453      -282.5753
  21   2.0000     -10.383957      -282.5618
  22   2.0000     -10.383805      -282.5577
  23   2.0000     -10.383254      -282.5427
  24   2.0000     -10.374199      -282.2963
  25   2.0000     -10.371171      -282.2139
  26   2.0000     -10.370482      -282.1952
  27   2.0000     -10.365750      -282.0664
  28   2.0000     -10.362127      -281.9678
  29   2.0000     -10.358778      -281.8767
  30   2.0000     -10.358320      -281.8642
  31   2.0000     -10.355804      -281.7958
  32   2.0000     -10.351848      -281.6881
  33   2.0000     -10.346495      -281.5424
  34   2.0000     -10.343849      -281.4704
  35   2.0000     -10.342481      -281.4332
  36   2.0000     -10.342344      -281.4295
  37   2.0000     -10.341361      -281.4027
  38   2.0000     -10.335913      -281.2545
  39   2.0000     -10.335194      -281.2349
  40   2.0000     -10.320187      -280.8266
  41   2.0000     -10.317403      -280.7508
  42   2.0000     -10.317299      -280.7480
  43   2.0000     -10.316660      -280.7306
  44   2.0000     -10.315688      -280.7041
  45   2.0000     -10.315660      -280.7034
  46   2.0000     -10.315027      -280.6862
  47   2.0000     -10.314420      -280.6696
  48   2.0000     -10.314034      -280.6591
  49   2.0000     -10.313029      -280.6318
  50   2.0000     -10.312047      -280.6051
  51   2.0000     -10.306940      -280.4661
  52   2.0000     -10.306592      -280.4566
  53   2.0000     -10.306325      -280.4494
  54   2.0000     -10.306024      -280.4412
  55   2.0000     -10.305816      -280.4355
  56   2.0000     -10.304491      -280.3994
  57   2.0000     -10.302191      -280.3369
  58   2.0000     -10.301650      -280.3221
  59   2.0000     -10.299545      -280.2649
  60   2.0000     -10.299522      -280.2643
  61   2.0000     -10.297075      -280.1977
  62   2.0000     -10.296850      -280.1915
  63   2.0000     -10.295794      -280.1628
  64   2.0000     -10.294605      -280.1304
  65   2.0000     -10.292353      -280.0692
  66   2.0000     -10.290841      -280.0280
  67   2.0000     -10.289882      -280.0019
  68   2.0000     -10.289623      -279.9949
  69   2.0000     -10.288544      -279.9655
  70   2.0000     -10.287206      -279.9291
  71   2.0000     -10.287147      -279.9275
  72   2.0000     -10.286968      -279.9226
  73   2.0000     -10.279327      -279.7147
  74   2.0000     -10.270209      -279.4666
  75   2.0000     -10.265102      -279.3276
  76   2.0000     -10.263329      -279.2794
  77   2.0000     -10.261862      -279.2395
  78   2.0000      -8.119276      -220.9367
  79   2.0000      -8.069762      -219.5894
  80   2.0000      -6.091668      -165.7627
  81   2.0000      -6.087164      -165.6401
  82   2.0000      -6.075821      -165.3315
  83   2.0000      -6.042862      -164.4346
  84   2.0000      -6.036576      -164.2636
  85   2.0000      -6.026744      -163.9960
  86   2.0000      -1.322646       -35.9910
  87   2.0000      -1.322016       -35.9739
  88   2.0000      -1.318679       -35.8831
  89   2.0000      -1.315820       -35.8053
  90   2.0000      -1.307407       -35.5764
  91   2.0000      -1.306805       -35.5600
  92   2.0000      -1.298697       -35.3394
  93   2.0000      -1.295470       -35.2515
  94   2.0000      -1.142962       -31.1016
  95   2.0000      -1.134580       -30.8735
  96   2.0000      -1.129826       -30.7441
  97   2.0000      -1.081786       -29.4369
  98   2.0000      -1.068922       -29.0868
  99   2.0000      -1.019642       -27.7459
 100   2.0000      -1.019154       -27.7326
 101   2.0000      -1.001125       -27.2420
 102   2.0000      -1.000463       -27.2240
 103   2.0000      -0.997866       -27.1533
 104   2.0000      -0.994842       -27.0710
 105   2.0000      -0.992704       -27.0129
 106   2.0000      -0.992621       -27.0106
 107   2.0000      -0.981058       -26.6960
 108   2.0000      -0.976895       -26.5827
 109   2.0000      -0.975534       -26.5456
 110   2.0000      -0.957784       -26.0626
 111   2.0000      -0.955655       -26.0047
 112   2.0000      -0.954592       -25.9758
 113   2.0000      -0.923846       -25.1391
 114   2.0000      -0.918711       -24.9994
 115   2.0000      -0.902858       -24.5680
 116   2.0000      -0.899987       -24.4899
 117   2.0000      -0.897105       -24.4115
 118   2.0000      -0.885866       -24.1056
 119   2.0000      -0.874652       -23.8005
 120   2.0000      -0.872529       -23.7427
 121   2.0000      -0.872307       -23.7367
 122   2.0000      -0.868406       -23.6305
 123   2.0000      -0.860816       -23.4240
 124   2.0000      -0.852160       -23.1885
 125   2.0000      -0.842780       -22.9332
 126   2.0000      -0.834629       -22.7114
 127   2.0000      -0.816999       -22.2317
 128   2.0000      -0.811431       -22.0802
 129   2.0000      -0.808023       -21.9874
 130   2.0000      -0.799700       -21.7610
 131   2.0000      -0.787414       -21.4266
 132   2.0000      -0.785007       -21.3611
 133   2.0000      -0.775058       -21.0904
 134   2.0000      -0.771597       -20.9962
 135   2.0000      -0.769826       -20.9480
 136   2.0000      -0.761189       -20.7130
 137   2.0000      -0.750300       -20.4167
 138   2.0000      -0.741332       -20.1727
 139   2.0000      -0.728064       -19.8116
 140   2.0000      -0.723942       -19.6995
 141   2.0000      -0.721065       -19.6212
 142   2.0000      -0.711252       -19.3541
 143   2.0000      -0.707803       -19.2603
 144   2.0000      -0.704731       -19.1767
 145   2.0000      -0.698211       -18.9993
 146   2.0000      -0.688176       -18.7262
 147   2.0000      -0.686196       -18.6723
 148   2.0000      -0.681734       -18.5509
 149   2.0000      -0.679987       -18.5034
 150   2.0000      -0.677283       -18.4298
 151   2.0000      -0.671780       -18.2801
 152   2.0000      -0.666444       -18.1349
 153   2.0000      -0.666152       -18.1269
 154   2.0000      -0.663796       -18.0628
 155   2.0000      -0.654877       -17.8201
 156   2.0000      -0.651122       -17.7179
 157   2.0000      -0.647069       -17.6076
 158   2.0000      -0.643752       -17.5174
 159   2.0000      -0.640902       -17.4398
 160   2.0000      -0.639581       -17.4039
 161   2.0000      -0.638933       -17.3862
 162   2.0000      -0.635024       -17.2799
 163   2.0000      -0.630577       -17.1589
 164   2.0000      -0.628281       -17.0964
 165   2.0000      -0.627785       -17.0829
 166   2.0000      -0.616668       -16.7804
 167   2.0000      -0.613493       -16.6940
 168   2.0000      -0.612150       -16.6574
 169   2.0000      -0.608133       -16.5481
 170   2.0000      -0.598177       -16.2772
 171   2.0000      -0.597449       -16.2574
 172   2.0000      -0.595098       -16.1934
 173   2.0000      -0.593312       -16.1448
 174   2.0000      -0.591042       -16.0831
 175   2.0000      -0.587604       -15.9895
 176   2.0000      -0.586936       -15.9713
 177   2.0000      -0.586469       -15.9586
 178   2.0000      -0.578430       -15.7399
 179   2.0000      -0.572996       -15.5920
 180   2.0000      -0.570567       -15.5259
 181   2.0000      -0.570301       -15.5187
 182   2.0000      -0.569423       -15.4948
 183   2.0000      -0.564148       -15.3513
 184   2.0000      -0.557579       -15.1725
 185   2.0000      -0.554726       -15.0949
 186   2.0000      -0.553549       -15.0628
 187   2.0000      -0.551483       -15.0066
 188   2.0000      -0.550780       -14.9875
 189   2.0000      -0.550598       -14.9825
 190   2.0000      -0.549518       -14.9532
 191   2.0000      -0.547579       -14.9004
 192   2.0000      -0.547096       -14.8872
 193   2.0000      -0.543721       -14.7954
 194   2.0000      -0.542172       -14.7533
 195   2.0000      -0.540783       -14.7155
 196   2.0000      -0.537851       -14.6357
 197   2.0000      -0.535253       -14.5650
 198   2.0000      -0.535033       -14.5590
 199   2.0000      -0.531012       -14.4496
 200   2.0000      -0.530456       -14.4345
 201   2.0000      -0.526304       -14.3215
 202   2.0000      -0.524419       -14.2702
 203   2.0000      -0.523147       -14.2356
 204   2.0000      -0.518292       -14.1034
 205   2.0000      -0.514304       -13.9949
 206   2.0000      -0.513301       -13.9676
 207   2.0000      -0.511433       -13.9168
 208   2.0000      -0.509328       -13.8595
 209   2.0000      -0.507026       -13.7969
 210   2.0000      -0.503751       -13.7078
 211   2.0000      -0.502014       -13.6605
 212   2.0000      -0.496820       -13.5192
 213   2.0000      -0.495797       -13.4913
 214   2.0000      -0.494682       -13.4610
 215   2.0000      -0.494263       -13.4496
 216   2.0000      -0.492083       -13.3903
 217   2.0000      -0.491758       -13.3814
 218   2.0000      -0.489649       -13.3240
 219   2.0000      -0.489549       -13.3213
 220   2.0000      -0.484403       -13.1813
 221   2.0000      -0.479374       -13.0444
 222   2.0000      -0.477350       -12.9894
 223   2.0000      -0.476388       -12.9632
 224   2.0000      -0.475361       -12.9352
 225   2.0000      -0.471609       -12.8331
 226   2.0000      -0.469337       -12.7713
 227   2.0000      -0.462736       -12.5917
 228   2.0000      -0.461955       -12.5704
 229   2.0000      -0.460295       -12.5253
 230   2.0000      -0.457863       -12.4591
 231   2.0000      -0.456053       -12.4098
 232   2.0000      -0.455668       -12.3994
 233   2.0000      -0.454638       -12.3713
 234   2.0000      -0.453477       -12.3397
 235   2.0000      -0.451021       -12.2729
 236   2.0000      -0.450825       -12.2676
 237   2.0000      -0.449003       -12.2180
 238   2.0000      -0.448162       -12.1951
 239   2.0000      -0.445989       -12.1360
 240   2.0000      -0.444051       -12.0832
 241   2.0000      -0.441773       -12.0213
 242   2.0000      -0.440582       -11.9888
 243   2.0000      -0.437495       -11.9048
 244   2.0000      -0.433104       -11.7854
 245   2.0000      -0.427831       -11.6419
 246   2.0000      -0.426017       -11.5925
 247   2.0000      -0.425758       -11.5855
 248   2.0000      -0.423666       -11.5285
 249   2.0000      -0.423595       -11.5266
 250   2.0000      -0.421306       -11.4643
 251   2.0000      -0.421239       -11.4625
 252   2.0000      -0.419866       -11.4251
 253   2.0000      -0.411727       -11.2037
 254   2.0000      -0.406815       -11.0700
 255   2.0000      -0.405377       -11.0309
 256   2.0000      -0.394335       -10.7304
 257   2.0000      -0.389028       -10.5860
 258   2.0000      -0.383558       -10.4371
 259   2.0000      -0.366489        -9.9727
 260   2.0000      -0.353934        -9.6310
 261   2.0000      -0.348147        -9.4736
 262   2.0000      -0.346168        -9.4197
 263   2.0000      -0.343297        -9.3416
 264   2.0000      -0.340914        -9.2767
 265   2.0000      -0.337820        -9.1926
 266   2.0000      -0.330519        -8.9939
 267   2.0000      -0.320589        -8.7237
 268   2.0000      -0.317101        -8.6287
 269   2.0000      -0.314165        -8.5489
 270   2.0000      -0.310175        -8.4403
 271   2.0000      -0.309806        -8.4302
 272   2.0000      -0.306280        -8.3343
 273   2.0000      -0.280820        -7.6415
 274   2.0000      -0.277297        -7.5456
 275   2.0000      -0.257439        -7.0053
 276   2.0000      -0.249175        -6.7804
 277   0.0000      -0.117046        -3.1850
 278   0.0000      -0.114402        -3.1130
 279   0.0000      -0.074143        -2.0175
 280   0.0000      -0.071278        -1.9396
 281   0.0000      -0.052934        -1.4404

MULLIKEN ATOMIC CHARGES
-----------------------
   0 C :   -0.085358
   1 C :    0.234454
   2 F :   -0.166225
   3 C :    0.234511
   4 F :   -0.169747
   5 C :   -0.101303
   6 C :   -0.011527
   7 C :    0.043881
   8 C :    0.295603
   9 C :   -0.343798
  10 C :   -0.193379
  11 N :    0.153267
  12 C :   -0.202008
  13 N :    0.163934
  14 C :   -0.076377
  15 C :    0.146761
  16 O :   -0.144199
  17 C :   -0.030279
  18 C :    0.069196
  19 C :   -0.055371
  20 C :   -0.000545
  21 C :    0.240438
  22 C :   -0.054752
  23 F :   -0.185166
  24 C :    0.035766
  25 C :   -0.113344
  26 C :    0.136007
  27 C :   -0.086412
  28 C :    0.263479
  29 F :   -0.164659
  30 C :   -0.048289
  31 C :    0.140246
  32 N :   -0.345998
  33 C :    0.004100
  34 C :    0.264393
  35 C :   -0.029633
  36 N :   -0.308144
  37 S :    0.226563
  38 N :   -0.302222
  39 C :   -0.046206
  40 C :    0.240515
  41 C :    0.070971
  42 N :   -0.367600
  43 S :    0.376705
  44 C :    0.152700
  45 C :   -0.066802
  46 C :    0.127307
  47 C :   -0.111054
  48 C :    0.030976
  49 C :    0.259675
  50 C :   -0.087305
  51 F :   -0.171202
  52 C :   -0.007001
  53 C :   -0.062102
  54 C :    0.096183
  55 C :   -0.065154
  56 C :    0.250802
  57 F :   -0.178971
  58 C :    0.015786
  59 C :    0.010559
  60 C :    0.029396
  61 C :   -0.114407
  62 C :    0.136077
  63 O :   -0.142436
  64 C :    0.006037
  65 C :    0.027305
  66 C :   -0.088716
  67 C :    0.235217
  68 C :    0.232063
  69 C :   -0.103582
  70 F :   -0.170188
  71 F :   -0.165952
  72 C :    0.281986
  73 C :   -0.336692
  74 C :   -0.218300
  75 N :    0.174668
  76 C :   -0.187410
  77 N :    0.157814
  78 H :    0.015055
  79 H :    0.009639
  80 H :    0.015040
  81 H :    0.004375
  82 H :    0.000182
  83 H :   -0.020194
  84 H :   -0.015335
  85 H :   -0.013568
  86 H :    0.018831
  87 H :    0.027518
  88 H :    0.018831
  89 H :   -0.016006
  90 H :    0.005304
  91 H :    0.131349
  92 H :    0.129584
  93 H :    0.005449
  94 H :    0.012318
  95 H :   -0.010154
  96 H :    0.018970
  97 H :    0.022581
  98 H :   -0.008126
  99 H :   -0.018460
 100 H :   -0.024276
 101 H :   -0.011309
 102 H :   -0.009751
 103 H :   -0.002071
 104 H :    0.014918
 105 H :    0.014822
 106 H :    0.016915
 107 H :    0.012043
Sum of atomic charges:   -0.0000000

LOEWDIN ATOMIC CHARGES
----------------------
   0 C :   -0.018724
   1 C :    0.073068
   2 F :   -0.044415
   3 C :    0.069963
   4 F :   -0.046454
   5 C :   -0.006450
   6 C :   -0.044314
   7 C :   -0.015286
   8 C :    0.075187
   9 C :   -0.138509
  10 C :   -0.019601
  11 N :   -0.050837
  12 C :   -0.025742
  13 N :   -0.048238
  14 C :   -0.103295
  15 C :    0.085225
  16 O :   -0.134292
  17 C :    0.077546
  18 C :   -0.034533
  19 C :    0.013127
  20 C :   -0.034856
  21 C :    0.064518
  22 C :   -0.047145
  23 F :   -0.060520
  24 C :    0.031291
  25 C :   -0.095585
  26 C :    0.037197
  27 C :   -0.065784
  28 C :    0.095668
  29 F :   -0.041370
  30 C :   -0.102917
  31 C :    0.049869
  32 N :   -0.138538
  33 C :    0.017844
  34 C :   -0.034054
  35 C :   -0.010008
  36 N :   -0.224868
  37 S :    0.366902
  38 N :   -0.223566
  39 C :   -0.012014
  40 C :   -0.036813
  41 C :    0.021332
  42 N :   -0.150326
  43 S :    0.460414
  44 C :    0.043606
  45 C :   -0.105469
  46 C :    0.028729
  47 C :   -0.091779
  48 C :    0.021936
  49 C :    0.092861
  50 C :   -0.066832
  51 F :   -0.047181
  52 C :   -0.028306
  53 C :   -0.015365
  54 C :   -0.026595
  55 C :   -0.053472
  56 C :    0.077366
  57 F :   -0.054515
  58 C :    0.047082
  59 C :   -0.037120
  60 C :    0.071225
  61 C :   -0.103970
  62 C :    0.081366
  63 O :   -0.142987
  64 C :   -0.046147
  65 C :   -0.011993
  66 C :   -0.021002
  67 C :    0.073173
  68 C :    0.068750
  69 C :   -0.006175
  70 F :   -0.046959
  71 F :   -0.044568
  72 C :    0.070095
  73 C :   -0.139099
  74 C :   -0.025139
  75 N :   -0.046372
  76 C :   -0.021206
  77 N :   -0.049344
  78 H :    0.051114
  79 H :    0.051178
  80 H :    0.048645
  81 H :    0.029576
  82 H :    0.031153
  83 H :    0.022085
  84 H :    0.028577
  85 H :    0.029450
  86 H :    0.030652
  87 H :    0.033551
  88 H :    0.032616
  89 H :    0.026239
  90 H :    0.021625
  91 H :    0.049450
  92 H :    0.048904
  93 H :    0.021431
  94 H :    0.029849
  95 H :    0.027829
  96 H :    0.030436
  97 H :    0.034088
  98 H :    0.024514
  99 H :    0.022839
 100 H :    0.025539
 101 H :    0.024660
 102 H :    0.032539
 103 H :    0.038109
 104 H :    0.031365
 105 H :    0.044427
 106 H :    0.050983
 107 H :    0.051888

  Mayer bond orders larger than 0.100000
B(  0-C ,  1-C ) :   1.3374 B(  0-C ,  5-C ) :   0.1053 B(  0-C ,  7-C ) :   1.3114
B(  0-C , 78-H ) :   0.9926 B(  1-C ,  2-F ) :   1.1438 B(  1-C ,  3-C ) :   1.2891
B(  3-C ,  4-F ) :   1.1307 B(  3-C ,  5-C ) :   1.3173 B(  5-C ,  6-C ) :   1.3195
B(  5-C , 79-H ) :   1.0204 B(  6-C ,  7-C ) :   1.3443 B(  6-C , 15-C ) :   0.9552
B(  7-C ,  8-C ) :   1.0019 B(  8-C ,  9-C ) :   1.6348 B(  8-C , 14-C ) :   1.0811
B(  9-C , 10-C ) :   1.1406 B(  9-C , 12-C ) :   1.1391 B( 10-C , 11-N ) :   2.9787
B( 12-C , 13-N ) :   2.9930 B( 14-C , 15-C ) :   0.9408 B( 14-C , 17-C ) :   1.5155
B( 15-C , 16-O ) :   2.2120 B( 17-C , 18-C ) :   1.1975 B( 17-C , 80-H ) :   0.9452
B( 18-C , 19-C ) :   1.4388 B( 18-C , 22-C ) :   1.0521 B( 19-C , 20-C ) :   1.1215
B( 19-C , 81-H ) :   1.0192 B( 20-C , 21-C ) :   1.0494 B( 20-C , 24-C ) :   1.4157
B( 21-C , 22-C ) :   1.6260 B( 21-C , 23-F ) :   1.1139 B( 22-C , 82-H ) :   1.0101
B( 24-C , 25-C ) :   1.1861 B( 24-C , 28-C ) :   0.9947 B( 25-C , 26-C ) :   1.4601
B( 25-C , 83-H ) :   1.0231 B( 26-C , 27-C ) :   0.9997 B( 26-C , 30-C ) :   1.1994
B( 27-C , 28-C ) :   1.6937 B( 27-C , 84-H ) :   1.0088 B( 28-C , 29-F ) :   1.1376
B( 30-C , 31-C ) :   1.5643 B( 30-C , 85-H ) :   0.9605 B( 31-C , 32-N ) :   1.1539
B( 31-C , 86-H ) :   0.9558 B( 32-N , 33-C ) :   0.9288 B( 32-N , 43-S ) :   0.9403
B( 33-C , 34-C ) :   1.1007 B( 33-C , 41-C ) :   0.9736 B( 33-C , 87-H ) :   0.8980
B( 34-C , 35-C ) :   1.0893 B( 34-C , 40-C ) :   0.1292 B( 34-C , 88-H ) :   0.9276
B( 34-C , 89-H ) :   0.8397 B( 35-C , 36-N ) :   1.0548 B( 35-C , 39-C ) :   0.9590
B( 35-C , 90-H ) :   0.9185 B( 36-N , 37-S ) :   0.9770 B( 36-N , 91-H ) :   0.9425
B( 37-S , 38-N ) :   0.9762 B( 38-N , 39-C ) :   1.0659 B( 38-N , 92-H ) :   0.9443
B( 39-C , 40-C ) :   1.0815 B( 39-C , 93-H ) :   0.9166 B( 40-C , 41-C ) :   1.0996
B( 40-C , 94-H ) :   0.9294 B( 40-C , 95-H ) :   0.8441 B( 41-C , 42-N ) :   0.9198
B( 41-C , 96-H ) :   0.9028 B( 42-N , 43-S ) :   0.9228 B( 42-N , 44-C ) :   1.1453
B( 44-C , 45-C ) :   1.5656 B( 44-C , 97-H ) :   0.9654 B( 45-C , 46-C ) :   1.2138
B( 45-C , 98-H ) :   0.9533 B( 46-C , 47-C ) :   1.4755 B( 46-C , 50-C ) :   1.0032
B( 47-C , 48-C ) :   1.1701 B( 47-C , 99-H ) :   1.0249 B( 48-C , 49-C ) :   1.0016
B( 48-C , 52-C ) :   1.4278 B( 49-C , 50-C ) :   1.6901 B( 49-C , 51-F ) :   1.1300
B( 50-C ,100-H ) :   1.0080 B( 52-C , 53-C ) :   1.1256 B( 52-C , 56-C ) :   1.0443
B( 53-C , 54-C ) :   1.4733 B( 53-C ,101-H ) :   1.0211 B( 54-C , 55-C ) :   1.0396
B( 54-C , 58-C ) :   1.1377 B( 55-C , 56-C ) :   1.6510 B( 55-C ,102-H ) :   1.0102
B( 56-C , 57-F ) :   1.1224 B( 58-C , 59-C ) :   1.5703 B( 58-C ,103-H ) :   0.9898
B( 59-C , 60-C ) :   1.1712 B( 59-C ,104-H ) :   0.9639 B( 60-C , 61-C ) :   1.5595
B( 60-C ,105-H ) :   0.9562 B( 61-C , 62-C ) :   0.9547 B( 61-C , 72-C ) :   1.0548
B( 62-C , 63-O ) :   2.2624 B( 62-C , 64-C ) :   0.9298 B( 64-C , 65-C ) :   1.3447
B( 64-C , 69-C ) :   1.3257 B( 65-C , 66-C ) :   1.3199 B( 65-C , 72-C ) :   1.0127
B( 66-C , 67-C ) :   1.3348 B( 66-C , 69-C ) :   0.1049 B( 66-C ,106-H ) :   0.9926
B( 67-C , 68-C ) :   1.2934 B( 67-C , 71-F ) :   1.1428 B( 68-C , 69-C ) :   1.3187
B( 68-C , 70-F ) :   1.1305 B( 69-C ,107-H ) :   1.0195 B( 72-C , 73-C ) :   1.6377
B( 73-C , 74-C ) :   1.1630 B( 73-C , 76-C ) :   1.1284 B( 74-C , 75-N ) :   3.0080
B( 76-C , 77-N ) :   2.9918

-----------------------------------------------------------------------------
         ABSORPTION SPECTRUM VIA TRANSITION ELECTRIC DIPOLE MOMENTS
-----------------------------------------------------------------------------
State   Energy  Wavelength   fosc         T2         TX        TY        TZ
        (cm-1)    (nm)                  (au**2)     (au)      (au)      (au)
-----------------------------------------------------------------------------
   0   13286.3    752.7   1.802936943  44.67359  -5.66873   2.51401   2.49377
   1   14357.3    696.5   0.206137589   4.72672  -0.08889  -1.50124   1.57006
   2   17126.3    583.9   0.001197861   0.02303   0.11044  -0.04900  -0.09181
   3   17790.8    562.1   0.027497669   0.50883   0.56704   0.28230  -0.32804
   4   19598.7    510.2   0.003268621   0.05491  -0.19271   0.13268  -0.01281
   5   21809.0    458.5   0.046664710   0.70442  -0.65098   0.29027   0.44315
   6   22320.1    448.0   0.443503672   6.54148   2.05327   0.15594  -1.51699
   7   23658.1    422.7   0.981778289  13.66183  -2.83575   2.36995  -0.06040
   8   24722.9    404.5   0.320103611   4.26251  -1.46842   0.21837   1.43477
   9   25517.2    391.9   0.020866443   0.26921  -0.17574   0.00174   0.48818
  10   27146.2    368.4   0.162723965   1.97341  -0.94886   0.85324   0.58742
  11   27560.3    362.8   0.151758791   1.81278   1.01158  -0.83730  -0.29737
  12   27872.8    358.8   0.035334320   0.41734   0.40260  -0.37047  -0.34352
  13   27954.2    357.7   0.039884188   0.46971   0.46931  -0.38873  -0.31361
  14   28424.3    351.8   0.028844585   0.33408   0.05728  -0.07474  -0.57028
  15   28827.4    346.9   0.038227145   0.43656   0.49398   0.14987  -0.41241
  16   29166.3    342.9   0.031818414   0.35915  -0.36545  -0.11376   0.46114
  17   29443.6    339.6   0.129190612   1.44449  -0.98884   0.65563   0.19193
  18   29561.4    338.3   0.077669909   0.86498   0.83818   0.17391  -0.36357
  19   29743.0    336.2   0.002151269   0.02381  -0.07167  -0.12461   0.05611
  20   30170.8    331.4   0.009105506   0.09936   0.18987   0.19730  -0.15614
  21   30516.0    327.7   0.163732151   1.76637   1.30184  -0.13306  -0.23211
  22   30956.0    323.0   0.084079853   0.89418  -0.54636   0.55803   0.53317
  23   31684.5    315.6   0.032439669   0.33706   0.23729  -0.38527  -0.36375
  24   31901.9    313.5   0.052615245   0.54296  -0.60153   0.41532   0.09296
  25   32404.0    308.6   0.002989077   0.03037  -0.06528   0.15688  -0.03867
  26   32624.5    306.5   0.030600064   0.30878  -0.38228   0.39702  -0.07083
  27   32713.0    305.7   0.038617127   0.38863  -0.55652   0.24670   0.13435
  28   33169.5    301.5   0.005476802   0.05436   0.09280  -0.15065  -0.15183
  29   33264.4    300.6   0.062164934   0.61524  -0.56351   0.35514   0.41420
  30   33736.3    296.4   0.006066758   0.05920  -0.24123   0.01318   0.02888
  31   34041.6    293.8   0.010707879   0.10355  -0.20297   0.13017   0.21310
  32   34579.7    289.2   0.097934820   0.93238   0.65598  -0.70800   0.02848
  33   35016.9    285.6   0.122538504   1.15205   0.87097  -0.60731  -0.15697
  34   35051.3    285.3   0.011911487   0.11188   0.26035  -0.15466  -0.14203
  35   35503.6    281.7   0.049437458   0.45842   0.15853  -0.63149   0.18574
  36   35802.5    279.3   0.052183819   0.47984   0.58852  -0.32896  -0.15895
  37   35809.4    279.3   0.006175220   0.05677  -0.22884   0.06176  -0.02431
  38   36295.7    275.5   0.715881436   6.49323  -0.61273   0.50160   2.42202
  39   36588.9    273.3   0.005325940   0.04792  -0.10432   0.19233  -0.00686
  40   37008.7    270.2   0.430379880   3.82846   1.43563  -1.30359   0.26093
  41   37611.3    265.9   0.001125347   0.00985  -0.00866   0.03775   0.09138
  42   37826.8    264.4   0.029166601   0.25384   0.24062  -0.41888   0.14311
  43   37855.9    264.2   0.015377678   0.13373  -0.17213   0.15627  -0.28228
  44   37940.1    263.6   0.149166783   1.29434  -0.44939   0.46606  -0.93551
  45   38105.5    262.4   0.000397161   0.00343   0.02940   0.05045  -0.00469
  46   38464.6    260.0   0.009969555   0.08533  -0.11396   0.20308  -0.17635
  47   38481.4    259.9   0.007995583   0.06840   0.16564  -0.19929  -0.03533
  48   38928.3    256.9   0.000253689   0.00215  -0.02594  -0.03393  -0.01792
  49   39205.2    255.1   0.001271935   0.01068   0.00284   0.04238  -0.09421
  50   39618.3    252.4   0.012256559   0.10185   0.21290  -0.01744  -0.23710
  51   39712.1    251.8   0.006954695   0.05765  -0.13138   0.12865   0.15441
  52   39728.7    251.7   0.011679442   0.09678  -0.10088   0.09609   0.27816
  53   39976.5    250.1   0.000672359   0.00554  -0.02165   0.07119  -0.00079
  54   40192.3    248.8   0.012845035   0.10521   0.04481   0.06584  -0.31444

FINAL SINGLE POINT ENERGY     -4406.842940508046

DIPOLE MOMENT
-------------
                                X             Y             Z
Electronic contribution:      0.91168      42.11967     -34.77246
Nuclear contribution   :     -0.92462     -46.13089      40.08935
                        -----------------------------------------
Total Dipole Moment    :     -0.01294      -4.01122       5.31689
                        -----------------------------------------
Magnitude (a.u.)       :      6.66029
Magnitude (Debye)      :     16.92910

Rotational constants in cm-1:     0.001356     0.000118     0.000111
Rotational constants in MHz :    40.648713     3.537505     3.324941

                             ****ORCA TERMINATED NORMALLY****
TOTAL RUN TIME: 0 days 0 hours 12 minutes 8 seconds 894 msec
