                         Program Version 4.2.0 -  RELEASE  -
|  1> # ORCA input file
|  2> # SCF done       -215.671998035508          0.000452472013
|  3> ! CAM-B3LYP def2-SVP def2/J RIJCOSX Grid4 TightSCF
|  4> %maxcore 5000
|  5> %tddft
|  6>     Mode sTDDFT
|  7>     Ethresh 5.0
|  8>     maxcore 5000
|  9> end
| 10>
| 11> %pal
| 12>   nprocs 6
| 13>   end
| 14> * xyz 0 1
| 15>    C        0.87990         0.99913         0.09848
| 16>    C        1.55300         1.91677         0.89057
| 17>    F        1.15795         3.19337         0.87885
| 18>    C        2.63121         1.54219         1.69494
| 19>    F        3.24966         2.46220         2.44225
| 20>    C        3.06557         0.22739         1.72322
| 21>    C        2.39235        -0.68635         0.93600
| 22>    C        1.30721        -0.32018         0.12389
| 23>    C        0.81896        -1.50834        -0.57414
| 24>    C       -0.27823        -1.54646        -1.39262
| 25>    C       -1.05713        -0.41552        -1.72330
| 26>    N       -1.72536         0.46253        -2.03745
| 27>    C       -0.81140        -2.69965        -2.00964
| 28>    N       -1.32566        -3.58085        -2.53595
| 29>    C        1.66189        -2.62800        -0.18870
| 30>    C        2.67360        -2.13088         0.78022
| 31>    O        3.58996        -2.73252         1.28936
| 32>    C        1.61231        -3.87596        -0.74692
| 33>    C        2.28561        -5.06277        -0.37680
| 34>    C        2.42568        -6.13888        -1.23372
| 35>    C        3.15436        -7.17111        -0.57109
| 36>    C        3.39849        -6.65698         0.77707
| 37>    C        2.89387        -5.42053         0.90923
| 38>    F        4.02697        -7.36353         1.72071
| 39>    C        3.57355        -8.38027        -1.07966
| 40>    C        4.33106        -9.39024        -0.43188
| 41>    C        4.58400       -10.41796        -1.32823
| 42>    C        3.95084       -10.07172        -2.60776
| 43>    C        3.35938        -8.87990        -2.44650
| 44>    F        2.67448        -8.20458        -3.37151
| 45>    C        5.34168       -11.56521        -1.03879
| 46>    C        5.66510       -12.52735        -1.95848
| 47>    C        6.44930       -13.68231        -1.74558
| 48>    C        6.96863       -14.14126        -0.50146
| 49>    C        7.86134       -15.26960        -0.42053
| 50>    N        8.22118       -15.73366         0.78167
| 51>    C        7.83990       -15.11317         1.87040
| 52>    C        7.04976       -13.92512         1.78391
| 53>    N        6.61656       -13.50222         0.62132
| 54>    C        6.68585       -13.21187         2.95418
| 55>    N        6.41101       -12.65022         3.91336
| 56>    C        8.18876       -15.65062         3.13596
| 57>    N        8.45268       -16.04982         4.17591
| 58>    C        8.34140       -15.95775        -1.57556
| 59>    C        7.72526       -15.58044        -2.79479
| 60>    C        6.80230       -14.47489        -2.86775
| 61>    N        6.37108       -14.26909        -4.11195
| 62>    S        7.04128       -15.35030        -5.08775
| 63>    N        7.92274       -16.12496        -3.99654
| 64>    C        9.37438       -16.92443        -1.50333
| 65>    C       10.24915       -17.14038        -0.45054
| 66>    C       11.15096       -18.18268        -0.79901
| 67>    C       10.75928       -18.59309        -2.15217
| 68>    C        9.72699       -17.85364        -2.58328
| 69>    F       11.37533       -19.56588        -2.82840
| 70>    C       12.19258       -18.68056        -0.05049
| 71>    C       13.11844       -19.70687        -0.39171
| 72>    C       14.04139       -19.84337         0.62695
| 73>    C       13.68447       -18.90146         1.69555
| 74>    C       12.59581       -18.23233         1.28877
| 75>    F       11.94766       -17.28383         1.96789
| 76>    C       15.11380       -20.76839         0.61332
| 77>    C       16.21006       -20.78610         1.42435
| 78>    C       16.63582       -19.73229         2.26612
| 79>    C       17.58850       -19.79064         3.24099
| 80>    C       18.23033       -18.54147         3.72928
| 81>    O       17.86333       -17.40932         3.52418
| 82>    C       19.43381       -18.99185         4.46444
| 83>    C       19.45808       -20.39795         4.51069
| 84>    C       20.51337       -21.05452         5.12330
| 85>    C       21.52238       -20.28343         5.68107
| 86>    C       21.48512       -18.88819         5.64234
| 87>    C       20.43418       -18.22509         5.02927
| 88>    F       22.47706       -18.18572         6.19910
| 89>    F       22.55590       -20.89496         6.26669
| 90>    C       18.24566       -20.91313         3.87303
| 91>    C       17.73348       -22.17316         4.03046
| 92>    C       16.42191       -22.53984         3.65604
| 93>    N       15.34783       -22.86982         3.42493
| 94>    C       18.41422       -23.22115         4.68648
| 95>    N       18.93703       -24.10939         5.19008
| 96>    H        0.05728         1.34215        -0.50696
| 97>    H        3.89928        -0.06815         2.34011
| 98>    H        0.98414        -3.99474        -1.62250
| 99>    H        2.07897        -6.18096        -2.24818
|100>    H        2.91846        -4.80328         1.78280
|101>    H        4.66481        -9.35550         0.58673
|102>    H        3.96025       -10.67068        -3.49637
|103>    H        5.70092       -11.66297        -0.02469
|104>    H        5.33812       -12.40879        -2.98298
|105>    H       10.27159       -16.60001         0.47325
|106>    H        9.22173       -17.91139        -3.52563
|107>    H       13.11507       -20.25657        -1.31272
|108>    H       14.17047       -18.81737         2.64664
|109>    H       15.02019       -21.56250        -0.11670
|110>    H       16.86082       -21.64899         1.35929
|111>    H       16.26898       -18.73584         2.04801
|112>    H       20.58664       -22.12865         5.17614
|113>    H       20.40410       -17.14760         4.99747
|114> *
|115>
|116>                          ****END OF INPUT****

CARTESIAN COORDINATES (ANGSTROEM)
---------------------------------
  C      0.879900    0.999130    0.098480
  C      1.553000    1.916770    0.890570
  F      1.157950    3.193370    0.878850
  C      2.631210    1.542190    1.694940
  F      3.249660    2.462200    2.442250
  C      3.065570    0.227390    1.723220
  C      2.392350   -0.686350    0.936000
  C      1.307210   -0.320180    0.123890
  C      0.818960   -1.508340   -0.574140
  C     -0.278230   -1.546460   -1.392620
  C     -1.057130   -0.415520   -1.723300
  N     -1.725360    0.462530   -2.037450
  C     -0.811400   -2.699650   -2.009640
  N     -1.325660   -3.580850   -2.535950
  C      1.661890   -2.628000   -0.188700
  C      2.673600   -2.130880    0.780220
  O      3.589960   -2.732520    1.289360
  C      1.612310   -3.875960   -0.746920
  C      2.285610   -5.062770   -0.376800
  C      2.425680   -6.138880   -1.233720
  C      3.154360   -7.171110   -0.571090
  C      3.398490   -6.656980    0.777070
  C      2.893870   -5.420530    0.909230
  F      4.026970   -7.363530    1.720710
  C      3.573550   -8.380270   -1.079660
  C      4.331060   -9.390240   -0.431880
  C      4.584000  -10.417960   -1.328230
  C      3.950840  -10.071720   -2.607760
  C      3.359380   -8.879900   -2.446500
  F      2.674480   -8.204580   -3.371510
  C      5.341680  -11.565210   -1.038790
  C      5.665100  -12.527350   -1.958480
  C      6.449300  -13.682310   -1.745580
  C      6.968630  -14.141260   -0.501460
  C      7.861340  -15.269600   -0.420530
  N      8.221180  -15.733660    0.781670
  C      7.839900  -15.113170    1.870400
  C      7.049760  -13.925120    1.783910
  N      6.616560  -13.502220    0.621320
  C      6.685850  -13.211870    2.954180
  N      6.411010  -12.650220    3.913360
  C      8.188760  -15.650620    3.135960
  N      8.452680  -16.049820    4.175910
  C      8.341400  -15.957750   -1.575560
  C      7.725260  -15.580440   -2.794790
  C      6.802300  -14.474890   -2.867750
  N      6.371080  -14.269090   -4.111950
  S      7.041280  -15.350300   -5.087750
  N      7.922740  -16.124960   -3.996540
  C      9.374380  -16.924430   -1.503330
  C     10.249150  -17.140380   -0.450540
  C     11.150960  -18.182680   -0.799010
  C     10.759280  -18.593090   -2.152170
  C      9.726990  -17.853640   -2.583280
  F     11.375330  -19.565880   -2.828400
  C     12.192580  -18.680560   -0.050490
  C     13.118440  -19.706870   -0.391710
  C     14.041390  -19.843370    0.626950
  C     13.684470  -18.901460    1.695550
  C     12.595810  -18.232330    1.288770
  F     11.947660  -17.283830    1.967890
  C     15.113800  -20.768390    0.613320
  C     16.210060  -20.786100    1.424350
  C     16.635820  -19.732290    2.266120
  C     17.588500  -19.790640    3.240990
  C     18.230330  -18.541470    3.729280
  O     17.863330  -17.409320    3.524180
  C     19.433810  -18.991850    4.464440
  C     19.458080  -20.397950    4.510690
  C     20.513370  -21.054520    5.123300
  C     21.522380  -20.283430    5.681070
  C     21.485120  -18.888190    5.642340
  C     20.434180  -18.225090    5.029270
  F     22.477060  -18.185720    6.199100
  F     22.555900  -20.894960    6.266690
  C     18.245660  -20.913130    3.873030
  C     17.733480  -22.173160    4.030460
  C     16.421910  -22.539840    3.656040
  N     15.347830  -22.869820    3.424930
  C     18.414220  -23.221150    4.686480
  N     18.937030  -24.109390    5.190080
  H      0.057280    1.342150   -0.506960
  H      3.899280   -0.068150    2.340110
  H      0.984140   -3.994740   -1.622500
  H      2.078970   -6.180960   -2.248180
  H      2.918460   -4.803280    1.782800
  H      4.664810   -9.355500    0.586730
  H      3.960250  -10.670680   -3.496370
  H      5.700920  -11.662970   -0.024690
  H      5.338120  -12.408790   -2.982980
  H     10.271590  -16.600010    0.473250
  H      9.221730  -17.911390   -3.525630
  H     13.115070  -20.256570   -1.312720
  H     14.170470  -18.817370    2.646640
  H     15.020190  -21.562500   -0.116700
  H     16.860820  -21.648990    1.359290
  H     16.268980  -18.735840    2.048010
  H     20.586640  -22.128650    5.176140
  H     20.404100  -17.147600    4.997470

 Total Charge           Charge          ....    0
 Multiplicity           Mult            ....    1
 Number of Electrons    NEL             ....  552
 Basis Dimension        Dim             .... 1228

ORBITAL ENERGIES
----------------

  NO   OCC          E(Eh)            E(eV)
   0   2.0000     -89.061660     -2423.4910
   1   2.0000     -24.807700      -675.0518
   2   2.0000     -24.807607      -675.0493
   3   2.0000     -24.807568      -675.0482
   4   2.0000     -24.807123      -675.0361
   5   2.0000     -24.806262      -675.0127
   6   2.0000     -24.802322      -674.9055
   7   2.0000     -24.802068      -674.8986
   8   2.0000     -24.795127      -674.7097
   9   2.0000     -19.229574      -523.2633
  10   2.0000     -19.228221      -523.2265
  11   2.0000     -14.475030      -393.8856
  12   2.0000     -14.472831      -393.8258
  13   2.0000     -14.469297      -393.7296
  14   2.0000     -14.468785      -393.7157
  15   2.0000     -14.440869      -392.9560
  16   2.0000     -14.438374      -392.8881
  17   2.0000     -14.426580      -392.5672
  18   2.0000     -14.425563      -392.5395
  19   2.0000     -14.424177      -392.5018
  20   2.0000     -14.422907      -392.4673
  21   2.0000     -10.395161      -282.8667
  22   2.0000     -10.394001      -282.8351
  23   2.0000     -10.393700      -282.8269
  24   2.0000     -10.393282      -282.8156
  25   2.0000     -10.393227      -282.8141
  26   2.0000     -10.392850      -282.8038
  27   2.0000     -10.381871      -282.5051
  28   2.0000     -10.378891      -282.4240
  29   2.0000     -10.375795      -282.3397
  30   2.0000     -10.370027      -282.1828
  31   2.0000     -10.367735      -282.1204
  32   2.0000     -10.364737      -282.0388
  33   2.0000     -10.364327      -282.0277
  34   2.0000     -10.361060      -281.9388
  35   2.0000     -10.360276      -281.9175
  36   2.0000     -10.357913      -281.8532
  37   2.0000     -10.357847      -281.8514
  38   2.0000     -10.354904      -281.7713
  39   2.0000     -10.353551      -281.7345
  40   2.0000     -10.352676      -281.7106
  41   2.0000     -10.333841      -281.1981
  42   2.0000     -10.333685      -281.1939
  43   2.0000     -10.332444      -281.1601
  44   2.0000     -10.331127      -281.1243
  45   2.0000     -10.328716      -281.0586
  46   2.0000     -10.328116      -281.0423
  47   2.0000     -10.327692      -281.0308
  48   2.0000     -10.327511      -281.0259
  49   2.0000     -10.326378      -280.9950
  50   2.0000     -10.325648      -280.9752
  51   2.0000     -10.324951      -280.9562
  52   2.0000     -10.324585      -280.9462
  53   2.0000     -10.324139      -280.9341
  54   2.0000     -10.324005      -280.9305
  55   2.0000     -10.323494      -280.9165
  56   2.0000     -10.322565      -280.8913
  57   2.0000     -10.316405      -280.7236
  58   2.0000     -10.316052      -280.7140
  59   2.0000     -10.315418      -280.6968
  60   2.0000     -10.314858      -280.6815
  61   2.0000     -10.314037      -280.6592
  62   2.0000     -10.312006      -280.6040
  63   2.0000     -10.311951      -280.6025
  64   2.0000     -10.311260      -280.5837
  65   2.0000     -10.310807      -280.5713
  66   2.0000     -10.309326      -280.5310
  67   2.0000     -10.309176      -280.5269
  68   2.0000     -10.308778      -280.5161
  69   2.0000     -10.308532      -280.5094
  70   2.0000     -10.307978      -280.4943
  71   2.0000     -10.304203      -280.3916
  72   2.0000     -10.303003      -280.3590
  73   2.0000     -10.298353      -280.2324
  74   2.0000     -10.292745      -280.0798
  75   2.0000     -10.288867      -279.9743
  76   2.0000     -10.288175      -279.9555
  77   2.0000     -10.287903      -279.9481
  78   2.0000     -10.287529      -279.9379
  79   2.0000     -10.284276      -279.8494
  80   2.0000     -10.281145      -279.7642
  81   2.0000      -8.152867      -221.8508
  82   2.0000      -6.123938      -166.6408
  83   2.0000      -6.116049      -166.4261
  84   2.0000      -6.115775      -166.4187
  85   2.0000      -1.331649       -36.2360
  86   2.0000      -1.331127       -36.2218
  87   2.0000      -1.321552       -35.9613
  88   2.0000      -1.316393       -35.8209
  89   2.0000      -1.315861       -35.8064
  90   2.0000      -1.315849       -35.8061
  91   2.0000      -1.315689       -35.8017
  92   2.0000      -1.308721       -35.6121
  93   2.0000      -1.158935       -31.5362
  94   2.0000      -1.146469       -31.1970
  95   2.0000      -1.143659       -31.1205
  96   2.0000      -1.135051       -30.8863
  97   2.0000      -1.060290       -28.8520
  98   2.0000      -1.030633       -28.0450
  99   2.0000      -1.030130       -28.0313
 100   2.0000      -1.024645       -27.8820
 101   2.0000      -1.016244       -27.6534
 102   2.0000      -1.012139       -27.5417
 103   2.0000      -1.011243       -27.5173
 104   2.0000      -1.011051       -27.5121
 105   2.0000      -1.007740       -27.4220
 106   2.0000      -1.006122       -27.3780
 107   2.0000      -1.003195       -27.2983
 108   2.0000      -1.003129       -27.2965
 109   2.0000      -0.995107       -27.0782
 110   2.0000      -0.988350       -26.8944
 111   2.0000      -0.980641       -26.6846
 112   2.0000      -0.967291       -26.3213
 113   2.0000      -0.964861       -26.2552
 114   2.0000      -0.931150       -25.3379
 115   2.0000      -0.927137       -25.2287
 116   2.0000      -0.921734       -25.0816
 117   2.0000      -0.914136       -24.8749
 118   2.0000      -0.910650       -24.7800
 119   2.0000      -0.900851       -24.5134
 120   2.0000      -0.889921       -24.2160
 121   2.0000      -0.882717       -24.0199
 122   2.0000      -0.881635       -23.9905
 123   2.0000      -0.877152       -23.8685
 124   2.0000      -0.862248       -23.4629
 125   2.0000      -0.855186       -23.2708
 126   2.0000      -0.847617       -23.0648
 127   2.0000      -0.829257       -22.5652
 128   2.0000      -0.826415       -22.4879
 129   2.0000      -0.824422       -22.4337
 130   2.0000      -0.819975       -22.3127
 131   2.0000      -0.811096       -22.0711
 132   2.0000      -0.802737       -21.8436
 133   2.0000      -0.791776       -21.5453
 134   2.0000      -0.783809       -21.3285
 135   2.0000      -0.781565       -21.2675
 136   2.0000      -0.777710       -21.1626
 137   2.0000      -0.764796       -20.8112
 138   2.0000      -0.753908       -20.5149
 139   2.0000      -0.739270       -20.1166
 140   2.0000      -0.735554       -20.0155
 141   2.0000      -0.729761       -19.8578
 142   2.0000      -0.721973       -19.6459
 143   2.0000      -0.716046       -19.4846
 144   2.0000      -0.714774       -19.4500
 145   2.0000      -0.711109       -19.3502
 146   2.0000      -0.701198       -19.0806
 147   2.0000      -0.698280       -19.0012
 148   2.0000      -0.697113       -18.9694
 149   2.0000      -0.693515       -18.8715
 150   2.0000      -0.686461       -18.6796
 151   2.0000      -0.682105       -18.5610
 152   2.0000      -0.676297       -18.4030
 153   2.0000      -0.673768       -18.3341
 154   2.0000      -0.672619       -18.3029
 155   2.0000      -0.668898       -18.2016
 156   2.0000      -0.663662       -18.0592
 157   2.0000      -0.656458       -17.8631
 158   2.0000      -0.652188       -17.7469
 159   2.0000      -0.650753       -17.7079
 160   2.0000      -0.648333       -17.6420
 161   2.0000      -0.641641       -17.4599
 162   2.0000      -0.639705       -17.4073
 163   2.0000      -0.638713       -17.3803
 164   2.0000      -0.635624       -17.2962
 165   2.0000      -0.634324       -17.2608
 166   2.0000      -0.623823       -16.9751
 167   2.0000      -0.621971       -16.9247
 168   2.0000      -0.615340       -16.7443
 169   2.0000      -0.613463       -16.6932
 170   2.0000      -0.606542       -16.5049
 171   2.0000      -0.598831       -16.2950
 172   2.0000      -0.596629       -16.2351
 173   2.0000      -0.596271       -16.2254
 174   2.0000      -0.595889       -16.2150
 175   2.0000      -0.594027       -16.1643
 176   2.0000      -0.590147       -16.0587
 177   2.0000      -0.585637       -15.9360
 178   2.0000      -0.576870       -15.6974
 179   2.0000      -0.574707       -15.6386
 180   2.0000      -0.573653       -15.6099
 181   2.0000      -0.572321       -15.5736
 182   2.0000      -0.566862       -15.4251
 183   2.0000      -0.565621       -15.3913
 184   2.0000      -0.563671       -15.3383
 185   2.0000      -0.563377       -15.3303
 186   2.0000      -0.562413       -15.3040
 187   2.0000      -0.560941       -15.2640
 188   2.0000      -0.559412       -15.2224
 189   2.0000      -0.559336       -15.2203
 190   2.0000      -0.557111       -15.1598
 191   2.0000      -0.556164       -15.1340
 192   2.0000      -0.555582       -15.1182
 193   2.0000      -0.553210       -15.0536
 194   2.0000      -0.549785       -14.9604
 195   2.0000      -0.548019       -14.9124
 196   2.0000      -0.545531       -14.8447
 197   2.0000      -0.542395       -14.7593
 198   2.0000      -0.541506       -14.7351
 199   2.0000      -0.537922       -14.6376
 200   2.0000      -0.535713       -14.5775
 201   2.0000      -0.534231       -14.5372
 202   2.0000      -0.529275       -14.4023
 203   2.0000      -0.525047       -14.2873
 204   2.0000      -0.520141       -14.1538
 205   2.0000      -0.514732       -14.0066
 206   2.0000      -0.506557       -13.7841
 207   2.0000      -0.506180       -13.7739
 208   2.0000      -0.504434       -13.7263
 209   2.0000      -0.503598       -13.7036
 210   2.0000      -0.503160       -13.6917
 211   2.0000      -0.502465       -13.6728
 212   2.0000      -0.500681       -13.6242
 213   2.0000      -0.499512       -13.5924
 214   2.0000      -0.498299       -13.5594
 215   2.0000      -0.497168       -13.5286
 216   2.0000      -0.493877       -13.4391
 217   2.0000      -0.490358       -13.3433
 218   2.0000      -0.487750       -13.2724
 219   2.0000      -0.485579       -13.2133
 220   2.0000      -0.484429       -13.1820
 221   2.0000      -0.480385       -13.0719
 222   2.0000      -0.478132       -13.0106
 223   2.0000      -0.474200       -12.9036
 224   2.0000      -0.470831       -12.8120
 225   2.0000      -0.470143       -12.7932
 226   2.0000      -0.467020       -12.7083
 227   2.0000      -0.465600       -12.6696
 228   2.0000      -0.464658       -12.6440
 229   2.0000      -0.463996       -12.6260
 230   2.0000      -0.463316       -12.6075
 231   2.0000      -0.462087       -12.5740
 232   2.0000      -0.461312       -12.5529
 233   2.0000      -0.459968       -12.5164
 234   2.0000      -0.459143       -12.4939
 235   2.0000      -0.456506       -12.4222
 236   2.0000      -0.455839       -12.4040
 237   2.0000      -0.453374       -12.3369
 238   2.0000      -0.452690       -12.3183
 239   2.0000      -0.451428       -12.2840
 240   2.0000      -0.449624       -12.2349
 241   2.0000      -0.443464       -12.0673
 242   2.0000      -0.442071       -12.0294
 243   2.0000      -0.436079       -11.8663
 244   2.0000      -0.436053       -11.8656
 245   2.0000      -0.434828       -11.8323
 246   2.0000      -0.434424       -11.8213
 247   2.0000      -0.432195       -11.7606
 248   2.0000      -0.431666       -11.7462
 249   2.0000      -0.429459       -11.6862
 250   2.0000      -0.428769       -11.6674
 251   2.0000      -0.425838       -11.5876
 252   2.0000      -0.422000       -11.4832
 253   2.0000      -0.416911       -11.3447
 254   2.0000      -0.416215       -11.3258
 255   2.0000      -0.414267       -11.2728
 256   2.0000      -0.396940       -10.8013
 257   2.0000      -0.396419       -10.7871
 258   2.0000      -0.391864       -10.6632
 259   2.0000      -0.370057       -10.0697
 260   2.0000      -0.367881       -10.0105
 261   2.0000      -0.362474        -9.8634
 262   2.0000      -0.360828        -9.8186
 263   2.0000      -0.356863        -9.7107
 264   2.0000      -0.354145        -9.6368
 265   2.0000      -0.352404        -9.5894
 266   2.0000      -0.348038        -9.4706
 267   2.0000      -0.335141        -9.1197
 268   2.0000      -0.326757        -8.8915
 269   2.0000      -0.322642        -8.7795
 270   2.0000      -0.319345        -8.6898
 271   2.0000      -0.318232        -8.6595
 272   2.0000      -0.303444        -8.2571
 273   2.0000      -0.291757        -7.9391
 274   2.0000      -0.284366        -7.7380
 275   2.0000      -0.255689        -6.9576
 276   0.0000      -0.155006        -4.2179
 277   0.0000      -0.124290        -3.3821
 278   0.0000      -0.112799        -3.0694
 279   0.0000      -0.085969        -2.3393
 280   0.0000      -0.082041        -2.2325

MULLIKEN ATOMIC CHARGES
-----------------------
   0 C :   -0.089311
   1 C :    0.237890
   2 F :   -0.162511
   3 C :    0.238006
   4 F :   -0.165423
   5 C :   -0.101006
   6 C :   -0.015848
   7 C :    0.050154
   8 C :    0.301246
   9 C :   -0.338108
  10 C :   -0.191586
  11 N :    0.160442
  12 C :   -0.196225
  13 N :    0.166943
  14 C :   -0.072855
  15 C :    0.139165
  16 O :   -0.135298
  17 C :   -0.033862
  18 C :    0.077681
  19 C :   -0.052716
  20 C :    0.010434
  21 C :    0.237745
  22 C :   -0.022032
  23 F :   -0.173446
  24 C :    0.023471
  25 C :   -0.072711
  26 C :    0.115771
  27 C :   -0.072807
  28 C :    0.262086
  29 F :   -0.167783
  30 C :    0.029831
  31 C :   -0.085726
  32 C :    0.127831
  33 C :   -0.050712
  34 C :   -0.064877
  35 N :    0.042640
  36 C :   -0.129123
  37 C :   -0.117211
  38 N :    0.039040
  39 C :   -0.217252
  40 N :    0.247663
  41 C :   -0.210684
  42 N :    0.248680
  43 C :    0.180915
  44 C :    0.003808
  45 C :   -0.001174
  46 N :   -0.283150
  47 S :    0.559828
  48 N :   -0.289491
  49 C :   -0.044357
  50 C :   -0.055945
  51 C :    0.030120
  52 C :    0.265368
  53 C :   -0.063043
  54 F :   -0.173042
  55 C :    0.000900
  56 C :   -0.058614
  57 C :    0.078006
  58 C :   -0.071343
  59 C :    0.256807
  60 F :   -0.165389
  61 C :    0.043753
  62 C :    0.012222
  63 C :    0.020859
  64 C :   -0.116114
  65 C :    0.141867
  66 O :   -0.131105
  67 C :   -0.000486
  68 C :    0.035175
  69 C :   -0.093021
  70 C :    0.239784
  71 C :    0.236409
  72 C :   -0.102331
  73 F :   -0.166260
  74 F :   -0.162885
  75 C :    0.268034
  76 C :   -0.325684
  77 C :   -0.217483
  78 N :    0.183995
  79 C :   -0.182931
  80 N :    0.163307
  81 H :    0.017337
  82 H :    0.013317
  83 H :    0.022832
  84 H :    0.007740
  85 H :    0.000276
  86 H :    0.003127
  87 H :   -0.004808
  88 H :    0.010600
  89 H :   -0.001359
  90 H :    0.000314
  91 H :   -0.002436
  92 H :   -0.004546
  93 H :    0.002887
  94 H :    0.010310
  95 H :    0.022045
  96 H :    0.031302
  97 H :    0.020087
  98 H :    0.016056
Sum of atomic charges:   -0.0000000

LOEWDIN ATOMIC CHARGES
----------------------
   0 C :   -0.017835
   1 C :    0.075334
   2 F :   -0.041051
   3 C :    0.072204
   4 F :   -0.042515
   5 C :   -0.004126
   6 C :   -0.045646
   7 C :   -0.015003
   8 C :    0.073015
   9 C :   -0.130025
  10 C :   -0.019564
  11 N :   -0.042913
  12 C :   -0.024440
  13 N :   -0.041253
  14 C :   -0.088886
  15 C :    0.083543
  16 O :   -0.126153
  17 C :    0.073620
  18 C :   -0.016507
  19 C :    0.006171
  20 C :   -0.003541
  21 C :    0.065442
  22 C :   -0.033015
  23 F :   -0.049396
  24 C :    0.016811
  25 C :   -0.032519
  26 C :    0.007945
  27 C :   -0.051818
  28 C :    0.083259
  29 F :   -0.044356
  30 C :    0.018449
  31 C :   -0.006828
  32 C :   -0.017726
  33 C :   -0.003235
  34 C :    0.003679
  35 N :    0.014098
  36 C :   -0.024643
  37 C :   -0.021888
  38 N :    0.007018
  39 C :   -0.039256
  40 N :    0.002687
  41 C :   -0.038325
  42 N :    0.004164
  43 C :   -0.015736
  44 C :   -0.037358
  45 C :   -0.040430
  46 N :   -0.280876
  47 S :    0.688282
  48 N :   -0.276251
  49 C :    0.001788
  50 C :   -0.013221
  51 C :    0.008500
  52 C :    0.072922
  53 C :   -0.046317
  54 F :   -0.048997
  55 C :    0.008377
  56 C :   -0.027162
  57 C :   -0.003364
  58 C :   -0.053609
  59 C :    0.081527
  60 F :   -0.042311
  61 C :    0.033766
  62 C :   -0.024606
  63 C :    0.060029
  64 C :   -0.085338
  65 C :    0.082521
  66 O :   -0.132441
  67 C :   -0.047458
  68 C :   -0.012266
  69 C :   -0.020068
  70 C :    0.076062
  71 C :    0.070933
  72 C :   -0.003488
  73 F :   -0.043081
  74 F :   -0.040802
  75 C :    0.066025
  76 C :   -0.127923
  77 C :   -0.025423
  78 N :   -0.037863
  79 C :   -0.021140
  80 N :   -0.039798
  81 H :    0.051907
  82 H :    0.052859
  83 H :    0.050362
  84 H :    0.031739
  85 H :    0.033923
  86 H :    0.031095
  87 H :    0.033886
  88 H :    0.034624
  89 H :    0.035065
  90 H :    0.023013
  91 H :    0.030589
  92 H :    0.028319
  93 H :    0.036430
  94 H :    0.045192
  95 H :    0.040345
  96 H :    0.046618
  97 H :    0.052046
  98 H :    0.053608

  Mayer bond orders larger than 0.100000
B(  0-C ,  1-C ) :   1.3396 B(  0-C ,  5-C ) :   0.1051 B(  0-C ,  7-C ) :   1.3071
B(  0-C , 81-H ) :   0.9928 B(  1-C ,  2-F ) :   1.1481 B(  1-C ,  3-C ) :   1.2845
B(  3-C ,  4-F ) :   1.1346 B(  3-C ,  5-C ) :   1.3198 B(  5-C ,  6-C ) :   1.3171
B(  5-C , 82-H ) :   1.0210 B(  6-C ,  7-C ) :   1.3385 B(  6-C , 15-C ) :   0.9510
B(  7-C ,  8-C ) :   1.0081 B(  8-C ,  9-C ) :   1.6464 B(  8-C , 14-C ) :   1.0673
B(  9-C , 10-C ) :   1.1394 B(  9-C , 12-C ) :   1.1381 B( 10-C , 11-N ) :   2.9778
B( 12-C , 13-N ) :   2.9827 B( 14-C , 15-C ) :   0.9357 B( 14-C , 17-C ) :   1.5584
B( 15-C , 16-O ) :   2.2334 B( 17-C , 18-C ) :   1.1617 B( 17-C , 83-H ) :   0.9466
B( 18-C , 19-C ) :   1.4802 B( 18-C , 22-C ) :   1.0331 B( 19-C , 20-C ) :   1.1018
B( 19-C , 84-H ) :   1.0201 B( 20-C , 21-C ) :   1.0346 B( 20-C , 24-C ) :   1.4519
B( 21-C , 22-C ) :   1.6577 B( 21-C , 23-F ) :   1.1251 B( 22-C , 85-H ) :   1.0084
B( 24-C , 25-C ) :   1.1312 B( 24-C , 28-C ) :   1.0085 B( 25-C , 26-C ) :   1.4706
B( 25-C , 86-H ) :   1.0245 B( 26-C , 27-C ) :   1.0029 B( 26-C , 30-C ) :   1.1563
B( 27-C , 28-C ) :   1.6784 B( 27-C , 87-H ) :   1.0142 B( 28-C , 29-F ) :   1.1334
B( 30-C , 31-C ) :   1.5024 B( 30-C , 88-H ) :   0.9695 B( 31-C , 32-C ) :   1.2368
B( 31-C , 89-H ) :   0.9634 B( 32-C , 33-C ) :   1.1934 B( 32-C , 43-C ) :   0.1280
B( 32-C , 45-C ) :   1.1706 B( 33-C , 34-C ) :   1.1146 B( 33-C , 38-N ) :   1.4384
B( 34-C , 35-N ) :   1.4563 B( 34-C , 43-C ) :   1.2294 B( 35-N , 36-C ) :   1.7138
B( 36-C , 37-C ) :   1.2147 B( 36-C , 41-C ) :   1.1536 B( 37-C , 38-N ) :   1.7216
B( 37-C , 39-C ) :   1.1449 B( 39-C , 40-N ) :   3.0501 B( 41-C , 42-N ) :   3.0477
B( 43-C , 44-C ) :   1.2080 B( 43-C , 49-C ) :   1.1350 B( 44-C , 45-C ) :   1.1054
B( 44-C , 48-N ) :   1.5057 B( 45-C , 46-N ) :   1.5210 B( 46-N , 47-S ) :   1.2874
B( 46-N , 48-N ) :   0.1514 B( 47-S , 48-N ) :   1.2856 B( 49-C , 50-C ) :   1.5043
B( 49-C , 53-C ) :   1.0262 B( 50-C , 51-C ) :   1.1116 B( 50-C , 90-H ) :   1.0054
B( 51-C , 52-C ) :   1.0122 B( 51-C , 55-C ) :   1.4546 B( 52-C , 53-C ) :   1.6380
B( 52-C , 54-F ) :   1.1291 B( 53-C , 91-H ) :   1.0110 B( 55-C , 56-C ) :   1.1173
B( 55-C , 59-C ) :   1.0179 B( 56-C , 57-C ) :   1.5126 B( 56-C , 92-H ) :   1.0209
B( 57-C , 58-C ) :   1.0109 B( 57-C , 61-C ) :   1.1426 B( 58-C , 59-C ) :   1.6689
B( 58-C , 93-H ) :   1.0102 B( 59-C , 60-F ) :   1.1319 B( 61-C , 62-C ) :   1.6640
B( 61-C , 94-H ) :   0.9673 B( 62-C , 63-C ) :   1.1159 B( 62-C , 95-H ) :   0.9492
B( 63-C , 64-C ) :   1.6584 B( 63-C , 96-H ) :   0.9382 B( 64-C , 65-C ) :   0.9395
B( 64-C , 75-C ) :   1.0405 B( 65-C , 66-O ) :   2.2733 B( 65-C , 67-C ) :   0.9330
B( 67-C , 68-C ) :   1.3395 B( 67-C , 72-C ) :   1.3218 B( 68-C , 69-C ) :   1.3165
B( 68-C , 75-C ) :   1.0179 B( 69-C , 70-C ) :   1.3362 B( 69-C , 72-C ) :   0.1046
B( 69-C , 97-H ) :   0.9947 B( 70-C , 71-C ) :   1.2881 B( 70-C , 74-F ) :   1.1441
B( 71-C , 72-C ) :   1.3214 B( 71-C , 73-F ) :   1.1335 B( 72-C , 98-H ) :   1.0203
B( 75-C , 76-C ) :   1.6568 B( 76-C , 77-C ) :   1.1602 B( 76-C , 79-C ) :   1.1244
B( 77-C , 78-N ) :   3.0185 B( 79-C , 80-N ) :   2.9933

-----------------------------------------------------------------------------
         ABSORPTION SPECTRUM VIA TRANSITION ELECTRIC DIPOLE MOMENTS
-----------------------------------------------------------------------------
State   Energy  Wavelength   fosc         T2         TX        TY        TZ
        (cm-1)    (nm)                  (au**2)     (au)      (au)      (au)
-----------------------------------------------------------------------------
   0    8269.2   1209.3   1.070101118  42.60265  -4.24147   4.92010  -0.63656
   1   13785.0    725.4   0.151111355   3.60882   0.89963   1.18819   1.17801
   2   14215.7    703.4   0.088862116   2.05789  -0.40078   1.37455   0.08875
   3   14952.5    668.8   0.122788742   2.70346   1.10250  -1.16958   0.34646
   4   15189.6    658.3   0.052701270   1.14222  -0.70007   0.79052  -0.16492
   5   16512.5    605.6   0.018304914   0.36495  -0.46893   0.29902  -0.23587
   6   19474.9    513.5   0.592949867  10.02348   2.05185  -2.36560   0.46620
   7   21132.2    473.2   0.167917643   2.61593   0.82646  -1.35422   0.31459
   8   21894.7    456.7   0.311516826   4.68401  -1.43091  -0.69403  -1.46794
   9   23297.7    429.2   0.084066427   1.18791  -0.87908   0.08764  -0.63832
  10   23911.7    418.2   0.080417724   1.10718   0.48368  -0.86745  -0.34752
  11   24098.8    415.0   0.300746786   4.10849   1.28076  -1.44501   0.61650
  12   24243.0    412.5   0.017758962   0.24116   0.03152  -0.07334   0.48455
  13   24461.1    408.8   0.052989283   0.71316  -0.41564   0.63429  -0.37160
  14   24985.5    400.2   0.067067553   0.88369   0.53948  -0.73334  -0.23422
  15   25322.0    394.9   0.043947694   0.57137   0.01389  -0.73158   0.18966
  16   25716.8    388.9   0.027831777   0.35629  -0.14841  -0.52025  -0.25219
  17   26068.0    383.6   0.114661144   1.44805  -1.05295   0.58252  -0.00479
  18   26371.8    379.2   0.033117924   0.41343  -0.38749  -0.40038  -0.32090
  19   26673.6    374.9   0.038701736   0.47767  -0.57550   0.15528  -0.34980
  20   27169.0    368.1   0.029728569   0.36023  -0.35804   0.46813  -0.11355
  21   27773.4    360.1   0.045174780   0.53548  -0.06284   0.71822   0.12528
  22   28177.0    354.9   0.002254040   0.02634   0.14614   0.04338   0.05566
  23   28391.1    352.2   0.094891055   1.10032  -0.79454   0.68035  -0.07838
  24   28501.0    350.9   0.012606025   0.14561   0.30178   0.15685   0.17302
  25   28735.1    348.0   0.069186180   0.79265  -0.17298  -0.55815  -0.67171
  26   28984.5    345.0   0.287989503   3.27105   1.19355   0.25907   1.33393
  27   29302.5    341.3   0.164144707   1.84416  -0.49212   1.24912   0.20412
  28   29689.9    336.8   0.028045534   0.31098   0.20380  -0.50404  -0.12406
  29   30412.5    328.8   0.578567700   6.26293   0.23283   0.53300   2.43406
  30   30862.4    324.0   0.060564496   0.64605   0.09916  -0.59215   0.53439
  31   31044.4    322.1   0.101735896   1.07886  -0.03079  -0.92354   0.47433
  32   31221.8    320.3   0.021187648   0.22341  -0.02995  -0.47118   0.02247
  33   31544.8    317.0   0.044178183   0.46106  -0.18010   0.64645   0.10354
  34   31766.3    314.8   0.070403463   0.72963   0.68713  -0.33918  -0.37741
  35   32148.7    311.1   0.012363616   0.12661   0.18749  -0.30158   0.02249
  36   32388.6    308.8   0.054278121   0.55171   0.61618   0.39919   0.11260
  37   32870.8    304.2   0.016905350   0.16931  -0.22428  -0.27280   0.21117
  38   32961.7    303.4   0.005080506   0.05074  -0.20722   0.03197  -0.08234
  39   33105.5    302.1   0.069965475   0.69576  -0.25549  -0.69830  -0.37797
  40   33608.1    297.5   0.092104372   0.90222  -0.23046   0.85668   0.33942
  41   33807.6    295.8   0.087658748   0.85361   0.52821   0.53583   0.53617
  42   33875.0    295.2   0.069008756   0.67066   0.26379   0.40546   0.66081
  43   34090.8    293.3   0.073619978   0.71094  -0.46831  -0.32445  -0.62158
  44   34429.8    290.4   0.019823050   0.18954  -0.13245  -0.23145  -0.34414
  45   34962.6    286.0   0.036861872   0.34710  -0.44022  -0.39142   0.00967
  46   35102.2    284.9   0.079309530   0.74382  -0.82881  -0.23773   0.01946
  47   35341.0    283.0   0.000555367   0.00517  -0.01298   0.05721   0.04162
  48   35607.9    280.8   0.035350351   0.32683  -0.45984  -0.12806  -0.31461
  49   35651.4    280.5   0.013146932   0.12140   0.02782  -0.28299  -0.20136
  50   35807.7    279.3   0.019073061   0.17536  -0.31025   0.27932   0.03282
  51   35918.8    278.4   0.102254866   0.93721  -0.07842   0.92499   0.27469
  52   35985.0    277.9   0.034645892   0.31696  -0.30173   0.43154  -0.19922
  53   36324.1    275.3   0.502372754   4.55310  -1.35059  -1.09561  -1.23638
  54   36529.8    273.7   0.135393363   1.22018   0.54107   0.79698   0.54060
  55   36738.1    272.2   0.126712218   1.13547  -0.37699  -0.99021   0.11332
  56   36768.5    272.0   0.062003888   0.55516   0.12547  -0.54368  -0.49379
  57   36940.6    270.7   0.069278170   0.61740   0.31212   0.41518  -0.58959
  58   37140.9    269.2   0.176980680   1.56873  -0.69133  -0.86781  -0.58112
  59   37276.9    268.3   0.004445924   0.03926   0.03999  -0.19386  -0.00924
  60   37400.2    267.4   0.170405244   1.49998  -0.77815  -0.71103  -0.62361
  61   37573.7    266.1   0.127593733   1.11795  -0.89406   0.32342  -0.46260
  62   37687.4    265.3   0.005397470   0.04715   0.12444   0.12023   0.13118
  63   38151.7    262.1   0.006310004   0.05445   0.04206  -0.09341  -0.20965
  64   38282.6    261.2   0.084789432   0.72915   0.02095  -0.37899  -0.76490
  65   38340.5    260.8   0.049090130   0.42151  -0.01870   0.25302   0.59762
  66   38805.7    257.7   0.044106377   0.37418   0.19279  -0.57744   0.05980
  67   38926.4    256.9   0.015123846   0.12791   0.20111   0.18382   0.23168
  68   39107.9    255.7   0.093150568   0.78414  -0.32026   0.56595  -0.60106
  69   39191.9    255.2   0.074783105   0.62818  -0.27377   0.49517   0.55501
  70   39369.8    254.0   0.034224595   0.28619  -0.13616   0.15965  -0.49210
  71   39462.9    253.4   0.048490713   0.40452  -0.08518   0.60209   0.18642
  72   39517.6    253.1   0.021091642   0.17571   0.34657  -0.21879   0.08793
  73   39766.1    251.5   0.023029009   0.19065  -0.02479   0.23641   0.36626
  74   39824.1    251.1   0.009401706   0.07772   0.05332  -0.25908  -0.08805
  75   40115.0    249.3   0.006611689   0.05426  -0.19149   0.07691  -0.10806
  76   40271.8    248.3   0.054835999   0.44827  -0.07184  -0.25712  -0.61400

FINAL SINGLE POINT ENERGY     -4187.041756416645

DIPOLE MOMENT
-------------
                                X             Y             Z
Electronic contribution:      3.30488      20.19169      10.12166
Nuclear contribution   :     -1.90373     -20.67716     -13.34042
                        -----------------------------------------
Total Dipole Moment    :      1.40114      -0.48548      -3.21876
                        -----------------------------------------
Magnitude (a.u.)       :      3.54391
Magnitude (Debye)      :      9.00790

Rotational constants in cm-1:     0.001169     0.000151     0.000138
Rotational constants in MHz :    35.053853     4.530825     4.129640

                             ****ORCA TERMINATED NORMALLY****
TOTAL RUN TIME: 0 days 0 hours 11 minutes 8 seconds 175 msec
