                         Program Version 4.2.0 -  RELEASE  -
|  1> # ORCA input file
|  2> # SCF done       -207.070664779460          0.000547129501
|  3> ! CAM-B3LYP def2-SVP def2/J RIJCOSX Grid4 TightSCF
|  4> %maxcore 5000
|  5> %tddft
|  6>     Mode sTDDFT
|  7>     Ethresh 5.0
|  8>     maxcore 5000
|  9> end
| 10>
| 11> %pal
| 12>   nprocs 6
| 13>   end
| 14> * xyz 0 1
| 15>    C       -3.33441        -1.63356         0.32319
| 16>    C       -2.62712        -0.57023        -0.21695
| 17>    F       -3.22518         0.62129        -0.31574
| 18>    C       -1.30934        -0.71237        -0.65569
| 19>    F       -0.66744         0.34127        -1.17227
| 20>    C       -0.66095        -1.93259        -0.55831
| 21>    C       -1.36520        -2.99062        -0.01766
| 22>    C       -2.69211        -2.85877         0.42136
| 23>    C       -3.14745        -4.15109         0.92943
| 24>    C       -4.42998        -4.44235         1.31078
| 25>    C       -5.48334        -3.50185         1.32168
| 26>    N       -6.37914        -2.78603         1.36058
| 27>    C       -4.90144        -5.71266         1.70974
| 28>    N       -5.37367        -6.71021         2.02593
| 29>    C       -2.02439        -5.07226         0.87118
| 30>    C       -0.89587        -4.37862         0.20092
| 31>    O        0.19811        -4.80668        -0.08397
| 32>    C       -1.99705        -6.28987         1.49540
| 33>    C       -1.02376        -7.31421         1.47882
| 34>    C        0.02572        -7.56281         0.61813
| 35>    C        0.66699        -8.77947         1.01225
| 36>    C       -0.07078        -9.24762         2.18497
| 37>    C       -1.07934        -8.40819         2.45939
| 38>    F        0.24013       -10.36597         2.85147
| 39>    C        1.73745        -9.40469         0.41600
| 40>    C        2.39512       -10.59652         0.82198
| 41>    C        3.41242       -10.88355        -0.06781
| 42>    C        3.42333        -9.83954        -1.10151
| 43>    C        2.44170        -8.97715        -0.80443
| 44>    F        2.10756        -7.89256        -1.50186
| 45>    C        4.27397       -11.99682         0.02460
| 46>    C        5.22526       -12.31433        -0.90055
| 47>    C        6.10836       -13.41553        -0.88300
| 48>    S        6.93177       -13.79939        -2.36483
| 49>    C        7.71907       -15.17600        -1.65425
| 50>    C        7.35345       -15.30580        -0.30846
| 51>    C        6.47050       -14.31590         0.12570
| 52>    C        6.01907       -14.20702         1.54872
| 53>    C        6.93313       -15.01985         2.47799
| 54>    C        8.22620       -14.37967         2.57738
| 55>    N        9.24848       -13.87338         2.63273
| 56>    C        7.10488       -16.44717         1.91781
| 57>    C        5.80227       -17.04970         1.73903
| 58>    N        4.76645       -17.50610         1.58545
| 59>    C        7.85228       -16.40363         0.57642
| 60>    C        8.57539       -15.96438        -2.45365
| 61>    C        9.36525       -17.04513        -2.11460
| 62>    C       10.02663       -17.52301        -3.27924
| 63>    C        9.59217       -16.63738        -4.36453
| 64>    C        8.74052       -15.71695        -3.89284
| 65>    F       10.00115       -16.76883        -5.62809
| 66>    C       10.87220       -18.60437        -3.38463
| 67>    C       11.53060       -19.10384        -4.54509
| 68>    C       12.24604       -20.23636        -4.20736
| 69>    C       12.06302       -20.48284        -2.77275
| 70>    C       11.26224       -19.51454        -2.30475
| 71>    F       10.84280       -19.37370        -1.04085
| 72>    C       13.01497       -21.01627        -5.09668
| 73>    C       13.64598       -22.18070        -4.76525
| 74>    C       14.40459       -22.91475        -5.69582
| 75>    C       15.12739       -24.05585        -5.48284
| 76>    C       15.52764       -24.88360        -6.65143
| 77>    O       15.50098       -24.55883        -7.81470
| 78>    C       15.90639       -26.19670        -6.08290
| 79>    C       15.85118       -26.13169        -4.67928
| 80>    C       16.12824       -27.25870        -3.92223
| 81>    C       16.46056       -28.42688        -4.59223
| 82>    C       16.52584       -28.47964        -5.98552
| 83>    C       16.24633       -27.35768        -6.74915
| 84>    F       16.85621       -29.62670        -6.58863
| 85>    F       16.72010       -29.52871        -3.88153
| 86>    C       15.50448       -24.76477        -4.28053
| 87>    C       15.71284       -24.23954        -3.03248
| 88>    C       15.64077       -22.86758        -2.70789
| 89>    N       15.64187       -21.76780        -2.38001
| 90>    C       16.12830       -25.00117        -1.91856
| 91>    N       16.44128       -25.56810        -0.97141
| 92>    H       -4.34795        -1.47055         0.65072
| 93>    H        0.35732        -2.04788        -0.89400
| 94>    H       -2.84298        -6.51676         2.13482
| 95>    H        0.32192        -6.96017        -0.21639
| 96>    H       -1.80218        -8.48730         3.24797
| 97>    H        2.13669       -11.17813         1.68496
| 98>    H        4.09710        -9.78289        -1.93298
| 99>    H        4.10642       -12.63576         0.87753
|100>    H        5.29965       -11.69661        -1.78557
|101>    H        4.99764       -14.59006         1.64491
|102>    H        6.02418       -13.15810         1.85676
|103>    H        6.49354       -15.05899         3.48181
|104>    H        7.66824       -17.06586         2.62644
|105>    H        7.73407       -17.36403         0.06776
|106>    H        8.91913       -16.25199         0.76934
|107>    H        9.50775       -17.46989        -1.14455
|108>    H        8.24895       -14.93690        -4.44080
|109>    H       11.46529       -18.67053        -5.52408
|110>    H       12.51512       -21.27302        -2.20787
|111>    H       13.10800       -20.64184        -6.10868
|112>    H       13.53495       -22.57121        -3.76623
|113>    H       14.36194       -22.59321        -6.73183
|114>    H       16.08727       -27.27023        -2.84531
|115>    H       16.29307       -27.39626        -7.82577
|116> *
|117>
|118>                          ****END OF INPUT****

CARTESIAN COORDINATES (ANGSTROEM)
---------------------------------
  C     -3.334410   -1.633560    0.323190
  C     -2.627120   -0.570230   -0.216950
  F     -3.225180    0.621290   -0.315740
  C     -1.309340   -0.712370   -0.655690
  F     -0.667440    0.341270   -1.172270
  C     -0.660950   -1.932590   -0.558310
  C     -1.365200   -2.990620   -0.017660
  C     -2.692110   -2.858770    0.421360
  C     -3.147450   -4.151090    0.929430
  C     -4.429980   -4.442350    1.310780
  C     -5.483340   -3.501850    1.321680
  N     -6.379140   -2.786030    1.360580
  C     -4.901440   -5.712660    1.709740
  N     -5.373670   -6.710210    2.025930
  C     -2.024390   -5.072260    0.871180
  C     -0.895870   -4.378620    0.200920
  O      0.198110   -4.806680   -0.083970
  C     -1.997050   -6.289870    1.495400
  C     -1.023760   -7.314210    1.478820
  C      0.025720   -7.562810    0.618130
  C      0.666990   -8.779470    1.012250
  C     -0.070780   -9.247620    2.184970
  C     -1.079340   -8.408190    2.459390
  F      0.240130  -10.365970    2.851470
  C      1.737450   -9.404690    0.416000
  C      2.395120  -10.596520    0.821980
  C      3.412420  -10.883550   -0.067810
  C      3.423330   -9.839540   -1.101510
  C      2.441700   -8.977150   -0.804430
  F      2.107560   -7.892560   -1.501860
  C      4.273970  -11.996820    0.024600
  C      5.225260  -12.314330   -0.900550
  C      6.108360  -13.415530   -0.883000
  S      6.931770  -13.799390   -2.364830
  C      7.719070  -15.176000   -1.654250
  C      7.353450  -15.305800   -0.308460
  C      6.470500  -14.315900    0.125700
  C      6.019070  -14.207020    1.548720
  C      6.933130  -15.019850    2.477990
  C      8.226200  -14.379670    2.577380
  N      9.248480  -13.873380    2.632730
  C      7.104880  -16.447170    1.917810
  C      5.802270  -17.049700    1.739030
  N      4.766450  -17.506100    1.585450
  C      7.852280  -16.403630    0.576420
  C      8.575390  -15.964380   -2.453650
  C      9.365250  -17.045130   -2.114600
  C     10.026630  -17.523010   -3.279240
  C      9.592170  -16.637380   -4.364530
  C      8.740520  -15.716950   -3.892840
  F     10.001150  -16.768830   -5.628090
  C     10.872200  -18.604370   -3.384630
  C     11.530600  -19.103840   -4.545090
  C     12.246040  -20.236360   -4.207360
  C     12.063020  -20.482840   -2.772750
  C     11.262240  -19.514540   -2.304750
  F     10.842800  -19.373700   -1.040850
  C     13.014970  -21.016270   -5.096680
  C     13.645980  -22.180700   -4.765250
  C     14.404590  -22.914750   -5.695820
  C     15.127390  -24.055850   -5.482840
  C     15.527640  -24.883600   -6.651430
  O     15.500980  -24.558830   -7.814700
  C     15.906390  -26.196700   -6.082900
  C     15.851180  -26.131690   -4.679280
  C     16.128240  -27.258700   -3.922230
  C     16.460560  -28.426880   -4.592230
  C     16.525840  -28.479640   -5.985520
  C     16.246330  -27.357680   -6.749150
  F     16.856210  -29.626700   -6.588630
  F     16.720100  -29.528710   -3.881530
  C     15.504480  -24.764770   -4.280530
  C     15.712840  -24.239540   -3.032480
  C     15.640770  -22.867580   -2.707890
  N     15.641870  -21.767800   -2.380010
  C     16.128300  -25.001170   -1.918560
  N     16.441280  -25.568100   -0.971410
  H     -4.347950   -1.470550    0.650720
  H      0.357320   -2.047880   -0.894000
  H     -2.842980   -6.516760    2.134820
  H      0.321920   -6.960170   -0.216390
  H     -1.802180   -8.487300    3.247970
  H      2.136690  -11.178130    1.684960
  H      4.097100   -9.782890   -1.932980
  H      4.106420  -12.635760    0.877530
  H      5.299650  -11.696610   -1.785570
  H      4.997640  -14.590060    1.644910
  H      6.024180  -13.158100    1.856760
  H      6.493540  -15.058990    3.481810
  H      7.668240  -17.065860    2.626440
  H      7.734070  -17.364030    0.067760
  H      8.919130  -16.251990    0.769340
  H      9.507750  -17.469890   -1.144550
  H      8.248950  -14.936900   -4.440800
  H     11.465290  -18.670530   -5.524080
  H     12.515120  -21.273020   -2.207870
  H     13.108000  -20.641840   -6.108680
  H     13.534950  -22.571210   -3.766230
  H     14.361940  -22.593210   -6.731830
  H     16.087270  -27.270230   -2.845310
  H     16.293070  -27.396260   -7.825770

 Total Charge           Charge          ....    0
 Multiplicity           Mult            ....    1
 Number of Electrons    NEL             ....  530
 Basis Dimension        Dim             .... 1202

ORBITAL ENERGIES
----------------

  NO   OCC          E(Eh)            E(eV)
   0   2.0000     -88.984622     -2421.3947
   1   2.0000     -24.809608      -675.1037
   2   2.0000     -24.806390      -675.0162
   3   2.0000     -24.806250      -675.0124
   4   2.0000     -24.805887      -675.0025
   5   2.0000     -24.805784      -674.9997
   6   2.0000     -24.804528      -674.9655
   7   2.0000     -24.803064      -674.9257
   8   2.0000     -24.797014      -674.7611
   9   2.0000     -19.227835      -523.2160
  10   2.0000     -19.225264      -523.1460
  11   2.0000     -14.427883      -392.6027
  12   2.0000     -14.426998      -392.5786
  13   2.0000     -14.424734      -392.5170
  14   2.0000     -14.424228      -392.5032
  15   2.0000     -14.422863      -392.4661
  16   2.0000     -14.421960      -392.4415
  17   2.0000     -10.392311      -282.7892
  18   2.0000     -10.391695      -282.7724
  19   2.0000     -10.391380      -282.7638
  20   2.0000     -10.390887      -282.7504
  21   2.0000     -10.379312      -282.4354
  22   2.0000     -10.377159      -282.3769
  23   2.0000     -10.376411      -282.3565
  24   2.0000     -10.376299      -282.3535
  25   2.0000     -10.368331      -282.1366
  26   2.0000     -10.361719      -281.9567
  27   2.0000     -10.355592      -281.7900
  28   2.0000     -10.355381      -281.7842
  29   2.0000     -10.355002      -281.7739
  30   2.0000     -10.353302      -281.7277
  31   2.0000     -10.352174      -281.6970
  32   2.0000     -10.349986      -281.6374
  33   2.0000     -10.333902      -281.1998
  34   2.0000     -10.333195      -281.1805
  35   2.0000     -10.328364      -281.0491
  36   2.0000     -10.326803      -281.0066
  37   2.0000     -10.326581      -281.0006
  38   2.0000     -10.326449      -280.9970
  39   2.0000     -10.326021      -280.9853
  40   2.0000     -10.325212      -280.9633
  41   2.0000     -10.325128      -280.9610
  42   2.0000     -10.324228      -280.9365
  43   2.0000     -10.323916      -280.9280
  44   2.0000     -10.323803      -280.9250
  45   2.0000     -10.322892      -280.9002
  46   2.0000     -10.321685      -280.8673
  47   2.0000     -10.321596      -280.8649
  48   2.0000     -10.320994      -280.8485
  49   2.0000     -10.319997      -280.8214
  50   2.0000     -10.319736      -280.8143
  51   2.0000     -10.317667      -280.7580
  52   2.0000     -10.316977      -280.7392
  53   2.0000     -10.316339      -280.7218
  54   2.0000     -10.315805      -280.7073
  55   2.0000     -10.315166      -280.6899
  56   2.0000     -10.314757      -280.6788
  57   2.0000     -10.314419      -280.6696
  58   2.0000     -10.314147      -280.6622
  59   2.0000     -10.313500      -280.6446
  60   2.0000     -10.313102      -280.6338
  61   2.0000     -10.308852      -280.5181
  62   2.0000     -10.308445      -280.5071
  63   2.0000     -10.308297      -280.5030
  64   2.0000     -10.307425      -280.4793
  65   2.0000     -10.305799      -280.4351
  66   2.0000     -10.305769      -280.4342
  67   2.0000     -10.301919      -280.3295
  68   2.0000     -10.300767      -280.2981
  69   2.0000     -10.295431      -280.1529
  70   2.0000     -10.293389      -280.0973
  71   2.0000     -10.291386      -280.0428
  72   2.0000     -10.290013      -280.0055
  73   2.0000     -10.286876      -279.9201
  74   2.0000     -10.285609      -279.8857
  75   2.0000     -10.283085      -279.8170
  76   2.0000     -10.282326      -279.7963
  77   2.0000      -8.080181      -219.8729
  78   2.0000      -6.049265      -164.6089
  79   2.0000      -6.045320      -164.5015
  80   2.0000      -6.042465      -164.4238
  81   2.0000      -1.330179       -36.1960
  82   2.0000      -1.329253       -36.1708
  83   2.0000      -1.323172       -36.0054
  84   2.0000      -1.320830       -35.9416
  85   2.0000      -1.315316       -35.7916
  86   2.0000      -1.314948       -35.7816
  87   2.0000      -1.313976       -35.7551
  88   2.0000      -1.309620       -35.6366
  89   2.0000      -1.144151       -31.1339
  90   2.0000      -1.140913       -31.0458
  91   2.0000      -1.036447       -28.2032
  92   2.0000      -1.029426       -28.0121
  93   2.0000      -1.027826       -27.9686
  94   2.0000      -1.018145       -27.7051
  95   2.0000      -1.012439       -27.5499
  96   2.0000      -1.010269       -27.4908
  97   2.0000      -1.008936       -27.4545
  98   2.0000      -1.006349       -27.3842
  99   2.0000      -1.004774       -27.3413
 100   2.0000      -1.002917       -27.2908
 101   2.0000      -1.000805       -27.2333
 102   2.0000      -0.988389       -26.8954
 103   2.0000      -0.986049       -26.8318
 104   2.0000      -0.971138       -26.4260
 105   2.0000      -0.965654       -26.2768
 106   2.0000      -0.962692       -26.1962
 107   2.0000      -0.933228       -25.3944
 108   2.0000      -0.929332       -25.2884
 109   2.0000      -0.911601       -24.8059
 110   2.0000      -0.909774       -24.7562
 111   2.0000      -0.902349       -24.5542
 112   2.0000      -0.893072       -24.3017
 113   2.0000      -0.887183       -24.1415
 114   2.0000      -0.881046       -23.9745
 115   2.0000      -0.879776       -23.9399
 116   2.0000      -0.878909       -23.9163
 117   2.0000      -0.869225       -23.6528
 118   2.0000      -0.858836       -23.3701
 119   2.0000      -0.848540       -23.0899
 120   2.0000      -0.828060       -22.5327
 121   2.0000      -0.823798       -22.4167
 122   2.0000      -0.821023       -22.3412
 123   2.0000      -0.812066       -22.0974
 124   2.0000      -0.802340       -21.8328
 125   2.0000      -0.794538       -21.6205
 126   2.0000      -0.785049       -21.3623
 127   2.0000      -0.780162       -21.2293
 128   2.0000      -0.778278       -21.1780
 129   2.0000      -0.774161       -21.0660
 130   2.0000      -0.768857       -20.9217
 131   2.0000      -0.757320       -20.6077
 132   2.0000      -0.737100       -20.0575
 133   2.0000      -0.732264       -19.9259
 134   2.0000      -0.725869       -19.7519
 135   2.0000      -0.721684       -19.6380
 136   2.0000      -0.713107       -19.4046
 137   2.0000      -0.702897       -19.1268
 138   2.0000      -0.698087       -18.9959
 139   2.0000      -0.696576       -18.9548
 140   2.0000      -0.692171       -18.8349
 141   2.0000      -0.689577       -18.7643
 142   2.0000      -0.684907       -18.6373
 143   2.0000      -0.680789       -18.5252
 144   2.0000      -0.676474       -18.4078
 145   2.0000      -0.665178       -18.1004
 146   2.0000      -0.663861       -18.0646
 147   2.0000      -0.663423       -18.0527
 148   2.0000      -0.657127       -17.8813
 149   2.0000      -0.651831       -17.7372
 150   2.0000      -0.649402       -17.6711
 151   2.0000      -0.648029       -17.6338
 152   2.0000      -0.647054       -17.6072
 153   2.0000      -0.642509       -17.4836
 154   2.0000      -0.637941       -17.3592
 155   2.0000      -0.633354       -17.2344
 156   2.0000      -0.625269       -17.0144
 157   2.0000      -0.622207       -16.9311
 158   2.0000      -0.618236       -16.8231
 159   2.0000      -0.612906       -16.6780
 160   2.0000      -0.609717       -16.5912
 161   2.0000      -0.607726       -16.5371
 162   2.0000      -0.602273       -16.3887
 163   2.0000      -0.595207       -16.1964
 164   2.0000      -0.594842       -16.1865
 165   2.0000      -0.594056       -16.1651
 166   2.0000      -0.593049       -16.1377
 167   2.0000      -0.584595       -15.9076
 168   2.0000      -0.579135       -15.7591
 169   2.0000      -0.576821       -15.6961
 170   2.0000      -0.575846       -15.6696
 171   2.0000      -0.574425       -15.6309
 172   2.0000      -0.568947       -15.4818
 173   2.0000      -0.568872       -15.4798
 174   2.0000      -0.567528       -15.4432
 175   2.0000      -0.564118       -15.3504
 176   2.0000      -0.563979       -15.3466
 177   2.0000      -0.561190       -15.2708
 178   2.0000      -0.559188       -15.2163
 179   2.0000      -0.558089       -15.1864
 180   2.0000      -0.557151       -15.1609
 181   2.0000      -0.556109       -15.1325
 182   2.0000      -0.554760       -15.0958
 183   2.0000      -0.553869       -15.0715
 184   2.0000      -0.553777       -15.0690
 185   2.0000      -0.550566       -14.9817
 186   2.0000      -0.546996       -14.8845
 187   2.0000      -0.543756       -14.7964
 188   2.0000      -0.541584       -14.7372
 189   2.0000      -0.540055       -14.6956
 190   2.0000      -0.536465       -14.5979
 191   2.0000      -0.535691       -14.5769
 192   2.0000      -0.532838       -14.4993
 193   2.0000      -0.527368       -14.3504
 194   2.0000      -0.521293       -14.1851
 195   2.0000      -0.520482       -14.1630
 196   2.0000      -0.519179       -14.1276
 197   2.0000      -0.515653       -14.0316
 198   2.0000      -0.511699       -13.9240
 199   2.0000      -0.506830       -13.7916
 200   2.0000      -0.505985       -13.7685
 201   2.0000      -0.502289       -13.6680
 202   2.0000      -0.501794       -13.6545
 203   2.0000      -0.501143       -13.6368
 204   2.0000      -0.500650       -13.6234
 205   2.0000      -0.499198       -13.5839
 206   2.0000      -0.494949       -13.4682
 207   2.0000      -0.494365       -13.4524
 208   2.0000      -0.491363       -13.3707
 209   2.0000      -0.489217       -13.3123
 210   2.0000      -0.485256       -13.2045
 211   2.0000      -0.483425       -13.1547
 212   2.0000      -0.481524       -13.1029
 213   2.0000      -0.480943       -13.0871
 214   2.0000      -0.474651       -12.9159
 215   2.0000      -0.472039       -12.8448
 216   2.0000      -0.471331       -12.8256
 217   2.0000      -0.466099       -12.6832
 218   2.0000      -0.464565       -12.6414
 219   2.0000      -0.462748       -12.5920
 220   2.0000      -0.461662       -12.5625
 221   2.0000      -0.461104       -12.5473
 222   2.0000      -0.460236       -12.5237
 223   2.0000      -0.458649       -12.4805
 224   2.0000      -0.457567       -12.4510
 225   2.0000      -0.456299       -12.4165
 226   2.0000      -0.455420       -12.3926
 227   2.0000      -0.454305       -12.3623
 228   2.0000      -0.453929       -12.3520
 229   2.0000      -0.450838       -12.2679
 230   2.0000      -0.450387       -12.2557
 231   2.0000      -0.449420       -12.2294
 232   2.0000      -0.443577       -12.0703
 233   2.0000      -0.443372       -12.0648
 234   2.0000      -0.441396       -12.0110
 235   2.0000      -0.434951       -11.8356
 236   2.0000      -0.434264       -11.8169
 237   2.0000      -0.432529       -11.7697
 238   2.0000      -0.432356       -11.7650
 239   2.0000      -0.431607       -11.7446
 240   2.0000      -0.428514       -11.6605
 241   2.0000      -0.426597       -11.6083
 242   2.0000      -0.421758       -11.4766
 243   2.0000      -0.417471       -11.3600
 244   2.0000      -0.416932       -11.3453
 245   2.0000      -0.414841       -11.2884
 246   2.0000      -0.411219       -11.1898
 247   2.0000      -0.408775       -11.1233
 248   2.0000      -0.396456       -10.7881
 249   2.0000      -0.374178       -10.1819
 250   2.0000      -0.361179        -9.8282
 251   2.0000      -0.355728        -9.6799
 252   2.0000      -0.352857        -9.6017
 253   2.0000      -0.349005        -9.4969
 254   2.0000      -0.347799        -9.4641
 255   2.0000      -0.343768        -9.3544
 256   2.0000      -0.337968        -9.1966
 257   2.0000      -0.326500        -8.8845
 258   2.0000      -0.324025        -8.8172
 259   2.0000      -0.318394        -8.6639
 260   2.0000      -0.318075        -8.6553
 261   2.0000      -0.304996        -8.2994
 262   2.0000      -0.289915        -7.8890
 263   2.0000      -0.281908        -7.6711
 264   2.0000      -0.256724        -6.9858
 265   0.0000      -0.138953        -3.7811
 266   0.0000      -0.121471        -3.3054
 267   0.0000      -0.086615        -2.3569
 268   0.0000      -0.079864        -2.1732
 269   0.0000      -0.064460        -1.7540

MULLIKEN ATOMIC CHARGES
-----------------------
   0 C :   -0.087509
   1 C :    0.235840
   2 F :   -0.163630
   3 C :    0.234811
   4 F :   -0.166975
   5 C :   -0.099304
   6 C :   -0.009752
   7 C :    0.044483
   8 C :    0.291320
   9 C :   -0.340959
  10 C :   -0.191493
  11 N :    0.163133
  12 C :   -0.201978
  13 N :    0.168622
  14 C :   -0.067944
  15 C :    0.145668
  16 O :   -0.135507
  17 C :   -0.019310
  18 C :    0.066025
  19 C :   -0.023594
  20 C :   -0.019174
  21 C :    0.258631
  22 C :   -0.075379
  23 F :   -0.177883
  24 C :    0.024451
  25 C :   -0.088492
  26 C :    0.115592
  27 C :   -0.075295
  28 C :    0.267470
  29 F :   -0.158314
  30 C :   -0.016134
  31 C :    0.055481
  32 C :   -0.112279
  33 S :    0.145938
  34 C :   -0.098404
  35 C :   -0.066481
  36 C :   -0.063166
  37 C :    0.113524
  38 C :   -0.061821
  39 C :   -0.247757
  40 N :    0.155595
  41 C :   -0.045826
  42 C :   -0.252148
  43 N :    0.148469
  44 C :    0.105132
  45 C :    0.110864
  46 C :   -0.134476
  47 C :    0.034553
  48 C :    0.265574
  49 C :   -0.098391
  50 F :   -0.168296
  51 C :   -0.006866
  52 C :   -0.061712
  53 C :    0.102937
  54 C :   -0.057827
  55 C :    0.256929
  56 F :   -0.175303
  57 C :    0.017390
  58 C :    0.016765
  59 C :    0.027461
  60 C :   -0.110152
  61 C :    0.140717
  62 O :   -0.136480
  63 C :    0.004057
  64 C :    0.031974
  65 C :   -0.093444
  66 C :    0.237483
  67 C :    0.235000
  68 C :   -0.103843
  69 F :   -0.166769
  70 F :   -0.162951
  71 C :    0.280491
  72 C :   -0.332799
  73 C :   -0.215503
  74 N :    0.176708
  75 C :   -0.186862
  76 N :    0.162586
  77 H :    0.018048
  78 H :    0.011809
  79 H :    0.017464
  80 H :    0.014865
  81 H :   -0.002432
  82 H :   -0.008837
  83 H :   -0.008578
  84 H :   -0.018402
  85 H :   -0.008023
  86 H :    0.072579
  87 H :    0.053160
  88 H :    0.056249
  89 H :    0.058130
  90 H :    0.062317
  91 H :    0.068938
  92 H :   -0.015264
  93 H :    0.001918
  94 H :   -0.005136
  95 H :   -0.005725
  96 H :    0.001289
  97 H :    0.017450
  98 H :    0.018603
  99 H :    0.020554
 100 H :    0.015529
Sum of atomic charges:   -0.0000000

LOEWDIN ATOMIC CHARGES
----------------------
   0 C :   -0.017778
   1 C :    0.074249
   2 F :   -0.042100
   3 C :    0.071539
   4 F :   -0.043888
   5 C :   -0.005311
   6 C :   -0.044305
   7 C :   -0.015747
   8 C :    0.073498
   9 C :   -0.132508
  10 C :   -0.019911
  11 N :   -0.044415
  12 C :   -0.025161
  13 N :   -0.043151
  14 C :   -0.086022
  15 C :    0.084506
  16 O :   -0.126498
  17 C :    0.072391
  18 C :   -0.035210
  19 C :    0.022945
  20 C :   -0.013618
  21 C :    0.067662
  22 C :   -0.046516
  23 F :   -0.053846
  24 C :    0.026071
  25 C :   -0.057653
  26 C :    0.016058
  27 C :   -0.056406
  28 C :    0.088500
  29 F :   -0.037087
  30 C :   -0.017923
  31 C :   -0.020006
  32 C :   -0.161787
  33 S :    0.470855
  34 C :   -0.158212
  35 C :   -0.037154
  36 C :   -0.045711
  37 C :   -0.010142
  38 C :   -0.032551
  39 C :   -0.038051
  40 N :   -0.045303
  41 C :   -0.032411
  42 C :   -0.037458
  43 N :   -0.048097
  44 C :   -0.008100
  45 C :   -0.007339
  46 C :   -0.066248
  47 C :    0.014001
  48 C :    0.085639
  49 C :   -0.062435
  50 F :   -0.044297
  51 C :   -0.005569
  52 C :   -0.020044
  53 C :   -0.011737
  54 C :   -0.044039
  55 C :    0.078716
  56 F :   -0.052537
  57 C :    0.040867
  58 C :   -0.025797
  59 C :    0.068597
  60 C :   -0.093135
  61 C :    0.082574
  62 O :   -0.136327
  63 C :   -0.046597
  64 C :   -0.012341
  65 C :   -0.020525
  66 C :    0.075051
  67 C :    0.070593
  68 C :   -0.004459
  69 F :   -0.043810
  70 F :   -0.041583
  71 C :    0.069439
  72 C :   -0.134307
  73 C :   -0.025079
  74 N :   -0.043475
  75 C :   -0.021581
  76 N :   -0.043141
  77 H :    0.051848
  78 H :    0.052162
  79 H :    0.047683
  80 H :    0.027338
  81 H :    0.035312
  82 H :    0.025885
  83 H :    0.031559
  84 H :    0.034263
  85 H :    0.032071
  86 H :    0.046763
  87 H :    0.046757
  88 H :    0.063074
  89 H :    0.064478
  90 H :    0.049581
  91 H :    0.049902
  92 H :    0.020561
  93 H :    0.027863
  94 H :    0.027739
  95 H :    0.034615
  96 H :    0.039860
  97 H :    0.032135
  98 H :    0.046167
  99 H :    0.051831
 100 H :    0.053241

  Mayer bond orders larger than 0.100000
B(  0-C ,  1-C ) :   1.3398 B(  0-C ,  5-C ) :   0.1052 B(  0-C ,  7-C ) :   1.3111
B(  0-C , 77-H ) :   0.9908 B(  1-C ,  2-F ) :   1.1465 B(  1-C ,  3-C ) :   1.2885
B(  3-C ,  4-F ) :   1.1332 B(  3-C ,  5-C ) :   1.3176 B(  5-C ,  6-C ) :   1.3222
B(  5-C , 78-H ) :   1.0187 B(  6-C ,  7-C ) :   1.3414 B(  6-C , 15-C ) :   0.9549
B(  7-C ,  8-C ) :   1.0056 B(  8-C ,  9-C ) :   1.6447 B(  8-C , 14-C ) :   1.0684
B(  9-C , 10-C ) :   1.1394 B(  9-C , 12-C ) :   1.1400 B( 10-C , 11-N ) :   2.9832
B( 12-C , 13-N ) :   2.9942 B( 14-C , 15-C ) :   0.9408 B( 14-C , 17-C ) :   1.5632
B( 15-C , 16-O ) :   2.2111 B( 17-C , 18-C ) :   1.1751 B( 17-C , 79-H ) :   0.9427
B( 18-C , 19-C ) :   1.5193 B( 18-C , 22-C ) :   1.0055 B( 19-C , 20-C ) :   1.0989
B( 19-C , 80-H ) :   0.9998 B( 20-C , 21-C ) :   1.0288 B( 20-C , 24-C ) :   1.4584
B( 21-C , 22-C ) :   1.6518 B( 21-C , 23-F ) :   1.1225 B( 22-C , 81-H ) :   1.0209
B( 24-C , 25-C ) :   1.1359 B( 24-C , 28-C ) :   1.0018 B( 25-C , 26-C ) :   1.4887
B( 25-C , 82-H ) :   1.0228 B( 26-C , 27-C ) :   1.0029 B( 26-C , 30-C ) :   1.1670
B( 27-C , 28-C ) :   1.6851 B( 27-C , 83-H ) :   1.0112 B( 28-C , 29-F ) :   1.1437
B( 30-C , 31-C ) :   1.5910 B( 30-C , 84-H ) :   0.9737 B( 31-C , 32-C ) :   1.1548
B( 31-C , 85-H ) :   0.9480 B( 32-C , 33-S ) :   1.1323 B( 32-C , 34-C ) :   0.1044
B( 32-C , 36-C ) :   1.4423 B( 33-S , 34-C ) :   1.1332 B( 34-C , 35-C ) :   1.4522
B( 34-C , 45-C ) :   1.1604 B( 35-C , 36-C ) :   1.3692 B( 35-C , 44-C ) :   1.0534
B( 36-C , 37-C ) :   1.0387 B( 37-C , 38-C ) :   1.0553 B( 37-C , 86-H ) :   0.8914
B( 37-C , 87-H ) :   0.9151 B( 38-C , 39-C ) :   1.1086 B( 38-C , 41-C ) :   1.0790
B( 38-C , 88-H ) :   0.8535 B( 39-C , 40-N ) :   3.1054 B( 41-C , 42-C ) :   1.1101
B( 41-C , 44-C ) :   1.0475 B( 41-C , 89-H ) :   0.8505 B( 42-C , 43-N ) :   3.0970
B( 44-C , 90-H ) :   0.9061 B( 44-C , 91-H ) :   0.8950 B( 45-C , 46-C ) :   1.5153
B( 45-C , 49-C ) :   1.0006 B( 46-C , 47-C ) :   1.1294 B( 46-C , 92-H ) :   1.0093
B( 47-C , 48-C ) :   1.0140 B( 47-C , 51-C ) :   1.4491 B( 48-C , 49-C ) :   1.6799
B( 48-C , 50-F ) :   1.1365 B( 49-C , 93-H ) :   1.0056 B( 51-C , 52-C ) :   1.1157
B( 51-C , 55-C ) :   1.0299 B( 52-C , 53-C ) :   1.4949 B( 52-C , 94-H ) :   1.0214
B( 53-C , 54-C ) :   1.0262 B( 53-C , 57-C ) :   1.1306 B( 54-C , 55-C ) :   1.6678
B( 54-C , 95-H ) :   1.0097 B( 55-C , 56-F ) :   1.1166 B( 57-C , 58-C ) :   1.5892
B( 57-C , 96-H ) :   0.9901 B( 58-C , 59-C ) :   1.1521 B( 58-C , 97-H ) :   0.9620
B( 59-C , 60-C ) :   1.5882 B( 59-C , 98-H ) :   0.9570 B( 60-C , 61-C ) :   0.9467
B( 60-C , 71-C ) :   1.0440 B( 61-C , 62-O ) :   2.2678 B( 61-C , 63-C ) :   0.9315
B( 63-C , 64-C ) :   1.3413 B( 63-C , 68-C ) :   1.3230 B( 64-C , 65-C ) :   1.3172
B( 64-C , 71-C ) :   1.0159 B( 65-C , 66-C ) :   1.3365 B( 65-C , 68-C ) :   0.1043
B( 65-C , 99-H ) :   0.9930 B( 66-C , 67-C ) :   1.2897 B( 66-C , 70-F ) :   1.1452
B( 67-C , 68-C ) :   1.3203 B( 67-C , 69-F ) :   1.1329 B( 68-C ,100-H ) :   1.0203
B( 71-C , 72-C ) :   1.6474 B( 72-C , 73-C ) :   1.1617 B( 72-C , 75-C ) :   1.1265
B( 73-C , 74-N ) :   3.0055 B( 75-C , 76-N ) :   2.9923

-----------------------------------------------------------------------------
         ABSORPTION SPECTRUM VIA TRANSITION ELECTRIC DIPOLE MOMENTS
-----------------------------------------------------------------------------
State   Energy  Wavelength   fosc         T2         TX        TY        TZ
        (cm-1)    (nm)                  (au**2)     (au)      (au)      (au)
-----------------------------------------------------------------------------
   0   11711.9    853.8   2.129170612  59.84916   5.20041  -5.46850  -1.70306
   1   15032.8    665.2   0.043615663   0.95517  -0.39640   0.86466   0.22449
   2   16219.1    616.6   0.009315348   0.18908   0.21960  -0.37433   0.02703
   3   16929.5    590.7   0.035530518   0.69093  -0.41019   0.68030  -0.24469
   4   20338.2    491.7   0.080801355   1.30792  -0.79408   0.81409   0.12093
   5   21697.7    460.9   1.158848083  17.58278  -2.81689   2.99072   0.83878
   6   23492.9    425.7   0.086280538   1.20907   0.26113  -0.73964   0.77060
   7   24366.0    410.4   0.035863154   0.48455   0.62782  -0.27767   0.11531
   8   25242.0    396.2   0.069081514   0.90098   0.81316  -0.48073   0.09296
   9   25393.9    393.8   0.104260582   1.35166   0.79518  -0.84518   0.07091
  10   26135.5    382.6   0.080486303   1.01383  -0.83959   0.54944   0.08388
  11   26661.0    375.1   0.067970135   0.83930   0.01275   0.88531   0.23529
  12   27222.0    367.4   0.069113981   0.83584  -0.42350   0.51623   0.62449
  13   27832.3    359.3   0.082922830   0.98085   0.44217  -0.80917  -0.36136
  14   28202.1    354.6   0.079566479   0.92881  -0.13319   0.90912  -0.29079
  15   28535.4    350.4   0.015777291   0.18202  -0.36869   0.02455  -0.21328
  16   29258.9    341.8   0.113781386   1.28023   0.74566  -0.61957  -0.58339
  17   29384.1    340.3   0.015035512   0.16845   0.05442   0.33740  -0.22728
  18   29487.4    339.1   0.013266124   0.14811  -0.05365  -0.28765  -0.24998
  19   29809.2    335.5   0.015425516   0.17036   0.09729  -0.29923  -0.26713
  20   30001.3    333.3   0.211432492   2.32010   0.75443  -1.25442  -0.42113
  21   30150.3    331.7   0.446845992   4.87913  -0.97031   1.96839  -0.25110
  22   32117.8    311.4   0.077769640   0.79715   0.60760  -0.50293  -0.41838
  23   32307.7    309.5   0.048722764   0.49648   0.48547  -0.32372  -0.39497
  24   32781.2    305.1   0.060959764   0.61220  -0.15185   0.50308   0.57970
  25   32956.4    303.4   0.042487113   0.42442   0.64906   0.01350  -0.05439
  26   33143.0    301.7   0.010559591   0.10489  -0.23145   0.05606   0.21949
  27   33386.5    299.5   0.027910804   0.27522  -0.13604   0.40576   0.30344
  28   33663.0    297.1   0.001443364   0.01412  -0.08124  -0.07493  -0.04361
  29   33983.6    294.3   0.074550215   0.72220   0.15089  -0.44977  -0.70508
  30   34541.3    289.5   0.076693550   0.73096   0.31445  -0.46977  -0.64141
  31   34573.6    289.2   0.032533280   0.30978   0.33394   0.07715  -0.43854
  32   35219.7    283.9   0.100326054   0.93779   0.54390  -0.34131  -0.72489
  33   35294.7    283.3   0.063158462   0.58911  -0.19903   0.12276   0.73105
  34   35623.9    280.7   0.362072795   3.34603  -0.84809  -1.61831  -0.08851
  35   36132.3    276.8   0.019597620   0.17856  -0.05073  -0.41875   0.02519
  36   36225.9    276.0   0.087469516   0.79490   0.70590   0.54304  -0.04133
  37   36432.2    274.5   0.225355431   2.03638   1.12816   0.44090  -0.75449
  38   37092.4    269.6   0.219867132   1.95142   0.63498  -0.58593  -1.09768
  39   37258.0    268.4   0.085273421   0.75348  -0.09038   0.63162   0.58853
  40   37709.5    265.2   0.151097937   1.31912   0.82459   0.53387   0.59511
  41   37900.2    263.9   0.003074262   0.02670   0.05972  -0.13826   0.06341
  42   38074.3    262.6   0.124389155   1.07554   0.46846  -0.39476  -0.83681
  43   38468.5    260.0   0.017400427   0.14891  -0.35161   0.15672  -0.02692
  44   38565.5    259.3   0.027265210   0.23275  -0.23040  -0.36900   0.20857
  45   38772.7    257.9   0.001393955   0.01184  -0.02384   0.06247   0.08582
  46   39086.7    255.8   0.052229106   0.43991   0.21735   0.39467  -0.48673
  47   39696.8    251.9   0.007655557   0.06349  -0.18663   0.14694  -0.08407
  48   39781.4    251.4   0.000682592   0.00565  -0.05703  -0.04485   0.01961
  49   39830.7    251.1   0.002875934   0.02377   0.14968  -0.03573   0.00943

FINAL SINGLE POINT ENERGY     -3971.950697430693

DIPOLE MOMENT
-------------
                                X             Y             Z
Electronic contribution:     -5.30501      12.46855     -14.09160
Nuclear contribution   :      6.32901     -12.88009      12.98022
                        -----------------------------------------
Total Dipole Moment    :      1.02400      -0.41154      -1.11137
                        -----------------------------------------
Magnitude (a.u.)       :      1.56624
Magnitude (Debye)      :      3.98106

Rotational constants in cm-1:     0.002848     0.000129     0.000126
Rotational constants in MHz :    85.393622     3.854155     3.781346

                             ****ORCA TERMINATED NORMALLY****
TOTAL RUN TIME: 0 days 0 hours 11 minutes 18 seconds 801 msec
