                         Program Version 4.2.0 -  RELEASE  -
|  1> # ORCA input file
|  2> # SCF done       -199.265963634665          0.000442022234
|  3> ! CAM-B3LYP def2-SVP def2/J RIJCOSX Grid4 TightSCF
|  4> %maxcore 5000
|  5> %tddft
|  6>     Mode sTDDFT
|  7>     Ethresh 5.0
|  8>     maxcore 5000
|  9> end
| 10>
| 11> %pal
| 12>   nprocs 6
| 13>   end
| 14> * xyz 0 1
| 15>    C        6.43581        -3.74596        -3.76899
| 16>    C        7.56109        -3.85291        -4.57017
| 17>    F        8.02458        -2.75936        -5.18493
| 18>    C        8.22211        -5.07051        -4.74888
| 19>    F        9.30362        -5.12477        -5.53328
| 20>    C        7.76985        -6.21758        -4.11859
| 21>    C        6.65209        -6.10958        -3.31322
| 22>    C        5.97401        -4.89134        -3.13591
| 23>    C        4.84072        -5.09701        -2.24041
| 24>    C        3.85578        -4.18780        -1.98328
| 25>    C        3.76226        -2.93245        -2.62080
| 26>    N        3.60193        -1.92196        -3.14104
| 27>    C        2.74762        -4.38422        -1.12848
| 28>    N        1.82385        -4.45128        -0.45074
| 29>    C        4.90078        -6.47777        -1.77643
| 30>    C        5.98641        -7.17148        -2.52815
| 31>    O        6.23932        -8.35151        -2.54163
| 32>    C        4.04694        -7.07812        -0.92058
| 33>    C        4.09678        -8.46135        -0.50368
| 34>    C        5.19964        -9.11177        -0.03217
| 35>    F        6.40382        -8.58364         0.14096
| 36>    S        4.90395       -10.71771         0.53441
| 37>    C        3.23943       -10.51869         0.10528
| 38>    F        2.39218       -11.52780         0.28919
| 39>    C        2.92503        -9.30107        -0.43220
| 40>    C        1.61053        -8.93221        -0.88566
| 41>    C        1.37735        -7.93594        -1.76099
| 42>    C        0.09577        -7.45813        -2.14817
| 43>    S       -1.37500        -8.21808        -1.60445
| 44>    C       -0.16723        -6.33920        -2.92652
| 45>    C        0.85714        -5.46037        -3.51898
| 46>    O        2.06527        -5.65909        -3.43452
| 47>    C        0.28982        -4.31882        -4.20860
| 48>    C        0.91858        -3.25333        -4.82223
| 49>    N       -0.02340        -2.43122        -5.33638
| 50>    C        0.23563        -1.22194        -6.07753
| 51>    C        0.07863        -1.45598        -7.57806
| 52>    C       -1.25485        -2.93851        -5.09720
| 53>    C       -1.10941        -4.11157        -4.38805
| 54>    C       -2.12234        -5.01820        -3.89736
| 55>    O       -3.31261        -4.91262        -4.15824
| 56>    C       -1.56346        -6.10006        -3.07182
| 57>    C       -2.34669        -7.02891        -2.40801
| 58>    C       -3.77775        -7.02702        -2.37631
| 59>    C       -4.55791        -8.11670        -2.30634
| 60>    C       -5.99945        -8.09371        -2.42297
| 61>    C       -6.79298        -9.04717        -1.85361
| 62>    F       -6.36768       -10.08038        -1.13059
| 63>    S       -8.49474        -8.82464        -2.08355
| 64>    C       -8.13400        -7.40299        -2.99443
| 65>    F       -9.14079        -6.74088        -3.55657
| 66>    C       -6.80043        -7.11499        -3.12875
| 67>    C       -6.25694        -6.03317        -3.90200
| 68>    C       -6.89116        -4.88497        -4.23584
| 69>    C       -6.16381        -3.85000        -4.87778
| 70>    C       -6.57172        -2.58889        -5.18718
| 71>    C       -5.73970        -1.75330        -6.08971
| 72>    O       -4.57055        -1.90462        -6.36327
| 73>    C       -6.65660        -0.70915        -6.60165
| 74>    C       -7.89752        -0.81565        -5.94818
| 75>    C       -8.93955         0.02942        -6.29438
| 76>    C       -8.71119         0.97039        -7.28731
| 77>    C       -7.47171         1.08205        -7.91912
| 78>    C       -6.42676         0.23798        -7.58059
| 79>    F       -7.29235         2.01028        -8.86652
| 80>    F       -9.70630         1.78669        -7.64842
| 81>    C       -7.80812        -1.87165        -4.93727
| 82>    C       -8.62906        -1.98139        -3.84911
| 83>    C       -8.36843        -2.79252        -2.72246
| 84>    N       -8.18599        -3.37723        -1.75236
| 85>    C       -9.78682        -1.19461        -3.66137
| 86>    N      -10.74613        -0.59515        -3.47078
| 87>    H        5.96418        -2.78314        -3.65952
| 88>    H        8.27872        -7.15916        -4.25056
| 89>    H        3.23418        -6.50968        -0.48701
| 90>    H        0.78897        -9.51576        -0.48941
| 91>    H        2.20085        -7.41217        -2.22633
| 92>    H        1.96483        -3.03289        -4.90079
| 93>    H        1.25075        -0.89106        -5.84726
| 94>    H       -0.46865        -0.45345        -5.74720
| 95>    H        0.77336        -2.22024        -7.91850
| 96>    H        0.28053        -0.53587        -8.11872
| 97>    H       -0.93401        -1.77976        -7.80569
| 98>    H       -2.15381        -2.45355        -5.42669
| 99>    H       -4.21899        -6.04561        -2.47108
|100>    H       -4.11463        -9.09318        -2.15405
|101>    H       -5.22492        -6.13958        -4.20269
|102>    H       -7.92780        -4.73058        -3.98356
|103>    H       -5.14830        -4.09157        -5.17299
|104>    H       -9.91444        -0.02129        -5.83753
|105>    H       -5.47082         0.32079        -8.07262
|106> *
|107>
|108>                          ****END OF INPUT****

CARTESIAN COORDINATES (ANGSTROEM)
---------------------------------
  C      6.435810   -3.745960   -3.768990
  C      7.561090   -3.852910   -4.570170
  F      8.024580   -2.759360   -5.184930
  C      8.222110   -5.070510   -4.748880
  F      9.303620   -5.124770   -5.533280
  C      7.769850   -6.217580   -4.118590
  C      6.652090   -6.109580   -3.313220
  C      5.974010   -4.891340   -3.135910
  C      4.840720   -5.097010   -2.240410
  C      3.855780   -4.187800   -1.983280
  C      3.762260   -2.932450   -2.620800
  N      3.601930   -1.921960   -3.141040
  C      2.747620   -4.384220   -1.128480
  N      1.823850   -4.451280   -0.450740
  C      4.900780   -6.477770   -1.776430
  C      5.986410   -7.171480   -2.528150
  O      6.239320   -8.351510   -2.541630
  C      4.046940   -7.078120   -0.920580
  C      4.096780   -8.461350   -0.503680
  C      5.199640   -9.111770   -0.032170
  F      6.403820   -8.583640    0.140960
  S      4.903950  -10.717710    0.534410
  C      3.239430  -10.518690    0.105280
  F      2.392180  -11.527800    0.289190
  C      2.925030   -9.301070   -0.432200
  C      1.610530   -8.932210   -0.885660
  C      1.377350   -7.935940   -1.760990
  C      0.095770   -7.458130   -2.148170
  S     -1.375000   -8.218080   -1.604450
  C     -0.167230   -6.339200   -2.926520
  C      0.857140   -5.460370   -3.518980
  O      2.065270   -5.659090   -3.434520
  C      0.289820   -4.318820   -4.208600
  C      0.918580   -3.253330   -4.822230
  N     -0.023400   -2.431220   -5.336380
  C      0.235630   -1.221940   -6.077530
  C      0.078630   -1.455980   -7.578060
  C     -1.254850   -2.938510   -5.097200
  C     -1.109410   -4.111570   -4.388050
  C     -2.122340   -5.018200   -3.897360
  O     -3.312610   -4.912620   -4.158240
  C     -1.563460   -6.100060   -3.071820
  C     -2.346690   -7.028910   -2.408010
  C     -3.777750   -7.027020   -2.376310
  C     -4.557910   -8.116700   -2.306340
  C     -5.999450   -8.093710   -2.422970
  C     -6.792980   -9.047170   -1.853610
  F     -6.367680  -10.080380   -1.130590
  S     -8.494740   -8.824640   -2.083550
  C     -8.134000   -7.402990   -2.994430
  F     -9.140790   -6.740880   -3.556570
  C     -6.800430   -7.114990   -3.128750
  C     -6.256940   -6.033170   -3.902000
  C     -6.891160   -4.884970   -4.235840
  C     -6.163810   -3.850000   -4.877780
  C     -6.571720   -2.588890   -5.187180
  C     -5.739700   -1.753300   -6.089710
  O     -4.570550   -1.904620   -6.363270
  C     -6.656600   -0.709150   -6.601650
  C     -7.897520   -0.815650   -5.948180
  C     -8.939550    0.029420   -6.294380
  C     -8.711190    0.970390   -7.287310
  C     -7.471710    1.082050   -7.919120
  C     -6.426760    0.237980   -7.580590
  F     -7.292350    2.010280   -8.866520
  F     -9.706300    1.786690   -7.648420
  C     -7.808120   -1.871650   -4.937270
  C     -8.629060   -1.981390   -3.849110
  C     -8.368430   -2.792520   -2.722460
  N     -8.185990   -3.377230   -1.752360
  C     -9.786820   -1.194610   -3.661370
  N    -10.746130   -0.595150   -3.470780
  H      5.964180   -2.783140   -3.659520
  H      8.278720   -7.159160   -4.250560
  H      3.234180   -6.509680   -0.487010
  H      0.788970   -9.515760   -0.489410
  H      2.200850   -7.412170   -2.226330
  H      1.964830   -3.032890   -4.900790
  H      1.250750   -0.891060   -5.847260
  H     -0.468650   -0.453450   -5.747200
  H      0.773360   -2.220240   -7.918500
  H      0.280530   -0.535870   -8.118720
  H     -0.934010   -1.779760   -7.805690
  H     -2.153810   -2.453550   -5.426690
  H     -4.218990   -6.045610   -2.471080
  H     -4.114630   -9.093180   -2.154050
  H     -5.224920   -6.139580   -4.202690
  H     -7.927800   -4.730580   -3.983560
  H     -5.148300   -4.091570   -5.172990
  H     -9.914440   -0.021290   -5.837530
  H     -5.470820    0.320790   -8.072620

 Total Charge           Charge          ....    0
 Multiplicity           Mult            ....    1
 Number of Electrons    NEL             ....  518
 Basis Dimension        Dim             .... 1115

ORBITAL ENERGIES
----------------

  NO   OCC          E(Eh)            E(eV)
   0   2.0000     -88.988392     -2421.4972
   1   2.0000     -88.988113     -2421.4897
   2   2.0000     -88.972939     -2421.0768
   3   2.0000     -24.817746      -675.3252
   4   2.0000     -24.815013      -675.2508
   5   2.0000     -24.813624      -675.2130
   6   2.0000     -24.812860      -675.1922
   7   2.0000     -24.806870      -675.0293
   8   2.0000     -24.806497      -675.0191
   9   2.0000     -24.802440      -674.9087
  10   2.0000     -24.801484      -674.8827
  11   2.0000     -19.225737      -523.1589
  12   2.0000     -19.220923      -523.0279
  13   2.0000     -19.206068      -522.6237
  14   2.0000     -19.205318      -522.6033
  15   2.0000     -14.484582      -394.1455
  16   2.0000     -14.427297      -392.5867
  17   2.0000     -14.420460      -392.4007
  18   2.0000     -14.416704      -392.2985
  19   2.0000     -14.413577      -392.2134
  20   2.0000     -10.397611      -282.9334
  21   2.0000     -10.396429      -282.9012
  22   2.0000     -10.392577      -282.7964
  23   2.0000     -10.392038      -282.7817
  24   2.0000     -10.390773      -282.7473
  25   2.0000     -10.390030      -282.7271
  26   2.0000     -10.387479      -282.6577
  27   2.0000     -10.386890      -282.6416
  28   2.0000     -10.376905      -282.3699
  29   2.0000     -10.371350      -282.2188
  30   2.0000     -10.365185      -282.0510
  31   2.0000     -10.364153      -282.0229
  32   2.0000     -10.350921      -281.6629
  33   2.0000     -10.346695      -281.5479
  34   2.0000     -10.346124      -281.5323
  35   2.0000     -10.344065      -281.4763
  36   2.0000     -10.330490      -281.1069
  37   2.0000     -10.325889      -280.9817
  38   2.0000     -10.325289      -280.9654
  39   2.0000     -10.323638      -280.9205
  40   2.0000     -10.322793      -280.8975
  41   2.0000     -10.322380      -280.8862
  42   2.0000     -10.322233      -280.8822
  43   2.0000     -10.318942      -280.7927
  44   2.0000     -10.317858      -280.7632
  45   2.0000     -10.315839      -280.7082
  46   2.0000     -10.314295      -280.6662
  47   2.0000     -10.314095      -280.6608
  48   2.0000     -10.310556      -280.5645
  49   2.0000     -10.310539      -280.5640
  50   2.0000     -10.309106      -280.5250
  51   2.0000     -10.307620      -280.4846
  52   2.0000     -10.307613      -280.4844
  53   2.0000     -10.306829      -280.4631
  54   2.0000     -10.305881      -280.4373
  55   2.0000     -10.305220      -280.4193
  56   2.0000     -10.303748      -280.3792
  57   2.0000     -10.303464      -280.3715
  58   2.0000     -10.303288      -280.3667
  59   2.0000     -10.302311      -280.3401
  60   2.0000     -10.301191      -280.3097
  61   2.0000     -10.297276      -280.2031
  62   2.0000     -10.295652      -280.1589
  63   2.0000     -10.291455      -280.0447
  64   2.0000     -10.289760      -279.9986
  65   2.0000     -10.288563      -279.9660
  66   2.0000     -10.287342      -279.9328
  67   2.0000     -10.286691      -279.9151
  68   2.0000     -10.283771      -279.8356
  69   2.0000     -10.275866      -279.6205
  70   2.0000     -10.268115      -279.4096
  71   2.0000     -10.267094      -279.3818
  72   2.0000      -8.085476      -220.0170
  73   2.0000      -8.085303      -220.0123
  74   2.0000      -8.068484      -219.5546
  75   2.0000      -6.054622      -164.7546
  76   2.0000      -6.054431      -164.7494
  77   2.0000      -6.050985      -164.6557
  78   2.0000      -6.050821      -164.6512
  79   2.0000      -6.046956      -164.5460
  80   2.0000      -6.046756      -164.5406
  81   2.0000      -6.037562      -164.2904
  82   2.0000      -6.033554      -164.1814
  83   2.0000      -6.030845      -164.1076
  84   2.0000      -1.333713       -36.2922
  85   2.0000      -1.331901       -36.2429
  86   2.0000      -1.330732       -36.2111
  87   2.0000      -1.329466       -36.1766
  88   2.0000      -1.328781       -36.1580
  89   2.0000      -1.325861       -36.0785
  90   2.0000      -1.315490       -35.7963
  91   2.0000      -1.310653       -35.6647
  92   2.0000      -1.142113       -31.0785
  93   2.0000      -1.135120       -30.8882
  94   2.0000      -1.123705       -30.5776
  95   2.0000      -1.119619       -30.4664
  96   2.0000      -1.105221       -30.0746
  97   2.0000      -1.028158       -27.9776
  98   2.0000      -1.021081       -27.7850
  99   2.0000      -1.011296       -27.5188
 100   2.0000      -1.009028       -27.4571
 101   2.0000      -1.008331       -27.4381
 102   2.0000      -1.002608       -27.2824
 103   2.0000      -1.002287       -27.2736
 104   2.0000      -1.000917       -27.2363
 105   2.0000      -0.993676       -27.0393
 106   2.0000      -0.963155       -26.2088
 107   2.0000      -0.957592       -26.0574
 108   2.0000      -0.935935       -25.4681
 109   2.0000      -0.927626       -25.2420
 110   2.0000      -0.922600       -25.1052
 111   2.0000      -0.914269       -24.8785
 112   2.0000      -0.907903       -24.7053
 113   2.0000      -0.901848       -24.5405
 114   2.0000      -0.896441       -24.3934
 115   2.0000      -0.881810       -23.9953
 116   2.0000      -0.880311       -23.9545
 117   2.0000      -0.875879       -23.8339
 118   2.0000      -0.874511       -23.7966
 119   2.0000      -0.863227       -23.4896
 120   2.0000      -0.841764       -22.9056
 121   2.0000      -0.838434       -22.8149
 122   2.0000      -0.833830       -22.6897
 123   2.0000      -0.830209       -22.5911
 124   2.0000      -0.822690       -22.3865
 125   2.0000      -0.803844       -21.8737
 126   2.0000      -0.790218       -21.5029
 127   2.0000      -0.783451       -21.3188
 128   2.0000      -0.779080       -21.1998
 129   2.0000      -0.771909       -21.0047
 130   2.0000      -0.764712       -20.8089
 131   2.0000      -0.756983       -20.5986
 132   2.0000      -0.738610       -20.0986
 133   2.0000      -0.735354       -20.0100
 134   2.0000      -0.730877       -19.8882
 135   2.0000      -0.716591       -19.4994
 136   2.0000      -0.714152       -19.4331
 137   2.0000      -0.704755       -19.1773
 138   2.0000      -0.702901       -19.1269
 139   2.0000      -0.701744       -19.0954
 140   2.0000      -0.698392       -19.0042
 141   2.0000      -0.691320       -18.8118
 142   2.0000      -0.687602       -18.7106
 143   2.0000      -0.681393       -18.5416
 144   2.0000      -0.672837       -18.3088
 145   2.0000      -0.668188       -18.1823
 146   2.0000      -0.665965       -18.1218
 147   2.0000      -0.654911       -17.8210
 148   2.0000      -0.649393       -17.6709
 149   2.0000      -0.648981       -17.6597
 150   2.0000      -0.646541       -17.5933
 151   2.0000      -0.643394       -17.5076
 152   2.0000      -0.642696       -17.4886
 153   2.0000      -0.623229       -16.9589
 154   2.0000      -0.621880       -16.9222
 155   2.0000      -0.620363       -16.8809
 156   2.0000      -0.618179       -16.8215
 157   2.0000      -0.612234       -16.6597
 158   2.0000      -0.610273       -16.6064
 159   2.0000      -0.608817       -16.5667
 160   2.0000      -0.605081       -16.4651
 161   2.0000      -0.602280       -16.3889
 162   2.0000      -0.597753       -16.2657
 163   2.0000      -0.596120       -16.2213
 164   2.0000      -0.595175       -16.1955
 165   2.0000      -0.593601       -16.1527
 166   2.0000      -0.590536       -16.0693
 167   2.0000      -0.587645       -15.9906
 168   2.0000      -0.586306       -15.9542
 169   2.0000      -0.576416       -15.6851
 170   2.0000      -0.575021       -15.6471
 171   2.0000      -0.573906       -15.6168
 172   2.0000      -0.569981       -15.5100
 173   2.0000      -0.566557       -15.4168
 174   2.0000      -0.565572       -15.3900
 175   2.0000      -0.560183       -15.2433
 176   2.0000      -0.558186       -15.1890
 177   2.0000      -0.555462       -15.1149
 178   2.0000      -0.553889       -15.0721
 179   2.0000      -0.553237       -15.0544
 180   2.0000      -0.550781       -14.9875
 181   2.0000      -0.549716       -14.9585
 182   2.0000      -0.544465       -14.8157
 183   2.0000      -0.539010       -14.6672
 184   2.0000      -0.538120       -14.6430
 185   2.0000      -0.535920       -14.5831
 186   2.0000      -0.534567       -14.5463
 187   2.0000      -0.532839       -14.4993
 188   2.0000      -0.532015       -14.4769
 189   2.0000      -0.529869       -14.4185
 190   2.0000      -0.525902       -14.3105
 191   2.0000      -0.524615       -14.2755
 192   2.0000      -0.521419       -14.1885
 193   2.0000      -0.519638       -14.1401
 194   2.0000      -0.515139       -14.0177
 195   2.0000      -0.512510       -13.9461
 196   2.0000      -0.506376       -13.7792
 197   2.0000      -0.504055       -13.7160
 198   2.0000      -0.501341       -13.6422
 199   2.0000      -0.499995       -13.6056
 200   2.0000      -0.497502       -13.5377
 201   2.0000      -0.495388       -13.4802
 202   2.0000      -0.495018       -13.4701
 203   2.0000      -0.494003       -13.4425
 204   2.0000      -0.492603       -13.4044
 205   2.0000      -0.487451       -13.2642
 206   2.0000      -0.480784       -13.0828
 207   2.0000      -0.478993       -13.0341
 208   2.0000      -0.475309       -12.9338
 209   2.0000      -0.470158       -12.7936
 210   2.0000      -0.469007       -12.7623
 211   2.0000      -0.467869       -12.7314
 212   2.0000      -0.466768       -12.7014
 213   2.0000      -0.465366       -12.6633
 214   2.0000      -0.462744       -12.5919
 215   2.0000      -0.460439       -12.5292
 216   2.0000      -0.458755       -12.4833
 217   2.0000      -0.457836       -12.4583
 218   2.0000      -0.455852       -12.4044
 219   2.0000      -0.455412       -12.3924
 220   2.0000      -0.453729       -12.3466
 221   2.0000      -0.450618       -12.2619
 222   2.0000      -0.449900       -12.2424
 223   2.0000      -0.448650       -12.2084
 224   2.0000      -0.446974       -12.1628
 225   2.0000      -0.445299       -12.1172
 226   2.0000      -0.443307       -12.0630
 227   2.0000      -0.442274       -12.0349
 228   2.0000      -0.436679       -11.8827
 229   2.0000      -0.435020       -11.8375
 230   2.0000      -0.433499       -11.7961
 231   2.0000      -0.432826       -11.7778
 232   2.0000      -0.427849       -11.6424
 233   2.0000      -0.425423       -11.5764
 234   2.0000      -0.421519       -11.4701
 235   2.0000      -0.417709       -11.3664
 236   2.0000      -0.415093       -11.2952
 237   2.0000      -0.413651       -11.2560
 238   2.0000      -0.407449       -11.0873
 239   2.0000      -0.390439       -10.6244
 240   2.0000      -0.387199       -10.5362
 241   2.0000      -0.370984       -10.0950
 242   2.0000      -0.358115        -9.7448
 243   2.0000      -0.355857        -9.6834
 244   2.0000      -0.350472        -9.5368
 245   2.0000      -0.346259        -9.4222
 246   2.0000      -0.342908        -9.3310
 247   2.0000      -0.342197        -9.3117
 248   2.0000      -0.337604        -9.1867
 249   2.0000      -0.335124        -9.1192
 250   2.0000      -0.334261        -9.0957
 251   2.0000      -0.323294        -8.7973
 252   2.0000      -0.318692        -8.6720
 253   2.0000      -0.315392        -8.5823
 254   2.0000      -0.306250        -8.3335
 255   2.0000      -0.299880        -8.1602
 256   2.0000      -0.294797        -8.0218
 257   2.0000      -0.280993        -7.6462
 258   2.0000      -0.261916        -7.1271
 259   0.0000      -0.088868        -2.4182
 260   0.0000      -0.085201        -2.3184
 261   0.0000      -0.064381        -1.7519
 262   0.0000      -0.061339        -1.6691
 263   0.0000      -0.060836        -1.6554

MULLIKEN ATOMIC CHARGES
-----------------------
   0 C :   -0.094577
   1 C :    0.236536
   2 F :   -0.165340
   3 C :    0.234447
   4 F :   -0.166815
   5 C :   -0.096969
   6 C :   -0.010894
   7 C :    0.048776
   8 C :    0.314380
   9 C :   -0.315525
  10 C :   -0.185192
  11 N :    0.135304
  12 C :   -0.195647
  13 N :    0.163578
  14 C :   -0.041421
  15 C :    0.135734
  16 O :   -0.129521
  17 C :   -0.078337
  18 C :    0.040553
  19 C :    0.103461
  20 F :   -0.146199
  21 S :    0.116196
  22 C :    0.053018
  23 F :   -0.155630
  24 C :    0.079684
  25 C :    0.006592
  26 C :   -0.031039
  27 C :   -0.134423
  28 S :    0.158395
  29 C :    0.045437
  30 C :    0.162427
  31 O :   -0.212935
  32 C :   -0.014595
  33 C :    0.018382
  34 N :   -0.135417
  35 C :    0.096059
  36 C :   -0.005290
  37 C :    0.010849
  38 C :   -0.021289
  39 C :    0.149858
  40 O :   -0.191729
  41 C :    0.021922
  42 C :   -0.138266
  43 C :   -0.001921
  44 C :   -0.013427
  45 C :    0.071065
  46 C :    0.058917
  47 F :   -0.156385
  48 S :    0.121666
  49 C :    0.068680
  50 F :   -0.148799
  51 C :    0.090003
  52 C :   -0.015289
  53 C :   -0.001872
  54 C :    0.028490
  55 C :   -0.106984
  56 C :    0.144635
  57 O :   -0.151226
  58 C :    0.010688
  59 C :    0.027780
  60 C :   -0.083902
  61 C :    0.233924
  62 C :    0.231619
  63 C :   -0.103298
  64 F :   -0.170578
  65 F :   -0.164800
  66 C :    0.267368
  67 C :   -0.323940
  68 C :   -0.210158
  69 N :    0.173441
  70 C :   -0.184452
  71 N :    0.153817
  72 H :    0.012935
  73 H :    0.012709
  74 H :    0.058919
  75 H :    0.000911
  76 H :    0.050741
  77 H :    0.008731
  78 H :    0.042168
  79 H :    0.037216
  80 H :    0.027316
  81 H :    0.028849
  82 H :    0.037201
  83 H :    0.011033
  84 H :    0.049203
  85 H :    0.004485
  86 H :    0.039642
  87 H :    0.017947
  88 H :    0.026122
  89 H :    0.018164
  90 H :    0.006109
Sum of atomic charges:   -0.0000000

LOEWDIN ATOMIC CHARGES
----------------------
   0 C :   -0.020307
   1 C :    0.074440
   2 F :   -0.043710
   3 C :    0.070981
   4 F :   -0.043725
   5 C :   -0.003735
   6 C :   -0.043861
   7 C :   -0.010647
   8 C :    0.079121
   9 C :   -0.118282
  10 C :   -0.004894
  11 N :   -0.063749
  12 C :   -0.019411
  13 N :   -0.049340
  14 C :   -0.076148
  15 C :    0.083447
  16 O :   -0.124917
  17 C :    0.076380
  18 C :   -0.096437
  19 C :   -0.058605
  20 F :   -0.035225
  21 S :    0.439378
  22 C :   -0.082656
  23 F :   -0.047756
  24 C :   -0.083996
  25 C :   -0.010619
  26 C :   -0.035656
  27 C :   -0.125374
  28 S :    0.465471
  29 C :   -0.079328
  30 C :    0.095588
  31 O :   -0.184956
  32 C :   -0.105505
  33 C :    0.041033
  34 N :    0.094549
  35 C :    0.046128
  36 C :   -0.057523
  37 C :    0.042421
  38 C :   -0.103136
  39 C :    0.093441
  40 O :   -0.174212
  41 C :   -0.086631
  42 C :   -0.127806
  43 C :   -0.030413
  44 C :   -0.013817
  45 C :   -0.084724
  46 C :   -0.080954
  47 F :   -0.048344
  48 S :    0.438469
  49 C :   -0.061669
  50 F :   -0.037422
  51 C :   -0.092211
  52 C :    0.044937
  53 C :   -0.032886
  54 C :    0.085276
  55 C :   -0.107679
  56 C :    0.090384
  57 O :   -0.153235
  58 C :   -0.047372
  59 C :   -0.010355
  60 C :   -0.019824
  61 C :    0.073868
  62 C :    0.068317
  63 C :   -0.008126
  64 F :   -0.046920
  65 F :   -0.042983
  66 C :    0.072037
  67 C :   -0.134370
  68 C :   -0.024133
  69 N :   -0.042930
  70 C :   -0.020758
  71 N :   -0.047603
  72 H :    0.049850
  73 H :    0.052701
  74 H :    0.050474
  75 H :    0.027631
  76 H :    0.039073
  77 H :    0.026808
  78 H :    0.037552
  79 H :    0.035263
  80 H :    0.029657
  81 H :    0.032887
  82 H :    0.032151
  83 H :    0.031400
  84 H :    0.043246
  85 H :    0.029368
  86 H :    0.041126
  87 H :    0.026583
  88 H :    0.044263
  89 H :    0.051612
  90 H :    0.049561

  Mayer bond orders larger than 0.100000
B(  0-C ,  1-C ) :   1.3480 B(  0-C ,  5-C ) :   0.1056 B(  0-C ,  7-C ) :   1.3000
B(  0-C , 72-H ) :   0.9935 B(  1-C ,  2-F ) :   1.1438 B(  1-C ,  3-C ) :   1.2837
B(  3-C ,  4-F ) :   1.1334 B(  3-C ,  5-C ) :   1.3228 B(  5-C ,  6-C ) :   1.3162
B(  5-C , 73-H ) :   1.0194 B(  6-C ,  7-C ) :   1.3411 B(  6-C , 15-C ) :   0.9514
B(  7-C ,  8-C ) :   1.0175 B(  8-C ,  9-C ) :   1.6762 B(  8-C , 14-C ) :   1.0410
B(  9-C , 10-C ) :   1.1582 B(  9-C , 12-C ) :   1.1318 B( 10-C , 11-N ) :   2.9269
B( 12-C , 13-N ) :   2.9519 B( 14-C , 15-C ) :   0.9272 B( 14-C , 17-C ) :   1.7393
B( 15-C , 16-O ) :   2.2474 B( 17-C , 18-C ) :   1.0200 B( 17-C , 74-H ) :   0.9203
B( 18-C , 19-C ) :   1.4861 B( 18-C , 24-C ) :   1.1718 B( 19-C , 20-F ) :   1.1452
B( 19-C , 21-S ) :   1.1247 B( 21-S , 22-C ) :   1.1149 B( 22-C , 23-F ) :   1.1402
B( 22-C , 24-C ) :   1.4448 B( 24-C , 25-C ) :   1.0997 B( 25-C , 26-C ) :   1.6516
B( 25-C , 75-H ) :   0.9706 B( 26-C , 27-C ) :   1.1613 B( 26-C , 76-H ) :   0.9378
B( 27-C , 28-S ) :   1.1197 B( 27-C , 29-C ) :   1.5017 B( 28-S , 42-C ) :   1.1351
B( 29-C , 30-C ) :   0.9590 B( 29-C , 41-C ) :   1.1734 B( 30-C , 31-O ) :   2.0596
B( 30-C , 32-C ) :   1.0206 B( 32-C , 33-C ) :   1.4108 B( 32-C , 38-C ) :   1.2739
B( 33-C , 34-N ) :   1.2470 B( 33-C , 77-H ) :   0.9869 B( 34-N , 35-C ) :   0.9445
B( 34-N , 37-C ) :   1.2368 B( 35-C , 36-C ) :   1.1102 B( 35-C , 78-H ) :   0.9517
B( 35-C , 79-H ) :   0.9508 B( 36-C , 80-H ) :   0.9673 B( 36-C , 81-H ) :   0.9681
B( 36-C , 82-H ) :   0.9684 B( 37-C , 38-C ) :   1.4222 B( 37-C , 83-H ) :   0.9885
B( 38-C , 39-C ) :   1.0072 B( 39-C , 40-O ) :   2.0847 B( 39-C , 41-C ) :   0.9646
B( 41-C , 42-C ) :   1.5179 B( 42-C , 43-C ) :   1.1220 B( 43-C , 44-C ) :   1.7299
B( 43-C , 84-H ) :   0.9476 B( 44-C , 45-C ) :   1.0770 B( 44-C , 85-H ) :   0.9705
B( 45-C , 46-C ) :   1.4759 B( 45-C , 51-C ) :   1.1556 B( 46-C , 47-F ) :   1.1395
B( 46-C , 48-S ) :   1.1101 B( 48-S , 49-C ) :   1.1340 B( 49-C , 50-F ) :   1.1221
B( 49-C , 51-C ) :   1.4452 B( 51-C , 52-C ) :   1.0631 B( 52-C , 53-C ) :   1.6841
B( 52-C , 86-H ) :   0.9588 B( 53-C , 54-C ) :   1.1361 B( 53-C , 87-H ) :   0.9624
B( 54-C , 55-C ) :   1.5917 B( 54-C , 88-H ) :   0.9448 B( 55-C , 56-C ) :   0.9623
B( 55-C , 66-C ) :   1.0277 B( 56-C , 57-O ) :   2.2030 B( 56-C , 58-C ) :   0.9353
B( 58-C , 59-C ) :   1.3448 B( 58-C , 63-C ) :   1.3188 B( 59-C , 60-C ) :   1.3212
B( 59-C , 66-C ) :   1.0136 B( 60-C , 61-C ) :   1.3363 B( 60-C , 63-C ) :   0.1046
B( 60-C , 89-H ) :   0.9934 B( 61-C , 62-C ) :   1.2926 B( 61-C , 65-F ) :   1.1421
B( 62-C , 63-C ) :   1.3240 B( 62-C , 64-F ) :   1.1293 B( 63-C , 90-H ) :   1.0191
B( 66-C , 67-C ) :   1.6641 B( 67-C , 68-C ) :   1.1572 B( 67-C , 70-C ) :   1.1208
B( 68-C , 69-N ) :   3.0132 B( 70-C , 71-N ) :   2.9972

-----------------------------------------------------------------------------
         ABSORPTION SPECTRUM VIA TRANSITION ELECTRIC DIPOLE MOMENTS
-----------------------------------------------------------------------------
State   Energy  Wavelength   fosc         T2         TX        TY        TZ
        (cm-1)    (nm)                  (au**2)     (au)      (au)      (au)
-----------------------------------------------------------------------------
   0   21075.2    474.5   0.029760344   0.46488   0.63491   0.24772  -0.02021
   1   24334.5    410.9   0.333230148   4.50815  -0.80431   1.94276  -0.29479
   2   24674.2    405.3   0.201186562   2.68430   1.08772  -1.18588   0.30798
   3   26001.3    384.6   0.123479326   1.56342  -1.00773   0.30294  -0.67537
   4   26478.4    377.7   0.132899882   1.65237  -0.13737  -1.11284   0.62856
   5   27572.9    362.7   0.294774177   3.51951   0.75116   1.56534  -0.71062
   6   28197.7    354.6   0.606764887   7.08407   2.34418  -0.90908   0.87319
   7   29156.9    343.0   0.042857464   0.48391  -0.65506   0.22923  -0.04748
   8   29664.9    337.1   0.219296087   2.43368  -0.74431  -1.30065   0.43357
   9   29707.5    336.6   0.008495090   0.09414  -0.07046   0.02674  -0.29742
  10   30173.3    331.4   0.044916160   0.49007  -0.67218  -0.09847   0.16895
  11   31134.6    321.2   0.063820863   0.67483  -0.79304   0.20131   0.07340
  12   31460.1    317.9   0.019468813   0.20373   0.32324  -0.31499  -0.00506
  13   31518.0    317.3   0.015490860   0.16181   0.35522  -0.08359  -0.16923
  14   31711.9    315.3   0.007017311   0.07285  -0.06703  -0.01921  -0.26074
  15   31942.7    313.1   0.122764012   1.26525   0.28681   0.78986  -0.74773
  16   32006.0    312.4   0.153760313   1.58157  -1.02171   0.70938   0.18563
  17   32541.9    307.3   0.001218181   0.01232   0.02533   0.00165   0.10807
  18   32630.6    306.5   0.255350301   2.57624  -0.16831  -1.28566   0.94604
  19   33051.9    302.6   0.036541415   0.36397  -0.08566   0.48132  -0.35350
  20   33188.2    301.3   0.196175624   1.94597  -0.50572  -0.67470   1.11131
  21   33264.0    300.6   0.012861333   0.12729   0.27781  -0.20425   0.09162
  22   33373.9    299.6   0.041911533   0.41343  -0.60940   0.20179  -0.03663
  23   33602.1    297.6   0.099348222   0.97335  -0.16012  -0.84920   0.47600
  24   33907.2    294.9   0.056001649   0.54373  -0.07576   0.59598  -0.42755
  25   33948.6    294.6   0.054980748   0.53317   0.00161  -0.64213   0.34761
  26   34411.8    290.6   0.113045972   1.08149  -0.01544  -0.98979   0.31871
  27   34849.2    287.0   0.216794323   2.04800  -1.17335  -0.12364   0.80992
  28   35179.2    284.3   0.047809335   0.44741   0.08059  -0.21954   0.62667
  29   35387.0    282.6   0.032616901   0.30344  -0.11223   0.51265  -0.16742
  30   35480.5    281.8   0.038378269   0.35610  -0.51985   0.17232  -0.23699
  31   35743.2    279.8   0.078076056   0.71912   0.67540   0.41371  -0.30300
  32   35822.3    279.2   0.048540748   0.44610   0.03402  -0.63430   0.20641
  33   36240.7    275.9   0.281890742   2.56071   1.39643  -0.21585  -0.75107
  34   36457.4    274.3   0.123008202   1.11077   0.51967  -0.85116  -0.34095
  35   37356.4    267.7   0.109180994   0.96218   0.43511   0.47633  -0.73890
  36   37447.6    267.0   0.462769108   4.06832  -0.98812  -0.84515   1.54197
  37   37723.6    265.1   0.000177833   0.00155  -0.03880  -0.00269   0.00629
  38   38228.7    261.6   0.086499225   0.74490  -0.59713   0.04240   0.62172
  39   38342.2    260.8   0.052492671   0.45071   0.28512   0.36548  -0.48564
  40   38376.5    260.6   0.035600889   0.30540   0.48701  -0.10851  -0.23759
  41   38512.0    259.7   0.013093719   0.11193   0.03340  -0.33024  -0.04191
  42   38557.7    259.4   0.010631329   0.09077   0.12085  -0.00077   0.27598
  43   38939.1    256.8   0.020665326   0.17472  -0.29693   0.24705  -0.15975
  44   39049.8    256.1   0.011150384   0.09400  -0.03840  -0.21755   0.21261
  45   39174.5    255.3   0.098167666   0.82497   0.28185   0.75122  -0.42569
  46   39282.7    254.6   0.085841530   0.71940   0.74893  -0.21725  -0.33364
  47   39492.8    253.2   0.018661389   0.15556   0.12575   0.33385  -0.16820
  48   39633.3    252.3   0.006016585   0.04998  -0.20000  -0.03785   0.09243
  49   39974.6    250.2   0.104843318   0.86344  -0.20112   0.81299  -0.40253

FINAL SINGLE POINT ENERGY     -4556.374608152429

DIPOLE MOMENT
-------------
                                X             Y             Z
Electronic contribution:      2.85821     -23.07145      17.58542
Nuclear contribution   :     -0.93442      21.76977     -18.88205
                        -----------------------------------------
Total Dipole Moment    :      1.92379      -1.30169      -1.29663
                        -----------------------------------------
Magnitude (a.u.)       :      2.66019
Magnitude (Debye)      :      6.76166

Rotational constants in cm-1:     0.001249     0.000433     0.000334
Rotational constants in MHz :    37.455212    12.995492    10.019119

                             ****ORCA TERMINATED NORMALLY****
TOTAL RUN TIME: 0 days 0 hours 9 minutes 2 seconds 838 msec
