                         Program Version 4.2.0 -  RELEASE  -
|  1> # ORCA input file
|  2> # SCF done       -157.130500307883          0.000943982880
|  3> ! CAM-B3LYP def2-SVP def2/J RIJCOSX Grid4 TightSCF
|  4> %maxcore 5000
|  5> %tddft
|  6>     Mode sTDDFT
|  7>     Ethresh 5.0
|  8>     maxcore 5000
|  9> end
| 10>
| 11> %pal
| 12>   nprocs 6
| 13>   end
| 14> * xyz 0 1
| 15>    C       -0.28703        -0.38993         2.02693
| 16>    C       -0.19695         0.21831         3.26982
| 17>    F       -0.64052         1.47223         3.40955
| 18>    C        0.34396        -0.44270         4.37346
| 19>    F        0.41080         0.18399         5.55362
| 20>    C        0.81229        -1.74109         4.25669
| 21>    C        0.72208        -2.34549         3.01849
| 22>    C        0.17984        -1.68992         1.90240
| 23>    C        0.22806        -2.59663         0.75565
| 24>    C       -0.26265        -2.30184        -0.49042
| 25>    C       -0.86452        -1.07165        -0.83490
| 26>    N       -1.36311        -0.09998        -1.18656
| 27>    C       -0.26402        -3.15740        -1.61212
| 28>    N       -0.31026        -3.79071        -2.56990
| 29>    C        0.84589        -3.83569         1.19827
| 30>    C        1.15119        -3.71108         2.63933
| 31>    O        1.65531        -4.52094         3.38600
| 32>    C        1.10730        -4.89458         0.36846
| 33>    C        1.64065        -6.17260         0.61122
| 34>    N        1.79144        -7.03185        -0.45316
| 35>    C        2.27179        -8.22234        -0.02647
| 36>    C        2.44944        -8.14014         1.36014
| 37>    C        2.06237        -6.87296         1.75426
| 38>    C        2.50917        -9.29860        -0.87757
| 39>    C        2.70526       -10.24528        -1.60672
| 40>    C        2.90670       -11.35611        -2.44321
| 41>    C        3.07638       -11.18789        -3.81759
| 42>    C        3.24308       -12.29183        -4.63412
| 43>    N        3.28173       -12.04566        -6.05816
| 44>    O        3.86787       -11.05343        -6.42970
| 45>    O        2.68965       -12.81983        -6.77599
| 46>    C        3.27946       -13.59517        -4.11580
| 47>    C        3.09752       -13.74210        -2.73438
| 48>    C        2.91135       -12.65328        -1.91390
| 49>    C        3.55046       -14.76346        -4.92803
| 50>    N        2.99373       -15.95952        -4.64606
| 51>    C        3.46108       -16.90435        -5.51513
| 52>    C        4.38211       -16.27827        -6.36612
| 53>    C        4.43044       -14.94321        -6.00190
| 54>    C        3.01713       -18.20740        -5.46587
| 55>    C        2.51744       -19.30883        -5.28694
| 56>    C        2.10493       -20.61334        -5.25735
| 57>    C        1.11745       -21.24552        -4.54818
| 58>    C        0.91512       -22.68711        -4.84077
| 59>    O        1.57995       -23.37079        -5.58550
| 60>    C       -0.26185       -23.09514        -4.04736
| 61>    C       -0.72623       -21.99131        -3.31260
| 62>    C       -1.84296       -22.13083        -2.50247
| 63>    C       -2.46068       -23.37148        -2.44685
| 64>    C       -1.98666       -24.46179        -3.17670
| 65>    C       -0.87358       -24.33129        -3.99158
| 66>    F       -2.61288       -25.64014        -3.09040
| 67>    F       -3.53987       -23.51981        -1.67137
| 68>    C        0.13775       -20.83227        -3.57432
| 69>    C       -0.00166       -19.62236        -2.94093
| 70>    C        0.80380       -18.48147        -3.06263
| 71>    N        1.36342       -17.47782        -3.02296
| 72>    C       -1.01266       -19.32726        -1.99711
| 73>    N       -1.79649       -18.99880        -1.22606
| 74>    H       -0.71213         0.16693         1.20847
| 75>    H        1.23170        -2.25777         5.10517
| 76>    H        0.85603        -4.74179        -0.67452
| 77>    H        1.55907        -6.81099        -1.40924
| 78>    H        2.82169        -8.92736         1.98479
| 79>    H        2.07476        -6.47777         2.74874
| 80>    H        3.05883       -10.20211        -4.25813
| 81>    H        3.12675       -14.73147        -2.30402
| 82>    H        2.77083       -12.78940        -0.85251
| 83>    H        2.30048       -16.17778        -3.93419
| 84>    H        4.93179       -16.75490        -7.15273
| 85>    H        5.05049       -14.18955        -6.44563
| 86>    H        2.63996       -21.27613        -5.93718
| 87>    H       -2.25656       -21.32604        -1.91815
| 88>    H       -0.50263       -25.16856        -4.56091
| 89> *
| 90>
| 91>                          ****END OF INPUT****

CARTESIAN COORDINATES (ANGSTROEM)
---------------------------------
  C     -0.287030   -0.389930    2.026930
  C     -0.196950    0.218310    3.269820
  F     -0.640520    1.472230    3.409550
  C      0.343960   -0.442700    4.373460
  F      0.410800    0.183990    5.553620
  C      0.812290   -1.741090    4.256690
  C      0.722080   -2.345490    3.018490
  C      0.179840   -1.689920    1.902400
  C      0.228060   -2.596630    0.755650
  C     -0.262650   -2.301840   -0.490420
  C     -0.864520   -1.071650   -0.834900
  N     -1.363110   -0.099980   -1.186560
  C     -0.264020   -3.157400   -1.612120
  N     -0.310260   -3.790710   -2.569900
  C      0.845890   -3.835690    1.198270
  C      1.151190   -3.711080    2.639330
  O      1.655310   -4.520940    3.386000
  C      1.107300   -4.894580    0.368460
  C      1.640650   -6.172600    0.611220
  N      1.791440   -7.031850   -0.453160
  C      2.271790   -8.222340   -0.026470
  C      2.449440   -8.140140    1.360140
  C      2.062370   -6.872960    1.754260
  C      2.509170   -9.298600   -0.877570
  C      2.705260  -10.245280   -1.606720
  C      2.906700  -11.356110   -2.443210
  C      3.076380  -11.187890   -3.817590
  C      3.243080  -12.291830   -4.634120
  N      3.281730  -12.045660   -6.058160
  O      3.867870  -11.053430   -6.429700
  O      2.689650  -12.819830   -6.775990
  C      3.279460  -13.595170   -4.115800
  C      3.097520  -13.742100   -2.734380
  C      2.911350  -12.653280   -1.913900
  C      3.550460  -14.763460   -4.928030
  N      2.993730  -15.959520   -4.646060
  C      3.461080  -16.904350   -5.515130
  C      4.382110  -16.278270   -6.366120
  C      4.430440  -14.943210   -6.001900
  C      3.017130  -18.207400   -5.465870
  C      2.517440  -19.308830   -5.286940
  C      2.104930  -20.613340   -5.257350
  C      1.117450  -21.245520   -4.548180
  C      0.915120  -22.687110   -4.840770
  O      1.579950  -23.370790   -5.585500
  C     -0.261850  -23.095140   -4.047360
  C     -0.726230  -21.991310   -3.312600
  C     -1.842960  -22.130830   -2.502470
  C     -2.460680  -23.371480   -2.446850
  C     -1.986660  -24.461790   -3.176700
  C     -0.873580  -24.331290   -3.991580
  F     -2.612880  -25.640140   -3.090400
  F     -3.539870  -23.519810   -1.671370
  C      0.137750  -20.832270   -3.574320
  C     -0.001660  -19.622360   -2.940930
  C      0.803800  -18.481470   -3.062630
  N      1.363420  -17.477820   -3.022960
  C     -1.012660  -19.327260   -1.997110
  N     -1.796490  -18.998800   -1.226060
  H     -0.712130    0.166930    1.208470
  H      1.231700   -2.257770    5.105170
  H      0.856030   -4.741790   -0.674520
  H      1.559070   -6.810990   -1.409240
  H      2.821690   -8.927360    1.984790
  H      2.074760   -6.477770    2.748740
  H      3.058830  -10.202110   -4.258130
  H      3.126750  -14.731470   -2.304020
  H      2.770830  -12.789400   -0.852510
  H      2.300480  -16.177780   -3.934190
  H      4.931790  -16.754900   -7.152730
  H      5.050490  -14.189550   -6.445630
  H      2.639960  -21.276130   -5.937180
  H     -2.256560  -21.326040   -1.918150
  H     -0.502630  -25.168560   -4.560910

 Total Charge           Charge          ....    0
 Multiplicity           Mult            ....    1
 Number of Electrons    NEL             ....  396
 Basis Dimension        Dim             ....  901

ORBITAL ENERGIES
----------------

  NO   OCC          E(Eh)            E(eV)
   0   2.0000     -24.808281      -675.0676
   1   2.0000     -24.806584      -675.0215
   2   2.0000     -24.804455      -674.9635
   3   2.0000     -24.802596      -674.9129
   4   2.0000     -19.255895      -523.9796
   5   2.0000     -19.255759      -523.9758
   6   2.0000     -19.226599      -523.1824
   7   2.0000     -19.225932      -523.1642
   8   2.0000     -14.660473      -398.9318
   9   2.0000     -14.491945      -394.3459
  10   2.0000     -14.473538      -393.8450
  11   2.0000     -14.439726      -392.9249
  12   2.0000     -14.426973      -392.5779
  13   2.0000     -14.426329      -392.5604
  14   2.0000     -14.419468      -392.3737
  15   2.0000     -10.393734      -282.8279
  16   2.0000     -10.393118      -282.8111
  17   2.0000     -10.389587      -282.7150
  18   2.0000     -10.388805      -282.6937
  19   2.0000     -10.377344      -282.3819
  20   2.0000     -10.376234      -282.3517
  21   2.0000     -10.359398      -281.8936
  22   2.0000     -10.356660      -281.8190
  23   2.0000     -10.350252      -281.6447
  24   2.0000     -10.349551      -281.6256
  25   2.0000     -10.349414      -281.6219
  26   2.0000     -10.349408      -281.6217
  27   2.0000     -10.348991      -281.6104
  28   2.0000     -10.338873      -281.3350
  29   2.0000     -10.332406      -281.1591
  30   2.0000     -10.331037      -281.1218
  31   2.0000     -10.330381      -281.1039
  32   2.0000     -10.330291      -281.1015
  33   2.0000     -10.329875      -281.0902
  34   2.0000     -10.329640      -281.0838
  35   2.0000     -10.329215      -281.0722
  36   2.0000     -10.328621      -281.0561
  37   2.0000     -10.325503      -280.9712
  38   2.0000     -10.322548      -280.8908
  39   2.0000     -10.319685      -280.8129
  40   2.0000     -10.318733      -280.7870
  41   2.0000     -10.316026      -280.7133
  42   2.0000     -10.315711      -280.7048
  43   2.0000     -10.313532      -280.6455
  44   2.0000     -10.312581      -280.6196
  45   2.0000     -10.311724      -280.5963
  46   2.0000     -10.311299      -280.5847
  47   2.0000     -10.310605      -280.5658
  48   2.0000     -10.310001      -280.5494
  49   2.0000     -10.308017      -280.4954
  50   2.0000     -10.305222      -280.4194
  51   2.0000     -10.305065      -280.4151
  52   2.0000     -10.305035      -280.4143
  53   2.0000     -10.302137      -280.3354
  54   2.0000     -10.298568      -280.2383
  55   2.0000     -10.286270      -279.9036
  56   2.0000     -10.285238      -279.8756
  57   2.0000     -10.283569      -279.8301
  58   2.0000     -10.279199      -279.7112
  59   2.0000      -1.337462       -36.3942
  60   2.0000      -1.331425       -36.2299
  61   2.0000      -1.327405       -36.1205
  62   2.0000      -1.316169       -35.8148
  63   2.0000      -1.312137       -35.7051
  64   2.0000      -1.156712       -31.4757
  65   2.0000      -1.141889       -31.0724
  66   2.0000      -1.141433       -31.0600
  67   2.0000      -1.110800       -30.2264
  68   2.0000      -1.101785       -29.9811
  69   2.0000      -1.037467       -28.2309
  70   2.0000      -1.027616       -27.9629
  71   2.0000      -1.018091       -27.7037
  72   2.0000      -1.009286       -27.4641
  73   2.0000      -1.008729       -27.4489
  74   2.0000      -1.007276       -27.4094
  75   2.0000      -1.000803       -27.2332
  76   2.0000      -0.967584       -26.3293
  77   2.0000      -0.963017       -26.2050
  78   2.0000      -0.935243       -25.4493
  79   2.0000      -0.925115       -25.1737
  80   2.0000      -0.918369       -24.9901
  81   2.0000      -0.912890       -24.8410
  82   2.0000      -0.906304       -24.6618
  83   2.0000      -0.903668       -24.5901
  84   2.0000      -0.897813       -24.4307
  85   2.0000      -0.889263       -24.1981
  86   2.0000      -0.883139       -24.0314
  87   2.0000      -0.881530       -23.9876
  88   2.0000      -0.877925       -23.8895
  89   2.0000      -0.868129       -23.6230
  90   2.0000      -0.840520       -22.8717
  91   2.0000      -0.827536       -22.5184
  92   2.0000      -0.809529       -22.0284
  93   2.0000      -0.799216       -21.7478
  94   2.0000      -0.790307       -21.5054
  95   2.0000      -0.782835       -21.3020
  96   2.0000      -0.778739       -21.1906
  97   2.0000      -0.759394       -20.6642
  98   2.0000      -0.740478       -20.1494
  99   2.0000      -0.735529       -20.0148
 100   2.0000      -0.719044       -19.5662
 101   2.0000      -0.715894       -19.4805
 102   2.0000      -0.713982       -19.4284
 103   2.0000      -0.708693       -19.2845
 104   2.0000      -0.702373       -19.1125
 105   2.0000      -0.697862       -18.9898
 106   2.0000      -0.695616       -18.9287
 107   2.0000      -0.693294       -18.8655
 108   2.0000      -0.690604       -18.7923
 109   2.0000      -0.675526       -18.3820
 110   2.0000      -0.671220       -18.2648
 111   2.0000      -0.666707       -18.1420
 112   2.0000      -0.655825       -17.8459
 113   2.0000      -0.651831       -17.7372
 114   2.0000      -0.648072       -17.6349
 115   2.0000      -0.645762       -17.5721
 116   2.0000      -0.641305       -17.4508
 117   2.0000      -0.638511       -17.3748
 118   2.0000      -0.619139       -16.8476
 119   2.0000      -0.615218       -16.7409
 120   2.0000      -0.613381       -16.6910
 121   2.0000      -0.608323       -16.5533
 122   2.0000      -0.606775       -16.5112
 123   2.0000      -0.600853       -16.3500
 124   2.0000      -0.597980       -16.2719
 125   2.0000      -0.596373       -16.2281
 126   2.0000      -0.592370       -16.1192
 127   2.0000      -0.584147       -15.8954
 128   2.0000      -0.578051       -15.7296
 129   2.0000      -0.574774       -15.6404
 130   2.0000      -0.570453       -15.5228
 131   2.0000      -0.560023       -15.2390
 132   2.0000      -0.557049       -15.1581
 133   2.0000      -0.556738       -15.1496
 134   2.0000      -0.556081       -15.1317
 135   2.0000      -0.552184       -15.0257
 136   2.0000      -0.551876       -15.0173
 137   2.0000      -0.550349       -14.9758
 138   2.0000      -0.548249       -14.9186
 139   2.0000      -0.544314       -14.8115
 140   2.0000      -0.542684       -14.7672
 141   2.0000      -0.538590       -14.6558
 142   2.0000      -0.537421       -14.6240
 143   2.0000      -0.535623       -14.5750
 144   2.0000      -0.534367       -14.5409
 145   2.0000      -0.534092       -14.5334
 146   2.0000      -0.520355       -14.1596
 147   2.0000      -0.518677       -14.1139
 148   2.0000      -0.517826       -14.0908
 149   2.0000      -0.511170       -13.9097
 150   2.0000      -0.503958       -13.7134
 151   2.0000      -0.503162       -13.6917
 152   2.0000      -0.501921       -13.6580
 153   2.0000      -0.501308       -13.6413
 154   2.0000      -0.498376       -13.5615
 155   2.0000      -0.498117       -13.5544
 156   2.0000      -0.495542       -13.4844
 157   2.0000      -0.493180       -13.4201
 158   2.0000      -0.482265       -13.1231
 159   2.0000      -0.480089       -13.0639
 160   2.0000      -0.476558       -12.9678
 161   2.0000      -0.474900       -12.9227
 162   2.0000      -0.469254       -12.7691
 163   2.0000      -0.464853       -12.6493
 164   2.0000      -0.460877       -12.5411
 165   2.0000      -0.459824       -12.5124
 166   2.0000      -0.459278       -12.4976
 167   2.0000      -0.457838       -12.4584
 168   2.0000      -0.452369       -12.3096
 169   2.0000      -0.449213       -12.2237
 170   2.0000      -0.449080       -12.2201
 171   2.0000      -0.445143       -12.1130
 172   2.0000      -0.439353       -11.9554
 173   2.0000      -0.434237       -11.8162
 174   2.0000      -0.432339       -11.7645
 175   2.0000      -0.425459       -11.5773
 176   2.0000      -0.423076       -11.5125
 177   2.0000      -0.414677       -11.2839
 178   2.0000      -0.411042       -11.1850
 179   2.0000      -0.399929       -10.8826
 180   2.0000      -0.395030       -10.7493
 181   2.0000      -0.394579       -10.7371
 182   2.0000      -0.384453       -10.4615
 183   2.0000      -0.374087       -10.1794
 184   2.0000      -0.368323       -10.0226
 185   2.0000      -0.361838        -9.8461
 186   2.0000      -0.358259        -9.7487
 187   2.0000      -0.355304        -9.6683
 188   2.0000      -0.354968        -9.6592
 189   2.0000      -0.350217        -9.5299
 190   2.0000      -0.348416        -9.4809
 191   2.0000      -0.347391        -9.4530
 192   2.0000      -0.344119        -9.3640
 193   2.0000      -0.335965        -9.1421
 194   2.0000      -0.324253        -8.8234
 195   2.0000      -0.319112        -8.6835
 196   2.0000      -0.281661        -7.6644
 197   2.0000      -0.265321        -7.2198
 198   0.0000      -0.107099        -2.9143
 199   0.0000      -0.095848        -2.6082
 200   0.0000      -0.073256        -1.9934
 201   0.0000      -0.067740        -1.8433
 202   0.0000      -0.057506        -1.5648

MULLIKEN ATOMIC CHARGES
-----------------------
   0 C :   -0.086077
   1 C :    0.233591
   2 F :   -0.163697
   3 C :    0.236671
   4 F :   -0.167861
   5 C :   -0.104518
   6 C :   -0.009418
   7 C :    0.040739
   8 C :    0.318174
   9 C :   -0.368779
  10 C :   -0.191593
  11 N :    0.160933
  12 C :   -0.172500
  13 N :    0.139194
  14 C :   -0.095196
  15 C :    0.152031
  16 O :   -0.146737
  17 C :   -0.002930
  18 C :    0.087915
  19 N :   -0.039544
  20 C :    0.024184
  21 C :    0.001320
  22 C :   -0.017489
  23 C :    0.080028
  24 C :   -0.046865
  25 C :   -0.015623
  26 C :   -0.021770
  27 C :    0.124450
  28 N :    0.228702
  29 O :   -0.228693
  30 O :   -0.209706
  31 C :    0.093055
  32 C :   -0.032644
  33 C :    0.046997
  34 C :    0.047377
  35 N :   -0.029622
  36 C :   -0.026434
  37 C :    0.018952
  38 C :   -0.010053
  39 C :    0.163650
  40 C :   -0.068986
  41 C :   -0.053198
  42 C :   -0.134609
  43 C :    0.129694
  44 O :   -0.139172
  45 C :    0.002898
  46 C :    0.020967
  47 C :   -0.089872
  48 C :    0.236203
  49 C :    0.235989
  50 C :   -0.098946
  51 F :   -0.165712
  52 F :   -0.163125
  53 C :    0.352861
  54 C :   -0.374702
  55 C :   -0.116443
  56 N :    0.117307
  57 C :   -0.212778
  58 N :    0.160104
  59 H :    0.016126
  60 H :    0.011426
  61 H :   -0.020038
  62 H :    0.143055
  63 H :   -0.013987
  64 H :    0.014583
  65 H :    0.008206
  66 H :    0.001329
  67 H :    0.003469
  68 H :    0.124661
  69 H :   -0.013109
  70 H :   -0.012498
  71 H :    0.058149
  72 H :    0.016682
  73 H :    0.013251
Sum of atomic charges:   -0.0000000

LOEWDIN ATOMIC CHARGES
----------------------
   0 C :   -0.017465
   1 C :    0.073098
   2 F :   -0.043066
   3 C :    0.071502
   4 F :   -0.044563
   5 C :   -0.006279
   6 C :   -0.043705
   7 C :   -0.016569
   8 C :    0.078739
   9 C :   -0.144105
  10 C :   -0.020615
  11 N :   -0.048432
  12 C :   -0.018777
  13 N :   -0.059075
  14 C :   -0.105845
  15 C :    0.086210
  16 O :   -0.137521
  17 C :    0.057411
  18 C :   -0.023990
  19 N :    0.116370
  20 C :   -0.001513
  21 C :   -0.040687
  22 C :   -0.006083
  23 C :   -0.041264
  24 C :   -0.007591
  25 C :   -0.039705
  26 C :    0.024030
  27 C :   -0.017371
  28 N :    0.279213
  29 O :   -0.195760
  30 O :   -0.180009
  31 C :   -0.009567
  32 C :   -0.003614
  33 C :    0.023568
  34 C :    0.010443
  35 N :    0.128253
  36 C :   -0.045411
  37 C :   -0.010755
  38 C :   -0.052800
  39 C :    0.030225
  40 C :   -0.060375
  41 C :    0.061178
  42 C :   -0.105289
  43 C :    0.081933
  44 O :   -0.138298
  45 C :   -0.044810
  46 C :   -0.014389
  47 C :   -0.018916
  48 C :    0.074215
  49 C :    0.072252
  50 C :   -0.003540
  51 F :   -0.042691
  52 F :   -0.042164
  53 C :    0.081153
  54 C :   -0.145343
  55 C :    0.038485
  56 N :   -0.067996
  57 C :   -0.020665
  58 N :   -0.047765
  59 H :    0.051553
  60 H :    0.051771
  61 H :    0.043126
  62 H :    0.102557
  63 H :    0.034225
  64 H :    0.033780
  65 H :    0.047198
  66 H :    0.039503
  67 H :    0.042799
  68 H :    0.063820
  69 H :    0.034976
  70 H :    0.028348
  71 H :    0.067657
  72 H :    0.051444
  73 H :    0.053343

  Mayer bond orders larger than 0.100000
B(  0-C ,  1-C ) :   1.3381 B(  0-C ,  5-C ) :   0.1053 B(  0-C ,  7-C ) :   1.3116
B(  0-C , 59-H ) :   0.9906 B(  1-C ,  2-F ) :   1.1478 B(  1-C ,  3-C ) :   1.2907
B(  3-C ,  4-F ) :   1.1321 B(  3-C ,  5-C ) :   1.3144 B(  5-C ,  6-C ) :   1.3213
B(  5-C , 60-H ) :   1.0198 B(  6-C ,  7-C ) :   1.3428 B(  6-C , 15-C ) :   0.9570
B(  7-C ,  8-C ) :   0.9995 B(  8-C ,  9-C ) :   1.6168 B(  8-C , 14-C ) :   1.0951
B(  9-C , 10-C ) :   1.1457 B(  9-C , 12-C ) :   1.1448 B( 10-C , 11-N ) :   2.9776
B( 12-C , 13-N ) :   2.9557 B( 14-C , 15-C ) :   0.9431 B( 14-C , 17-C ) :   1.5631
B( 15-C , 16-O ) :   2.1962 B( 17-C , 18-C ) :   1.1772 B( 17-C , 61-H ) :   0.9118
B( 18-C , 19-N ) :   1.1616 B( 18-C , 20-C ) :   0.1153 B( 18-C , 22-C ) :   1.3586
B( 19-N , 20-C ) :   1.2980 B( 19-N , 62-H ) :   0.9300 B( 20-C , 21-C ) :   1.3722
B( 20-C , 23-C ) :   0.8005 B( 21-C , 22-C ) :   1.3541 B( 21-C , 63-H ) :   1.0152
B( 22-C , 64-H ) :   0.9990 B( 23-C , 24-C ) :   2.3329 B( 24-C , 25-C ) :   0.9130
B( 25-C , 26-C ) :   1.3123 B( 25-C , 33-C ) :   1.3404 B( 26-C , 27-C ) :   1.3890
B( 26-C , 65-H ) :   1.0029 B( 27-C , 28-N ) :   0.8542 B( 27-C , 31-C ) :   1.3970
B( 28-N , 29-O ) :   1.5419 B( 28-N , 30-O ) :   1.5485 B( 29-O , 30-O ) :   0.2765
B( 31-C , 32-C ) :   1.3542 B( 31-C , 34-C ) :   0.9608 B( 32-C , 33-C ) :   1.3812
B( 32-C , 66-H ) :   0.9954 B( 33-C , 67-H ) :   0.9996 B( 34-C , 35-N ) :   1.3236
B( 34-C , 36-C ) :   0.1198 B( 34-C , 38-C ) :   1.3766 B( 35-N , 36-C ) :   1.2385
B( 35-N , 68-H ) :   0.8749 B( 36-C , 37-C ) :   1.3330 B( 36-C , 39-C ) :   0.9079
B( 37-C , 38-C ) :   1.3953 B( 37-C , 69-H ) :   1.0120 B( 38-C , 70-H ) :   1.0049
B( 39-C , 40-C ) :   1.9785 B( 40-C , 41-C ) :   0.9978 B( 41-C , 42-C ) :   1.5861
B( 41-C , 71-H ) :   0.9411 B( 42-C , 43-C ) :   0.9552 B( 42-C , 53-C ) :   1.0619
B( 43-C , 44-O ) :   2.2556 B( 43-C , 45-C ) :   0.9350 B( 45-C , 46-C ) :   1.3396
B( 45-C , 50-C ) :   1.3273 B( 46-C , 47-C ) :   1.3128 B( 46-C , 53-C ) :   1.0156
B( 47-C , 48-C ) :   1.3393 B( 47-C , 50-C ) :   0.1041 B( 47-C , 72-H ) :   0.9879
B( 48-C , 49-C ) :   1.2915 B( 48-C , 52-F ) :   1.1488 B( 49-C , 50-C ) :   1.3120
B( 49-C , 51-F ) :   1.1347 B( 50-C , 73-H ) :   1.0212 B( 53-C , 54-C ) :   1.5913
B( 54-C , 55-C ) :   1.2024 B( 54-C , 57-C ) :   1.1251 B( 55-C , 56-N ) :   2.8753
B( 56-N , 68-H ) :   0.1353 B( 57-C , 58-N ) :   2.9805

-----------------------------------------------------------------------------
         ABSORPTION SPECTRUM VIA TRANSITION ELECTRIC DIPOLE MOMENTS
-----------------------------------------------------------------------------
State   Energy  Wavelength   fosc         T2         TX        TY        TZ
        (cm-1)    (nm)                  (au**2)     (au)      (au)      (au)
-----------------------------------------------------------------------------
   0   18498.6    540.6   1.112080203  19.79128  -1.43500  -4.20101   0.28913
   1   22144.9    451.6   1.241415045  18.45521  -1.81011   3.68390   1.26792
   2   25715.8    388.9   0.248410113   3.18013  -0.17805  -1.49683  -0.95285
   3   26931.9    371.3   0.201539280   2.46359  -0.54264   0.91052   1.15762
   4   27552.7    362.9   0.066575277   0.79547  -0.56250  -0.66197   0.20213
   5   27903.1    358.4   0.020809501   0.24552   0.19253   0.45562   0.02935
   6   29776.7    335.8   0.086007262   0.95090  -0.05413  -0.11808  -0.96645
   7   29957.9    333.8   0.025855990   0.28414  -0.21205  -0.37598   0.31275
   8   30714.1    325.6   0.006333732   0.06789   0.04178  -0.25718  -0.00021
   9   30907.4    323.5   0.528785992   5.63239  -0.68464  -2.25490  -0.28118
  10   31562.5    316.8   0.003240006   0.03379   0.04912   0.16799   0.05623
  11   31722.5    315.2   0.383701569   3.98201   0.01432   1.05313   1.69491
  12   32572.4    307.0   0.000309303   0.00313   0.02864   0.02114  -0.04312
  13   33152.3    301.6   0.007482422   0.07430   0.21766   0.12873  -0.10176
  14   33381.3    299.6   0.007584965   0.07480  -0.04493  -0.05969   0.26310
  15   34297.3    291.6   0.033906159   0.32546  -0.11761   0.32768   0.45194
  16   34559.6    289.4   0.151916762   1.44714   0.52036  -0.50432  -0.96023
  17   35371.9    282.7   0.175989160   1.63796  -0.02048  -1.22095  -0.38318
  18   36140.9    276.7   0.104330475   0.95036  -0.24616  -0.13925  -0.93294
  19   36495.5    274.0   0.116749080   1.05315   0.01070   0.05336  -1.02479
  20   36573.6    273.4   0.207974071   1.87205   0.35420   0.16886  -1.31075
  21   36819.1    271.6   0.244737142   2.18828   0.69839   0.97188   0.86947
  22   37219.0    268.7   0.162484926   1.43722  -0.26503  -0.84131  -0.81190
  23   37699.9    265.3   0.312404887   2.72805   0.50066  -1.55153   0.26487
  24   37945.6    263.5   0.153827113   1.33459   0.03832  -0.67035  -0.94008
  25   38794.8    257.8   0.229666732   1.94895  -0.19402   0.25380  -1.35900
  26   39265.6    254.7   0.015327882   0.12851  -0.33246  -0.01800  -0.13289
  27   39521.1    253.0   0.016114961   0.13424  -0.03908   0.35198   0.09392
  28   39890.8    250.7   0.029714085   0.24523   0.13676  -0.41796  -0.22766
  29   40143.8    249.1   0.007251052   0.05946   0.16333  -0.00786   0.18091

FINAL SINGLE POINT ENERGY     -2765.578691563139

DIPOLE MOMENT
-------------
                                X             Y             Z
Electronic contribution:    -21.16903       0.03858      13.29938
Nuclear contribution   :     22.75724      -1.92052     -12.30784
                        -----------------------------------------
Total Dipole Moment    :      1.58821      -1.88194       0.99154
                        -----------------------------------------
Magnitude (a.u.)       :      2.65467
Magnitude (Debye)      :      6.74763

Rotational constants in cm-1:     0.002584     0.000280     0.000262
Rotational constants in MHz :    77.473438     8.379368     7.853105

                             ****ORCA TERMINATED NORMALLY****
TOTAL RUN TIME: 0 days 0 hours 6 minutes 5 seconds 815 msec
