                         Program Version 4.2.0 -  RELEASE  -
|  1> # ORCA input file
|  2> # SCF done       -155.885913323804          0.000985284756
|  3> ! CAM-B3LYP def2-SVP def2/J RIJCOSX Grid4 TightSCF
|  4> %maxcore 5000
|  5> %tddft
|  6>     Mode sTDDFT
|  7>     Ethresh 5.0
|  8>     maxcore 5000
|  9> end
| 10>
| 11> %pal
| 12>   nprocs 6
| 13>   end
| 14> * xyz 0 1
| 15>    C       -1.36190        -1.11344         1.05741
| 16>    C       -0.95199         0.07219         1.64837
| 17>    F       -1.86558         1.01346         1.91083
| 18>    C        0.38437         0.30690         1.97399
| 19>    F        0.73392         1.46602         2.54440
| 20>    C        1.35137        -0.64937         1.71124
| 21>    C        0.94201        -1.82819         1.12040
| 22>    C       -0.39922        -2.07557         0.79103
| 23>    C       -0.49639        -3.40469         0.18704
| 24>    C       -1.66960        -3.99012        -0.21518
| 25>    C       -2.93751        -3.37730        -0.11134
| 26>    N       -3.99898        -2.94351        -0.06268
| 27>    C       -1.81338        -5.27635        -0.77621
| 28>    N       -2.01970        -6.31069        -1.23230
| 29>    C        0.84501        -3.96022         0.12337
| 30>    C        1.77592        -2.99001         0.73564
| 31>    O        2.97196        -3.07995         0.90881
| 32>    C        1.14129        -5.17160        -0.44731
| 33>    C        2.35335        -5.86294        -0.61165
| 34>    N        2.33524        -7.07807        -1.26142
| 35>    C        3.58500        -7.58535        -1.33214
| 36>    C        4.45219        -6.68303        -0.70796
| 37>    C        3.69121        -5.61842        -0.26025
| 38>    C        3.88435        -8.80792        -1.93830
| 39>    C        4.20688        -9.84341        -2.46885
| 40>    C        4.53142       -11.09848        -3.05817
| 41>    S        3.14072       -11.90101        -4.03605
| 42>    C        3.53205       -13.00906        -2.75669
| 43>    C        4.50671       -12.30524        -2.14439
| 44>    C        5.35565       -12.59385        -1.00658
| 45>    O        5.35163       -13.61782        -0.36761
| 46>    O        6.19313       -11.55528        -0.75452
| 47>    C        7.18961       -11.78554         0.22923
| 48>    C        8.34073       -12.53887        -0.35713
| 49>    N        8.40840       -12.78592        -1.67177
| 50>    C        9.54006       -13.51019        -1.95099
| 51>    C       10.21557       -13.70855        -0.74036
| 52>    C        9.45865       -13.10146         0.25357
| 53>    C        9.82037       -13.92511        -3.23090
| 54>    C        9.89469       -14.22200        -4.41653
| 55>    C       10.19646       -14.67266        -5.66994
| 56>    C        9.53608       -14.57478        -6.86983
| 57>    C       10.18985       -15.21878        -8.03529
| 58>    O       11.24665       -15.80889        -8.03429
| 59>    C        9.28522       -14.98829        -9.18083
| 60>    C        8.16647       -14.26119        -8.74173
| 61>    C        7.17409       -13.91946        -9.64742
| 62>    C        7.32888       -14.31553       -10.96792
| 63>    C        8.44378       -15.03827       -11.39197
| 64>    C        9.44088       -15.38418       -10.49361
| 65>    F        8.55156       -15.39878       -12.67539
| 66>    F        6.38040       -13.99135       -11.85334
| 67>    C        8.29721       -13.98663        -7.30424
| 68>    C        7.36324       -13.28530        -6.58077
| 69>    C        7.38942       -12.92846        -5.22749
| 70>    N        7.23084       -12.52520        -4.16115
| 71>    C        6.16004       -12.76300        -7.10932
| 72>    N        5.15937       -12.30266        -7.43290
| 73>    H       -2.40633        -1.24143         0.82624
| 74>    H        2.38602        -0.47524         1.96019
| 75>    H        0.29732        -5.70835        -0.86438
| 76>    H        1.50995        -7.52141        -1.63468
| 77>    H        5.51084        -6.81247        -0.60462
| 78>    H        4.04233        -4.75302         0.26221
| 79>    H        5.42298       -11.04102        -3.68567
| 80>    H        3.08848       -13.96788        -2.57253
| 81>    H        6.76538       -12.35187         1.06826
| 82>    H        7.50108       -10.79671         0.57927
| 83>    H        7.74632       -12.50824        -2.39225
| 84>    H       11.13839       -14.23987        -0.61938
| 85>    H        9.68199       -13.06884         1.30096
| 86>    H       11.13552       -15.22139        -5.74169
| 87>    H        6.29158       -13.36293        -9.37933
| 88>    H       10.30598       -15.94222       -10.81440
| 89> *
| 90>
| 91>                          ****END OF INPUT****

CARTESIAN COORDINATES (ANGSTROEM)
---------------------------------
  C     -1.361900   -1.113440    1.057410
  C     -0.951990    0.072190    1.648370
  F     -1.865580    1.013460    1.910830
  C      0.384370    0.306900    1.973990
  F      0.733920    1.466020    2.544400
  C      1.351370   -0.649370    1.711240
  C      0.942010   -1.828190    1.120400
  C     -0.399220   -2.075570    0.791030
  C     -0.496390   -3.404690    0.187040
  C     -1.669600   -3.990120   -0.215180
  C     -2.937510   -3.377300   -0.111340
  N     -3.998980   -2.943510   -0.062680
  C     -1.813380   -5.276350   -0.776210
  N     -2.019700   -6.310690   -1.232300
  C      0.845010   -3.960220    0.123370
  C      1.775920   -2.990010    0.735640
  O      2.971960   -3.079950    0.908810
  C      1.141290   -5.171600   -0.447310
  C      2.353350   -5.862940   -0.611650
  N      2.335240   -7.078070   -1.261420
  C      3.585000   -7.585350   -1.332140
  C      4.452190   -6.683030   -0.707960
  C      3.691210   -5.618420   -0.260250
  C      3.884350   -8.807920   -1.938300
  C      4.206880   -9.843410   -2.468850
  C      4.531420  -11.098480   -3.058170
  S      3.140720  -11.901010   -4.036050
  C      3.532050  -13.009060   -2.756690
  C      4.506710  -12.305240   -2.144390
  C      5.355650  -12.593850   -1.006580
  O      5.351630  -13.617820   -0.367610
  O      6.193130  -11.555280   -0.754520
  C      7.189610  -11.785540    0.229230
  C      8.340730  -12.538870   -0.357130
  N      8.408400  -12.785920   -1.671770
  C      9.540060  -13.510190   -1.950990
  C     10.215570  -13.708550   -0.740360
  C      9.458650  -13.101460    0.253570
  C      9.820370  -13.925110   -3.230900
  C      9.894690  -14.222000   -4.416530
  C     10.196460  -14.672660   -5.669940
  C      9.536080  -14.574780   -6.869830
  C     10.189850  -15.218780   -8.035290
  O     11.246650  -15.808890   -8.034290
  C      9.285220  -14.988290   -9.180830
  C      8.166470  -14.261190   -8.741730
  C      7.174090  -13.919460   -9.647420
  C      7.328880  -14.315530  -10.967920
  C      8.443780  -15.038270  -11.391970
  C      9.440880  -15.384180  -10.493610
  F      8.551560  -15.398780  -12.675390
  F      6.380400  -13.991350  -11.853340
  C      8.297210  -13.986630   -7.304240
  C      7.363240  -13.285300   -6.580770
  C      7.389420  -12.928460   -5.227490
  N      7.230840  -12.525200   -4.161150
  C      6.160040  -12.763000   -7.109320
  N      5.159370  -12.302660   -7.432900
  H     -2.406330   -1.241430    0.826240
  H      2.386020   -0.475240    1.960190
  H      0.297320   -5.708350   -0.864380
  H      1.509950   -7.521410   -1.634680
  H      5.510840   -6.812470   -0.604620
  H      4.042330   -4.753020    0.262210
  H      5.422980  -11.041020   -3.685670
  H      3.088480  -13.967880   -2.572530
  H      6.765380  -12.351870    1.068260
  H      7.501080  -10.796710    0.579270
  H      7.746320  -12.508240   -2.392250
  H     11.138390  -14.239870   -0.619380
  H      9.681990  -13.068840    1.300960
  H     11.135520  -15.221390   -5.741690
  H      6.291580  -13.362930   -9.379330
  H     10.305980  -15.942220  -10.814400

 Total Charge           Charge          ....    0
 Multiplicity           Mult            ....    1
 Number of Electrons    NEL             ....  400
 Basis Dimension        Dim             ....  896

ORBITAL ENERGIES
----------------

  NO   OCC          E(Eh)            E(eV)
   0   2.0000     -88.953024     -2420.5348
   1   2.0000     -24.807192      -675.0380
   2   2.0000     -24.805750      -674.9988
   3   2.0000     -24.801603      -674.8859
   4   2.0000     -24.799826      -674.8376
   5   2.0000     -19.276222      -524.5327
   6   2.0000     -19.224535      -523.1262
   7   2.0000     -19.221808      -523.0520
   8   2.0000     -19.212994      -522.8121
   9   2.0000     -14.485997      -394.1840
  10   2.0000     -14.469408      -393.7326
  11   2.0000     -14.440819      -392.9547
  12   2.0000     -14.426103      -392.5542
  13   2.0000     -14.422408      -392.4537
  14   2.0000     -14.416055      -392.2808
  15   2.0000     -10.412424      -283.3365
  16   2.0000     -10.392650      -282.7984
  17   2.0000     -10.391944      -282.7792
  18   2.0000     -10.386332      -282.6265
  19   2.0000     -10.385562      -282.6055
  20   2.0000     -10.374312      -282.2994
  21   2.0000     -10.373220      -282.2697
  22   2.0000     -10.358134      -281.8592
  23   2.0000     -10.354494      -281.7601
  24   2.0000     -10.352068      -281.6941
  25   2.0000     -10.352003      -281.6923
  26   2.0000     -10.346416      -281.5403
  27   2.0000     -10.344775      -281.4956
  28   2.0000     -10.344369      -281.4846
  29   2.0000     -10.341573      -281.4085
  30   2.0000     -10.337440      -281.2960
  31   2.0000     -10.329899      -281.0908
  32   2.0000     -10.329733      -281.0863
  33   2.0000     -10.327644      -281.0295
  34   2.0000     -10.325945      -280.9832
  35   2.0000     -10.325582      -280.9734
  36   2.0000     -10.324073      -280.9323
  37   2.0000     -10.323345      -280.9125
  38   2.0000     -10.323039      -280.9042
  39   2.0000     -10.319311      -280.8027
  40   2.0000     -10.316184      -280.7176
  41   2.0000     -10.314928      -280.6835
  42   2.0000     -10.314802      -280.6800
  43   2.0000     -10.312243      -280.6104
  44   2.0000     -10.308547      -280.5098
  45   2.0000     -10.308546      -280.5098
  46   2.0000     -10.308148      -280.4990
  47   2.0000     -10.304720      -280.4057
  48   2.0000     -10.301577      -280.3202
  49   2.0000     -10.299936      -280.2755
  50   2.0000     -10.299750      -280.2704
  51   2.0000     -10.297403      -280.2066
  52   2.0000     -10.296333      -280.1775
  53   2.0000     -10.289959      -280.0040
  54   2.0000     -10.286331      -279.9053
  55   2.0000     -10.279022      -279.7064
  56   2.0000     -10.278596      -279.6948
  57   2.0000     -10.274613      -279.5864
  58   2.0000      -8.049044      -219.0256
  59   2.0000      -6.018830      -163.7807
  60   2.0000      -6.015700      -163.6955
  61   2.0000      -6.008799      -163.5077
  62   2.0000      -1.330365       -36.2011
  63   2.0000      -1.324424       -36.0394
  64   2.0000      -1.315133       -35.7866
  65   2.0000      -1.309174       -35.6244
  66   2.0000      -1.204509       -32.7763
  67   2.0000      -1.139804       -31.0157
  68   2.0000      -1.137257       -30.9463
  69   2.0000      -1.110767       -30.2255
  70   2.0000      -1.105037       -30.0696
  71   2.0000      -1.094525       -29.7835
  72   2.0000      -1.038355       -28.2551
  73   2.0000      -1.023863       -27.8607
  74   2.0000      -1.017811       -27.6960
  75   2.0000      -1.007875       -27.4257
  76   2.0000      -1.005646       -27.3650
  77   2.0000      -1.000744       -27.2316
  78   2.0000      -0.997196       -27.1351
  79   2.0000      -0.966322       -26.2950
  80   2.0000      -0.959234       -26.1021
  81   2.0000      -0.924207       -25.1489
  82   2.0000      -0.914696       -24.8901
  83   2.0000      -0.910088       -24.7648
  84   2.0000      -0.901508       -24.5313
  85   2.0000      -0.892604       -24.2890
  86   2.0000      -0.892415       -24.2838
  87   2.0000      -0.886454       -24.1216
  88   2.0000      -0.881875       -23.9970
  89   2.0000      -0.878327       -23.9005
  90   2.0000      -0.874446       -23.7949
  91   2.0000      -0.860918       -23.4268
  92   2.0000      -0.841905       -22.9094
  93   2.0000      -0.828422       -22.5425
  94   2.0000      -0.804572       -21.8935
  95   2.0000      -0.804141       -21.8818
  96   2.0000      -0.787074       -21.4174
  97   2.0000      -0.777480       -21.1563
  98   2.0000      -0.775950       -21.1147
  99   2.0000      -0.772429       -21.0189
 100   2.0000      -0.740201       -20.1419
 101   2.0000      -0.733144       -19.9499
 102   2.0000      -0.720726       -19.6120
 103   2.0000      -0.710551       -19.3351
 104   2.0000      -0.706678       -19.2297
 105   2.0000      -0.703856       -19.1529
 106   2.0000      -0.697741       -18.9865
 107   2.0000      -0.693919       -18.8825
 108   2.0000      -0.693109       -18.8605
 109   2.0000      -0.689101       -18.7514
 110   2.0000      -0.683103       -18.5882
 111   2.0000      -0.673457       -18.3257
 112   2.0000      -0.669244       -18.2111
 113   2.0000      -0.657040       -17.8790
 114   2.0000      -0.652240       -17.7484
 115   2.0000      -0.650410       -17.6986
 116   2.0000      -0.644175       -17.5289
 117   2.0000      -0.642012       -17.4700
 118   2.0000      -0.637380       -17.3440
 119   2.0000      -0.632504       -17.2113
 120   2.0000      -0.615672       -16.7533
 121   2.0000      -0.613786       -16.7020
 122   2.0000      -0.611832       -16.6488
 123   2.0000      -0.599742       -16.3198
 124   2.0000      -0.595333       -16.1998
 125   2.0000      -0.594952       -16.1895
 126   2.0000      -0.589485       -16.0407
 127   2.0000      -0.589403       -16.0385
 128   2.0000      -0.576409       -15.6849
 129   2.0000      -0.574694       -15.6382
 130   2.0000      -0.567199       -15.4343
 131   2.0000      -0.562188       -15.2979
 132   2.0000      -0.558968       -15.2103
 133   2.0000      -0.555084       -15.1046
 134   2.0000      -0.553684       -15.0665
 135   2.0000      -0.549406       -14.9501
 136   2.0000      -0.548608       -14.9284
 137   2.0000      -0.547545       -14.8995
 138   2.0000      -0.547239       -14.8911
 139   2.0000      -0.545341       -14.8395
 140   2.0000      -0.544405       -14.8140
 141   2.0000      -0.542088       -14.7510
 142   2.0000      -0.534062       -14.5326
 143   2.0000      -0.534002       -14.5309
 144   2.0000      -0.533602       -14.5200
 145   2.0000      -0.529481       -14.4079
 146   2.0000      -0.522543       -14.2191
 147   2.0000      -0.518745       -14.1158
 148   2.0000      -0.514952       -14.0126
 149   2.0000      -0.514278       -13.9942
 150   2.0000      -0.511177       -13.9098
 151   2.0000      -0.509832       -13.8732
 152   2.0000      -0.500943       -13.6313
 153   2.0000      -0.499413       -13.5897
 154   2.0000      -0.498069       -13.5532
 155   2.0000      -0.498005       -13.5514
 156   2.0000      -0.494069       -13.4443
 157   2.0000      -0.492235       -13.3944
 158   2.0000      -0.491990       -13.3877
 159   2.0000      -0.489122       -13.3097
 160   2.0000      -0.478471       -13.0199
 161   2.0000      -0.476221       -12.9586
 162   2.0000      -0.471229       -12.8228
 163   2.0000      -0.468688       -12.7536
 164   2.0000      -0.463833       -12.6215
 165   2.0000      -0.458485       -12.4760
 166   2.0000      -0.457571       -12.4511
 167   2.0000      -0.456347       -12.4178
 168   2.0000      -0.454185       -12.3590
 169   2.0000      -0.452984       -12.3263
 170   2.0000      -0.450432       -12.2569
 171   2.0000      -0.445795       -12.1307
 172   2.0000      -0.445682       -12.1276
 173   2.0000      -0.443986       -12.0815
 174   2.0000      -0.436884       -11.8882
 175   2.0000      -0.430942       -11.7265
 176   2.0000      -0.428673       -11.6648
 177   2.0000      -0.425652       -11.5826
 178   2.0000      -0.424866       -11.5612
 179   2.0000      -0.411102       -11.1866
 180   2.0000      -0.410895       -11.1810
 181   2.0000      -0.407649       -11.0927
 182   2.0000      -0.397137       -10.8066
 183   2.0000      -0.394794       -10.7429
 184   2.0000      -0.368646       -10.0314
 185   2.0000      -0.366307        -9.9677
 186   2.0000      -0.358814        -9.7638
 187   2.0000      -0.358675        -9.7600
 188   2.0000      -0.355048        -9.6614
 189   2.0000      -0.350096        -9.5266
 190   2.0000      -0.348066        -9.4713
 191   2.0000      -0.346632        -9.4323
 192   2.0000      -0.344808        -9.3827
 193   2.0000      -0.342917        -9.3312
 194   2.0000      -0.342701        -9.3254
 195   2.0000      -0.324118        -8.8197
 196   2.0000      -0.316728        -8.6186
 197   2.0000      -0.301701        -8.2097
 198   2.0000      -0.273112        -7.4318
 199   2.0000      -0.271766        -7.3951
 200   0.0000      -0.103352        -2.8123
 201   0.0000      -0.089863        -2.4453
 202   0.0000      -0.068827        -1.8729
 203   0.0000      -0.062862        -1.7105
 204   0.0000      -0.025227        -0.6865

MULLIKEN ATOMIC CHARGES
-----------------------
   0 C :   -0.091445
   1 C :    0.235433
   2 F :   -0.165051
   3 C :    0.238384
   4 F :   -0.168973
   5 C :   -0.108803
   6 C :   -0.007980
   7 C :    0.042221
   8 C :    0.319292
   9 C :   -0.367032
  10 C :   -0.189637
  11 N :    0.152774
  12 C :   -0.177107
  13 N :    0.143047
  14 C :   -0.101369
  15 C :    0.152495
  16 O :   -0.148448
  17 C :    0.005083
  18 C :    0.083116
  19 N :   -0.038187
  20 C :    0.012390
  21 C :   -0.008092
  22 C :   -0.015930
  23 C :    0.094474
  24 C :   -0.009114
  25 C :   -0.136190
  26 S :    0.091545
  27 C :   -0.014294
  28 C :   -0.047283
  29 C :    0.197862
  30 O :   -0.188300
  31 O :   -0.323171
  32 C :    0.357017
  33 C :   -0.077954
  34 N :   -0.030392
  35 C :   -0.038066
  36 C :    0.031177
  37 C :   -0.035992
  38 C :    0.169253
  39 C :   -0.073996
  40 C :   -0.049736
  41 C :   -0.142132
  42 C :    0.129059
  43 O :   -0.141705
  44 C :    0.005948
  45 C :    0.020114
  46 C :   -0.089873
  47 C :    0.235763
  48 C :    0.235183
  49 C :   -0.101470
  50 F :   -0.166370
  51 F :   -0.163880
  52 C :    0.363620
  53 C :   -0.376748
  54 C :   -0.102065
  55 N :    0.100161
  56 C :   -0.225733
  57 N :    0.163565
  58 H :    0.015639
  59 H :    0.009797
  60 H :   -0.023201
  61 H :    0.143838
  62 H :   -0.017651
  63 H :    0.012858
  64 H :    0.094038
  65 H :    0.036535
  66 H :    0.047675
  67 H :    0.045723
  68 H :    0.129038
  69 H :   -0.014763
  70 H :   -0.020804
  71 H :    0.056855
  72 H :    0.015295
  73 H :    0.012668
Sum of atomic charges:   -0.0000000

LOEWDIN ATOMIC CHARGES
----------------------
   0 C :   -0.018095
   1 C :    0.072315
   2 F :   -0.044153
   3 C :    0.070783
   4 F :   -0.045744
   5 C :   -0.007125
   6 C :   -0.043463
   7 C :   -0.016576
   8 C :    0.079396
   9 C :   -0.146238
  10 C :   -0.020226
  11 N :   -0.051429
  12 C :   -0.019483
  13 N :   -0.059719
  14 C :   -0.110415
  15 C :    0.086131
  16 O :   -0.139458
  17 C :    0.059344
  18 C :   -0.028255
  19 N :    0.116029
  20 C :    0.004514
  21 C :   -0.046243
  22 C :   -0.005614
  23 C :   -0.053391
  24 C :   -0.018439
  25 C :   -0.079835
  26 S :    0.323841
  27 C :   -0.063576
  28 C :   -0.128565
  29 C :    0.078088
  30 O :   -0.171362
  31 O :   -0.096976
  32 C :    0.089774
  33 C :    0.007698
  34 N :    0.125538
  35 C :   -0.055853
  36 C :   -0.005314
  37 C :   -0.076232
  38 C :    0.035466
  39 C :   -0.066972
  40 C :    0.063679
  41 C :   -0.112661
  42 C :    0.081758
  43 O :   -0.140546
  44 C :   -0.044084
  45 C :   -0.014839
  46 C :   -0.019214
  47 C :    0.073417
  48 C :    0.072049
  49 C :   -0.004158
  50 F :   -0.043287
  51 F :   -0.042918
  52 C :    0.082611
  53 C :   -0.151110
  54 C :    0.045583
  55 N :   -0.072030
  56 C :   -0.022947
  57 N :   -0.051107
  58 H :    0.051347
  59 H :    0.051194
  60 H :    0.043009
  61 H :    0.102956
  62 H :    0.032944
  63 H :    0.032719
  64 H :    0.050590
  65 H :    0.030368
  66 H :    0.038705
  67 H :    0.040993
  68 H :    0.061362
  69 H :    0.033414
  70 H :    0.028087
  71 H :    0.067742
  72 H :    0.051104
  73 H :    0.053102

  Mayer bond orders larger than 0.100000
B(  0-C ,  1-C ) :   1.3376 B(  0-C ,  5-C ) :   0.1057 B(  0-C ,  7-C ) :   1.3096
B(  0-C , 58-H ) :   0.9917 B(  1-C ,  2-F ) :   1.1467 B(  1-C ,  3-C ) :   1.2911
B(  3-C ,  4-F ) :   1.1307 B(  3-C ,  5-C ) :   1.3128 B(  5-C ,  6-C ) :   1.3196
B(  5-C , 59-H ) :   1.0210 B(  6-C ,  7-C ) :   1.3444 B(  6-C , 15-C ) :   0.9565
B(  7-C ,  8-C ) :   0.9978 B(  8-C ,  9-C ) :   1.6116 B(  8-C , 14-C ) :   1.0987
B(  9-C , 10-C ) :   1.1445 B(  9-C , 12-C ) :   1.1463 B( 10-C , 11-N ) :   2.9742
B( 12-C , 13-N ) :   2.9563 B( 14-C , 15-C ) :   0.9454 B( 14-C , 17-C ) :   1.5498
B( 15-C , 16-O ) :   2.1929 B( 17-C , 18-C ) :   1.1855 B( 17-C , 60-H ) :   0.9115
B( 18-C , 19-N ) :   1.1526 B( 18-C , 20-C ) :   0.1147 B( 18-C , 22-C ) :   1.3606
B( 19-N , 20-C ) :   1.3095 B( 19-N , 61-H ) :   0.9295 B( 20-C , 21-C ) :   1.3857
B( 20-C , 23-C ) :   0.7760 B( 21-C , 22-C ) :   1.3493 B( 21-C , 62-H ) :   1.0180
B( 22-C , 63-H ) :   0.9962 B( 23-C , 24-C ) :   2.3969 B( 24-C , 25-C ) :   0.9173
B( 25-C , 26-S ) :   1.0220 B( 25-C , 28-C ) :   0.9650 B( 25-C , 64-H ) :   0.8723
B( 26-S , 27-C ) :   1.1044 B( 27-C , 28-C ) :   1.6800 B( 27-C , 65-H ) :   1.0095
B( 28-C , 29-C ) :   1.0035 B( 29-C , 30-O ) :   2.1586 B( 29-C , 31-O ) :   1.1392
B( 31-O , 32-C ) :   0.9586 B( 32-C , 33-C ) :   1.0078 B( 32-C , 66-H ) :   0.9208
B( 32-C , 67-H ) :   0.9288 B( 33-C , 34-N ) :   1.3480 B( 33-C , 35-C ) :   0.1041
B( 33-C , 37-C ) :   1.3819 B( 34-N , 35-C ) :   1.2165 B( 34-N , 68-H ) :   0.8705
B( 35-C , 36-C ) :   1.3461 B( 35-C , 38-C ) :   0.9364 B( 36-C , 37-C ) :   1.3778
B( 36-C , 69-H ) :   1.0124 B( 37-C , 70-H ) :   1.0146 B( 38-C , 39-C ) :   1.9542
B( 39-C , 40-C ) :   1.0157 B( 40-C , 41-C ) :   1.5592 B( 40-C , 71-H ) :   0.9407
B( 41-C , 42-C ) :   0.9582 B( 41-C , 52-C ) :   1.0736 B( 42-C , 43-O ) :   2.2527
B( 42-C , 44-C ) :   0.9346 B( 44-C , 45-C ) :   1.3407 B( 44-C , 49-C ) :   1.3268
B( 45-C , 46-C ) :   1.3159 B( 45-C , 52-C ) :   1.0135 B( 46-C , 47-C ) :   1.3365
B( 46-C , 49-C ) :   0.1044 B( 46-C , 72-H ) :   0.9875 B( 47-C , 48-C ) :   1.2942
B( 47-C , 51-F ) :   1.1489 B( 48-C , 49-C ) :   1.3125 B( 48-C , 50-F ) :   1.1339
B( 49-C , 73-H ) :   1.0207 B( 52-C , 53-C ) :   1.5698 B( 53-C , 54-C ) :   1.2117
B( 53-C , 56-C ) :   1.1295 B( 54-C , 55-N ) :   2.8172 B( 55-N , 68-H ) :   0.1323
B( 56-C , 57-N ) :   2.9733

-----------------------------------------------------------------------------
         ABSORPTION SPECTRUM VIA TRANSITION ELECTRIC DIPOLE MOMENTS
-----------------------------------------------------------------------------
State   Energy  Wavelength   fosc         T2         TX        TY        TZ
        (cm-1)    (nm)                  (au**2)     (au)      (au)      (au)
-----------------------------------------------------------------------------
   0   19631.0    509.4   0.608955284  10.21218  -0.83347  -0.15274  -3.08126
   1   22970.5    435.3   0.942323800  13.50532  -2.66222   2.35952   0.92228
   2   25810.2    387.4   0.000265594   0.00339   0.02025  -0.02457   0.04872
   3   27056.0    369.6   0.366823307   4.46343   0.35971  -0.88127  -1.88611
   4   27223.3    367.3   0.283263295   3.42550  -0.77145   1.63147   0.41068
   5   28472.7    351.2   0.005222585   0.06039  -0.01115  -0.03864  -0.24242
   6   30086.8    332.4   0.000396363   0.00434   0.02054  -0.03153   0.05404
   7   30764.6    325.0   0.004018621   0.04300   0.07402  -0.16352  -0.10385
   8   31096.3    321.6   0.010046591   0.10636  -0.18064   0.08825   0.25679
   9   31178.0    320.7   0.619529734   6.54168   0.66787  -1.01474  -2.25076
  10   31364.1    318.8   0.001990267   0.02089   0.03609  -0.03831  -0.13461
  11   32032.3    312.2   0.357787057   3.67715  -0.44243  -1.72028  -0.72252
  12   32448.7    308.2   0.001062886   0.01078  -0.02771   0.09903   0.01443
  13   33003.4    303.0   0.028784481   0.28713   0.27014  -0.42777  -0.17653
  14   33551.5    298.0   0.001074315   0.01054  -0.02690   0.07015  -0.06997
  15   34955.2    286.1   0.125239349   1.17952  -0.60667   0.51065   0.74210
  16   35012.3    285.6   0.001707893   0.01606   0.05239   0.01964   0.11371
  17   35386.3    282.6   0.170516664   1.58638   0.27730  -0.43372  -1.14951
  18   36183.4    276.4   0.502501934   4.57197   1.25203   1.51229   0.84698
  19   36573.3    273.4   0.063243655   0.56928   0.38683  -0.32567  -0.55999
  20   36864.2    271.3   0.077480957   0.69193   0.31607  -0.31469  -0.70214
  21   37098.8    269.6   0.003767955   0.03344   0.03382  -0.12330  -0.13073
  22   37292.2    268.2   0.062958091   0.55579  -0.54726   0.49360   0.11247
  23   37543.3    266.4   0.015610645   0.13689  -0.09895   0.06606   0.35033
  24   37711.1    265.2   0.200352515   1.74905  -1.08555   0.66013   0.36723
  25   38001.2    263.1   0.000615531   0.00533  -0.05227   0.04996   0.01018
  26   38057.0    262.8   0.114034409   0.98645  -0.95865  -0.15888  -0.20545
  27   38096.1    262.5   0.031596676   0.27305   0.39958   0.03698   0.33469
  28   39333.8    254.2   0.000420119   0.00352   0.00490   0.01468   0.05724
  29   39788.3    251.3   0.027146382   0.22461   0.13530  -0.45363   0.02291
  30   40183.6    248.9   0.001781887   0.01460   0.04288   0.02382   0.11042

FINAL SINGLE POINT ENERGY     -3071.565489390204

DIPOLE MOMENT
-------------
                                X             Y             Z
Electronic contribution:    -17.26301      17.46553     -22.49537
Nuclear contribution   :     20.07062     -18.50819      22.91954
                        -----------------------------------------
Total Dipole Moment    :      2.80761      -1.04267       0.42417
                        -----------------------------------------
Magnitude (a.u.)       :      3.02485
Magnitude (Debye)      :      7.68856

Rotational constants in cm-1:     0.002442     0.000382     0.000355
Rotational constants in MHz :    73.214176    11.460035    10.631719

                             ****ORCA TERMINATED NORMALLY****
TOTAL RUN TIME: 0 days 0 hours 5 minutes 55 seconds 676 msec
