                         Program Version 4.2.0 -  RELEASE  -
|  1> # ORCA input file
|  2> # SCF done       -186.010291340013          0.000947891560
|  3> ! CAM-B3LYP def2-SVP def2/J RIJCOSX Grid4 TightSCF
|  4> %maxcore 5000
|  5> %tddft
|  6>     Mode sTDDFT
|  7>     Ethresh 5.0
|  8>     maxcore 5000
|  9> end
| 10>
| 11> %pal
| 12>   nprocs 6
| 13>   end
| 14> * xyz 0 1
| 15>    C       -0.79036        -3.36136        -4.80403
| 16>    C       -0.77761        -2.18050        -5.53330
| 17>    F       -1.36283        -2.15745        -6.73756
| 18>    C       -0.16986        -1.02542        -5.04490
| 19>    F       -0.18821         0.09521        -5.77921
| 20>    C        0.45800        -1.02488        -3.80853
| 21>    C        0.45640        -2.20216        -3.08902
| 22>    C       -0.16666        -3.36721        -3.56806
| 23>    C       -0.03286        -4.42203        -2.55787
| 24>    C       -0.82678        -5.54374        -2.50159
| 25>    C       -1.72056        -5.93207        -3.51819
| 26>    N       -2.44224        -6.32445        -4.32108
| 27>    C       -0.91074        -6.40274        -1.39140
| 28>    N       -1.04601        -7.13052        -0.51241
| 29>    C        0.86834        -3.93689        -1.55023
| 30>    C        1.07747        -2.48915        -1.77459
| 31>    O        1.66504        -1.71511        -1.05109
| 32>    C        1.57207        -4.54119        -0.53585
| 33>    C        1.88543        -5.88645        -0.31356
| 34>    N        2.48054        -6.29003         0.85784
| 35>    C        2.72206        -7.62381         0.85585
| 36>    C        3.21334        -8.26500         2.02432
| 37>    C        3.22162        -9.59978         2.24776
| 38>    C        3.69132       -10.22005         3.43642
| 39>    N        3.62741       -11.57935         3.60195
| 40>    C        4.13389       -11.92214         4.80568
| 41>    C        4.54223       -10.77415         5.44610
| 42>    C        4.26799        -9.70288         4.59269
| 43>    C        2.32975        -8.10978        -0.41688
| 44>    C        1.80531        -7.02897        -1.12101
| 45>    C        2.42346        -9.44127        -0.96446
| 46>    N        1.40650        -9.91368        -1.76332
| 47>    C        1.75080       -11.15203        -2.20970
| 48>    C        1.32534       -12.22969        -2.98683
| 49>    C        2.36061       -13.16514        -2.95133
| 50>    N        3.38860       -12.67554        -2.16590
| 51>    C        3.03603       -11.44711        -1.70507
| 52>    C        3.45540       -10.36957        -0.91536
| 53>    C        2.47368       -14.43767        -3.57530
| 54>    C        1.51680       -15.02680        -4.32580
| 55>    C        1.65234       -16.29820        -4.95637
| 56>    N        0.62222       -16.84388        -5.68392
| 57>    C        0.95089       -18.05400        -6.19461
| 58>    C        0.04354       -18.72745        -7.05416
| 59>    C        0.36920       -19.70326        -7.93633
| 60>    C       -0.55134       -20.44688        -8.72104
| 61>    N       -0.12503       -21.43208        -9.57502
| 62>    C       -1.18937       -22.03456       -10.14907
| 63>    C       -2.33375       -21.43897        -9.67120
| 64>    C       -1.94112       -20.44337        -8.77388
| 65>    C        2.27595       -18.33648        -5.75085
| 66>    C        2.69544       -17.19481        -5.01619
| 67>    C        3.12684       -19.45452        -5.87221
| 68>    C        2.94865       -20.78696        -6.15411
| 69>    C        4.14042       -21.57668        -6.54307
| 70>    O        5.30192       -21.24343        -6.46704
| 71>    C        3.60678       -22.84318        -7.10535
| 72>    C        2.20782       -22.85142        -6.97013
| 73>    C        1.46873       -23.91218        -7.46769
| 74>    C        2.15492       -24.94609        -8.08918
| 75>    C        3.54363       -24.93868        -8.20432
| 76>    C        4.28908       -23.87906        -7.70877
| 77>    F        4.16499       -25.96068        -8.80991
| 78>    F        1.45743       -25.97075        -8.59863
| 79>    C        1.79756       -21.63698        -6.26397
| 80>    C        0.55886       -21.42916        -5.70212
| 81>    C        0.30386       -20.41664        -4.76100
| 82>    N        0.07347       -19.63618        -3.95055
| 83>    C       -0.55535       -22.26085        -5.91855
| 84>    N       -1.50344       -22.88236        -6.10045
| 85>    H       -1.27258        -4.22840        -5.22501
| 86>    H        0.92915        -0.13230        -3.42921
| 87>    H        2.02610        -3.83492         0.15455
| 88>    H        2.62526        -5.68800         1.65283
| 89>    H        3.55696        -7.60268         2.80844
| 90>    H        2.82920       -10.25946         1.48658
| 91>    H        3.24473       -12.21670         2.92281
| 92>    H        4.17406       -12.94276         5.13159
| 93>    H        4.98763       -10.71718         6.41915
| 94>    H        4.46719        -8.66933         4.79196
| 95>    H        1.47625        -7.05318        -2.14117
| 96>    H        0.52750        -9.44201        -1.89195
| 97>    H        0.39975       -12.33174        -3.51535
| 98>    H        4.25779       -13.15460        -2.00606
| 99>    H        4.38883       -10.24247        -0.40391
|100>    H        3.41002       -14.95798        -3.42297
|101>    H        0.57178       -14.52260        -4.47115
|102>    H       -0.26995       -16.39747        -5.82516
|103>    H       -0.98940       -18.41307        -6.98228
|104>    H        1.41486       -19.94121        -8.08362
|105>    H        0.83984       -21.66655        -9.74148
|106>    H       -1.07127       -22.83872       -10.84805
|107>    H       -3.33912       -21.69875        -9.93474
|108>    H       -2.59154       -19.79890        -8.21822
|109>    H        3.65115       -17.09576        -4.54270
|110>    H        4.17580       -19.20826        -5.71791
|111>    H        0.39417       -23.96189        -7.40031
|112>    H        5.36345       -23.87044        -7.79909
|113> *
|114>
|115>                          ****END OF INPUT****

CARTESIAN COORDINATES (ANGSTROEM)
---------------------------------
  C     -0.790360   -3.361360   -4.804030
  C     -0.777610   -2.180500   -5.533300
  F     -1.362830   -2.157450   -6.737560
  C     -0.169860   -1.025420   -5.044900
  F     -0.188210    0.095210   -5.779210
  C      0.458000   -1.024880   -3.808530
  C      0.456400   -2.202160   -3.089020
  C     -0.166660   -3.367210   -3.568060
  C     -0.032860   -4.422030   -2.557870
  C     -0.826780   -5.543740   -2.501590
  C     -1.720560   -5.932070   -3.518190
  N     -2.442240   -6.324450   -4.321080
  C     -0.910740   -6.402740   -1.391400
  N     -1.046010   -7.130520   -0.512410
  C      0.868340   -3.936890   -1.550230
  C      1.077470   -2.489150   -1.774590
  O      1.665040   -1.715110   -1.051090
  C      1.572070   -4.541190   -0.535850
  C      1.885430   -5.886450   -0.313560
  N      2.480540   -6.290030    0.857840
  C      2.722060   -7.623810    0.855850
  C      3.213340   -8.265000    2.024320
  C      3.221620   -9.599780    2.247760
  C      3.691320  -10.220050    3.436420
  N      3.627410  -11.579350    3.601950
  C      4.133890  -11.922140    4.805680
  C      4.542230  -10.774150    5.446100
  C      4.267990   -9.702880    4.592690
  C      2.329750   -8.109780   -0.416880
  C      1.805310   -7.028970   -1.121010
  C      2.423460   -9.441270   -0.964460
  N      1.406500   -9.913680   -1.763320
  C      1.750800  -11.152030   -2.209700
  C      1.325340  -12.229690   -2.986830
  C      2.360610  -13.165140   -2.951330
  N      3.388600  -12.675540   -2.165900
  C      3.036030  -11.447110   -1.705070
  C      3.455400  -10.369570   -0.915360
  C      2.473680  -14.437670   -3.575300
  C      1.516800  -15.026800   -4.325800
  C      1.652340  -16.298200   -4.956370
  N      0.622220  -16.843880   -5.683920
  C      0.950890  -18.054000   -6.194610
  C      0.043540  -18.727450   -7.054160
  C      0.369200  -19.703260   -7.936330
  C     -0.551340  -20.446880   -8.721040
  N     -0.125030  -21.432080   -9.575020
  C     -1.189370  -22.034560  -10.149070
  C     -2.333750  -21.438970   -9.671200
  C     -1.941120  -20.443370   -8.773880
  C      2.275950  -18.336480   -5.750850
  C      2.695440  -17.194810   -5.016190
  C      3.126840  -19.454520   -5.872210
  C      2.948650  -20.786960   -6.154110
  C      4.140420  -21.576680   -6.543070
  O      5.301920  -21.243430   -6.467040
  C      3.606780  -22.843180   -7.105350
  C      2.207820  -22.851420   -6.970130
  C      1.468730  -23.912180   -7.467690
  C      2.154920  -24.946090   -8.089180
  C      3.543630  -24.938680   -8.204320
  C      4.289080  -23.879060   -7.708770
  F      4.164990  -25.960680   -8.809910
  F      1.457430  -25.970750   -8.598630
  C      1.797560  -21.636980   -6.263970
  C      0.558860  -21.429160   -5.702120
  C      0.303860  -20.416640   -4.761000
  N      0.073470  -19.636180   -3.950550
  C     -0.555350  -22.260850   -5.918550
  N     -1.503440  -22.882360   -6.100450
  H     -1.272580   -4.228400   -5.225010
  H      0.929150   -0.132300   -3.429210
  H      2.026100   -3.834920    0.154550
  H      2.625260   -5.688000    1.652830
  H      3.556960   -7.602680    2.808440
  H      2.829200  -10.259460    1.486580
  H      3.244730  -12.216700    2.922810
  H      4.174060  -12.942760    5.131590
  H      4.987630  -10.717180    6.419150
  H      4.467190   -8.669330    4.791960
  H      1.476250   -7.053180   -2.141170
  H      0.527500   -9.442010   -1.891950
  H      0.399750  -12.331740   -3.515350
  H      4.257790  -13.154600   -2.006060
  H      4.388830  -10.242470   -0.403910
  H      3.410020  -14.957980   -3.422970
  H      0.571780  -14.522600   -4.471150
  H     -0.269950  -16.397470   -5.825160
  H     -0.989400  -18.413070   -6.982280
  H      1.414860  -19.941210   -8.083620
  H      0.839840  -21.666550   -9.741480
  H     -1.071270  -22.838720  -10.848050
  H     -3.339120  -21.698750   -9.934740
  H     -2.591540  -19.798900   -8.218220
  H      3.651150  -17.095760   -4.542700
  H      4.175800  -19.208260   -5.717910
  H      0.394170  -23.961890   -7.400310
  H      5.363450  -23.870440   -7.799090

 Total Charge           Charge          ....    0
 Multiplicity           Mult            ....    1
 Number of Electrons    NEL             ....  474
 Basis Dimension        Dim             .... 1120

ORBITAL ENERGIES
----------------

  NO   OCC          E(Eh)            E(eV)
   0   2.0000     -24.797513      -674.7746
   1   2.0000     -24.797066      -674.7625
   2   2.0000     -24.796624      -674.7504
   3   2.0000     -24.796197      -674.7388
   4   2.0000     -19.211849      -522.7810
   5   2.0000     -19.210911      -522.7555
   6   2.0000     -14.479653      -394.0114
   7   2.0000     -14.468916      -393.7192
   8   2.0000     -14.468305      -393.7026
   9   2.0000     -14.464843      -393.6084
  10   2.0000     -14.454239      -393.3198
  11   2.0000     -14.452410      -393.2701
  12   2.0000     -14.415321      -392.2608
  13   2.0000     -14.412842      -392.1934
  14   2.0000     -14.410044      -392.1172
  15   2.0000     -14.407669      -392.0526
  16   2.0000     -10.382413      -282.5198
  17   2.0000     -10.381448      -282.4936
  18   2.0000     -10.380826      -282.4766
  19   2.0000     -10.380815      -282.4763
  20   2.0000     -10.363291      -281.9995
  21   2.0000     -10.361480      -281.9502
  22   2.0000     -10.340255      -281.3726
  23   2.0000     -10.337510      -281.2979
  24   2.0000     -10.335337      -281.2388
  25   2.0000     -10.333628      -281.1923
  26   2.0000     -10.329013      -281.0667
  27   2.0000     -10.326493      -280.9982
  28   2.0000     -10.318197      -280.7724
  29   2.0000     -10.317867      -280.7634
  30   2.0000     -10.317212      -280.7456
  31   2.0000     -10.316543      -280.7274
  32   2.0000     -10.312194      -280.6091
  33   2.0000     -10.311726      -280.5963
  34   2.0000     -10.311434      -280.5884
  35   2.0000     -10.309612      -280.5388
  36   2.0000     -10.306926      -280.4657
  37   2.0000     -10.306713      -280.4599
  38   2.0000     -10.305219      -280.4193
  39   2.0000     -10.304644      -280.4036
  40   2.0000     -10.304459      -280.3986
  41   2.0000     -10.303987      -280.3857
  42   2.0000     -10.303596      -280.3751
  43   2.0000     -10.302032      -280.3325
  44   2.0000     -10.300885      -280.3013
  45   2.0000     -10.298806      -280.2448
  46   2.0000     -10.297682      -280.2142
  47   2.0000     -10.297083      -280.1979
  48   2.0000     -10.296326      -280.1773
  49   2.0000     -10.295846      -280.1642
  50   2.0000     -10.295734      -280.1612
  51   2.0000     -10.294416      -280.1253
  52   2.0000     -10.288285      -279.9585
  53   2.0000     -10.287132      -279.9271
  54   2.0000     -10.286575      -279.9119
  55   2.0000     -10.284987      -279.8687
  56   2.0000     -10.284541      -279.8566
  57   2.0000     -10.284170      -279.8465
  58   2.0000     -10.282658      -279.8054
  59   2.0000     -10.281767      -279.7811
  60   2.0000     -10.281106      -279.7631
  61   2.0000     -10.279230      -279.7121
  62   2.0000     -10.276845      -279.6472
  63   2.0000     -10.262786      -279.2646
  64   2.0000     -10.260905      -279.2134
  65   2.0000     -10.259859      -279.1850
  66   2.0000     -10.259290      -279.1695
  67   2.0000     -10.258426      -279.1460
  68   2.0000     -10.257752      -279.1276
  69   2.0000     -10.253123      -279.0017
  70   2.0000      -1.320282       -35.9267
  71   2.0000      -1.319630       -35.9090
  72   2.0000      -1.305167       -35.5154
  73   2.0000      -1.304476       -35.4966
  74   2.0000      -1.126810       -30.6621
  75   2.0000      -1.125668       -30.6310
  76   2.0000      -1.100410       -29.9437
  77   2.0000      -1.088986       -29.6328
  78   2.0000      -1.084444       -29.5092
  79   2.0000      -1.083521       -29.4841
  80   2.0000      -1.078979       -29.3605
  81   2.0000      -1.048653       -28.5353
  82   2.0000      -1.017962       -27.7001
  83   2.0000      -1.014073       -27.5943
  84   2.0000      -0.999739       -27.2043
  85   2.0000      -0.996335       -27.1116
  86   2.0000      -0.992696       -27.0126
  87   2.0000      -0.987629       -26.8747
  88   2.0000      -0.953440       -25.9444
  89   2.0000      -0.951186       -25.8831
  90   2.0000      -0.920057       -25.0360
  91   2.0000      -0.915840       -24.9213
  92   2.0000      -0.906412       -24.6647
  93   2.0000      -0.904240       -24.6056
  94   2.0000      -0.900084       -24.4925
  95   2.0000      -0.897856       -24.4319
  96   2.0000      -0.890448       -24.2303
  97   2.0000      -0.886404       -24.1203
  98   2.0000      -0.873054       -23.7570
  99   2.0000      -0.870168       -23.6785
 100   2.0000      -0.870110       -23.6769
 101   2.0000      -0.868105       -23.6223
 102   2.0000      -0.864969       -23.5370
 103   2.0000      -0.857526       -23.3345
 104   2.0000      -0.849720       -23.1221
 105   2.0000      -0.843890       -22.9634
 106   2.0000      -0.838531       -22.8176
 107   2.0000      -0.808392       -21.9975
 108   2.0000      -0.804641       -21.8954
 109   2.0000      -0.790877       -21.5209
 110   2.0000      -0.779227       -21.2038
 111   2.0000      -0.771489       -20.9933
 112   2.0000      -0.765169       -20.8213
 113   2.0000      -0.764661       -20.8075
 114   2.0000      -0.740729       -20.1563
 115   2.0000      -0.732236       -19.9252
 116   2.0000      -0.729229       -19.8433
 117   2.0000      -0.715225       -19.4623
 118   2.0000      -0.709105       -19.2957
 119   2.0000      -0.704560       -19.1721
 120   2.0000      -0.700503       -19.0616
 121   2.0000      -0.693443       -18.8695
 122   2.0000      -0.688530       -18.7359
 123   2.0000      -0.687714       -18.7136
 124   2.0000      -0.686174       -18.6717
 125   2.0000      -0.682010       -18.5584
 126   2.0000      -0.680803       -18.5256
 127   2.0000      -0.677672       -18.4404
 128   2.0000      -0.674545       -18.3553
 129   2.0000      -0.669220       -18.2104
 130   2.0000      -0.667304       -18.1583
 131   2.0000      -0.664300       -18.0765
 132   2.0000      -0.652744       -17.7621
 133   2.0000      -0.647809       -17.6278
 134   2.0000      -0.640735       -17.4353
 135   2.0000      -0.637008       -17.3339
 136   2.0000      -0.635571       -17.2948
 137   2.0000      -0.631709       -17.1897
 138   2.0000      -0.623266       -16.9599
 139   2.0000      -0.616561       -16.7775
 140   2.0000      -0.610724       -16.6186
 141   2.0000      -0.609276       -16.5792
 142   2.0000      -0.604322       -16.4444
 143   2.0000      -0.601259       -16.3611
 144   2.0000      -0.597448       -16.2574
 145   2.0000      -0.595695       -16.2097
 146   2.0000      -0.588318       -16.0089
 147   2.0000      -0.586000       -15.9459
 148   2.0000      -0.584850       -15.9146
 149   2.0000      -0.579176       -15.7602
 150   2.0000      -0.575715       -15.6660
 151   2.0000      -0.561215       -15.2714
 152   2.0000      -0.558069       -15.1858
 153   2.0000      -0.554298       -15.0832
 154   2.0000      -0.548491       -14.9252
 155   2.0000      -0.547982       -14.9113
 156   2.0000      -0.547542       -14.8994
 157   2.0000      -0.546092       -14.8599
 158   2.0000      -0.545026       -14.8309
 159   2.0000      -0.539201       -14.6724
 160   2.0000      -0.536399       -14.5962
 161   2.0000      -0.534759       -14.5515
 162   2.0000      -0.533323       -14.5125
 163   2.0000      -0.532880       -14.5004
 164   2.0000      -0.529824       -14.4173
 165   2.0000      -0.528405       -14.3786
 166   2.0000      -0.526465       -14.3258
 167   2.0000      -0.525391       -14.2966
 168   2.0000      -0.524324       -14.2676
 169   2.0000      -0.521723       -14.1968
 170   2.0000      -0.520742       -14.1701
 171   2.0000      -0.519913       -14.1476
 172   2.0000      -0.515942       -14.0395
 173   2.0000      -0.515494       -14.0273
 174   2.0000      -0.514855       -14.0099
 175   2.0000      -0.511578       -13.9207
 176   2.0000      -0.506749       -13.7894
 177   2.0000      -0.504107       -13.7175
 178   2.0000      -0.499408       -13.5896
 179   2.0000      -0.498631       -13.5684
 180   2.0000      -0.494380       -13.4528
 181   2.0000      -0.493421       -13.4267
 182   2.0000      -0.490580       -13.3494
 183   2.0000      -0.490375       -13.3438
 184   2.0000      -0.488537       -13.2938
 185   2.0000      -0.487546       -13.2668
 186   2.0000      -0.485177       -13.2023
 187   2.0000      -0.479673       -13.0526
 188   2.0000      -0.478281       -13.0147
 189   2.0000      -0.473342       -12.8803
 190   2.0000      -0.469238       -12.7686
 191   2.0000      -0.466315       -12.6891
 192   2.0000      -0.465667       -12.6714
 193   2.0000      -0.458607       -12.4793
 194   2.0000      -0.457621       -12.4525
 195   2.0000      -0.454626       -12.3710
 196   2.0000      -0.453011       -12.3271
 197   2.0000      -0.449685       -12.2366
 198   2.0000      -0.449307       -12.2263
 199   2.0000      -0.448758       -12.2113
 200   2.0000      -0.445554       -12.1241
 201   2.0000      -0.443713       -12.0740
 202   2.0000      -0.442532       -12.0419
 203   2.0000      -0.441917       -12.0252
 204   2.0000      -0.441158       -12.0045
 205   2.0000      -0.436466       -11.8768
 206   2.0000      -0.435510       -11.8508
 207   2.0000      -0.431480       -11.7412
 208   2.0000      -0.426933       -11.6174
 209   2.0000      -0.425610       -11.5814
 210   2.0000      -0.422184       -11.4882
 211   2.0000      -0.419187       -11.4066
 212   2.0000      -0.412135       -11.2148
 213   2.0000      -0.408222       -11.1083
 214   2.0000      -0.401397       -10.9226
 215   2.0000      -0.397325       -10.8118
 216   2.0000      -0.396396       -10.7865
 217   2.0000      -0.377217       -10.2646
 218   2.0000      -0.369762       -10.0617
 219   2.0000      -0.365003        -9.9322
 220   2.0000      -0.357058        -9.7160
 221   2.0000      -0.346532        -9.4296
 222   2.0000      -0.344726        -9.3805
 223   2.0000      -0.336166        -9.1475
 224   2.0000      -0.335428        -9.1275
 225   2.0000      -0.334364        -9.0985
 226   2.0000      -0.331110        -9.0100
 227   2.0000      -0.324739        -8.8366
 228   2.0000      -0.314351        -8.5539
 229   2.0000      -0.312372        -8.5001
 230   2.0000      -0.298688        -8.1277
 231   2.0000      -0.294958        -8.0262
 232   2.0000      -0.289139        -7.8679
 233   2.0000      -0.285360        -7.7650
 234   2.0000      -0.257438        -7.0053
 235   2.0000      -0.241123        -6.5613
 236   2.0000      -0.212917        -5.7938
 237   0.0000      -0.086058        -2.3418
 238   0.0000      -0.076099        -2.0708
 239   0.0000      -0.057094        -1.5536
 240   0.0000      -0.053030        -1.4430
 241   0.0000      -0.032421        -0.8822

MULLIKEN ATOMIC CHARGES
-----------------------
   0 C :   -0.094206
   1 C :    0.234961
   2 F :   -0.168288
   3 C :    0.231271
   4 F :   -0.172720
   5 C :   -0.105924
   6 C :    0.012070
   7 C :    0.024539
   8 C :    0.288173
   9 C :   -0.362700
  10 C :   -0.186304
  11 N :    0.147577
  12 C :   -0.209047
  13 N :    0.162324
  14 C :   -0.164418
  15 C :    0.131177
  16 O :   -0.151947
  17 C :    0.035875
  18 C :    0.115468
  19 N :   -0.030841
  20 C :    0.106883
  21 C :   -0.047973
  22 C :    0.035513
  23 C :    0.050007
  24 N :   -0.040648
  25 C :    0.047899
  26 C :    0.004870
  27 C :   -0.051637
  28 C :    0.049223
  29 C :   -0.080273
  30 C :    0.030375
  31 N :   -0.033616
  32 C :    0.108709
  33 C :   -0.176104
  34 C :    0.100037
  35 N :   -0.036415
  36 C :    0.092392
  37 C :   -0.175092
  38 C :    0.007869
  39 C :    0.002469
  40 C :    0.139970
  41 N :   -0.025221
  42 C :    0.057823
  43 C :   -0.058600
  44 C :    0.107646
  45 C :    0.019191
  46 N :   -0.048912
  47 C :    0.049651
  48 C :    0.013619
  49 C :   -0.035359
  50 C :    0.075073
  51 C :   -0.103844
  52 C :   -0.013802
  53 C :   -0.137842
  54 C :    0.137462
  55 O :   -0.148828
  56 C :    0.014123
  57 C :    0.023122
  58 C :   -0.123344
  59 C :    0.235129
  60 C :    0.233355
  61 C :   -0.118857
  62 F :   -0.174631
  63 F :   -0.170710
  64 C :    0.229345
  65 C :   -0.317597
  66 C :   -0.203422
  67 N :    0.168628
  68 C :   -0.190619
  69 N :    0.160455
  70 H :    0.014708
  71 H :    0.009003
  72 H :    0.002738
  73 H :    0.125028
  74 H :   -0.032796
  75 H :   -0.000372
  76 H :    0.128080
  77 H :    0.001534
  78 H :   -0.016749
  79 H :   -0.024724
  80 H :   -0.011868
  81 H :    0.126382
  82 H :   -0.038108
  83 H :    0.116152
  84 H :   -0.038488
  85 H :   -0.035391
  86 H :   -0.035550
  87 H :    0.120937
  88 H :   -0.023252
  89 H :   -0.014852
  90 H :    0.125843
  91 H :    0.002733
  92 H :   -0.015925
  93 H :   -0.022902
  94 H :   -0.030636
  95 H :    0.017727
  96 H :    0.016304
  97 H :    0.009917
Sum of atomic charges:   -0.0000000

LOEWDIN ATOMIC CHARGES
----------------------
   0 C :   -0.022905
   1 C :    0.071885
   2 F :   -0.046862
   3 C :    0.067328
   4 F :   -0.049087
   5 C :   -0.006942
   6 C :   -0.046053
   7 C :   -0.012133
   8 C :    0.069243
   9 C :   -0.159252
  10 C :   -0.024669
  11 N :   -0.060942
  12 C :   -0.017245
  13 N :   -0.059102
  14 C :   -0.120587
  15 C :    0.081157
  16 O :   -0.152594
  17 C :    0.051296
  18 C :   -0.031656
  19 N :    0.107515
  20 C :    0.042077
  21 C :   -0.064179
  22 C :    0.006702
  23 C :   -0.037654
  24 N :    0.100533
  25 C :   -0.006658
  26 C :   -0.073082
  27 C :   -0.056325
  28 C :   -0.066608
  29 C :   -0.004618
  30 C :   -0.002421
  31 N :    0.076152
  32 C :   -0.029358
  33 C :   -0.091995
  34 C :   -0.012706
  35 N :    0.066879
  36 C :   -0.032487
  37 C :   -0.109909
  38 C :   -0.020931
  39 C :   -0.049117
  40 C :   -0.001299
  41 N :    0.107991
  42 C :    0.040395
  43 C :   -0.065350
  44 C :    0.007199
  45 C :   -0.041889
  46 N :    0.098302
  47 C :   -0.004385
  48 C :   -0.066288
  49 C :   -0.046365
  50 C :   -0.076948
  51 C :   -0.052737
  52 C :    0.069965
  53 C :   -0.127412
  54 C :    0.082391
  55 O :   -0.148176
  56 C :   -0.051120
  57 C :   -0.016257
  58 C :   -0.032666
  59 C :    0.068325
  60 C :    0.062368
  61 C :   -0.008247
  62 F :   -0.051365
  63 F :   -0.049284
  64 C :    0.044965
  65 C :   -0.132856
  66 C :   -0.010391
  67 N :   -0.053387
  68 C :   -0.018844
  69 N :   -0.051587
  70 H :    0.050177
  71 H :    0.051011
  72 H :    0.042959
  73 H :    0.094139
  74 H :    0.026792
  75 H :    0.035724
  76 H :    0.092564
  77 H :    0.021882
  78 H :    0.025705
  79 H :    0.022012
  80 H :    0.028718
  81 H :    0.090809
  82 H :    0.021944
  83 H :    0.085882
  84 H :    0.022392
  85 H :    0.026384
  86 H :    0.025228
  87 H :    0.092387
  88 H :    0.029799
  89 H :    0.033004
  90 H :    0.087941
  91 H :    0.022400
  92 H :    0.026898
  93 H :    0.024104
  94 H :    0.023301
  95 H :    0.046931
  96 H :    0.050161
  97 H :    0.051012

  Mayer bond orders larger than 0.100000
B(  0-C ,  1-C ) :   1.3279 B(  0-C ,  5-C ) :   0.1047 B(  0-C ,  7-C ) :   1.3251
B(  0-C , 70-H ) :   0.9934 B(  1-C ,  2-F ) :   1.1401 B(  1-C ,  3-C ) :   1.3016
B(  3-C ,  4-F ) :   1.1266 B(  3-C ,  5-C ) :   1.3111 B(  5-C ,  6-C ) :   1.3302
B(  5-C , 71-H ) :   1.0206 B(  6-C ,  7-C ) :   1.3457 B(  6-C , 15-C ) :   0.9267
B(  7-C ,  8-C ) :   1.0069 B(  8-C ,  9-C ) :   1.5965 B(  8-C , 14-C ) :   1.0929
B(  9-C , 10-C ) :   1.1280 B(  9-C , 12-C ) :   1.1866 B( 10-C , 11-N ) :   2.9886
B( 12-C , 13-N ) :   2.9624 B( 14-C , 15-C ) :   0.9722 B( 14-C , 17-C ) :   1.5446
B( 15-C , 16-O ) :   2.2501 B( 17-C , 18-C ) :   1.1775 B( 17-C , 72-H ) :   0.9308
B( 18-C , 19-N ) :   1.1566 B( 18-C , 29-C ) :   1.2806 B( 19-N , 20-C ) :   1.2697
B( 19-N , 73-H ) :   0.9305 B( 20-C , 21-C ) :   1.1290 B( 20-C , 28-C ) :   1.3060
B( 21-C , 22-C ) :   1.6827 B( 21-C , 74-H ) :   0.9505 B( 22-C , 23-C ) :   1.1076
B( 22-C , 75-H ) :   0.9587 B( 23-C , 24-N ) :   1.2051 B( 23-C , 27-C ) :   1.4322
B( 24-N , 25-C ) :   1.2476 B( 24-N , 76-H ) :   0.9371 B( 25-C , 26-C ) :   1.4510
B( 25-C , 77-H ) :   0.9927 B( 26-C , 27-C ) :   1.3446 B( 26-C , 78-H ) :   1.0053
B( 27-C , 79-H ) :   1.0073 B( 28-C , 29-C ) :   1.4133 B( 28-C , 30-C ) :   0.9512
B( 29-C , 80-H ) :   1.0066 B( 30-C , 31-N ) :   1.2409 B( 30-C , 37-C ) :   1.4463
B( 31-N , 32-C ) :   1.1551 B( 31-N , 81-H ) :   0.9294 B( 32-C , 33-C ) :   1.2523
B( 32-C , 36-C ) :   1.3441 B( 33-C , 34-C ) :   1.4177 B( 33-C , 82-H ) :   1.0298
B( 34-C , 35-N ) :   1.1661 B( 34-C , 38-C ) :   1.1020 B( 35-N , 36-C ) :   1.1647
B( 35-N , 83-H ) :   0.9377 B( 36-C , 37-C ) :   1.2124 B( 37-C , 84-H ) :   1.0431
B( 38-C , 39-C ) :   1.7038 B( 38-C , 85-H ) :   0.9665 B( 39-C , 40-C ) :   1.0808
B( 39-C , 86-H ) :   0.9600 B( 40-C , 41-N ) :   1.1483 B( 40-C , 51-C ) :   1.4723
B( 41-N , 42-C ) :   1.2795 B( 41-N , 87-H ) :   0.9294 B( 42-C , 43-C ) :   1.1472
B( 42-C , 50-C ) :   1.2181 B( 43-C , 44-C ) :   1.6749 B( 43-C , 88-H ) :   0.9454
B( 44-C , 45-C ) :   1.1239 B( 44-C , 89-H ) :   0.9361 B( 45-C , 46-N ) :   1.1980
B( 45-C , 47-C ) :   0.1003 B( 45-C , 49-C ) :   1.4411 B( 46-N , 47-C ) :   1.2397
B( 46-N , 90-H ) :   0.9362 B( 47-C , 48-C ) :   1.4522 B( 47-C , 91-H ) :   0.9929
B( 48-C , 49-C ) :   1.3417 B( 48-C , 92-H ) :   1.0055 B( 49-C , 93-H ) :   1.0062
B( 50-C , 51-C ) :   1.2192 B( 50-C , 52-C ) :   1.2103 B( 51-C , 94-H ) :   1.0083
B( 52-C , 53-C ) :   1.5300 B( 52-C , 95-H ) :   0.9365 B( 53-C , 54-C ) :   0.9578
B( 53-C , 64-C ) :   1.0995 B( 54-C , 55-O ) :   2.2530 B( 54-C , 56-C ) :   0.9214
B( 56-C , 57-C ) :   1.3422 B( 56-C , 61-C ) :   1.3264 B( 57-C , 58-C ) :   1.3172
B( 57-C , 64-C ) :   1.0117 B( 58-C , 59-C ) :   1.3124 B( 58-C , 61-C ) :   0.1074
B( 58-C , 96-H ) :   0.9994 B( 59-C , 60-C ) :   1.3040 B( 59-C , 63-F ) :   1.1387
B( 60-C , 61-C ) :   1.3064 B( 60-C , 62-F ) :   1.1243 B( 61-C , 97-H ) :   1.0217
B( 64-C , 65-C ) :   1.5938 B( 65-C , 66-C ) :   1.1833 B( 65-C , 68-C ) :   1.1334
B( 66-C , 67-N ) :   2.9834 B( 68-C , 69-N ) :   2.9698

-----------------------------------------------------------------------------
         ABSORPTION SPECTRUM VIA TRANSITION ELECTRIC DIPOLE MOMENTS
-----------------------------------------------------------------------------
State   Energy  Wavelength   fosc         T2         TX        TY        TZ
        (cm-1)    (nm)                  (au**2)     (au)      (au)      (au)
-----------------------------------------------------------------------------
   0   14071.0    710.7   0.350140731   8.19208   1.20278  -2.32786   1.15172
   1   14703.1    680.1   0.104256346   2.33436  -0.55788   1.41608  -0.13354
   2   18972.7    527.1   0.535837457   9.29777   1.50361  -2.03298   1.70410
   3   20158.6    496.1   0.035478002   0.57939  -0.68753   0.09939  -0.31115
   4   21519.2    464.7   0.271933968   4.16020   0.67814  -1.12238   1.56224
   5   22142.7    451.6   0.379960878   5.64917  -0.88660  -1.42333  -1.68441
   6   23615.1    423.5   1.707683602  23.80640   0.46832   4.15718   2.51097
   7   26057.5    383.8   0.208718890   2.63696   0.53334  -0.69231   1.36866
   8   26582.7    376.2   0.019455850   0.24095  -0.19277   0.11133  -0.43749
   9   26879.3    372.0   0.111473290   1.36530  -0.56364  -1.01510   0.13108
  10   27794.8    359.8   0.004435366   0.05253   0.01710   0.22854  -0.00360
  11   28275.0    353.7   0.101143933   1.17764  -0.14487  -1.07506  -0.03009
  12   28766.6    347.6   0.386695475   4.42543   0.86579   1.85963   0.46650
  13   28876.8    346.3   0.015082105   0.17194  -0.11491   0.09744   0.38633
  14   30403.5    328.9   0.120821429   1.30826   0.70168   0.88352  -0.18791
  15   30533.0    327.5   0.098266074   1.05952   0.23679  -0.90748   0.42418
  16   31224.2    320.3   0.042595054   0.44910   0.36192  -0.33391   0.45455
  17   31623.8    316.2   0.070342459   0.73228  -0.51847  -0.28285   0.61925
  18   31857.1    313.9   0.149559037   1.54554   0.21400   1.09143  -0.55546
  19   32089.2    311.6   0.150455494   1.54356  -0.36778   1.11986  -0.39271
  20   32674.3    306.1   0.189268890   1.90699  -0.73503   1.12627   0.31344
  21   32744.9    305.4   0.036801449   0.37000  -0.12560  -0.47447   0.35930
  22   33553.4    298.0   0.009441021   0.09263   0.13673   0.25611   0.09136
  23   33857.8    295.4   0.218280203   2.12242   0.84039  -1.17830   0.16665
  24   34101.7    293.2   0.020277822   0.19576  -0.30168   0.18535  -0.26532
  25   34299.8    291.5   0.114165230   1.09577   0.54234  -0.87928  -0.16882
  26   34474.5    290.1   0.068719629   0.65623  -0.48968  -0.10334  -0.63700
  27   34609.9    288.9   0.026730638   0.25426  -0.22612   0.27365  -0.35812
  28   34907.2    286.5   0.004337822   0.04091  -0.19081  -0.05195   0.04245
  29   34969.4    286.0   0.145619788   1.37091   0.42658  -0.63861  -0.88381
  30   35207.0    284.0   0.033921837   0.31719   0.01173  -0.12634  -0.54872
  31   35816.7    279.2   0.153702865   1.41277   0.50303   0.93710  -0.53064
  32   36197.5    276.3   0.271629930   2.47044   1.18075  -0.80845  -0.65013
  33   36320.0    275.3   0.014912350   0.13517  -0.36278  -0.00134  -0.05963
  34   36720.2    272.3   0.224074875   2.00892   0.60707   1.25324  -0.26416
  35   37081.7    269.7   0.012280811   0.10903   0.05047  -0.07255  -0.31815
  36   37231.3    268.6   0.075085685   0.66393   0.20069   0.12189   0.78026
  37   37471.8    266.9   0.062111781   0.54569   0.22189   0.70383  -0.03289
  38   37672.6    265.4   0.073397435   0.64140   0.33555   0.62418   0.37310
  39   37910.0    263.8   0.014123570   0.12265   0.02789   0.34637  -0.04358
  40   38360.6    260.7   0.054814551   0.47042  -0.63832   0.22264  -0.11576
  41   38674.4    258.6   0.034791809   0.29616   0.23623   0.07041   0.48518
  42   39395.9    253.8   0.028264406   0.23619   0.16839  -0.22372   0.39722
  43   39539.9    252.9   0.015256368   0.12703  -0.25203  -0.15963  -0.19500
  44   39987.4    250.1   0.038779035   0.31926  -0.49946  -0.25938  -0.05024

FINAL SINGLE POINT ENERGY     -3167.893318735475

DIPOLE MOMENT
-------------
                                X             Y             Z
Electronic contribution:     -9.38020      10.23505     -33.19977
Nuclear contribution   :     11.60545      -9.78888      34.15484
                        -----------------------------------------
Total Dipole Moment    :      2.22525       0.44617       0.95507
                        -----------------------------------------
Magnitude (a.u.)       :      2.46231
Magnitude (Debye)      :      6.25869

Rotational constants in cm-1:     0.001516     0.000262     0.000233
Rotational constants in MHz :    45.453607     7.855790     6.987906

                             ****ORCA TERMINATED NORMALLY****
TOTAL RUN TIME: 0 days 0 hours 9 minutes 11 seconds 649 msec
