                         Program Version 4.2.0 -  RELEASE  -
|  1> # ORCA input file
|  2> # SCF done       -184.041196048805          0.000827633732
|  3> ! CAM-B3LYP def2-SVP def2/J RIJCOSX Grid4 TightSCF
|  4> %maxcore 5000
|  5> %tddft
|  6>     Mode sTDDFT
|  7>     Ethresh 5.0
|  8>     maxcore 5000
|  9> end
| 10>
| 11> %pal
| 12>   nprocs 6
| 13>   end
| 14> * xyz 0 1
| 15>    C        8.15383        -4.85696         3.12849
| 16>    C        8.56693        -4.32762         4.34284
| 17>    F        9.66283        -4.82595         4.92803
| 18>    C        7.86842        -3.29371         4.96521
| 19>    F        8.30874        -2.80616         6.13247
| 20>    C        6.72233        -2.76551         4.39081
| 21>    C        6.30306        -3.29962         3.18929
| 22>    C        7.00983        -4.33418         2.55074
| 23>    C        6.35250        -4.62945         1.27634
| 24>    C        6.95880        -5.22550         0.19652
| 25>    C        8.20077        -5.88457         0.25241
| 26>    N        9.19437        -6.46019         0.24587
| 27>    C        6.43692        -5.14178        -1.10923
| 28>    N        6.06619        -5.02996        -2.19074
| 29>    C        5.10546        -3.91327         1.26377
| 30>    C        5.11308        -2.94338         2.37810
| 31>    O        4.29841        -2.07504         2.60060
| 32>    C        3.98420        -4.03984         0.47944
| 33>    C        3.56334        -5.11850        -0.29927
| 34>    S        4.17442        -6.76227        -0.16436
| 35>    C        3.13289        -7.39542        -1.41178
| 36>    C        2.30288        -6.37193        -1.89388
| 37>    C        2.54039        -5.12594        -1.25087
| 38>    N        1.69586        -4.20527        -1.76607
| 39>    C        0.90701        -4.82678        -2.71520
| 40>    C       -0.08867        -4.14217        -3.42375
| 41>    N       -0.91031        -3.59629        -4.01016
| 42>    C        1.25279        -6.15828        -2.81615
| 43>    C        3.25843        -8.74347        -1.78209
| 44>    C        2.70558        -9.29026        -2.90379
| 45>    C        2.85444       -10.63222        -3.30649
| 46>    N        2.41843       -11.04773        -4.55145
| 47>    C        2.69679       -12.36736        -4.69105
| 48>    C        2.61407       -13.44404        -5.56085
| 49>    C        3.15782       -14.54238        -4.87347
| 50>    N        3.56026       -14.13819        -3.61587
| 51>    C        3.30397       -12.81132        -3.48197
| 52>    C        3.40991       -11.72861        -2.62272
| 53>    C        3.29749       -15.88410        -5.28980
| 54>    C        3.05655       -16.33410        -6.55240
| 55>    C        3.14705       -17.67885        -6.95501
| 56>    S        3.43065       -19.00893        -5.85899
| 57>    C        3.32894       -20.23739        -7.10803
| 58>    C        3.11328       -19.61461        -8.34967
| 59>    C        3.00611       -18.20038        -8.23930
| 60>    N        2.79208       -17.68472        -9.47656
| 61>    C        2.76022       -18.72964       -10.37437
| 62>    C        2.57270       -18.51197       -11.74657
| 63>    N        2.43364       -18.32227       -12.86937
| 64>    C        2.95558       -19.92806        -9.71704
| 65>    C        3.38946       -21.58274        -6.74287
| 66>    C        3.22526       -22.63659        -7.60634
| 67>    C        3.18526       -23.96355        -7.16956
| 68>    C        2.88385       -25.08181        -7.91006
| 69>    C        3.25181       -26.41608        -7.38577
| 70>    O        3.62494       -26.68438        -6.26585
| 71>    C        3.11009       -27.33944        -8.53619
| 72>    C        2.60490       -26.63078        -9.64006
| 73>    C        2.42308       -27.27617       -10.85195
| 74>    C        2.74710       -28.62329       -10.92722
| 75>    C        3.23354       -29.32230        -9.82326
| 76>    C        3.42220       -28.68192        -8.60846
| 77>    F        3.52626       -30.62400        -9.93913
| 78>    F        2.58968       -29.26238       -12.09246
| 79>    C        2.33334       -25.24839        -9.23024
| 80>    C        1.51958       -24.38265        -9.92030
| 81>    C        1.01119       -23.16537        -9.42404
| 82>    N        0.52872       -22.17829        -9.08801
| 83>    C        0.99470       -24.65069       -11.20186
| 84>    N        0.55875       -24.79547       -12.25399
| 85>    H        8.72445        -5.65502         2.68190
| 86>    H        6.18387        -1.96408         4.87084
| 87>    H        3.28911        -3.20744         0.54738
| 88>    H        1.64022        -3.23108        -1.51940
| 89>    H        0.78343        -6.86680        -3.46780
| 90>    H        3.88918        -9.35455        -1.15286
| 91>    H        2.14871        -8.64931        -3.57215
| 92>    H        2.00840       -10.44271        -5.24206
| 93>    H        2.20553       -13.46153        -6.55032
| 94>    H        3.99436       -14.73954        -2.93682
| 95>    H        3.81445       -11.70713        -1.63172
| 96>    H        3.62592       -16.59786        -4.54463
| 97>    H        2.77623       -15.62773        -7.32142
| 98>    H        2.67252       -16.71573        -9.71855
| 99>    H        2.97304       -20.88730       -10.19084
|100>    H        3.51339       -21.79289        -5.68795
|101>    H        3.11359       -22.43131        -8.65715
|102>    H        3.47912       -24.16479        -6.14448
|103>    H        2.05321       -26.78076       -11.73460
|104>    H        3.80064       -29.21923        -7.75365
|105> *
|106>
|107>                          ****END OF INPUT****

CARTESIAN COORDINATES (ANGSTROEM)
---------------------------------
  C      8.153830   -4.856960    3.128490
  C      8.566930   -4.327620    4.342840
  F      9.662830   -4.825950    4.928030
  C      7.868420   -3.293710    4.965210
  F      8.308740   -2.806160    6.132470
  C      6.722330   -2.765510    4.390810
  C      6.303060   -3.299620    3.189290
  C      7.009830   -4.334180    2.550740
  C      6.352500   -4.629450    1.276340
  C      6.958800   -5.225500    0.196520
  C      8.200770   -5.884570    0.252410
  N      9.194370   -6.460190    0.245870
  C      6.436920   -5.141780   -1.109230
  N      6.066190   -5.029960   -2.190740
  C      5.105460   -3.913270    1.263770
  C      5.113080   -2.943380    2.378100
  O      4.298410   -2.075040    2.600600
  C      3.984200   -4.039840    0.479440
  C      3.563340   -5.118500   -0.299270
  S      4.174420   -6.762270   -0.164360
  C      3.132890   -7.395420   -1.411780
  C      2.302880   -6.371930   -1.893880
  C      2.540390   -5.125940   -1.250870
  N      1.695860   -4.205270   -1.766070
  C      0.907010   -4.826780   -2.715200
  C     -0.088670   -4.142170   -3.423750
  N     -0.910310   -3.596290   -4.010160
  C      1.252790   -6.158280   -2.816150
  C      3.258430   -8.743470   -1.782090
  C      2.705580   -9.290260   -2.903790
  C      2.854440  -10.632220   -3.306490
  N      2.418430  -11.047730   -4.551450
  C      2.696790  -12.367360   -4.691050
  C      2.614070  -13.444040   -5.560850
  C      3.157820  -14.542380   -4.873470
  N      3.560260  -14.138190   -3.615870
  C      3.303970  -12.811320   -3.481970
  C      3.409910  -11.728610   -2.622720
  C      3.297490  -15.884100   -5.289800
  C      3.056550  -16.334100   -6.552400
  C      3.147050  -17.678850   -6.955010
  S      3.430650  -19.008930   -5.858990
  C      3.328940  -20.237390   -7.108030
  C      3.113280  -19.614610   -8.349670
  C      3.006110  -18.200380   -8.239300
  N      2.792080  -17.684720   -9.476560
  C      2.760220  -18.729640  -10.374370
  C      2.572700  -18.511970  -11.746570
  N      2.433640  -18.322270  -12.869370
  C      2.955580  -19.928060   -9.717040
  C      3.389460  -21.582740   -6.742870
  C      3.225260  -22.636590   -7.606340
  C      3.185260  -23.963550   -7.169560
  C      2.883850  -25.081810   -7.910060
  C      3.251810  -26.416080   -7.385770
  O      3.624940  -26.684380   -6.265850
  C      3.110090  -27.339440   -8.536190
  C      2.604900  -26.630780   -9.640060
  C      2.423080  -27.276170  -10.851950
  C      2.747100  -28.623290  -10.927220
  C      3.233540  -29.322300   -9.823260
  C      3.422200  -28.681920   -8.608460
  F      3.526260  -30.624000   -9.939130
  F      2.589680  -29.262380  -12.092460
  C      2.333340  -25.248390   -9.230240
  C      1.519580  -24.382650   -9.920300
  C      1.011190  -23.165370   -9.424040
  N      0.528720  -22.178290   -9.088010
  C      0.994700  -24.650690  -11.201860
  N      0.558750  -24.795470  -12.253990
  H      8.724450   -5.655020    2.681900
  H      6.183870   -1.964080    4.870840
  H      3.289110   -3.207440    0.547380
  H      1.640220   -3.231080   -1.519400
  H      0.783430   -6.866800   -3.467800
  H      3.889180   -9.354550   -1.152860
  H      2.148710   -8.649310   -3.572150
  H      2.008400  -10.442710   -5.242060
  H      2.205530  -13.461530   -6.550320
  H      3.994360  -14.739540   -2.936820
  H      3.814450  -11.707130   -1.631720
  H      3.625920  -16.597860   -4.544630
  H      2.776230  -15.627730   -7.321420
  H      2.672520  -16.715730   -9.718550
  H      2.973040  -20.887300  -10.190840
  H      3.513390  -21.792890   -5.687950
  H      3.113590  -22.431310   -8.657150
  H      3.479120  -24.164790   -6.144480
  H      2.053210  -26.780760  -11.734600
  H      3.800640  -29.219230   -7.753650

 Total Charge           Charge          ....    0
 Multiplicity           Mult            ....    1
 Number of Electrons    NEL             ....  486
 Basis Dimension        Dim             .... 1088

ORBITAL ENERGIES
----------------

  NO   OCC          E(Eh)            E(eV)
   0   2.0000     -88.985098     -2421.4076
   1   2.0000     -88.981407     -2421.3072
   2   2.0000     -24.798048      -674.7892
   3   2.0000     -24.797763      -674.7814
   4   2.0000     -24.797545      -674.7755
   5   2.0000     -24.797184      -674.7657
   6   2.0000     -19.213660      -522.8303
   7   2.0000     -19.212736      -522.8051
   8   2.0000     -14.498990      -394.5376
   9   2.0000     -14.497926      -394.5086
  10   2.0000     -14.484856      -394.1530
  11   2.0000     -14.484739      -394.1498
  12   2.0000     -14.428643      -392.6233
  13   2.0000     -14.427148      -392.5827
  14   2.0000     -14.415555      -392.2672
  15   2.0000     -14.413950      -392.2235
  16   2.0000     -14.412899      -392.1949
  17   2.0000     -14.410635      -392.1333
  18   2.0000     -10.382890      -282.5328
  19   2.0000     -10.382844      -282.5315
  20   2.0000     -10.382378      -282.5189
  21   2.0000     -10.381976      -282.5079
  22   2.0000     -10.365053      -282.0474
  23   2.0000     -10.364953      -282.0447
  24   2.0000     -10.364803      -282.0406
  25   2.0000     -10.361789      -281.9586
  26   2.0000     -10.347497      -281.5697
  27   2.0000     -10.345799      -281.5235
  28   2.0000     -10.342483      -281.4333
  29   2.0000     -10.341929      -281.4182
  30   2.0000     -10.341661      -281.4109
  31   2.0000     -10.339943      -281.3642
  32   2.0000     -10.339439      -281.3504
  33   2.0000     -10.338012      -281.3116
  34   2.0000     -10.336473      -281.2697
  35   2.0000     -10.333652      -281.1930
  36   2.0000     -10.328576      -281.0548
  37   2.0000     -10.326981      -281.0114
  38   2.0000     -10.326646      -281.0023
  39   2.0000     -10.324248      -280.9371
  40   2.0000     -10.323494      -280.9166
  41   2.0000     -10.322647      -280.8935
  42   2.0000     -10.322176      -280.8807
  43   2.0000     -10.318669      -280.7853
  44   2.0000     -10.318317      -280.7757
  45   2.0000     -10.317987      -280.7667
  46   2.0000     -10.316904      -280.7372
  47   2.0000     -10.316198      -280.7180
  48   2.0000     -10.314019      -280.6587
  49   2.0000     -10.313933      -280.6564
  50   2.0000     -10.313560      -280.6462
  51   2.0000     -10.313270      -280.6383
  52   2.0000     -10.313098      -280.6337
  53   2.0000     -10.312937      -280.6293
  54   2.0000     -10.309787      -280.5436
  55   2.0000     -10.307644      -280.4852
  56   2.0000     -10.306801      -280.4623
  57   2.0000     -10.305620      -280.4302
  58   2.0000     -10.305559      -280.4285
  59   2.0000     -10.305191      -280.4185
  60   2.0000     -10.304979      -280.4127
  61   2.0000     -10.303592      -280.3750
  62   2.0000     -10.303460      -280.3714
  63   2.0000     -10.298628      -280.2399
  64   2.0000     -10.298547      -280.2377
  65   2.0000     -10.293766      -280.1076
  66   2.0000     -10.291939      -280.0579
  67   2.0000     -10.291400      -280.0432
  68   2.0000     -10.290729      -280.0250
  69   2.0000     -10.289334      -279.9870
  70   2.0000      -8.079940      -219.8664
  71   2.0000      -8.075906      -219.7566
  72   2.0000      -6.049243      -164.6083
  73   2.0000      -6.045384      -164.5033
  74   2.0000      -6.045235      -164.4992
  75   2.0000      -6.042031      -164.4120
  76   2.0000      -6.041173      -164.3887
  77   2.0000      -6.037768      -164.2960
  78   2.0000      -1.321123       -35.9496
  79   2.0000      -1.321093       -35.9488
  80   2.0000      -1.305942       -35.5365
  81   2.0000      -1.305911       -35.5356
  82   2.0000      -1.128574       -30.7100
  83   2.0000      -1.127787       -30.6886
  84   2.0000      -1.120672       -30.4950
  85   2.0000      -1.119862       -30.4730
  86   2.0000      -1.117434       -30.4069
  87   2.0000      -1.080892       -29.4126
  88   2.0000      -1.019322       -27.7372
  89   2.0000      -1.019064       -27.7301
  90   2.0000      -1.011298       -27.5188
  91   2.0000      -1.009758       -27.4769
  92   2.0000      -1.000837       -27.2342
  93   2.0000      -1.000621       -27.2283
  94   2.0000      -0.999797       -27.2058
  95   2.0000      -0.998547       -27.1719
  96   2.0000      -0.993330       -27.0299
  97   2.0000      -0.989798       -26.9338
  98   2.0000      -0.956210       -26.0198
  99   2.0000      -0.955634       -26.0041
 100   2.0000      -0.943342       -25.6696
 101   2.0000      -0.934978       -25.4420
 102   2.0000      -0.920924       -25.0596
 103   2.0000      -0.916717       -24.9451
 104   2.0000      -0.909006       -24.7353
 105   2.0000      -0.899945       -24.4888
 106   2.0000      -0.899636       -24.4803
 107   2.0000      -0.892367       -24.2825
 108   2.0000      -0.889631       -24.2081
 109   2.0000      -0.879999       -23.9460
 110   2.0000      -0.874674       -23.8011
 111   2.0000      -0.871370       -23.7112
 112   2.0000      -0.871245       -23.7078
 113   2.0000      -0.866866       -23.5886
 114   2.0000      -0.858976       -23.3739
 115   2.0000      -0.841364       -22.8947
 116   2.0000      -0.827467       -22.5165
 117   2.0000      -0.807292       -21.9675
 118   2.0000      -0.795731       -21.6530
 119   2.0000      -0.775487       -21.1021
 120   2.0000      -0.770997       -20.9799
 121   2.0000      -0.767010       -20.8714
 122   2.0000      -0.761391       -20.7185
 123   2.0000      -0.758540       -20.6409
 124   2.0000      -0.754614       -20.5341
 125   2.0000      -0.734968       -19.9995
 126   2.0000      -0.731300       -19.8997
 127   2.0000      -0.724245       -19.7077
 128   2.0000      -0.720369       -19.6022
 129   2.0000      -0.716540       -19.4981
 130   2.0000      -0.715125       -19.4596
 131   2.0000      -0.711285       -19.3550
 132   2.0000      -0.700296       -19.0560
 133   2.0000      -0.699313       -19.0293
 134   2.0000      -0.690603       -18.7923
 135   2.0000      -0.682340       -18.5674
 136   2.0000      -0.682225       -18.5643
 137   2.0000      -0.676839       -18.4177
 138   2.0000      -0.667407       -18.1611
 139   2.0000      -0.659069       -17.9342
 140   2.0000      -0.651784       -17.7359
 141   2.0000      -0.646174       -17.5833
 142   2.0000      -0.644398       -17.5350
 143   2.0000      -0.639840       -17.4109
 144   2.0000      -0.638379       -17.3712
 145   2.0000      -0.636215       -17.3123
 146   2.0000      -0.628279       -17.0964
 147   2.0000      -0.615090       -16.7375
 148   2.0000      -0.612597       -16.6696
 149   2.0000      -0.610643       -16.6165
 150   2.0000      -0.603174       -16.4132
 151   2.0000      -0.598327       -16.2813
 152   2.0000      -0.598038       -16.2734
 153   2.0000      -0.594926       -16.1888
 154   2.0000      -0.586310       -15.9543
 155   2.0000      -0.586150       -15.9499
 156   2.0000      -0.585841       -15.9415
 157   2.0000      -0.583276       -15.8717
 158   2.0000      -0.571952       -15.5636
 159   2.0000      -0.568999       -15.4832
 160   2.0000      -0.567061       -15.4305
 161   2.0000      -0.565119       -15.3777
 162   2.0000      -0.564192       -15.3524
 163   2.0000      -0.561170       -15.2702
 164   2.0000      -0.558498       -15.1975
 165   2.0000      -0.556711       -15.1489
 166   2.0000      -0.553488       -15.0612
 167   2.0000      -0.549721       -14.9587
 168   2.0000      -0.549115       -14.9422
 169   2.0000      -0.548326       -14.9207
 170   2.0000      -0.546403       -14.8684
 171   2.0000      -0.546202       -14.8629
 172   2.0000      -0.544088       -14.8054
 173   2.0000      -0.538433       -14.6515
 174   2.0000      -0.532806       -14.4984
 175   2.0000      -0.532119       -14.4797
 176   2.0000      -0.530155       -14.4262
 177   2.0000      -0.527556       -14.3555
 178   2.0000      -0.524185       -14.2638
 179   2.0000      -0.521891       -14.2014
 180   2.0000      -0.517127       -14.0717
 181   2.0000      -0.509013       -13.8509
 182   2.0000      -0.504704       -13.7337
 183   2.0000      -0.502381       -13.6705
 184   2.0000      -0.500754       -13.6262
 185   2.0000      -0.497625       -13.5411
 186   2.0000      -0.496237       -13.5033
 187   2.0000      -0.492538       -13.4027
 188   2.0000      -0.491561       -13.3761
 189   2.0000      -0.490945       -13.3593
 190   2.0000      -0.489634       -13.3236
 191   2.0000      -0.488009       -13.2794
 192   2.0000      -0.484704       -13.1895
 193   2.0000      -0.478745       -13.0273
 194   2.0000      -0.477087       -12.9822
 195   2.0000      -0.471998       -12.8437
 196   2.0000      -0.469190       -12.7673
 197   2.0000      -0.465659       -12.6712
 198   2.0000      -0.459871       -12.5137
 199   2.0000      -0.458497       -12.4763
 200   2.0000      -0.456378       -12.4187
 201   2.0000      -0.455791       -12.4027
 202   2.0000      -0.455388       -12.3917
 203   2.0000      -0.453594       -12.3429
 204   2.0000      -0.450983       -12.2719
 205   2.0000      -0.450011       -12.2454
 206   2.0000      -0.448882       -12.2147
 207   2.0000      -0.448521       -12.2049
 208   2.0000      -0.446952       -12.1622
 209   2.0000      -0.441722       -12.0199
 210   2.0000      -0.441521       -12.0144
 211   2.0000      -0.440041       -11.9741
 212   2.0000      -0.439544       -11.9606
 213   2.0000      -0.438892       -11.9429
 214   2.0000      -0.436355       -11.8738
 215   2.0000      -0.433500       -11.7961
 216   2.0000      -0.433129       -11.7860
 217   2.0000      -0.428243       -11.6531
 218   2.0000      -0.424528       -11.5520
 219   2.0000      -0.423729       -11.5303
 220   2.0000      -0.419387       -11.4121
 221   2.0000      -0.418941       -11.4000
 222   2.0000      -0.407067       -11.0769
 223   2.0000      -0.406455       -11.0602
 224   2.0000      -0.399636       -10.8747
 225   2.0000      -0.390062       -10.6141
 226   2.0000      -0.384520       -10.4633
 227   2.0000      -0.377362       -10.2685
 228   2.0000      -0.356009        -9.6875
 229   2.0000      -0.350077        -9.5261
 230   2.0000      -0.347312        -9.4508
 231   2.0000      -0.344882        -9.3847
 232   2.0000      -0.339086        -9.2270
 233   2.0000      -0.335991        -9.1428
 234   2.0000      -0.328570        -8.9408
 235   2.0000      -0.322859        -8.7854
 236   2.0000      -0.319509        -8.6943
 237   2.0000      -0.317334        -8.6351
 238   2.0000      -0.310904        -8.4601
 239   2.0000      -0.309222        -8.4144
 240   2.0000      -0.289082        -7.8663
 241   2.0000      -0.260135        -7.0786
 242   2.0000      -0.228995        -6.2313
 243   0.0000      -0.118842        -3.2339
 244   0.0000      -0.098698        -2.6857
 245   0.0000      -0.067654        -1.8409
 246   0.0000      -0.063012        -1.7146
 247   0.0000      -0.045454        -1.2369

MULLIKEN ATOMIC CHARGES
-----------------------
   0 C :   -0.093327
   1 C :    0.235315
   2 F :   -0.168362
   3 C :    0.230008
   4 F :   -0.171755
   5 C :   -0.102526
   6 C :    0.007810
   7 C :    0.027451
   8 C :    0.254091
   9 C :   -0.333352
  10 C :   -0.176456
  11 N :    0.147655
  12 C :   -0.209659
  13 N :    0.155811
  14 C :   -0.159354
  15 C :    0.138048
  16 O :   -0.151728
  17 C :    0.000266
  18 C :   -0.162640
  19 S :    0.165635
  20 C :   -0.099744
  21 C :    0.106901
  22 C :    0.147902
  23 N :   -0.018155
  24 C :   -0.097371
  25 C :   -0.151903
  26 N :    0.169771
  27 C :   -0.030419
  28 C :    0.034776
  29 C :    0.021401
  30 C :    0.096872
  31 N :   -0.033521
  32 C :    0.123220
  33 C :   -0.166834
  34 C :    0.111687
  35 N :   -0.033511
  36 C :    0.118864
  37 C :   -0.153256
  38 C :    0.003206
  39 C :   -0.033013
  40 C :   -0.099062
  41 S :    0.138792
  42 C :   -0.140069
  43 C :    0.146067
  44 C :    0.080525
  45 N :   -0.025891
  46 C :   -0.100291
  47 C :   -0.150336
  48 N :    0.178130
  49 C :   -0.003578
  50 C :    0.071141
  51 C :    0.012086
  52 C :    0.027063
  53 C :   -0.124419
  54 C :    0.135274
  55 O :   -0.144704
  56 C :    0.004349
  57 C :    0.029666
  58 C :   -0.091127
  59 C :    0.235325
  60 C :    0.230190
  61 C :   -0.103054
  62 F :   -0.170804
  63 F :   -0.167120
  64 C :    0.290716
  65 C :   -0.357796
  66 C :   -0.220437
  67 N :    0.169754
  68 C :   -0.186696
  69 N :    0.154282
  70 H :    0.015167
  71 H :    0.009604
  72 H :    0.004709
  73 H :    0.141273
  74 H :   -0.010711
  75 H :   -0.015823
  76 H :   -0.030381
  77 H :    0.127694
  78 H :   -0.031060
  79 H :    0.126933
  80 H :   -0.022001
  81 H :   -0.015775
  82 H :   -0.020504
  83 H :    0.132936
  84 H :    0.000386
  85 H :   -0.007117
  86 H :   -0.010393
  87 H :    0.011655
  88 H :    0.016273
  89 H :    0.009354
Sum of atomic charges:   -0.0000000

LOEWDIN ATOMIC CHARGES
----------------------
   0 C :   -0.023259
   1 C :    0.071882
   2 F :   -0.046439
   3 C :    0.066627
   4 F :   -0.048701
   5 C :   -0.007140
   6 C :   -0.046191
   7 C :   -0.011449
   8 C :    0.060630
   9 C :   -0.156877
  10 C :   -0.023268
  11 N :   -0.058789
  12 C :   -0.035447
  13 N :   -0.061709
  14 C :   -0.126175
  15 C :    0.080027
  16 O :   -0.153936
  17 C :    0.042470
  18 C :   -0.222074
  19 S :    0.485725
  20 C :   -0.113779
  21 C :   -0.082690
  22 C :    0.031830
  23 N :    0.090027
  24 C :   -0.031365
  25 C :   -0.048253
  26 N :   -0.035428
  27 C :   -0.025359
  28 C :   -0.056435
  29 C :   -0.000184
  30 C :   -0.003061
  31 N :    0.073189
  32 C :   -0.006505
  33 C :   -0.089469
  34 C :    0.007155
  35 N :    0.072444
  36 C :   -0.012587
  37 C :   -0.073617
  38 C :   -0.026520
  39 C :   -0.047376
  40 C :   -0.175482
  41 S :    0.453066
  42 C :   -0.178102
  43 C :   -0.041893
  44 C :   -0.009790
  45 N :    0.080508
  46 C :   -0.015862
  47 C :   -0.044297
  48 N :   -0.026255
  49 C :   -0.020004
  50 C :    0.014579
  51 C :   -0.042459
  52 C :    0.065018
  53 C :   -0.110813
  54 C :    0.079955
  55 O :   -0.146987
  56 C :   -0.046168
  57 C :   -0.012187
  58 C :   -0.021912
  59 C :    0.072665
  60 C :    0.068109
  61 C :   -0.006798
  62 F :   -0.047732
  63 F :   -0.045265
  64 C :    0.070013
  65 C :   -0.148936
  66 C :   -0.024016
  67 N :   -0.055666
  68 C :   -0.022748
  69 N :   -0.052299
  70 H :    0.050305
  71 H :    0.051132
  72 H :    0.042960
  73 H :    0.103073
  74 H :    0.032843
  75 H :    0.031895
  76 H :    0.031473
  77 H :    0.092619
  78 H :    0.024715
  79 H :    0.093060
  80 H :    0.028582
  81 H :    0.025999
  82 H :    0.030210
  83 H :    0.098045
  84 H :    0.037153
  85 H :    0.035830
  86 H :    0.028627
  87 H :    0.043332
  88 H :    0.050755
  89 H :    0.051228

  Mayer bond orders larger than 0.100000
B(  0-C ,  1-C ) :   1.3276 B(  0-C ,  5-C ) :   0.1046 B(  0-C ,  7-C ) :   1.3259
B(  0-C , 70-H ) :   0.9955 B(  1-C ,  2-F ) :   1.1391 B(  1-C ,  3-C ) :   1.2985
B(  3-C ,  4-F ) :   1.1285 B(  3-C ,  5-C ) :   1.3142 B(  5-C ,  6-C ) :   1.3286
B(  5-C , 71-H ) :   1.0200 B(  6-C ,  7-C ) :   1.3490 B(  6-C , 15-C ) :   0.9264
B(  7-C ,  8-C ) :   1.0126 B(  8-C ,  9-C ) :   1.6120 B(  8-C , 14-C ) :   1.0852
B(  9-C , 10-C ) :   1.1329 B(  9-C , 12-C ) :   1.1623 B( 10-C , 11-N ) :   2.9903
B( 12-C , 13-N ) :   3.0180 B( 14-C , 15-C ) :   0.9713 B( 14-C , 17-C ) :   1.5245
B( 15-C , 16-O ) :   2.2580 B( 17-C , 18-C ) :   1.2605 B( 17-C , 72-H ) :   0.9463
B( 18-C , 19-S ) :   1.0559 B( 18-C , 22-C ) :   1.2870 B( 19-S , 20-C ) :   1.1689
B( 20-C , 21-C ) :   1.2442 B( 20-C , 28-C ) :   1.2149 B( 21-C , 22-C ) :   1.2590
B( 21-C , 27-C ) :   1.1794 B( 22-C , 23-N ) :   1.2336 B( 23-N , 24-C ) :   1.1870
B( 23-N , 73-H ) :   0.9311 B( 24-C , 25-C ) :   1.0593 B( 24-C , 27-C ) :   1.5993
B( 25-C , 26-N ) :   3.0514 B( 27-C , 74-H ) :   1.0053 B( 28-C , 29-C ) :   1.5809
B( 28-C , 75-H ) :   0.9584 B( 29-C , 30-C ) :   1.1673 B( 29-C , 76-H ) :   0.9609
B( 30-C , 31-N ) :   1.1568 B( 30-C , 37-C ) :   1.3628 B( 31-N , 32-C ) :   1.1805
B( 31-N , 77-H ) :   0.9347 B( 32-C , 33-C ) :   1.2808 B( 32-C , 36-C ) :   1.2803
B( 33-C , 34-C ) :   1.3780 B( 33-C , 78-H ) :   1.0282 B( 34-C , 35-N ) :   1.1720
B( 34-C , 38-C ) :   1.1363 B( 35-N , 36-C ) :   1.1652 B( 35-N , 79-H ) :   0.9361
B( 36-C , 37-C ) :   1.2937 B( 37-C , 80-H ) :   1.0291 B( 38-C , 39-C ) :   1.6027
B( 38-C , 81-H ) :   0.9673 B( 39-C , 40-C ) :   1.1961 B( 39-C , 82-H ) :   0.9801
B( 40-C , 41-S ) :   1.1173 B( 40-C , 44-C ) :   1.3375 B( 41-S , 42-C ) :   1.0932
B( 42-C , 43-C ) :   1.2496 B( 42-C , 50-C ) :   1.2401 B( 43-C , 44-C ) :   1.2570
B( 43-C , 49-C ) :   1.1997 B( 44-C , 45-N ) :   1.1803 B( 45-N , 46-C ) :   1.2139
B( 45-N , 83-H ) :   0.9347 B( 46-C , 47-C ) :   1.0575 B( 46-C , 49-C ) :   1.5710
B( 47-C , 48-N ) :   3.0555 B( 49-C , 84-H ) :   1.0047 B( 50-C , 51-C ) :   1.5352
B( 50-C , 85-H ) :   0.9649 B( 51-C , 52-C ) :   1.2255 B( 51-C , 86-H ) :   0.9580
B( 52-C , 53-C ) :   1.5159 B( 52-C , 87-H ) :   0.9559 B( 53-C , 54-C ) :   0.9606
B( 53-C , 64-C ) :   1.0789 B( 54-C , 55-O ) :   2.2627 B( 54-C , 56-C ) :   0.9284
B( 56-C , 57-C ) :   1.3447 B( 56-C , 61-C ) :   1.3292 B( 57-C , 58-C ) :   1.3217
B( 57-C , 64-C ) :   1.0102 B( 58-C , 59-C ) :   1.3313 B( 58-C , 61-C ) :   0.1047
B( 58-C , 88-H ) :   0.9920 B( 59-C , 60-C ) :   1.2981 B( 59-C , 63-F ) :   1.1415
B( 60-C , 61-C ) :   1.3145 B( 60-C , 62-F ) :   1.1294 B( 61-C , 89-H ) :   1.0194
B( 64-C , 65-C ) :   1.6070 B( 65-C , 66-C ) :   1.1734 B( 65-C , 68-C ) :   1.1314
B( 66-C , 67-N ) :   2.9888 B( 68-C , 69-N ) :   2.9873

-----------------------------------------------------------------------------
         ABSORPTION SPECTRUM VIA TRANSITION ELECTRIC DIPOLE MOMENTS
-----------------------------------------------------------------------------
State   Energy  Wavelength   fosc         T2         TX        TY        TZ
        (cm-1)    (nm)                  (au**2)     (au)      (au)      (au)
-----------------------------------------------------------------------------
   0   10792.3    926.6   2.519772304  76.86433   1.10756   7.91089   3.61323
   1   15454.4    647.1   0.099423153   2.11792   0.97551  -0.87845   0.62820
   2   19153.0    522.1   0.036105495   0.62060   0.18528  -0.74633   0.17105
   3   21478.8    465.6   0.309653721   4.74616  -1.59644   1.39115   0.51209
   4   22880.7    437.1   0.040999335   0.58991  -0.19234  -0.53616  -0.51521
   5   23219.3    430.7   0.049757725   0.70548   0.43600   0.51259  -0.50264
   6   25781.3    387.9   0.008116390   0.10364   0.10981   0.29541   0.06571
   7   26926.8    371.4   0.124763946   1.52539   0.79141  -0.73053   0.60447
   8   27108.2    368.9   0.045630871   0.55416  -0.62112   0.21678   0.34839
   9   27599.5    362.3   0.072816568   0.86857  -0.28025   0.71683   0.52554
  10   28426.9    351.8   0.035354868   0.40945  -0.16924  -0.61460   0.05541
  11   28769.6    347.6   0.114958627   1.31548   0.25890   0.11771   1.11112
  12   28902.6    346.0   0.257848764   2.93700  -1.19085   0.12105  -1.22647
  13   29443.6    339.6   0.211587865   2.36579   1.05770  -0.40072   1.04234
  14   29894.4    334.5   0.019297657   0.21252  -0.07782   0.39931   0.21682
  15   30142.0    331.8   0.142282996   1.55402  -0.09949   0.79803   0.95251
  16   30712.5    325.6   0.042038693   0.45062   0.15514   0.27518   0.59231
  17   31193.6    320.6   0.025972041   0.27410  -0.03298   0.14431  -0.50219
  18   31358.2    318.9   0.238075706   2.49942  -0.56676  -0.48341  -1.39446
  19   31714.3    315.3   0.016002726   0.16612   0.31832  -0.25450   0.00466
  20   32052.4    312.0   0.220958300   2.26947  -0.14593   1.32786   0.69639
  21   32570.5    307.0   0.015724807   0.15894  -0.09241   0.13483   0.36362
  22   32648.1    306.3   0.053514461   0.53962   0.19068  -0.69976   0.11660
  23   33254.3    300.7   0.003630029   0.03594   0.11042   0.00087   0.15409
  24   34659.3    288.5   0.024222697   0.23008  -0.07500  -0.34187  -0.32799
  25   34884.8    286.7   0.039486868   0.37264  -0.39122   0.23098  -0.40773
  26   35482.9    281.8   0.029683457   0.27540  -0.16365  -0.21436  -0.45019
  27   35646.2    280.5   0.083605528   0.77214   0.51550  -0.47875   0.52650
  28   36105.2    277.0   0.153254865   1.39740  -0.58767  -0.08534  -1.02213
  29   36562.1    273.5   0.157245752   1.41587  -0.78325   0.89060  -0.09603
  30   36759.4    272.0   0.218430788   1.95623   0.33296  -1.18115  -0.67102
  31   36880.1    271.1   0.308746490   2.75604  -0.47699   1.20535  -1.03714
  32   37119.2    269.4   0.174252558   1.54546   0.32892  -0.05968   1.19737
  33   37330.2    267.9   0.038390902   0.33857   0.03207   0.47944   0.32814
  34   37688.4    265.3   0.243001387   2.12264   0.50990  -1.36121  -0.09875
  35   37762.7    264.8   0.201947071   1.76056   0.07364  -0.40739  -1.26062
  36   37927.0    263.7   0.007574402   0.06575   0.01575   0.23258  -0.10680
  37   38397.1    260.4   0.000907029   0.00778  -0.04531  -0.01326  -0.07448
  38   38742.6    258.1   0.011451350   0.09731   0.27124  -0.14902  -0.03910
  39   39019.3    256.3   0.053667602   0.45280  -0.47374   0.37362   0.29796
  40   39293.1    254.5   0.004994079   0.04184   0.03136   0.15704  -0.12727
  41   39717.1    251.8   0.020635309   0.17104  -0.31018   0.25360  -0.10256
  42   39870.5    250.8   0.115139438   0.95071  -0.58823   0.16720  -0.75944
  43   40241.9    248.5   0.040341846   0.33003  -0.34583   0.34387   0.30362

FINAL SINGLE POINT ENERGY     -3883.059361100339

DIPOLE MOMENT
-------------
                                X             Y             Z
Electronic contribution:     16.02630      -8.52197      11.71627
Nuclear contribution   :    -16.22557       8.97992      -9.78052
                        -----------------------------------------
Total Dipole Moment    :     -0.19927       0.45795       1.93575
                        -----------------------------------------
Magnitude (a.u.)       :      1.99914
Magnitude (Debye)      :      5.08142

Rotational constants in cm-1:     0.002213     0.000164     0.000156
Rotational constants in MHz :    66.333642     4.926701     4.682821

                             ****ORCA TERMINATED NORMALLY****
TOTAL RUN TIME: 0 days 0 hours 8 minutes 49 seconds 606 msec
