                         Program Version 4.2.0 -  RELEASE  -
|  1> # ORCA input file
|  2> # SCF done       -208.141387679380          0.000724979562
|  3> ! CAM-B3LYP def2-SVP def2/J RIJCOSX Grid4 TightSCF
|  4> %maxcore 5000
|  5> %tddft
|  6>     Mode sTDDFT
|  7>     Ethresh 5.0
|  8>     maxcore 5000
|  9> end
| 10>
| 11> %pal
| 12>   nprocs 6
| 13>   end
| 14> * xyz 0 1
| 15>    C        5.57238        -8.63084        11.73204
| 16>    C        4.80629        -7.69000        12.40317
| 17>    F        4.70358        -7.76973        13.73097
| 18>    C        4.13416        -6.66841        11.72477
| 19>    F        3.40578        -5.79314        12.41756
| 20>    C        4.21841        -6.55786        10.34603
| 21>    C        4.98819        -7.49311         9.67814
| 22>    C        5.66036        -8.52960        10.35199
| 23>    C        6.35825        -9.35454         9.37256
| 24>    C        7.26360       -10.33998         9.64031
| 25>    C        7.62670       -10.74358        10.94514
| 26>    N        7.95347       -11.10937        11.98134
| 27>    C        7.99231       -11.04173         8.65253
| 28>    N        8.63036       -11.62742         7.90081
| 29>    C        5.98018        -8.87141         8.04826
| 30>    C        5.25153        -7.59024         8.23072
| 31>    O        4.93152        -6.78549         7.38346
| 32>    C        6.06051        -9.59888         6.90333
| 33>    C        5.65850        -9.22517         5.58852
| 34>    C        5.62076        -8.00417         4.96958
| 35>    C        5.10468        -8.06030         3.65387
| 36>    C        4.89355        -7.02958         2.72029
| 37>    C        4.34974        -7.40716         1.48641
| 38>    C        4.08236        -8.78248         1.24585
| 39>    N        4.29458        -9.75441         2.10337
| 40>    C        4.78117        -9.39391         3.27215
| 41>    S        5.12190       -10.52871         4.52714
| 42>    S        3.41915        -9.07589        -0.33410
| 43>    C        3.45695        -7.36189        -0.65556
| 44>    C        3.95535        -6.61858         0.36236
| 45>    F        4.02777        -5.28220         0.33105
| 46>    F        3.00969        -6.90538        -1.81561
| 47>    C        5.27320        -5.65016         2.99391
| 48>    S        6.46200        -4.89160         1.98784
| 49>    C        6.37584        -3.42578         2.91220
| 50>    C        5.45238        -3.53563         3.93528
| 51>    C        4.83230        -4.80432         3.98227
| 52>    C        3.76771        -5.12247         4.98383
| 53>    C        3.99368        -4.25911         6.22994
| 54>    C        3.02153        -4.56655         7.25102
| 55>    N        2.26438        -4.81538         8.06929
| 56>    C        3.94820        -2.77476         5.82413
| 57>    C        4.04053        -1.92736         6.98947
| 58>    N        4.19145        -1.24325         7.89208
| 59>    C        5.14405        -2.44498         4.91359
| 60>    C        7.20250        -2.32476         2.52531
| 61>    C        7.49697        -1.17337         3.20663
| 62>    C        8.33622        -0.29197         2.48671
| 63>    C        8.82704         0.98165         2.83523
| 64>    C        9.70135         1.58077         1.91138
| 65>    C        9.97999         0.91136         0.69247
| 66>    N        9.50484        -0.26529         0.35146
| 67>    C        8.71277        -0.83807         1.22850
| 68>    S        7.97723        -2.37808         0.94944
| 69>    S       11.02189         1.82714        -0.35674
| 70>    C       11.06382         3.10775         0.82113
| 71>    C       10.33850         2.85376         1.94058
| 72>    F       10.23372         3.70987         2.96487
| 73>    F       11.76860         4.20239         0.57557
| 74>    C        8.49313         1.64917         4.06998
| 75>    C        7.30078         1.75097         4.70040
| 76>    C        7.26732         2.23302         6.11690
| 77>    O        8.18919         2.69689         6.73849
| 78>    C        5.89200         1.96368         6.58485
| 79>    C        5.12729         1.43684         5.52718
| 80>    C        3.78557         1.14635         5.72691
| 81>    C        3.24450         1.37687         6.98176
| 82>    C        4.01333         1.89147         8.02879
| 83>    C        5.35218         2.19189         7.83582
| 84>    F        3.44939         2.11327         9.21412
| 85>    F        1.95478         1.10363         7.18216
| 86>    C        5.94938         1.37771         4.32111
| 87>    C        5.48660         1.14783         3.05209
| 88>    C        6.20169         1.45619         1.87627
| 89>    N        6.70048         1.76525         0.89046
| 90>    C        4.21228         0.61046         2.77498
| 91>    N        3.22271         0.08610         2.52435
| 92>    H        6.06224        -9.40652        12.29775
| 93>    H        3.68466        -5.77982         9.82079
| 94>    H        6.38311       -10.63030         6.98606
| 95>    H        5.98363        -7.10324         5.42553
| 96>    H        3.78699        -6.17627         5.26035
| 97>    H        2.78223        -4.90544         4.55806
| 98>    H        4.97897        -4.49130         6.65249
| 99>    H        3.00360        -2.56759         5.30806
|100>    H        6.02478        -2.28151         5.54655
|101>    H        4.94091        -1.51578         4.37508
|102>    H        7.18110        -0.97276         4.21179
|103>    H        9.31872         2.12940         4.58783
|104>    H        3.14598         0.75533         4.95246
|105>    H        5.94744         2.59869         8.63779
|106> *
|107>
|108>                          ****END OF INPUT****

CARTESIAN COORDINATES (ANGSTROEM)
---------------------------------
  C      5.572380   -8.630840   11.732040
  C      4.806290   -7.690000   12.403170
  F      4.703580   -7.769730   13.730970
  C      4.134160   -6.668410   11.724770
  F      3.405780   -5.793140   12.417560
  C      4.218410   -6.557860   10.346030
  C      4.988190   -7.493110    9.678140
  C      5.660360   -8.529600   10.351990
  C      6.358250   -9.354540    9.372560
  C      7.263600  -10.339980    9.640310
  C      7.626700  -10.743580   10.945140
  N      7.953470  -11.109370   11.981340
  C      7.992310  -11.041730    8.652530
  N      8.630360  -11.627420    7.900810
  C      5.980180   -8.871410    8.048260
  C      5.251530   -7.590240    8.230720
  O      4.931520   -6.785490    7.383460
  C      6.060510   -9.598880    6.903330
  C      5.658500   -9.225170    5.588520
  C      5.620760   -8.004170    4.969580
  C      5.104680   -8.060300    3.653870
  C      4.893550   -7.029580    2.720290
  C      4.349740   -7.407160    1.486410
  C      4.082360   -8.782480    1.245850
  N      4.294580   -9.754410    2.103370
  C      4.781170   -9.393910    3.272150
  S      5.121900  -10.528710    4.527140
  S      3.419150   -9.075890   -0.334100
  C      3.456950   -7.361890   -0.655560
  C      3.955350   -6.618580    0.362360
  F      4.027770   -5.282200    0.331050
  F      3.009690   -6.905380   -1.815610
  C      5.273200   -5.650160    2.993910
  S      6.462000   -4.891600    1.987840
  C      6.375840   -3.425780    2.912200
  C      5.452380   -3.535630    3.935280
  C      4.832300   -4.804320    3.982270
  C      3.767710   -5.122470    4.983830
  C      3.993680   -4.259110    6.229940
  C      3.021530   -4.566550    7.251020
  N      2.264380   -4.815380    8.069290
  C      3.948200   -2.774760    5.824130
  C      4.040530   -1.927360    6.989470
  N      4.191450   -1.243250    7.892080
  C      5.144050   -2.444980    4.913590
  C      7.202500   -2.324760    2.525310
  C      7.496970   -1.173370    3.206630
  C      8.336220   -0.291970    2.486710
  C      8.827040    0.981650    2.835230
  C      9.701350    1.580770    1.911380
  C      9.979990    0.911360    0.692470
  N      9.504840   -0.265290    0.351460
  C      8.712770   -0.838070    1.228500
  S      7.977230   -2.378080    0.949440
  S     11.021890    1.827140   -0.356740
  C     11.063820    3.107750    0.821130
  C     10.338500    2.853760    1.940580
  F     10.233720    3.709870    2.964870
  F     11.768600    4.202390    0.575570
  C      8.493130    1.649170    4.069980
  C      7.300780    1.750970    4.700400
  C      7.267320    2.233020    6.116900
  O      8.189190    2.696890    6.738490
  C      5.892000    1.963680    6.584850
  C      5.127290    1.436840    5.527180
  C      3.785570    1.146350    5.726910
  C      3.244500    1.376870    6.981760
  C      4.013330    1.891470    8.028790
  C      5.352180    2.191890    7.835820
  F      3.449390    2.113270    9.214120
  F      1.954780    1.103630    7.182160
  C      5.949380    1.377710    4.321110
  C      5.486600    1.147830    3.052090
  C      6.201690    1.456190    1.876270
  N      6.700480    1.765250    0.890460
  C      4.212280    0.610460    2.774980
  N      3.222710    0.086100    2.524350
  H      6.062240   -9.406520   12.297750
  H      3.684660   -5.779820    9.820790
  H      6.383110  -10.630300    6.986060
  H      5.983630   -7.103240    5.425530
  H      3.786990   -6.176270    5.260350
  H      2.782230   -4.905440    4.558060
  H      4.978970   -4.491300    6.652490
  H      3.003600   -2.567590    5.308060
  H      6.024780   -2.281510    5.546550
  H      4.940910   -1.515780    4.375080
  H      7.181100   -0.972760    4.211790
  H      9.318720    2.129400    4.587830
  H      3.145980    0.755330    4.952460
  H      5.947440    2.598690    8.637790

 Total Charge           Charge          ....    0
 Multiplicity           Mult            ....    1
 Number of Electrons    NEL             ....  562
 Basis Dimension        Dim             .... 1168

ORBITAL ENERGIES
----------------

  NO   OCC          E(Eh)            E(eV)
   0   2.0000     -88.986131     -2421.4357
   1   2.0000     -88.983866     -2421.3741
   2   2.0000     -88.978730     -2421.2343
   3   2.0000     -88.977927     -2421.2125
   4   2.0000     -88.973210     -2421.0841
   5   2.0000     -24.823650      -675.4858
   6   2.0000     -24.818558      -675.3473
   7   2.0000     -24.812734      -675.1888
   8   2.0000     -24.810573      -675.1300
   9   2.0000     -24.809778      -675.1084
  10   2.0000     -24.808666      -675.0781
  11   2.0000     -24.807937      -675.0583
  12   2.0000     -24.807553      -675.0478
  13   2.0000     -19.249337      -523.8011
  14   2.0000     -19.234986      -523.4106
  15   2.0000     -14.446442      -393.1077
  16   2.0000     -14.440927      -392.9576
  17   2.0000     -14.438584      -392.8939
  18   2.0000     -14.433955      -392.7679
  19   2.0000     -14.433708      -392.7612
  20   2.0000     -14.431313      -392.6960
  21   2.0000     -14.429352      -392.6426
  22   2.0000     -14.421413      -392.4266
  23   2.0000     -10.405564      -283.1498
  24   2.0000     -10.400302      -283.0066
  25   2.0000     -10.400276      -283.0059
  26   2.0000     -10.400259      -283.0054
  27   2.0000     -10.398371      -282.9540
  28   2.0000     -10.394870      -282.8588
  29   2.0000     -10.394008      -282.8353
  30   2.0000     -10.385001      -282.5902
  31   2.0000     -10.383782      -282.5571
  32   2.0000     -10.377222      -282.3786
  33   2.0000     -10.370811      -282.2041
  34   2.0000     -10.366782      -282.0945
  35   2.0000     -10.365485      -282.0592
  36   2.0000     -10.364434      -282.0306
  37   2.0000     -10.363125      -281.9950
  38   2.0000     -10.361862      -281.9606
  39   2.0000     -10.359667      -281.9009
  40   2.0000     -10.355393      -281.7846
  41   2.0000     -10.352817      -281.7145
  42   2.0000     -10.346293      -281.5370
  43   2.0000     -10.346105      -281.5318
  44   2.0000     -10.343339      -281.4566
  45   2.0000     -10.343183      -281.4523
  46   2.0000     -10.340532      -281.3802
  47   2.0000     -10.339911      -281.3633
  48   2.0000     -10.335506      -281.2434
  49   2.0000     -10.335030      -281.2305
  50   2.0000     -10.334498      -281.2160
  51   2.0000     -10.334131      -281.2060
  52   2.0000     -10.333277      -281.1828
  53   2.0000     -10.333140      -281.1790
  54   2.0000     -10.332046      -281.1493
  55   2.0000     -10.330507      -281.1074
  56   2.0000     -10.329985      -281.0932
  57   2.0000     -10.328321      -281.0479
  58   2.0000     -10.327716      -281.0314
  59   2.0000     -10.326938      -281.0103
  60   2.0000     -10.322490      -280.8892
  61   2.0000     -10.322227      -280.8821
  62   2.0000     -10.321976      -280.8752
  63   2.0000     -10.320348      -280.8310
  64   2.0000     -10.319870      -280.8179
  65   2.0000     -10.319488      -280.8075
  66   2.0000     -10.319220      -280.8003
  67   2.0000     -10.319040      -280.7953
  68   2.0000     -10.317984      -280.7666
  69   2.0000     -10.317071      -280.7418
  70   2.0000     -10.315069      -280.6873
  71   2.0000     -10.314784      -280.6795
  72   2.0000     -10.314202      -280.6637
  73   2.0000     -10.313696      -280.6499
  74   2.0000     -10.312250      -280.6106
  75   2.0000     -10.311895      -280.6009
  76   2.0000     -10.304874      -280.4099
  77   2.0000      -8.083360      -219.9594
  78   2.0000      -8.079411      -219.8520
  79   2.0000      -8.075751      -219.7524
  80   2.0000      -8.074816      -219.7269
  81   2.0000      -8.070051      -219.5973
  82   2.0000      -6.052860      -164.7067
  83   2.0000      -6.049095      -164.6042
  84   2.0000      -6.048712      -164.5938
  85   2.0000      -6.045290      -164.5007
  86   2.0000      -6.044533      -164.4801
  87   2.0000      -6.044209      -164.4713
  88   2.0000      -6.044105      -164.4685
  89   2.0000      -6.041468      -164.3967
  90   2.0000      -6.041429      -164.3957
  91   2.0000      -6.040253      -164.3637
  92   2.0000      -6.039506      -164.3433
  93   2.0000      -6.036568      -164.2634
  94   2.0000      -6.036115      -164.2510
  95   2.0000      -6.035445      -164.2328
  96   2.0000      -6.031316      -164.1205
  97   2.0000      -1.342686       -36.5363
  98   2.0000      -1.337682       -36.4002
  99   2.0000      -1.337070       -36.3835
 100   2.0000      -1.333234       -36.2791
 101   2.0000      -1.321592       -35.9623
 102   2.0000      -1.321428       -35.9579
 103   2.0000      -1.318979       -35.8912
 104   2.0000      -1.318145       -35.8685
 105   2.0000      -1.165268       -31.7085
 106   2.0000      -1.151519       -31.3344
 107   2.0000      -1.095255       -29.8034
 108   2.0000      -1.087677       -29.5972
 109   2.0000      -1.040395       -28.3106
 110   2.0000      -1.039487       -28.2859
 111   2.0000      -1.033812       -28.1315
 112   2.0000      -1.021615       -27.7996
 113   2.0000      -1.020230       -27.7619
 114   2.0000      -1.018143       -27.7051
 115   2.0000      -1.014391       -27.6030
 116   2.0000      -1.013347       -27.5746
 117   2.0000      -1.012072       -27.5399
 118   2.0000      -1.008936       -27.4545
 119   2.0000      -1.004718       -27.3398
 120   2.0000      -0.991583       -26.9823
 121   2.0000      -0.985177       -26.8080
 122   2.0000      -0.974551       -26.5189
 123   2.0000      -0.972959       -26.4756
 124   2.0000      -0.968505       -26.3544
 125   2.0000      -0.950139       -25.8546
 126   2.0000      -0.941383       -25.6163
 127   2.0000      -0.924410       -25.1545
 128   2.0000      -0.918734       -25.0000
 129   2.0000      -0.906646       -24.6711
 130   2.0000      -0.901591       -24.5335
 131   2.0000      -0.888559       -24.1789
 132   2.0000      -0.885331       -24.0911
 133   2.0000      -0.883389       -24.0382
 134   2.0000      -0.878963       -23.9178
 135   2.0000      -0.871686       -23.7198
 136   2.0000      -0.866278       -23.5726
 137   2.0000      -0.863549       -23.4984
 138   2.0000      -0.846472       -23.0337
 139   2.0000      -0.835017       -22.7220
 140   2.0000      -0.830514       -22.5994
 141   2.0000      -0.821513       -22.3545
 142   2.0000      -0.808794       -22.0084
 143   2.0000      -0.803865       -21.8743
 144   2.0000      -0.792345       -21.5608
 145   2.0000      -0.787567       -21.4308
 146   2.0000      -0.775893       -21.1131
 147   2.0000      -0.771924       -21.0051
 148   2.0000      -0.766960       -20.8700
 149   2.0000      -0.751789       -20.4572
 150   2.0000      -0.742085       -20.1932
 151   2.0000      -0.733126       -19.9494
 152   2.0000      -0.730318       -19.8730
 153   2.0000      -0.724503       -19.7147
 154   2.0000      -0.722525       -19.6609
 155   2.0000      -0.719841       -19.5879
 156   2.0000      -0.708380       -19.2760
 157   2.0000      -0.703203       -19.1351
 158   2.0000      -0.700750       -19.0684
 159   2.0000      -0.693436       -18.8694
 160   2.0000      -0.689081       -18.7508
 161   2.0000      -0.681289       -18.5388
 162   2.0000      -0.675103       -18.3705
 163   2.0000      -0.670531       -18.2461
 164   2.0000      -0.668544       -18.1920
 165   2.0000      -0.663633       -18.0584
 166   2.0000      -0.662119       -18.0172
 167   2.0000      -0.662031       -18.0148
 168   2.0000      -0.654822       -17.8186
 169   2.0000      -0.654454       -17.8086
 170   2.0000      -0.642008       -17.4699
 171   2.0000      -0.638931       -17.3862
 172   2.0000      -0.635177       -17.2841
 173   2.0000      -0.629725       -17.1357
 174   2.0000      -0.627269       -17.0688
 175   2.0000      -0.621938       -16.9238
 176   2.0000      -0.618367       -16.8266
 177   2.0000      -0.615258       -16.7420
 178   2.0000      -0.612758       -16.6740
 179   2.0000      -0.611107       -16.6291
 180   2.0000      -0.604278       -16.4432
 181   2.0000      -0.601748       -16.3744
 182   2.0000      -0.601442       -16.3661
 183   2.0000      -0.599494       -16.3131
 184   2.0000      -0.598461       -16.2849
 185   2.0000      -0.593191       -16.1416
 186   2.0000      -0.591223       -16.0880
 187   2.0000      -0.587274       -15.9805
 188   2.0000      -0.583273       -15.8717
 189   2.0000      -0.577134       -15.7046
 190   2.0000      -0.572389       -15.5755
 191   2.0000      -0.569260       -15.4904
 192   2.0000      -0.567373       -15.4390
 193   2.0000      -0.565135       -15.3781
 194   2.0000      -0.562935       -15.3183
 195   2.0000      -0.562487       -15.3061
 196   2.0000      -0.560982       -15.2651
 197   2.0000      -0.560294       -15.2464
 198   2.0000      -0.560229       -15.2446
 199   2.0000      -0.558592       -15.2001
 200   2.0000      -0.556715       -15.1490
 201   2.0000      -0.553996       -15.0750
 202   2.0000      -0.553416       -15.0592
 203   2.0000      -0.550123       -14.9696
 204   2.0000      -0.548694       -14.9307
 205   2.0000      -0.546102       -14.8602
 206   2.0000      -0.542306       -14.7569
 207   2.0000      -0.540712       -14.7135
 208   2.0000      -0.538031       -14.6406
 209   2.0000      -0.535667       -14.5762
 210   2.0000      -0.533214       -14.5095
 211   2.0000      -0.530946       -14.4478
 212   2.0000      -0.523556       -14.2467
 213   2.0000      -0.521919       -14.2021
 214   2.0000      -0.515677       -14.0323
 215   2.0000      -0.514094       -13.9892
 216   2.0000      -0.511720       -13.9246
 217   2.0000      -0.511407       -13.9161
 218   2.0000      -0.508959       -13.8495
 219   2.0000      -0.506020       -13.7695
 220   2.0000      -0.505696       -13.7607
 221   2.0000      -0.499647       -13.5961
 222   2.0000      -0.499255       -13.5854
 223   2.0000      -0.495642       -13.4871
 224   2.0000      -0.491833       -13.3835
 225   2.0000      -0.491106       -13.3637
 226   2.0000      -0.489817       -13.3286
 227   2.0000      -0.487515       -13.2660
 228   2.0000      -0.481457       -13.1011
 229   2.0000      -0.480408       -13.0726
 230   2.0000      -0.475255       -12.9323
 231   2.0000      -0.473003       -12.8711
 232   2.0000      -0.471929       -12.8418
 233   2.0000      -0.471287       -12.8244
 234   2.0000      -0.466780       -12.7017
 235   2.0000      -0.465972       -12.6797
 236   2.0000      -0.465105       -12.6562
 237   2.0000      -0.463419       -12.6103
 238   2.0000      -0.460494       -12.5307
 239   2.0000      -0.459874       -12.5138
 240   2.0000      -0.459435       -12.5019
 241   2.0000      -0.455604       -12.3976
 242   2.0000      -0.454053       -12.3554
 243   2.0000      -0.453080       -12.3289
 244   2.0000      -0.451691       -12.2911
 245   2.0000      -0.450031       -12.2460
 246   2.0000      -0.447565       -12.1789
 247   2.0000      -0.445146       -12.1130
 248   2.0000      -0.445081       -12.1113
 249   2.0000      -0.443888       -12.0788
 250   2.0000      -0.441373       -12.0104
 251   2.0000      -0.439244       -11.9524
 252   2.0000      -0.435903       -11.8615
 253   2.0000      -0.435418       -11.8483
 254   2.0000      -0.429443       -11.6858
 255   2.0000      -0.426349       -11.6015
 256   2.0000      -0.424419       -11.5490
 257   2.0000      -0.420847       -11.4518
 258   2.0000      -0.419597       -11.4178
 259   2.0000      -0.417102       -11.3499
 260   2.0000      -0.412912       -11.2359
 261   2.0000      -0.408749       -11.1226
 262   2.0000      -0.396975       -10.8022
 263   2.0000      -0.375261       -10.2114
 264   2.0000      -0.373756       -10.1704
 265   2.0000      -0.368691       -10.0326
 266   2.0000      -0.367540       -10.0013
 267   2.0000      -0.363009        -9.8780
 268   2.0000      -0.360842        -9.8190
 269   2.0000      -0.357585        -9.7304
 270   2.0000      -0.351149        -9.5552
 271   2.0000      -0.349966        -9.5231
 272   2.0000      -0.346651        -9.4328
 273   2.0000      -0.345827        -9.4104
 274   2.0000      -0.338309        -9.2059
 275   2.0000      -0.331018        -9.0075
 276   2.0000      -0.323105        -8.7921
 277   2.0000      -0.310108        -8.4385
 278   2.0000      -0.302749        -8.2382
 279   2.0000      -0.292577        -7.9614
 280   2.0000      -0.281721        -7.6660
 281   0.0000      -0.111684        -3.0391
 282   0.0000      -0.107677        -2.9300
 283   0.0000      -0.085205        -2.3186
 284   0.0000      -0.077055        -2.0968
 285   0.0000      -0.059475        -1.6184

MULLIKEN ATOMIC CHARGES
-----------------------
   0 C :   -0.088708
   1 C :    0.234805
   2 F :   -0.157811
   3 C :    0.231289
   4 F :   -0.154857
   5 C :   -0.086504
   6 C :   -0.003828
   7 C :    0.051969
   8 C :    0.267877
   9 C :   -0.321134
  10 C :   -0.189387
  11 N :    0.172841
  12 C :   -0.205436
  13 N :    0.178025
  14 C :   -0.079350
  15 C :    0.169883
  16 O :   -0.167465
  17 C :    0.042648
  18 C :   -0.110147
  19 C :    0.038642
  20 C :    0.057704
  21 C :    0.051631
  22 C :    0.038193
  23 C :   -0.162767
  24 N :    0.000168
  25 C :   -0.136460
  26 S :    0.160143
  27 S :    0.147938
  28 C :    0.065472
  29 C :    0.224347
  30 F :   -0.168233
  31 F :   -0.141816
  32 C :   -0.247811
  33 S :    0.189407
  34 C :   -0.081331
  35 C :   -0.111894
  36 C :   -0.010225
  37 C :    0.240233
  38 C :   -0.150464
  39 C :   -0.189223
  40 N :    0.124961
  41 C :   -0.044558
  42 C :   -0.239853
  43 N :    0.127287
  44 C :    0.172744
  45 C :   -0.051964
  46 C :   -0.057159
  47 C :    0.067160
  48 C :    0.038484
  49 C :    0.086059
  50 C :   -0.165882
  51 N :    0.013301
  52 C :   -0.133471
  53 S :    0.149324
  54 S :    0.146478
  55 C :    0.065688
  56 C :    0.220823
  57 F :   -0.173764
  58 F :   -0.142853
  59 C :   -0.015731
  60 C :   -0.107165
  61 C :    0.133731
  62 O :   -0.120131
  63 C :    0.006404
  64 C :    0.052672
  65 C :   -0.117563
  66 C :    0.248309
  67 C :    0.265327
  68 C :   -0.101736
  69 F :   -0.156614
  70 F :   -0.158382
  71 C :    0.238375
  72 C :   -0.312493
  73 C :   -0.177944
  74 N :    0.177986
  75 C :   -0.192902
  76 N :    0.151395
  77 H :    0.020215
  78 H :    0.007420
  79 H :    0.033632
  80 H :    0.010082
  81 H :    0.039058
  82 H :    0.026462
  83 H :    0.053339
  84 H :    0.055237
  85 H :    0.049882
  86 H :    0.036853
  87 H :   -0.012280
  88 H :    0.044718
  89 H :    0.005297
  90 H :    0.015383
Sum of atomic charges:   -0.0000000

LOEWDIN ATOMIC CHARGES
----------------------
   0 C :   -0.018047
   1 C :    0.078710
   2 F :   -0.036496
   3 C :    0.074476
   4 F :   -0.034001
   5 C :    0.004675
   6 C :   -0.048259
   7 C :   -0.014512
   8 C :    0.071819
   9 C :   -0.123263
  10 C :   -0.020738
  11 N :   -0.033885
  12 C :   -0.026810
  13 N :   -0.034022
  14 C :   -0.076644
  15 C :    0.099820
  16 O :   -0.135449
  17 C :    0.049817
  18 C :   -0.163015
  19 C :   -0.007077
  20 C :   -0.065810
  21 C :   -0.007133
  22 C :   -0.081422
  23 C :   -0.123043
  24 N :   -0.090199
  25 C :   -0.127589
  26 S :    0.433982
  27 S :    0.425762
  28 C :   -0.093628
  29 C :   -0.003997
  30 F :   -0.048114
  31 F :   -0.032773
  32 C :   -0.175864
  33 S :    0.473081
  34 C :   -0.187443
  35 C :   -0.052319
  36 C :   -0.053359
  37 C :   -0.000783
  38 C :   -0.035355
  39 C :   -0.018758
  40 N :   -0.061443
  41 C :   -0.031028
  42 C :   -0.022127
  43 N :   -0.056922
  44 C :   -0.008623
  45 C :   -0.151812
  46 C :   -0.066967
  47 C :   -0.053285
  48 C :   -0.016013
  49 C :   -0.062619
  50 C :   -0.126206
  51 N :   -0.075149
  52 C :   -0.127424
  53 S :    0.424864
  54 S :    0.428013
  55 C :   -0.090811
  56 C :    0.000688
  57 F :   -0.046782
  58 F :   -0.033864
  59 C :    0.074526
  60 C :   -0.080415
  61 C :    0.084657
  62 O :   -0.121659
  63 C :   -0.047893
  64 C :   -0.018967
  65 C :   -0.030088
  66 C :    0.083056
  67 C :    0.083558
  68 C :    0.003176
  69 F :   -0.032177
  70 F :   -0.035056
  71 C :    0.059865
  72 C :   -0.126920
  73 C :   -0.015552
  74 N :   -0.035576
  75 C :   -0.018664
  76 N :   -0.047348
  77 H :    0.052660
  78 H :    0.053519
  79 H :    0.047547
  80 H :    0.035062
  81 H :    0.042169
  82 H :    0.043664
  83 H :    0.056364
  84 H :    0.060655
  85 H :    0.043115
  86 H :    0.042591
  87 H :    0.027779
  88 H :    0.051853
  89 H :    0.045534
  90 H :    0.054138

  Mayer bond orders larger than 0.100000
B(  0-C ,  1-C ) :   1.3408 B(  0-C ,  5-C ) :   0.1025 B(  0-C ,  7-C ) :   1.3138
B(  0-C , 77-H ) :   0.9934 B(  1-C ,  2-F ) :   1.1514 B(  1-C ,  3-C ) :   1.2738
B(  3-C ,  4-F ) :   1.1506 B(  3-C ,  5-C ) :   1.3345 B(  5-C ,  6-C ) :   1.3120
B(  5-C , 78-H ) :   1.0120 B(  6-C ,  7-C ) :   1.3241 B(  6-C , 15-C ) :   0.9685
B(  7-C ,  8-C ) :   1.0211 B(  8-C ,  9-C ) :   1.6836 B(  8-C , 14-C ) :   1.0343
B(  9-C , 10-C ) :   1.1323 B(  9-C , 12-C ) :   1.1328 B( 10-C , 11-N ) :   2.9915
B( 12-C , 13-N ) :   3.0099 B( 14-C , 15-C ) :   0.9553 B( 14-C , 17-C ) :   1.6783
B( 15-C , 16-O ) :   2.1118 B( 17-C , 18-C ) :   1.1311 B( 17-C , 79-H ) :   0.9318
B( 18-C , 19-C ) :   1.5375 B( 18-C , 26-S ) :   1.0677 B( 19-C , 20-C ) :   1.1852
B( 19-C , 80-H ) :   0.9819 B( 20-C , 21-C ) :   1.3487 B( 20-C , 25-C ) :   1.1835
B( 21-C , 22-C ) :   1.4173 B( 21-C , 32-C ) :   0.9723 B( 22-C , 23-C ) :   1.1520
B( 22-C , 29-C ) :   1.0709 B( 23-C , 24-N ) :   1.5672 B( 23-C , 27-S ) :   1.0876
B( 24-N , 25-C ) :   1.5340 B( 25-C , 26-S ) :   1.1019 B( 27-S , 28-C ) :   1.0749
B( 28-C , 29-C ) :   1.5143 B( 28-C , 31-F ) :   1.1496 B( 29-C , 30-F ) :   1.1437
B( 32-C , 33-S ) :   1.1544 B( 32-C , 34-C ) :   0.1250 B( 32-C , 36-C ) :   1.5637
B( 33-S , 34-C ) :   1.1346 B( 34-C , 35-C ) :   1.5706 B( 34-C , 45-C ) :   1.1088
B( 35-C , 36-C ) :   1.2848 B( 35-C , 44-C ) :   1.0590 B( 36-C , 37-C ) :   1.0774
B( 37-C , 38-C ) :   1.0940 B( 37-C , 81-H ) :   0.8959 B( 37-C , 82-H ) :   0.8686
B( 38-C , 39-C ) :   1.1171 B( 38-C , 41-C ) :   1.0398 B( 38-C , 83-H ) :   0.8668
B( 39-C , 40-N ) :   3.0009 B( 41-C , 42-C ) :   1.0663 B( 41-C , 44-C ) :   1.0743
B( 41-C , 84-H ) :   0.8493 B( 42-C , 43-N ) :   3.0680 B( 44-C , 85-H ) :   0.8908
B( 44-C , 86-H ) :   0.8968 B( 45-C , 46-C ) :   1.5552 B( 45-C , 53-S ) :   1.0867
B( 46-C , 47-C ) :   1.1904 B( 46-C , 87-H ) :   0.9819 B( 47-C , 48-C ) :   1.3140
B( 47-C , 52-C ) :   1.1883 B( 48-C , 49-C ) :   1.3702 B( 48-C , 59-C ) :   1.0149
B( 49-C , 50-C ) :   1.1764 B( 49-C , 56-C ) :   1.0911 B( 50-C , 51-N ) :   1.5512
B( 50-C , 54-S ) :   1.0779 B( 51-N , 52-C ) :   1.5656 B( 52-C , 53-S ) :   1.0797
B( 54-S , 55-C ) :   1.0893 B( 55-C , 56-C ) :   1.5014 B( 55-C , 58-F ) :   1.1500
B( 56-C , 57-F ) :   1.1261 B( 59-C , 60-C ) :   1.7511 B( 59-C , 88-H ) :   0.9292
B( 60-C , 61-C ) :   0.9167 B( 60-C , 71-C ) :   1.0168 B( 61-C , 62-O ) :   2.2885
B( 61-C , 63-C ) :   0.9360 B( 63-C , 64-C ) :   1.3369 B( 63-C , 68-C ) :   1.3179
B( 64-C , 65-C ) :   1.2974 B( 64-C , 71-C ) :   1.0440 B( 65-C , 66-C ) :   1.3416
B( 65-C , 68-C ) :   0.1012 B( 65-C , 89-H ) :   0.9968 B( 66-C , 67-C ) :   1.2824
B( 66-C , 70-F ) :   1.1519 B( 67-C , 68-C ) :   1.3225 B( 67-C , 69-F ) :   1.1458
B( 68-C , 90-H ) :   1.0173 B( 71-C , 72-C ) :   1.6476 B( 72-C , 73-C ) :   1.1706
B( 72-C , 75-C ) :   1.1271 B( 73-C , 74-N ) :   2.9826 B( 75-C , 76-N ) :   2.9567

-----------------------------------------------------------------------------
         ABSORPTION SPECTRUM VIA TRANSITION ELECTRIC DIPOLE MOMENTS
-----------------------------------------------------------------------------
State   Energy  Wavelength   fosc         T2         TX        TY        TZ
        (cm-1)    (nm)                  (au**2)     (au)      (au)      (au)
-----------------------------------------------------------------------------
   0   19540.4    511.8   0.226913540   3.82298  -0.50352   1.80152   0.56920
   1   22188.6    450.7   0.408580793   6.06212  -1.18701  -1.42439   1.61995
   2   22799.7    438.6   0.142404303   2.05622   0.50555  -0.66606   1.16490
   3   26235.5    381.2   0.543436380   6.81922  -0.89837  -0.04594  -2.45154
   4   26914.4    371.5   0.087957696   1.07588  -0.18651   0.27719  -0.98197
   5   27539.6    363.1   0.036980964   0.44207  -0.29356  -0.59215   0.07250
   6   27656.1    361.6   0.079921614   0.95137  -0.22147  -0.81728  -0.48413
   7   28747.2    347.9   0.103277983   1.18274  -0.12008  -0.07214  -1.07848
   8   29581.9    338.0   0.087210918   0.97055  -0.58275  -0.77618   0.16886
   9   29887.4    334.6   0.096537189   1.06337  -0.39315  -0.53052   0.79205
  10   30401.1    328.9   0.138422839   1.49898   0.45243  -0.60571  -0.96301
  11   30674.9    326.0   0.033156371   0.35584   0.32319   0.49815  -0.05693
  12   30927.5    323.3   0.112897754   1.20176   0.58633   0.27617  -0.88414
  13   31300.0    319.5   0.138051021   1.45202   0.27409  -1.12048   0.34844
  14   31857.9    313.9   0.020093987   0.20765  -0.08799   0.12375   0.42964
  15   32031.5    312.2   0.084931287   0.87290   0.62750   0.51757   0.45964
  16   32163.7    310.9   0.176765684   1.80928  -0.03679  -0.12761  -1.33852
  17   32507.9    307.6   0.527337606   5.34041  -1.32981  -1.70936  -0.80629
  18   33060.9    302.5   0.021029029   0.20940  -0.20733  -0.21772  -0.34498
  19   33636.1    297.3   0.005211253   0.05100   0.20480  -0.01683  -0.09370
  20   33788.8    296.0   0.036725398   0.35782   0.46921  -0.19250   0.31720
  21   33944.2    294.6   0.013028499   0.12636   0.30495   0.09192  -0.15784
  22   34603.4    289.0   0.018448081   0.17551  -0.01588  -0.40174  -0.11774
  23   34827.2    287.1   0.100991214   0.95464  -0.12297  -0.91177   0.32894
  24   34851.0    286.9   0.058675536   0.55426   0.30413  -0.64223  -0.22207
  25   35085.6    285.0   0.033346825   0.31290  -0.18573   0.32019   0.41938
  26   35167.2    284.4   0.172839073   1.61801  -0.13148  -1.05515  -0.69813
  27   35342.4    282.9   0.307812806   2.86725  -1.00814   1.27674  -0.46991
  28   35559.8    281.2   0.458262064   4.24258  -0.77868   0.09469   1.90454
  29   35719.6    280.0   0.019750486   0.18203   0.35045  -0.24096   0.03398
  30   36228.0    276.0   0.029723316   0.27010  -0.36046  -0.35084   0.13071
  31   36333.7    275.2   0.101652574   0.92105   0.06748  -0.85380  -0.43304
  32   36335.7    275.2   0.181751502   1.64672  -1.02538   0.52091  -0.56919
  33   36419.3    274.6   0.038335330   0.34653   0.54987   0.20817  -0.02890
  34   36656.3    272.8   0.307101304   2.75809   0.71579   0.12856  -1.49305
  35   36745.9    272.1   0.008882922   0.07958   0.21022   0.11627   0.14789
  36   37181.3    269.0   0.041877569   0.37079   0.24882  -0.12325  -0.54193
  37   38008.7    263.1   0.022255033   0.19276   0.15703   0.22163   0.34494
  38   38602.8    259.0   0.023172081   0.19762   0.08099   0.07812  -0.43006
  39   39126.3    255.6   0.036369698   0.30602   0.09875   0.53030   0.12268
  40   39164.7    255.3   0.001853242   0.01558   0.00644  -0.05393  -0.11238
  41   39337.0    254.2   0.075615164   0.63282   0.06020  -0.72314   0.32600
  42   39996.1    250.0   0.249265097   2.05173  -0.75989  -0.03333  -1.21375
  43   40022.1    249.9   0.155825290   1.28178   0.55338   0.23826  -0.95853
  44   40252.1    248.4   0.436147725   3.56714   1.48225   0.22785  -1.14811

FINAL SINGLE POINT ENERGY     -5439.428793638725

DIPOLE MOMENT
-------------
                                X             Y             Z
Electronic contribution:      4.71585      12.28587     -15.59510
Nuclear contribution   :     -4.85744     -12.52934      14.79882
                        -----------------------------------------
Total Dipole Moment    :     -0.14159      -0.24348      -0.79628
                        -----------------------------------------
Magnitude (a.u.)       :      0.84463
Magnitude (Debye)      :      2.14688

Rotational constants in cm-1:     0.000926     0.000498     0.000399
Rotational constants in MHz :    27.774024    14.933124    11.955764

                             ****ORCA TERMINATED NORMALLY****
TOTAL RUN TIME: 0 days 0 hours 10 minutes 28 seconds 353 msec
