                         Program Version 4.2.0 -  RELEASE  -
|  1> # ORCA input file
|  2> # SCF done       -200.977009849239          0.000772923605
|  3> ! CAM-B3LYP def2-SVP def2/J RIJCOSX Grid4 TightSCF
|  4> %maxcore 5000
|  5> %tddft
|  6>     Mode sTDDFT
|  7>     Ethresh 5.0
|  8>     maxcore 5000
|  9> end
| 10>
| 11> %pal
| 12>   nprocs 6
| 13>   end
| 14> * xyz 0 1
| 15>    C       -3.13327        -2.37645        -5.29786
| 16>    C       -2.84788        -1.65840        -6.45077
| 17>    F       -3.82029        -0.94341        -7.02383
| 18>    C       -1.57591        -1.66681        -7.02526
| 19>    F       -1.34626        -0.95686        -8.13441
| 20>    C       -0.54872        -2.40437        -6.45808
| 21>    C       -0.83421        -3.11862        -5.31112
| 22>    C       -2.11110        -3.11392        -4.72331
| 23>    C       -2.07649        -3.95662        -3.52931
| 24>    C       -3.09244        -4.10631        -2.62375
| 25>    C       -4.36814        -3.51965        -2.76600
| 26>    N       -5.42280        -3.07364        -2.83663
| 27>    C       -2.98724        -4.82945        -1.41581
| 28>    N       -2.95606        -5.37672        -0.40721
| 29>    C       -0.74608        -4.52637        -3.43422
| 30>    C        0.06569        -3.98097        -4.52391
| 31>    O        1.23349        -4.22971        -4.78348
| 32>    C       -0.40246        -5.58509        -2.62737
| 33>    C        0.84712        -6.17759        -2.37062
| 34>    S        0.78696        -7.90150        -2.04522
| 35>    C        2.50581        -7.97958        -1.82181
| 36>    C        3.07588        -6.71152        -1.90615
| 37>    C        2.15330        -5.70408        -2.22245
| 38>    C        2.54146        -4.25824        -2.18943
| 39>    C        4.05609        -4.06955        -2.26056
| 40>    C        4.72251        -4.36423        -3.61207
| 41>    O        5.92179        -4.35651        -3.70288
| 42>    O        3.97060        -4.65452        -4.66108
| 43>    C        4.75261        -4.97684        -1.22110
| 44>    O        4.34319        -4.71198         0.09401
| 45>    C        4.51905        -6.44028        -1.61851
| 46>    C        3.12858        -9.23644        -1.60878
| 47>    N        2.38795       -10.33735        -1.22468
| 48>    C        3.21572       -11.40922        -1.14342
| 49>    C        3.27388       -12.76653        -0.84997
| 50>    C        4.60762       -13.14856        -1.05083
| 51>    N        5.34243       -12.05031        -1.45138
| 52>    C        4.51772       -10.97440        -1.50676
| 53>    C        4.46657        -9.61384        -1.78883
| 54>    C        5.22173       -14.42169        -0.93130
| 55>    C        4.60924       -15.51749        -0.41563
| 56>    C        5.13421       -16.83098        -0.30518
| 57>    S        4.27245       -17.93972         0.72660
| 58>    C        5.38541       -19.23053         0.36255
| 59>    C        6.37834       -18.79409        -0.50462
| 60>    C        6.22010       -17.45984        -0.90808
| 61>    C        7.11794       -16.82301        -1.92396
| 62>    C        8.03524       -17.82059        -2.64356
| 63>    C        7.43238       -18.49963        -3.87689
| 64>    O        8.12657       -18.75968        -4.82091
| 65>    O        6.13922       -18.79679        -3.89102
| 66>    C        8.58084       -18.89289        -1.67258
| 67>    O        9.39259       -18.32034        -0.67898
| 68>    C        7.42980       -19.69828        -1.06009
| 69>    C        5.21716       -20.53454         0.88241
| 70>    C        4.03733       -21.15974         1.15451
| 71>    C        3.98994       -22.31789         2.08315
| 72>    O        4.92811       -22.93640         2.52478
| 73>    C        2.55088       -22.50420         2.38368
| 74>    C        1.78776       -21.62017         1.59895
| 75>    C        0.40830       -21.59290         1.72326
| 76>    C       -0.17810       -22.45591         2.63728
| 77>    C        0.58447       -23.33694         3.40608
| 78>    C        1.96502       -23.37019         3.28547
| 79>    F       -0.02414       -24.15519         4.27048
| 80>    F       -1.50599       -22.43719         2.78572
| 81>    C        2.68761       -20.87006         0.72429
| 82>    C        2.32217       -20.23777        -0.43825
| 83>    C        3.25163       -19.76537        -1.38386
| 84>    N        3.99784       -19.39647        -2.17630
| 85>    C        0.98548       -20.04529        -0.84379
| 86>    N       -0.08404       -19.84028        -1.20443
| 87>    H       -4.13253        -2.34057        -4.89593
| 88>    H        0.43428        -2.41495        -6.90155
| 89>    H       -1.23065        -6.12315        -2.17799
| 90>    H        2.18200        -3.82775        -1.24656
| 91>    H        2.05149        -3.69140        -2.97832
| 92>    H        4.29707        -3.02928        -2.01712
| 93>    H        3.00378        -4.57219        -4.55578
| 94>    H        5.82546        -4.76457        -1.23687
| 95>    H        3.43384        -5.01126         0.20864
| 96>    H        4.86206        -7.08916        -0.80941
| 97>    H        5.12061        -6.65546        -2.50520
| 98>    H        1.40056       -10.31845        -1.03266
| 99>    H        2.47263       -13.41063        -0.55172
|100>    H        6.32676       -12.06210        -1.65693
|101>    H        5.26349        -8.98531        -2.12485
|102>    H        6.24744       -14.47376        -1.26277
|103>    H        3.61234       -15.39844        -0.01432
|104>    H        7.75508       -16.08513        -1.42419
|105>    H        6.51294       -16.28323        -2.65890
|106>    H        8.90635       -17.27724        -3.02460
|107>    H        5.62174       -18.67357        -3.07429
|108>    H        9.24534       -19.56164        -2.22879
|109>    H        8.83903       -17.80268        -0.08252
|110>    H        7.82817       -20.34362        -0.27311
|111>    H        6.98941       -20.34984        -1.82030
|112>    H        6.11661       -21.08403         1.14298
|113>    H       -0.21958       -20.92734         1.15342
|114>    H        2.55457       -24.05138         3.87815
|115> *
|116>
|117>                          ****END OF INPUT****

CARTESIAN COORDINATES (ANGSTROEM)
---------------------------------
  C     -3.133270   -2.376450   -5.297860
  C     -2.847880   -1.658400   -6.450770
  F     -3.820290   -0.943410   -7.023830
  C     -1.575910   -1.666810   -7.025260
  F     -1.346260   -0.956860   -8.134410
  C     -0.548720   -2.404370   -6.458080
  C     -0.834210   -3.118620   -5.311120
  C     -2.111100   -3.113920   -4.723310
  C     -2.076490   -3.956620   -3.529310
  C     -3.092440   -4.106310   -2.623750
  C     -4.368140   -3.519650   -2.766000
  N     -5.422800   -3.073640   -2.836630
  C     -2.987240   -4.829450   -1.415810
  N     -2.956060   -5.376720   -0.407210
  C     -0.746080   -4.526370   -3.434220
  C      0.065690   -3.980970   -4.523910
  O      1.233490   -4.229710   -4.783480
  C     -0.402460   -5.585090   -2.627370
  C      0.847120   -6.177590   -2.370620
  S      0.786960   -7.901500   -2.045220
  C      2.505810   -7.979580   -1.821810
  C      3.075880   -6.711520   -1.906150
  C      2.153300   -5.704080   -2.222450
  C      2.541460   -4.258240   -2.189430
  C      4.056090   -4.069550   -2.260560
  C      4.722510   -4.364230   -3.612070
  O      5.921790   -4.356510   -3.702880
  O      3.970600   -4.654520   -4.661080
  C      4.752610   -4.976840   -1.221100
  O      4.343190   -4.711980    0.094010
  C      4.519050   -6.440280   -1.618510
  C      3.128580   -9.236440   -1.608780
  N      2.387950  -10.337350   -1.224680
  C      3.215720  -11.409220   -1.143420
  C      3.273880  -12.766530   -0.849970
  C      4.607620  -13.148560   -1.050830
  N      5.342430  -12.050310   -1.451380
  C      4.517720  -10.974400   -1.506760
  C      4.466570   -9.613840   -1.788830
  C      5.221730  -14.421690   -0.931300
  C      4.609240  -15.517490   -0.415630
  C      5.134210  -16.830980   -0.305180
  S      4.272450  -17.939720    0.726600
  C      5.385410  -19.230530    0.362550
  C      6.378340  -18.794090   -0.504620
  C      6.220100  -17.459840   -0.908080
  C      7.117940  -16.823010   -1.923960
  C      8.035240  -17.820590   -2.643560
  C      7.432380  -18.499630   -3.876890
  O      8.126570  -18.759680   -4.820910
  O      6.139220  -18.796790   -3.891020
  C      8.580840  -18.892890   -1.672580
  O      9.392590  -18.320340   -0.678980
  C      7.429800  -19.698280   -1.060090
  C      5.217160  -20.534540    0.882410
  C      4.037330  -21.159740    1.154510
  C      3.989940  -22.317890    2.083150
  O      4.928110  -22.936400    2.524780
  C      2.550880  -22.504200    2.383680
  C      1.787760  -21.620170    1.598950
  C      0.408300  -21.592900    1.723260
  C     -0.178100  -22.455910    2.637280
  C      0.584470  -23.336940    3.406080
  C      1.965020  -23.370190    3.285470
  F     -0.024140  -24.155190    4.270480
  F     -1.505990  -22.437190    2.785720
  C      2.687610  -20.870060    0.724290
  C      2.322170  -20.237770   -0.438250
  C      3.251630  -19.765370   -1.383860
  N      3.997840  -19.396470   -2.176300
  C      0.985480  -20.045290   -0.843790
  N     -0.084040  -19.840280   -1.204430
  H     -4.132530   -2.340570   -4.895930
  H      0.434280   -2.414950   -6.901550
  H     -1.230650   -6.123150   -2.177990
  H      2.182000   -3.827750   -1.246560
  H      2.051490   -3.691400   -2.978320
  H      4.297070   -3.029280   -2.017120
  H      3.003780   -4.572190   -4.555780
  H      5.825460   -4.764570   -1.236870
  H      3.433840   -5.011260    0.208640
  H      4.862060   -7.089160   -0.809410
  H      5.120610   -6.655460   -2.505200
  H      1.400560  -10.318450   -1.032660
  H      2.472630  -13.410630   -0.551720
  H      6.326760  -12.062100   -1.656930
  H      5.263490   -8.985310   -2.124850
  H      6.247440  -14.473760   -1.262770
  H      3.612340  -15.398440   -0.014320
  H      7.755080  -16.085130   -1.424190
  H      6.512940  -16.283230   -2.658900
  H      8.906350  -17.277240   -3.024600
  H      5.621740  -18.673570   -3.074290
  H      9.245340  -19.561640   -2.228790
  H      8.839030  -17.802680   -0.082520
  H      7.828170  -20.343620   -0.273110
  H      6.989410  -20.349840   -1.820300
  H      6.116610  -21.084030    1.142980
  H     -0.219580  -20.927340    1.153420
  H      2.554570  -24.051380    3.878150

 Total Charge           Charge          ....    0
 Multiplicity           Mult            ....    1
 Number of Electrons    NEL             ....  514
 Basis Dimension        Dim             .... 1156

ORBITAL ENERGIES
----------------

  NO   OCC          E(Eh)            E(eV)
   0   2.0000     -88.983604     -2421.3670
   1   2.0000     -88.982186     -2421.3284
   2   2.0000     -24.811676      -675.1600
   3   2.0000     -24.811218      -675.1476
   4   2.0000     -24.810880      -675.1384
   5   2.0000     -24.810169      -675.1190
   6   2.0000     -19.244789      -523.6773
   7   2.0000     -19.244407      -523.6669
   8   2.0000     -19.242908      -523.6262
   9   2.0000     -19.231609      -523.3187
  10   2.0000     -19.225728      -523.1586
  11   2.0000     -19.221077      -523.0321
  12   2.0000     -19.184644      -522.0407
  13   2.0000     -19.182783      -521.9901
  14   2.0000     -14.483763      -394.1232
  15   2.0000     -14.483337      -394.1116
  16   2.0000     -14.440879      -392.9563
  17   2.0000     -14.430645      -392.6778
  18   2.0000     -14.428907      -392.6305
  19   2.0000     -14.427507      -392.5924
  20   2.0000     -10.398199      -282.9494
  21   2.0000     -10.397695      -282.9357
  22   2.0000     -10.397506      -282.9305
  23   2.0000     -10.396959      -282.9156
  24   2.0000     -10.393773      -282.8289
  25   2.0000     -10.391149      -282.7575
  26   2.0000     -10.388176      -282.6767
  27   2.0000     -10.383304      -282.5441
  28   2.0000     -10.361446      -281.9493
  29   2.0000     -10.360457      -281.9224
  30   2.0000     -10.358035      -281.8565
  31   2.0000     -10.356080      -281.8033
  32   2.0000     -10.346500      -281.5426
  33   2.0000     -10.342087      -281.4225
  34   2.0000     -10.341351      -281.4025
  35   2.0000     -10.338673      -281.3296
  36   2.0000     -10.336978      -281.2835
  37   2.0000     -10.335959      -281.2557
  38   2.0000     -10.335754      -281.2502
  39   2.0000     -10.333200      -281.1807
  40   2.0000     -10.332987      -281.1749
  41   2.0000     -10.331388      -281.1314
  42   2.0000     -10.330771      -281.1146
  43   2.0000     -10.329991      -281.0933
  44   2.0000     -10.329648      -281.0840
  45   2.0000     -10.328820      -281.0615
  46   2.0000     -10.326384      -280.9952
  47   2.0000     -10.325645      -280.9751
  48   2.0000     -10.321009      -280.8489
  49   2.0000     -10.321009      -280.8489
  50   2.0000     -10.320877      -280.8453
  51   2.0000     -10.320475      -280.8344
  52   2.0000     -10.320257      -280.8285
  53   2.0000     -10.319616      -280.8110
  54   2.0000     -10.318525      -280.7813
  55   2.0000     -10.315833      -280.7081
  56   2.0000     -10.315396      -280.6962
  57   2.0000     -10.315206      -280.6910
  58   2.0000     -10.314799      -280.6800
  59   2.0000     -10.313042      -280.6321
  60   2.0000     -10.312482      -280.6169
  61   2.0000     -10.308724      -280.5146
  62   2.0000     -10.306762      -280.4613
  63   2.0000     -10.305510      -280.4272
  64   2.0000     -10.302657      -280.3496
  65   2.0000     -10.295116      -280.1443
  66   2.0000     -10.294664      -280.1320
  67   2.0000     -10.292870      -280.0832
  68   2.0000     -10.289806      -279.9999
  69   2.0000     -10.289689      -279.9967
  70   2.0000     -10.289367      -279.9879
  71   2.0000     -10.284146      -279.8458
  72   2.0000      -8.079577      -219.8565
  73   2.0000      -8.077268      -219.7936
  74   2.0000      -6.048879      -164.5984
  75   2.0000      -6.046542      -164.5348
  76   2.0000      -6.044881      -164.4896
  77   2.0000      -6.042513      -164.4251
  78   2.0000      -6.041421      -164.3954
  79   2.0000      -6.039326      -164.3384
  80   2.0000      -1.335663       -36.3452
  81   2.0000      -1.334817       -36.3222
  82   2.0000      -1.320367       -35.9290
  83   2.0000      -1.319540       -35.9065
  84   2.0000      -1.172872       -31.9155
  85   2.0000      -1.169475       -31.8230
  86   2.0000      -1.156340       -31.4656
  87   2.0000      -1.147404       -31.2224
  88   2.0000      -1.119545       -30.4644
  89   2.0000      -1.117009       -30.3954
  90   2.0000      -1.114500       -30.3271
  91   2.0000      -1.082914       -29.4676
  92   2.0000      -1.081214       -29.4213
  93   2.0000      -1.080555       -29.4034
  94   2.0000      -1.041322       -28.3358
  95   2.0000      -1.034942       -28.1622
  96   2.0000      -1.021880       -27.8068
  97   2.0000      -1.017674       -27.6923
  98   2.0000      -1.017370       -27.6841
  99   2.0000      -1.015508       -27.6334
 100   2.0000      -1.010702       -27.5026
 101   2.0000      -1.006682       -27.3932
 102   2.0000      -0.972686       -26.4681
 103   2.0000      -0.970918       -26.4200
 104   2.0000      -0.937434       -25.5089
 105   2.0000      -0.931921       -25.3588
 106   2.0000      -0.931727       -25.3536
 107   2.0000      -0.925367       -25.1805
 108   2.0000      -0.919411       -25.0184
 109   2.0000      -0.914286       -24.8790
 110   2.0000      -0.906009       -24.6538
 111   2.0000      -0.890613       -24.2348
 112   2.0000      -0.889713       -24.2103
 113   2.0000      -0.887410       -24.1476
 114   2.0000      -0.886533       -24.1238
 115   2.0000      -0.875545       -23.8248
 116   2.0000      -0.867517       -23.6063
 117   2.0000      -0.853701       -23.2304
 118   2.0000      -0.850046       -23.1309
 119   2.0000      -0.840967       -22.8839
 120   2.0000      -0.831905       -22.6373
 121   2.0000      -0.817918       -22.2567
 122   2.0000      -0.801056       -21.7978
 123   2.0000      -0.788492       -21.4560
 124   2.0000      -0.787693       -21.4342
 125   2.0000      -0.774511       -21.0755
 126   2.0000      -0.760304       -20.6889
 127   2.0000      -0.753952       -20.5161
 128   2.0000      -0.749979       -20.4080
 129   2.0000      -0.739948       -20.1350
 130   2.0000      -0.736393       -20.0383
 131   2.0000      -0.722944       -19.6723
 132   2.0000      -0.721561       -19.6347
 133   2.0000      -0.720064       -19.5939
 134   2.0000      -0.716443       -19.4954
 135   2.0000      -0.713865       -19.4253
 136   2.0000      -0.707428       -19.2501
 137   2.0000      -0.704958       -19.1829
 138   2.0000      -0.697814       -18.9885
 139   2.0000      -0.695152       -18.9160
 140   2.0000      -0.690091       -18.7783
 141   2.0000      -0.682541       -18.5729
 142   2.0000      -0.678849       -18.4724
 143   2.0000      -0.672680       -18.3045
 144   2.0000      -0.666565       -18.1382
 145   2.0000      -0.662341       -18.0232
 146   2.0000      -0.655086       -17.8258
 147   2.0000      -0.654793       -17.8178
 148   2.0000      -0.647955       -17.6317
 149   2.0000      -0.642346       -17.4791
 150   2.0000      -0.640549       -17.4302
 151   2.0000      -0.627367       -17.0715
 152   2.0000      -0.625632       -17.0243
 153   2.0000      -0.617098       -16.7921
 154   2.0000      -0.615475       -16.7479
 155   2.0000      -0.614176       -16.7126
 156   2.0000      -0.608746       -16.5648
 157   2.0000      -0.602857       -16.4046
 158   2.0000      -0.600440       -16.3388
 159   2.0000      -0.599658       -16.3175
 160   2.0000      -0.599103       -16.3024
 161   2.0000      -0.594656       -16.1814
 162   2.0000      -0.588665       -16.0184
 163   2.0000      -0.579766       -15.7762
 164   2.0000      -0.576878       -15.6977
 165   2.0000      -0.574843       -15.6423
 166   2.0000      -0.566135       -15.4053
 167   2.0000      -0.564477       -15.3602
 168   2.0000      -0.563841       -15.3429
 169   2.0000      -0.563425       -15.3316
 170   2.0000      -0.561482       -15.2787
 171   2.0000      -0.560101       -15.2411
 172   2.0000      -0.559119       -15.2144
 173   2.0000      -0.558323       -15.1927
 174   2.0000      -0.556282       -15.1372
 175   2.0000      -0.553607       -15.0644
 176   2.0000      -0.552343       -15.0300
 177   2.0000      -0.550641       -14.9837
 178   2.0000      -0.549254       -14.9460
 179   2.0000      -0.546895       -14.8818
 180   2.0000      -0.543965       -14.8020
 181   2.0000      -0.542779       -14.7698
 182   2.0000      -0.539906       -14.6916
 183   2.0000      -0.539142       -14.6708
 184   2.0000      -0.533818       -14.5259
 185   2.0000      -0.527183       -14.3454
 186   2.0000      -0.522813       -14.2265
 187   2.0000      -0.521467       -14.1898
 188   2.0000      -0.519939       -14.1483
 189   2.0000      -0.519192       -14.1279
 190   2.0000      -0.513164       -13.9639
 191   2.0000      -0.512261       -13.9393
 192   2.0000      -0.511890       -13.9292
 193   2.0000      -0.509591       -13.8667
 194   2.0000      -0.507347       -13.8056
 195   2.0000      -0.505512       -13.7557
 196   2.0000      -0.504021       -13.7151
 197   2.0000      -0.501811       -13.6550
 198   2.0000      -0.500298       -13.6138
 199   2.0000      -0.499728       -13.5983
 200   2.0000      -0.497968       -13.5504
 201   2.0000      -0.494478       -13.4554
 202   2.0000      -0.491877       -13.3846
 203   2.0000      -0.489510       -13.3202
 204   2.0000      -0.487656       -13.2698
 205   2.0000      -0.485177       -13.2023
 206   2.0000      -0.482686       -13.1346
 207   2.0000      -0.475646       -12.9430
 208   2.0000      -0.472062       -12.8455
 209   2.0000      -0.470659       -12.8073
 210   2.0000      -0.470296       -12.7974
 211   2.0000      -0.468124       -12.7383
 212   2.0000      -0.466178       -12.6853
 213   2.0000      -0.465232       -12.6596
 214   2.0000      -0.460841       -12.5401
 215   2.0000      -0.459413       -12.5013
 216   2.0000      -0.455480       -12.3942
 217   2.0000      -0.453156       -12.3310
 218   2.0000      -0.449282       -12.2256
 219   2.0000      -0.448200       -12.1961
 220   2.0000      -0.447770       -12.1844
 221   2.0000      -0.446100       -12.1390
 222   2.0000      -0.441886       -12.0243
 223   2.0000      -0.441154       -12.0044
 224   2.0000      -0.440078       -11.9751
 225   2.0000      -0.439763       -11.9666
 226   2.0000      -0.435849       -11.8601
 227   2.0000      -0.433016       -11.7830
 228   2.0000      -0.427409       -11.6304
 229   2.0000      -0.425136       -11.5685
 230   2.0000      -0.424227       -11.5438
 231   2.0000      -0.421339       -11.4652
 232   2.0000      -0.420857       -11.4521
 233   2.0000      -0.408425       -11.1138
 234   2.0000      -0.402796       -10.9606
 235   2.0000      -0.399340       -10.8666
 236   2.0000      -0.390976       -10.6390
 237   2.0000      -0.380379       -10.3506
 238   2.0000      -0.378869       -10.3095
 239   2.0000      -0.376915       -10.2564
 240   2.0000      -0.369728       -10.0608
 241   2.0000      -0.365414        -9.9434
 242   2.0000      -0.362749        -9.8709
 243   2.0000      -0.361525        -9.8376
 244   2.0000      -0.358841        -9.7645
 245   2.0000      -0.354747        -9.6532
 246   2.0000      -0.350821        -9.5463
 247   2.0000      -0.342931        -9.3316
 248   2.0000      -0.340092        -9.2544
 249   2.0000      -0.332724        -9.0539
 250   2.0000      -0.330955        -9.0057
 251   2.0000      -0.329266        -8.9598
 252   2.0000      -0.326284        -8.8786
 253   2.0000      -0.318802        -8.6750
 254   2.0000      -0.312977        -8.5165
 255   2.0000      -0.292571        -7.9613
 256   2.0000      -0.245183        -6.6718
 257   0.0000      -0.114754        -3.1226
 258   0.0000      -0.102374        -2.7857
 259   0.0000      -0.084508        -2.2996
 260   0.0000      -0.076317        -2.0767
 261   0.0000      -0.049171        -1.3380

MULLIKEN ATOMIC CHARGES
-----------------------
   0 C :   -0.089499
   1 C :    0.239520
   2 F :   -0.160833
   3 C :    0.234402
   4 F :   -0.164456
   5 C :   -0.097512
   6 C :   -0.016377
   7 C :    0.049837
   8 C :    0.286350
   9 C :   -0.337135
  10 C :   -0.186943
  11 N :    0.161455
  12 C :   -0.205528
  13 N :    0.166685
  14 C :   -0.096574
  15 C :    0.181012
  16 O :   -0.214421
  17 C :    0.016451
  18 C :   -0.137405
  19 S :    0.120248
  20 C :   -0.077855
  21 C :   -0.120760
  22 C :   -0.051453
  23 C :    0.107965
  24 C :   -0.094945
  25 C :    0.124357
  26 O :   -0.205335
  27 O :   -0.153903
  28 C :    0.139254
  29 O :   -0.281257
  30 C :    0.112947
  31 C :    0.068163
  32 N :   -0.045390
  33 C :    0.122526
  34 C :   -0.167091
  35 C :    0.096559
  36 N :   -0.026987
  37 C :    0.118599
  38 C :   -0.164909
  39 C :    0.017827
  40 C :    0.029459
  41 C :   -0.088570
  42 S :    0.155887
  43 C :   -0.201399
  44 C :   -0.045519
  45 C :   -0.128544
  46 C :    0.091375
  47 C :   -0.065457
  48 C :    0.106146
  49 O :   -0.184189
  50 O :   -0.160363
  51 C :    0.134651
  52 O :   -0.282795
  53 C :    0.139274
  54 C :    0.050566
  55 C :   -0.152919
  56 C :    0.139551
  57 O :   -0.130870
  58 C :    0.008040
  59 C :    0.027798
  60 C :   -0.084476
  61 C :    0.235487
  62 C :    0.232789
  63 C :   -0.096414
  64 F :   -0.164791
  65 F :   -0.162620
  66 C :    0.262528
  67 C :   -0.339779
  68 C :   -0.139035
  69 N :    0.151441
  70 C :   -0.179279
  71 N :    0.162775
  72 H :    0.018490
  73 H :    0.015050
  74 H :    0.034591
  75 H :    0.027622
  76 H :    0.024893
  77 H :    0.036691
  78 H :    0.190750
  79 H :    0.023578
  80 H :    0.166419
  81 H :    0.024383
  82 H :    0.060225
  83 H :    0.131775
  84 H :   -0.022438
  85 H :    0.128837
  86 H :   -0.020894
  87 H :   -0.031174
  88 H :   -0.013634
  89 H :    0.032833
  90 H :    0.041511
  91 H :    0.025992
  92 H :    0.186407
  93 H :    0.021597
  94 H :    0.165764
  95 H :    0.026608
  96 H :    0.046591
  97 H :    0.033084
  98 H :    0.019160
  99 H :    0.016948
Sum of atomic charges:    0.0000000

LOEWDIN ATOMIC CHARGES
----------------------
   0 C :   -0.016563
   1 C :    0.076402
   2 F :   -0.039618
   3 C :    0.071329
   4 F :   -0.041677
   5 C :   -0.003248
   6 C :   -0.046029
   7 C :   -0.012922
   8 C :    0.074326
   9 C :   -0.134470
  10 C :   -0.020988
  11 N :   -0.042611
  12 C :   -0.026077
  13 N :   -0.045745
  14 C :   -0.114467
  15 C :    0.102434
  16 O :   -0.164280
  17 C :    0.049972
  18 C :   -0.184991
  19 S :    0.433865
  20 C :   -0.140423
  21 C :   -0.067571
  22 C :   -0.018929
  23 C :   -0.038755
  24 C :   -0.075819
  25 C :    0.070960
  26 O :   -0.180584
  27 O :   -0.018722
  28 C :    0.072662
  29 O :   -0.114474
  30 C :   -0.043750
  31 C :   -0.020108
  32 N :    0.068446
  33 C :   -0.007082
  34 C :   -0.083645
  35 C :    0.003569
  36 N :    0.075709
  37 C :   -0.018566
  38 C :   -0.069550
  39 C :   -0.014009
  40 C :   -0.049838
  41 C :   -0.137479
  42 S :    0.465026
  43 C :   -0.200876
  44 C :   -0.028815
  45 C :   -0.084847
  46 C :   -0.035471
  47 C :   -0.075256
  48 C :    0.065896
  49 O :   -0.167483
  50 O :   -0.021239
  51 C :    0.074016
  52 O :   -0.115613
  53 C :   -0.043089
  54 C :    0.057671
  55 C :   -0.103922
  56 C :    0.082853
  57 O :   -0.132824
  58 C :   -0.045401
  59 C :   -0.014005
  60 C :   -0.018522
  61 C :    0.075521
  62 C :    0.072336
  63 C :   -0.003007
  64 F :   -0.041840
  65 F :   -0.040590
  66 C :    0.069454
  67 C :   -0.145250
  68 C :    0.012099
  69 N :   -0.047888
  70 C :   -0.023609
  71 N :   -0.043259
  72 H :    0.052559
  73 H :    0.053695
  74 H :    0.045667
  75 H :    0.043141
  76 H :    0.031025
  77 H :    0.049303
  78 H :    0.068138
  79 H :    0.031609
  80 H :    0.068920
  81 H :    0.036423
  82 H :    0.044725
  83 H :    0.085081
  84 H :    0.027821
  85 H :    0.093078
  86 H :    0.031867
  87 H :    0.029406
  88 H :    0.030165
  89 H :    0.032805
  90 H :    0.039492
  91 H :    0.047931
  92 H :    0.061946
  93 H :    0.033154
  94 H :    0.070053
  95 H :    0.041081
  96 H :    0.045836
  97 H :    0.050506
  98 H :    0.051867
  99 H :    0.053959

  Mayer bond orders larger than 0.100000
B(  0-C ,  1-C ) :   1.3279 B(  0-C ,  5-C ) :   0.1028 B(  0-C ,  7-C ) :   1.3187
B(  0-C , 72-H ) :   0.9941 B(  1-C ,  2-F ) :   1.1484 B(  1-C ,  3-C ) :   1.2927
B(  3-C ,  4-F ) :   1.1354 B(  3-C ,  5-C ) :   1.3139 B(  5-C ,  6-C ) :   1.3170
B(  5-C , 73-H ) :   1.0205 B(  6-C ,  7-C ) :   1.3344 B(  6-C , 15-C ) :   0.9782
B(  7-C ,  8-C ) :   1.0051 B(  8-C ,  9-C ) :   1.6538 B(  8-C , 14-C ) :   1.0684
B(  9-C , 10-C ) :   1.1338 B(  9-C , 12-C ) :   1.1398 B( 10-C , 11-N ) :   2.9831
B( 12-C , 13-N ) :   2.9995 B( 14-C , 15-C ) :   1.0240 B( 14-C , 17-C ) :   1.5290
B( 15-C , 16-O ) :   2.0073 B( 16-O , 78-H ) :   0.1055 B( 17-C , 18-C ) :   1.2360
B( 17-C , 74-H ) :   0.9246 B( 18-C , 19-S ) :   1.0779 B( 18-C , 20-C ) :   0.1050
B( 18-C , 22-C ) :   1.4136 B( 19-S , 20-C ) :   1.1413 B( 20-C , 21-C ) :   1.4637
B( 20-C , 31-C ) :   1.1008 B( 21-C , 22-C ) :   1.3594 B( 21-C , 30-C ) :   1.0358
B( 22-C , 23-C ) :   1.0367 B( 23-C , 24-C ) :   1.0211 B( 23-C , 75-H ) :   0.8901
B( 23-C , 76-H ) :   0.9051 B( 24-C , 25-C ) :   0.8949 B( 24-C , 28-C ) :   0.9978
B( 24-C , 77-H ) :   0.8882 B( 25-C , 26-O ) :   2.1232 B( 25-C , 27-O ) :   1.2835
B( 27-O , 78-H ) :   0.9109 B( 28-C , 29-O ) :   1.0709 B( 28-C , 30-C ) :   1.0408
B( 28-C , 79-H ) :   0.9140 B( 29-O , 80-H ) :   0.9795 B( 30-C , 81-H ) :   0.9068
B( 30-C , 82-H ) :   0.8837 B( 31-C , 32-N ) :   1.1884 B( 31-C , 38-C ) :   1.3906
B( 32-N , 33-C ) :   1.1741 B( 32-N , 83-H ) :   0.9286 B( 33-C , 34-C ) :   1.2711
B( 33-C , 37-C ) :   1.2994 B( 34-C , 35-C ) :   1.3931 B( 34-C , 84-H ) :   1.0294
B( 35-C , 36-N ) :   1.1737 B( 35-C , 39-C ) :   1.1198 B( 36-N , 37-C ) :   1.1729
B( 36-N , 85-H ) :   0.9335 B( 37-C , 38-C ) :   1.2488 B( 38-C , 86-H ) :   1.0349
B( 39-C , 40-C ) :   1.6548 B( 39-C , 87-H ) :   0.9580 B( 40-C , 41-C ) :   1.1477
B( 40-C , 88-H ) :   0.9500 B( 41-C , 42-S ) :   1.1402 B( 41-C , 45-C ) :   1.4514
B( 42-S , 43-C ) :   1.1122 B( 43-C , 44-C ) :   1.4061 B( 43-C , 54-C ) :   1.1240
B( 44-C , 45-C ) :   1.3374 B( 44-C , 53-C ) :   1.0464 B( 45-C , 46-C ) :   1.0385
B( 46-C , 47-C ) :   0.9912 B( 46-C , 89-H ) :   0.8961 B( 46-C , 90-H ) :   0.9230
B( 47-C , 48-C ) :   0.9205 B( 47-C , 51-C ) :   1.0045 B( 47-C , 91-H ) :   0.8910
B( 48-C , 49-O ) :   2.1786 B( 48-C , 50-O ) :   1.2536 B( 50-O , 92-H ) :   0.9016
B( 51-C , 52-O ) :   1.0637 B( 51-C , 53-C ) :   1.0384 B( 51-C , 93-H ) :   0.9228
B( 52-O , 94-H ) :   0.9808 B( 53-C , 95-H ) :   0.8907 B( 53-C , 96-H ) :   0.8965
B( 54-C , 55-C ) :   1.6423 B( 54-C , 97-H ) :   0.9409 B( 55-C , 56-C ) :   0.9448
B( 55-C , 66-C ) :   1.0526 B( 56-C , 57-O ) :   2.2823 B( 56-C , 58-C ) :   0.9270
B( 58-C , 59-C ) :   1.3402 B( 58-C , 63-C ) :   1.3255 B( 59-C , 60-C ) :   1.3190
B( 59-C , 66-C ) :   1.0228 B( 60-C , 61-C ) :   1.3378 B( 60-C , 63-C ) :   0.1029
B( 60-C , 98-H ) :   0.9941 B( 61-C , 62-C ) :   1.2886 B( 61-C , 65-F ) :   1.1446
B( 62-C , 63-C ) :   1.3215 B( 62-C , 64-F ) :   1.1362 B( 63-C , 99-H ) :   1.0192
B( 66-C , 67-C ) :   1.6394 B( 67-C , 68-C ) :   1.1735 B( 67-C , 70-C ) :   1.1258
B( 68-C , 69-N ) :   2.9363 B( 69-N , 92-H ) :   0.1129 B( 70-C , 71-N ) :   2.9957

-----------------------------------------------------------------------------
         ABSORPTION SPECTRUM VIA TRANSITION ELECTRIC DIPOLE MOMENTS
-----------------------------------------------------------------------------
State   Energy  Wavelength   fosc         T2         TX        TY        TZ
        (cm-1)    (nm)                  (au**2)     (au)      (au)      (au)
-----------------------------------------------------------------------------
   0   14046.3    711.9   1.615942884  37.87396   1.40886  -5.81481   1.44119
   1   17813.1    561.4   0.569846676  10.53159   2.83427  -1.43406   0.66481
   2   21736.0    460.1   0.131574041   1.99281  -0.20957   1.17501  -0.75382
   3   23609.3    423.6   0.151822389   2.11704   0.22231  -1.39547   0.34679
   4   24495.6    408.2   0.167616215   2.25270   1.40477   0.48918   0.20009
   5   27280.7    366.6   0.034152672   0.41214  -0.63990  -0.01905   0.04800
   6   28786.5    347.4   0.304724816   3.48494  -0.51604  -1.57470   0.85963
   7   29159.5    342.9   0.003156393   0.03564   0.16793   0.01275   0.08528
   8   29419.6    339.9   0.206083220   2.30612   1.05475  -0.95302  -0.53421
   9   30110.7    332.1   0.033846153   0.37005  -0.49727   0.13695  -0.32252
  10   30288.6    330.2   0.005791374   0.06295   0.04871   0.03415   0.24374
  11   31198.7    320.5   0.034781387   0.36702  -0.13024   0.14031   0.57477
  12   31332.5    319.2   0.039031926   0.41011  -0.48537  -0.40697   0.09434
  13   31674.3    315.7   0.038377848   0.39889   0.24660   0.28864  -0.50474
  14   32023.4    312.3   0.043543710   0.44764   0.23782   0.35011  -0.51818
  15   32261.6    310.0   0.003129501   0.03193  -0.06094  -0.15665   0.06068
  16   32378.7    308.8   0.011568940   0.11763   0.23740   0.23459  -0.07898
  17   32618.8    306.6   0.034248484   0.34566   0.11193   0.36796  -0.44467
  18   33132.5    301.8   0.174954068   1.73838  -0.14163  -1.03451   0.80506
  19   33415.5    299.3   0.042241323   0.41616   0.09320  -0.53762   0.34415
  20   33816.7    295.7   0.170039906   1.65537   0.14908  -0.78401   1.00920
  21   34718.3    288.0   0.000499156   0.00473   0.05703  -0.02406  -0.03003
  22   35288.7    283.4   0.014053620   0.13111   0.36070  -0.01448   0.02820
  23   35583.2    281.0   0.238035902   2.20229  -1.24184  -0.11304   0.80457
  24   36083.9    277.1   0.768377377   7.01031  -1.02097  -1.13276   2.16444
  25   36232.4    276.0   0.023821526   0.21644   0.07444   0.29355  -0.35318
  26   36534.9    273.7   0.033976677   0.30616  -0.32680   0.01527  -0.44624
  27   37084.4    269.7   0.162974602   1.44679  -0.59333   0.74584  -0.73380
  28   37230.6    268.6   0.011156900   0.09865   0.02590  -0.31184   0.02725
  29   37748.3    264.9   0.015256247   0.13305   0.35817   0.02755   0.06330
  30   38010.0    263.1   0.063240030   0.54773   0.70501  -0.01233  -0.22482
  31   38439.1    260.2   0.061190180   0.52406   0.57828   0.16346  -0.40366
  32   38680.8    258.5   0.021413657   0.18225  -0.07015  -0.14111   0.39676
  33   39040.9    256.1   0.129614397   1.09297   0.14971  -0.63342   0.81813
  34   39573.5    252.7   0.010611181   0.08827   0.21044  -0.06376   0.19981
  35   39669.3    252.1   0.054268219   0.45037  -0.41747   0.38311  -0.35960
  36   39798.9    251.3   0.022741793   0.18812   0.42484   0.08595  -0.01563
  37   40025.5    249.8   0.004661612   0.03834   0.13200  -0.14397   0.01384
  38   40155.8    249.0   0.003835984   0.03145   0.15988  -0.07149  -0.02788
  39   40293.7    248.2   0.029775201   0.24327  -0.01153  -0.42902   0.24306

FINAL SINGLE POINT ENERGY     -4120.109760591485

DIPOLE MOMENT
-------------
                                X             Y             Z
Electronic contribution:    -65.00813      -4.66922      -0.70214
Nuclear contribution   :     65.18110       4.54021       2.97691
                        -----------------------------------------
Total Dipole Moment    :      0.17298      -0.12901       2.27477
                        -----------------------------------------
Magnitude (a.u.)       :      2.28499
Magnitude (Debye)      :      5.80797

Rotational constants in cm-1:     0.001434     0.000246     0.000224
Rotational constants in MHz :    42.987949     7.360913     6.714283

                             ****ORCA TERMINATED NORMALLY****
TOTAL RUN TIME: 0 days 0 hours 11 minutes 40 seconds 131 msec
