                         Program Version 4.2.0 -  RELEASE  -
|  1> # ORCA input file
|  2> # SCF done       -207.854463292542          0.000522332897
|  3> ! CAM-B3LYP def2-SVP def2/J RIJCOSX Grid4 TightSCF
|  4> %maxcore 5000
|  5> %tddft
|  6>     Mode sTDDFT
|  7>     Ethresh 5.0
|  8>     maxcore 5000
|  9> end
| 10>
| 11> %pal
| 12>   nprocs 6
| 13>   end
| 14> * xyz 0 1
| 15>    C        4.17851        -1.91211        -7.69153
| 16>    C        3.49638        -0.86380        -8.29241
| 17>    F        3.34019        -0.86927        -9.62171
| 18>    C        2.96871         0.18899        -7.54541
| 19>    F        2.32348         1.18380        -8.16804
| 20>    C        3.10113         0.21585        -6.16555
| 21>    C        3.76828        -0.83277        -5.56517
| 22>    C        4.31182        -1.89168        -6.31379
| 23>    C        4.99243        -2.80799        -5.39752
| 24>    C        5.98907        -3.68426        -5.74996
| 25>    C        6.31892        -4.00938        -7.07911
| 26>    N        6.60581        -4.33079        -8.14331
| 27>    C        6.85683        -4.27098        -4.80675
| 28>    N        7.61555        -4.71487        -4.06786
| 29>    C        4.64542        -2.40911        -4.05856
| 30>    C        4.01899        -1.06892        -4.12165
| 31>    O        3.72849        -0.34825        -3.19474
| 32>    C        4.69710        -3.07388        -2.86027
| 33>    C        4.77921        -4.44457        -2.59646
| 34>    S        4.52717        -5.72126        -3.77302
| 35>    C        4.62407        -6.99389        -2.58786
| 36>    C        4.86297        -6.44916        -1.31703
| 37>    C        4.92823        -5.03281        -1.34287
| 38>    S        5.23398        -4.34848         0.20893
| 39>    C        5.29156        -5.95563         0.89488
| 40>    C        5.55533        -6.13573         2.32409
| 41>    O        5.58397        -7.21059         2.87339
| 42>    O        5.76880        -4.96024         2.92254
| 43>    C        6.02846        -4.98084         4.32612
| 44>    C        4.73612        -5.02698         5.12801
| 45>    C        5.08475        -6.95139        -0.01377
| 46>    C        4.45425        -8.32155        -3.02131
| 47>    C        4.25784        -9.40241        -2.21152
| 48>    C        4.10525       -10.73413        -2.64694
| 49>    N        4.28803       -11.15435        -3.94984
| 50>    C        4.05106       -12.48886        -4.00982
| 51>    C        4.01952       -13.58258        -4.86245
| 52>    C        3.62404       -14.67715        -4.07551
| 53>    N        3.42743       -14.25695        -2.77509
| 54>    C        3.68811       -12.92661        -2.70377
| 55>    C        3.73331       -11.83404        -1.85241
| 56>    C        3.39765       -16.02102        -4.44623
| 57>    C        3.64572       -16.54614        -5.67632
| 58>    C        3.36388       -17.87560        -6.04478
| 59>    S        2.54203       -19.01622        -5.00687
| 60>    C        2.56781       -20.28759        -6.20534
| 61>    C        3.21520       -19.83370        -7.36264
| 62>    C        3.64594       -18.48943        -7.25804
| 63>    S        4.44128       -17.94051        -8.69560
| 64>    C        4.19674       -19.50944        -9.41954
| 65>    C        4.70012       -19.77774       -10.77055
| 66>    O        4.60037       -20.84347       -11.32598
| 67>    O        5.27431       -18.68878       -11.29114
| 68>    C        5.83871       -18.81441       -12.59718
| 69>    C        7.23960       -19.40567       -12.53968
| 70>    C        3.54157       -20.39675        -8.61561
| 71>    C        1.94539       -21.52475        -6.01777
| 72>    C        1.32815       -21.92717        -4.86383
| 73>    C        0.67209       -23.15498        -4.67986
| 74>    C        0.17530       -24.04546        -5.60003
| 75>    C       -0.06479       -25.44392        -5.16539
| 76>    O       -0.04262       -25.86922        -4.03301
| 77>    C       -0.29041       -26.20869        -6.41362
| 78>    C       -0.30841       -25.32122        -7.50302
| 79>    C       -0.46872       -25.80597        -8.79048
| 80>    C       -0.61569       -27.17581        -8.95523
| 81>    C       -0.61244       -28.04864        -7.86731
| 82>    C       -0.44724       -27.57045        -6.57685
| 83>    F       -0.76545       -29.36276        -8.07246
| 84>    F       -0.76036       -27.66751       -10.19087
| 85>    C       -0.15924       -23.95203        -6.99952
| 86>    C       -0.52955       -22.82954        -7.69878
| 87>    C       -0.61538       -21.53777        -7.14513
| 88>    N       -0.73112       -20.46599        -6.74987
| 89>    C       -0.94684       -22.84032        -9.04534
| 90>    N       -1.27776       -22.78198       -10.14296
| 91>    H        4.56966        -2.70584        -8.30712
| 92>    H        2.69460         1.03065        -5.58804
| 93>    H        4.54720        -2.45204        -1.98178
| 94>    H        6.58385        -4.06195         4.52327
| 95>    H        6.64986        -5.85247         4.55668
| 96>    H        4.09894        -4.18655         4.86330
| 97>    H        4.96523        -4.97955         6.18852
| 98>    H        4.20465        -5.95345         4.92390
| 99>    H        5.12036        -7.98638         0.26947
|100>    H        4.44324        -8.44933        -4.09581
|101>    H        4.17118        -9.25502        -1.14668
|102>    H        4.59009       -10.56656        -4.70665
|103>    H        4.23210       -13.61014        -5.91128
|104>    H        3.14429       -14.85693        -2.01939
|105>    H        3.52186       -11.79425        -0.80297
|106>    H        2.99040       -16.67374        -3.68343
|107>    H        4.08674       -15.93536        -6.45135
|108>    H        5.85335       -17.79849       -12.99631
|109>    H        5.18394       -19.44779       -13.20436
|110>    H        7.87651       -18.80421       -11.89529
|111>    H        7.66480       -19.42863       -13.53867
|112>    H        7.19941       -20.42064       -12.15155
|113>    H        3.32042       -21.40059        -8.92832
|114>    H        1.99722       -22.20433        -6.85858
|115>    H        1.40485       -21.28027        -3.99917
|116>    H        0.58643       -23.50125        -3.65385
|117>    H       -0.47457       -25.17278        -9.66262
|118>    H       -0.44193       -28.24373        -5.73467
|119> *
|120>
|121>                          ****END OF INPUT****

CARTESIAN COORDINATES (ANGSTROEM)
---------------------------------
  C      4.178510   -1.912110   -7.691530
  C      3.496380   -0.863800   -8.292410
  F      3.340190   -0.869270   -9.621710
  C      2.968710    0.188990   -7.545410
  F      2.323480    1.183800   -8.168040
  C      3.101130    0.215850   -6.165550
  C      3.768280   -0.832770   -5.565170
  C      4.311820   -1.891680   -6.313790
  C      4.992430   -2.807990   -5.397520
  C      5.989070   -3.684260   -5.749960
  C      6.318920   -4.009380   -7.079110
  N      6.605810   -4.330790   -8.143310
  C      6.856830   -4.270980   -4.806750
  N      7.615550   -4.714870   -4.067860
  C      4.645420   -2.409110   -4.058560
  C      4.018990   -1.068920   -4.121650
  O      3.728490   -0.348250   -3.194740
  C      4.697100   -3.073880   -2.860270
  C      4.779210   -4.444570   -2.596460
  S      4.527170   -5.721260   -3.773020
  C      4.624070   -6.993890   -2.587860
  C      4.862970   -6.449160   -1.317030
  C      4.928230   -5.032810   -1.342870
  S      5.233980   -4.348480    0.208930
  C      5.291560   -5.955630    0.894880
  C      5.555330   -6.135730    2.324090
  O      5.583970   -7.210590    2.873390
  O      5.768800   -4.960240    2.922540
  C      6.028460   -4.980840    4.326120
  C      4.736120   -5.026980    5.128010
  C      5.084750   -6.951390   -0.013770
  C      4.454250   -8.321550   -3.021310
  C      4.257840   -9.402410   -2.211520
  C      4.105250  -10.734130   -2.646940
  N      4.288030  -11.154350   -3.949840
  C      4.051060  -12.488860   -4.009820
  C      4.019520  -13.582580   -4.862450
  C      3.624040  -14.677150   -4.075510
  N      3.427430  -14.256950   -2.775090
  C      3.688110  -12.926610   -2.703770
  C      3.733310  -11.834040   -1.852410
  C      3.397650  -16.021020   -4.446230
  C      3.645720  -16.546140   -5.676320
  C      3.363880  -17.875600   -6.044780
  S      2.542030  -19.016220   -5.006870
  C      2.567810  -20.287590   -6.205340
  C      3.215200  -19.833700   -7.362640
  C      3.645940  -18.489430   -7.258040
  S      4.441280  -17.940510   -8.695600
  C      4.196740  -19.509440   -9.419540
  C      4.700120  -19.777740  -10.770550
  O      4.600370  -20.843470  -11.325980
  O      5.274310  -18.688780  -11.291140
  C      5.838710  -18.814410  -12.597180
  C      7.239600  -19.405670  -12.539680
  C      3.541570  -20.396750   -8.615610
  C      1.945390  -21.524750   -6.017770
  C      1.328150  -21.927170   -4.863830
  C      0.672090  -23.154980   -4.679860
  C      0.175300  -24.045460   -5.600030
  C     -0.064790  -25.443920   -5.165390
  O     -0.042620  -25.869220   -4.033010
  C     -0.290410  -26.208690   -6.413620
  C     -0.308410  -25.321220   -7.503020
  C     -0.468720  -25.805970   -8.790480
  C     -0.615690  -27.175810   -8.955230
  C     -0.612440  -28.048640   -7.867310
  C     -0.447240  -27.570450   -6.576850
  F     -0.765450  -29.362760   -8.072460
  F     -0.760360  -27.667510  -10.190870
  C     -0.159240  -23.952030   -6.999520
  C     -0.529550  -22.829540   -7.698780
  C     -0.615380  -21.537770   -7.145130
  N     -0.731120  -20.465990   -6.749870
  C     -0.946840  -22.840320   -9.045340
  N     -1.277760  -22.781980  -10.142960
  H      4.569660   -2.705840   -8.307120
  H      2.694600    1.030650   -5.588040
  H      4.547200   -2.452040   -1.981780
  H      6.583850   -4.061950    4.523270
  H      6.649860   -5.852470    4.556680
  H      4.098940   -4.186550    4.863300
  H      4.965230   -4.979550    6.188520
  H      4.204650   -5.953450    4.923900
  H      5.120360   -7.986380    0.269470
  H      4.443240   -8.449330   -4.095810
  H      4.171180   -9.255020   -1.146680
  H      4.590090  -10.566560   -4.706650
  H      4.232100  -13.610140   -5.911280
  H      3.144290  -14.856930   -2.019390
  H      3.521860  -11.794250   -0.802970
  H      2.990400  -16.673740   -3.683430
  H      4.086740  -15.935360   -6.451350
  H      5.853350  -17.798490  -12.996310
  H      5.183940  -19.447790  -13.204360
  H      7.876510  -18.804210  -11.895290
  H      7.664800  -19.428630  -13.538670
  H      7.199410  -20.420640  -12.151550
  H      3.320420  -21.400590   -8.928320
  H      1.997220  -22.204330   -6.858580
  H      1.404850  -21.280270   -3.999170
  H      0.586430  -23.501250   -3.653850
  H     -0.474570  -25.172780   -9.662620
  H     -0.441930  -28.243730   -5.734670

 Total Charge           Charge          ....    0
 Multiplicity           Mult            ....    1
 Number of Electrons    NEL             ....  554
 Basis Dimension        Dim             .... 1220

ORBITAL ENERGIES
----------------

  NO   OCC          E(Eh)            E(eV)
   0   2.0000     -88.979130     -2421.2452
   1   2.0000     -88.977903     -2421.2118
   2   2.0000     -88.970749     -2421.0172
   3   2.0000     -88.970482     -2421.0099
   4   2.0000     -24.799130      -674.8186
   5   2.0000     -24.798491      -674.8013
   6   2.0000     -24.796568      -674.7489
   7   2.0000     -24.796442      -674.7455
   8   2.0000     -19.269940      -524.3617
   9   2.0000     -19.267386      -524.2922
  10   2.0000     -19.214775      -522.8606
  11   2.0000     -19.213222      -522.8183
  12   2.0000     -19.211069      -522.7598
  13   2.0000     -19.209865      -522.7270
  14   2.0000     -14.479817      -394.0159
  15   2.0000     -14.477529      -393.9536
  16   2.0000     -14.415988      -392.2790
  17   2.0000     -14.414482      -392.2380
  18   2.0000     -14.412786      -392.1919
  19   2.0000     -14.408974      -392.0881
  20   2.0000     -10.414576      -283.3950
  21   2.0000     -10.411641      -283.3152
  22   2.0000     -10.384257      -282.5700
  23   2.0000     -10.383632      -282.5530
  24   2.0000     -10.381724      -282.5011
  25   2.0000     -10.380783      -282.4755
  26   2.0000     -10.366244      -282.0798
  27   2.0000     -10.363576      -282.0073
  28   2.0000     -10.343941      -281.4729
  29   2.0000     -10.342155      -281.4243
  30   2.0000     -10.340405      -281.3767
  31   2.0000     -10.339068      -281.3403
  32   2.0000     -10.338250      -281.3181
  33   2.0000     -10.334052      -281.2038
  34   2.0000     -10.330812      -281.1157
  35   2.0000     -10.330598      -281.1099
  36   2.0000     -10.329011      -281.0667
  37   2.0000     -10.327588      -281.0280
  38   2.0000     -10.325759      -280.9782
  39   2.0000     -10.323426      -280.9147
  40   2.0000     -10.323336      -280.9123
  41   2.0000     -10.319602      -280.8107
  42   2.0000     -10.319174      -280.7990
  43   2.0000     -10.318663      -280.7851
  44   2.0000     -10.318413      -280.7783
  45   2.0000     -10.317524      -280.7541
  46   2.0000     -10.317321      -280.7486
  47   2.0000     -10.316314      -280.7212
  48   2.0000     -10.316130      -280.7162
  49   2.0000     -10.315806      -280.7074
  50   2.0000     -10.315776      -280.7065
  51   2.0000     -10.314892      -280.6825
  52   2.0000     -10.314073      -280.6602
  53   2.0000     -10.312120      -280.6071
  54   2.0000     -10.311846      -280.5996
  55   2.0000     -10.311591      -280.5926
  56   2.0000     -10.308714      -280.5144
  57   2.0000     -10.307406      -280.4788
  58   2.0000     -10.307013      -280.4681
  59   2.0000     -10.306634      -280.4578
  60   2.0000     -10.304298      -280.3942
  61   2.0000     -10.304230      -280.3924
  62   2.0000     -10.304109      -280.3891
  63   2.0000     -10.303475      -280.3718
  64   2.0000     -10.303336      -280.3680
  65   2.0000     -10.303149      -280.3629
  66   2.0000     -10.300989      -280.3042
  67   2.0000     -10.299974      -280.2765
  68   2.0000     -10.297304      -280.2039
  69   2.0000     -10.293452      -280.0991
  70   2.0000     -10.291669      -280.0505
  71   2.0000     -10.290493      -280.0186
  72   2.0000     -10.288593      -279.9669
  73   2.0000     -10.285372      -279.8792
  74   2.0000     -10.266382      -279.3625
  75   2.0000     -10.265273      -279.3323
  76   2.0000      -8.073931      -219.7028
  77   2.0000      -8.072524      -219.6645
  78   2.0000      -8.066128      -219.4905
  79   2.0000      -8.065793      -219.4814
  80   2.0000      -6.043161      -164.4428
  81   2.0000      -6.041892      -164.4082
  82   2.0000      -6.039234      -164.3359
  83   2.0000      -6.037747      -164.2955
  84   2.0000      -6.036069      -164.2498
  85   2.0000      -6.035747      -164.2410
  86   2.0000      -6.035481      -164.2338
  87   2.0000      -6.034544      -164.2083
  88   2.0000      -6.031475      -164.1248
  89   2.0000      -6.031311      -164.1203
  90   2.0000      -6.027584      -164.0189
  91   2.0000      -6.027045      -164.0042
  92   2.0000      -1.322474       -35.9863
  93   2.0000      -1.319986       -35.9187
  94   2.0000      -1.307266       -35.5725
  95   2.0000      -1.304789       -35.5051
  96   2.0000      -1.201828       -32.7034
  97   2.0000      -1.199104       -32.6293
  98   2.0000      -1.130196       -30.7542
  99   2.0000      -1.126688       -30.6588
 100   2.0000      -1.111650       -30.2495
 101   2.0000      -1.107977       -30.1496
 102   2.0000      -1.104709       -30.0607
 103   2.0000      -1.075123       -29.2556
 104   2.0000      -1.026747       -27.9392
 105   2.0000      -1.026528       -27.9333
 106   2.0000      -1.020140       -27.7594
 107   2.0000      -1.015855       -27.6428
 108   2.0000      -1.001446       -27.2507
 109   2.0000      -0.997703       -27.1489
 110   2.0000      -0.993877       -27.0448
 111   2.0000      -0.989754       -26.9326
 112   2.0000      -0.968858       -26.3640
 113   2.0000      -0.966593       -26.3023
 114   2.0000      -0.956906       -26.0387
 115   2.0000      -0.953039       -25.9335
 116   2.0000      -0.936664       -25.4879
 117   2.0000      -0.928428       -25.2638
 118   2.0000      -0.915399       -24.9093
 119   2.0000      -0.903629       -24.5890
 120   2.0000      -0.900745       -24.5105
 121   2.0000      -0.895068       -24.3561
 122   2.0000      -0.889305       -24.1992
 123   2.0000      -0.881501       -23.9869
 124   2.0000      -0.875875       -23.8338
 125   2.0000      -0.874195       -23.7881
 126   2.0000      -0.872801       -23.7501
 127   2.0000      -0.870088       -23.6763
 128   2.0000      -0.868412       -23.6307
 129   2.0000      -0.855019       -23.2663
 130   2.0000      -0.849395       -23.1132
 131   2.0000      -0.834885       -22.7184
 132   2.0000      -0.832875       -22.6637
 133   2.0000      -0.827548       -22.5187
 134   2.0000      -0.815064       -22.1790
 135   2.0000      -0.805291       -21.9131
 136   2.0000      -0.791959       -21.5503
 137   2.0000      -0.773178       -21.0392
 138   2.0000      -0.769342       -20.9349
 139   2.0000      -0.767232       -20.8774
 140   2.0000      -0.765423       -20.8282
 141   2.0000      -0.762191       -20.7403
 142   2.0000      -0.751740       -20.4559
 143   2.0000      -0.735906       -20.0250
 144   2.0000      -0.722400       -19.6575
 145   2.0000      -0.715518       -19.4702
 146   2.0000      -0.714001       -19.4290
 147   2.0000      -0.712179       -19.3794
 148   2.0000      -0.705422       -19.1955
 149   2.0000      -0.703716       -19.1491
 150   2.0000      -0.699607       -19.0373
 151   2.0000      -0.693746       -18.8778
 152   2.0000      -0.689146       -18.7526
 153   2.0000      -0.682010       -18.5584
 154   2.0000      -0.678444       -18.4614
 155   2.0000      -0.667526       -18.1643
 156   2.0000      -0.663121       -18.0444
 157   2.0000      -0.658941       -17.9307
 158   2.0000      -0.651631       -17.7318
 159   2.0000      -0.646473       -17.5914
 160   2.0000      -0.641226       -17.4486
 161   2.0000      -0.640234       -17.4217
 162   2.0000      -0.637210       -17.3394
 163   2.0000      -0.636287       -17.3143
 164   2.0000      -0.635598       -17.2955
 165   2.0000      -0.632918       -17.2226
 166   2.0000      -0.626329       -17.0433
 167   2.0000      -0.615153       -16.7392
 168   2.0000      -0.609142       -16.5756
 169   2.0000      -0.605565       -16.4783
 170   2.0000      -0.601155       -16.3583
 171   2.0000      -0.599527       -16.3140
 172   2.0000      -0.593166       -16.1409
 173   2.0000      -0.592452       -16.1215
 174   2.0000      -0.587444       -15.9852
 175   2.0000      -0.586042       -15.9470
 176   2.0000      -0.584849       -15.9146
 177   2.0000      -0.584094       -15.8940
 178   2.0000      -0.581131       -15.8134
 179   2.0000      -0.575821       -15.6689
 180   2.0000      -0.571204       -15.5433
 181   2.0000      -0.570173       -15.5152
 182   2.0000      -0.565933       -15.3998
 183   2.0000      -0.559222       -15.2172
 184   2.0000      -0.558446       -15.1961
 185   2.0000      -0.556012       -15.1299
 186   2.0000      -0.555709       -15.1216
 187   2.0000      -0.550569       -14.9818
 188   2.0000      -0.548154       -14.9160
 189   2.0000      -0.547514       -14.8986
 190   2.0000      -0.545615       -14.8469
 191   2.0000      -0.545192       -14.8354
 192   2.0000      -0.544554       -14.8181
 193   2.0000      -0.539019       -14.6675
 194   2.0000      -0.536559       -14.6005
 195   2.0000      -0.533554       -14.5187
 196   2.0000      -0.532942       -14.5021
 197   2.0000      -0.528568       -14.3831
 198   2.0000      -0.528376       -14.3778
 199   2.0000      -0.526258       -14.3202
 200   2.0000      -0.525183       -14.2910
 201   2.0000      -0.524936       -14.2842
 202   2.0000      -0.524120       -14.2620
 203   2.0000      -0.522559       -14.2196
 204   2.0000      -0.521455       -14.1895
 205   2.0000      -0.512348       -13.9417
 206   2.0000      -0.506315       -13.7775
 207   2.0000      -0.501235       -13.6393
 208   2.0000      -0.498485       -13.5645
 209   2.0000      -0.498168       -13.5558
 210   2.0000      -0.496463       -13.5094
 211   2.0000      -0.494667       -13.4606
 212   2.0000      -0.494316       -13.4510
 213   2.0000      -0.493481       -13.4283
 214   2.0000      -0.491142       -13.3647
 215   2.0000      -0.490333       -13.3427
 216   2.0000      -0.489355       -13.3160
 217   2.0000      -0.485093       -13.2001
 218   2.0000      -0.484227       -13.1765
 219   2.0000      -0.481498       -13.1022
 220   2.0000      -0.474212       -12.9040
 221   2.0000      -0.471406       -12.8276
 222   2.0000      -0.469595       -12.7783
 223   2.0000      -0.468437       -12.7468
 224   2.0000      -0.465756       -12.6739
 225   2.0000      -0.463855       -12.6221
 226   2.0000      -0.459909       -12.5148
 227   2.0000      -0.459396       -12.5008
 228   2.0000      -0.458268       -12.4701
 229   2.0000      -0.457965       -12.4619
 230   2.0000      -0.454479       -12.3670
 231   2.0000      -0.453683       -12.3453
 232   2.0000      -0.451092       -12.2748
 233   2.0000      -0.449450       -12.2302
 234   2.0000      -0.449187       -12.2230
 235   2.0000      -0.445846       -12.1321
 236   2.0000      -0.442619       -12.0443
 237   2.0000      -0.442429       -12.0391
 238   2.0000      -0.440858       -11.9964
 239   2.0000      -0.439755       -11.9664
 240   2.0000      -0.439311       -11.9543
 241   2.0000      -0.437092       -11.8939
 242   2.0000      -0.433875       -11.8063
 243   2.0000      -0.428917       -11.6714
 244   2.0000      -0.427981       -11.6460
 245   2.0000      -0.425273       -11.5723
 246   2.0000      -0.422339       -11.4924
 247   2.0000      -0.421826       -11.4785
 248   2.0000      -0.419060       -11.4032
 249   2.0000      -0.417919       -11.3721
 250   2.0000      -0.416047       -11.3212
 251   2.0000      -0.412041       -11.2122
 252   2.0000      -0.407618       -11.0918
 253   2.0000      -0.405358       -11.0303
 254   2.0000      -0.393664       -10.7121
 255   2.0000      -0.387194       -10.5361
 256   2.0000      -0.384790       -10.4707
 257   2.0000      -0.382859       -10.4181
 258   2.0000      -0.377600       -10.2750
 259   2.0000      -0.368175       -10.0186
 260   2.0000      -0.365386        -9.9427
 261   2.0000      -0.362864        -9.8740
 262   2.0000      -0.348148        -9.4736
 263   2.0000      -0.347042        -9.4435
 264   2.0000      -0.340809        -9.2739
 265   2.0000      -0.340353        -9.2615
 266   2.0000      -0.338802        -9.2193
 267   2.0000      -0.331945        -9.0327
 268   2.0000      -0.324961        -8.8426
 269   2.0000      -0.323574        -8.8049
 270   2.0000      -0.320452        -8.7199
 271   2.0000      -0.312485        -8.5031
 272   2.0000      -0.311020        -8.4633
 273   2.0000      -0.308616        -8.3979
 274   2.0000      -0.285975        -7.7818
 275   2.0000      -0.257897        -7.0177
 276   2.0000      -0.227040        -6.1781
 277   0.0000      -0.113216        -3.0808
 278   0.0000      -0.095582        -2.6009
 279   0.0000      -0.068993        -1.8774
 280   0.0000      -0.062212        -1.6929
 281   0.0000      -0.048094        -1.3087

MULLIKEN ATOMIC CHARGES
-----------------------
   0 C :   -0.092354
   1 C :    0.234105
   2 F :   -0.168404
   3 C :    0.230440
   4 F :   -0.172417
   5 C :   -0.104145
   6 C :    0.006647
   7 C :    0.031809
   8 C :    0.249590
   9 C :   -0.330484
  10 C :   -0.176443
  11 N :    0.148963
  12 C :   -0.221472
  13 N :    0.171236
  14 C :   -0.154252
  15 C :    0.139932
  16 O :   -0.144662
  17 C :    0.023280
  18 C :   -0.141470
  19 S :    0.161875
  20 C :   -0.091900
  21 C :    0.122266
  22 C :    0.001201
  23 S :    0.193133
  24 C :   -0.134143
  25 C :    0.214976
  26 O :   -0.206049
  27 O :   -0.307068
  28 C :    0.174060
  29 C :   -0.026877
  30 C :   -0.014537
  31 C :    0.021809
  32 C :    0.047401
  33 C :    0.070164
  34 N :   -0.033943
  35 C :    0.121226
  36 C :   -0.162474
  37 C :    0.108113
  38 N :   -0.031918
  39 C :    0.121352
  40 C :   -0.151204
  41 C :    0.010616
  42 C :   -0.024135
  43 C :   -0.096338
  44 S :    0.138890
  45 C :   -0.091888
  46 C :    0.148635
  47 C :   -0.030292
  48 S :    0.169309
  49 C :   -0.125462
  50 C :    0.213756
  51 O :   -0.194591
  52 O :   -0.306098
  53 C :    0.173070
  54 C :   -0.027610
  55 C :   -0.008594
  56 C :    0.023906
  57 C :   -0.004924
  58 C :    0.046722
  59 C :   -0.136111
  60 C :    0.130969
  61 O :   -0.145196
  62 C :    0.014096
  63 C :    0.019404
  64 C :   -0.087998
  65 C :    0.233452
  66 C :    0.231652
  67 C :   -0.103739
  68 F :   -0.170845
  69 F :   -0.166501
  70 C :    0.267668
  71 C :   -0.352492
  72 C :   -0.200352
  73 N :    0.169113
  74 C :   -0.182200
  75 N :    0.160027
  76 H :    0.014348
  77 H :    0.010616
  78 H :    0.020668
  79 H :    0.027032
  80 H :    0.031559
  81 H :    0.028828
  82 H :    0.025917
  83 H :    0.034427
  84 H :    0.006991
  85 H :   -0.034411
  86 H :   -0.013363
  87 H :    0.132329
  88 H :   -0.024733
  89 H :    0.126746
  90 H :   -0.022879
  91 H :   -0.015679
  92 H :   -0.003973
  93 H :    0.026631
  94 H :    0.034958
  95 H :    0.027629
  96 H :    0.026725
  97 H :    0.036573
  98 H :    0.008638
  99 H :    0.014997
 100 H :    0.000474
 101 H :    0.025717
 102 H :    0.018418
 103 H :    0.011539
Sum of atomic charges:   -0.0000000

LOEWDIN ATOMIC CHARGES
----------------------
   0 C :   -0.023192
   1 C :    0.072019
   2 F :   -0.046297
   3 C :    0.067235
   4 F :   -0.048680
   5 C :   -0.006875
   6 C :   -0.045753
   7 C :   -0.011667
   8 C :    0.060834
   9 C :   -0.154212
  10 C :   -0.022375
  11 N :   -0.057546
  12 C :   -0.040109
  13 N :   -0.052565
  14 C :   -0.119893
  15 C :    0.081306
  16 O :   -0.147090
  17 C :    0.048853
  18 C :   -0.215627
  19 S :    0.486160
  20 C :   -0.114814
  21 C :   -0.090925
  22 C :   -0.145983
  23 S :    0.451987
  24 C :   -0.203268
  25 C :    0.069066
  26 O :   -0.181580
  27 O :   -0.093203
  28 C :    0.086660
  29 C :   -0.067242
  30 C :   -0.007180
  31 C :   -0.078548
  32 C :    0.006662
  33 C :   -0.003737
  34 N :    0.071128
  35 C :   -0.001486
  36 C :   -0.086100
  37 C :    0.007793
  38 N :    0.074102
  39 C :   -0.019078
  40 C :   -0.068631
  41 C :   -0.022817
  42 C :   -0.043653
  43 C :   -0.161638
  44 S :    0.458443
  45 C :   -0.171740
  46 C :   -0.052226
  47 C :   -0.190792
  48 S :    0.427881
  49 C :   -0.187984
  50 C :    0.069182
  51 O :   -0.171078
  52 O :   -0.093061
  53 C :    0.086970
  54 C :   -0.067098
  55 C :   -0.010194
  56 C :    0.026016
  57 C :   -0.059730
  58 C :    0.065858
  59 C :   -0.108824
  60 C :    0.081511
  61 O :   -0.144531
  62 C :   -0.046565
  63 C :   -0.013037
  64 C :   -0.021553
  65 C :    0.072967
  66 C :    0.068408
  67 C :   -0.006174
  68 F :   -0.047202
  69 F :   -0.044393
  70 C :    0.063493
  71 C :   -0.148525
  72 C :   -0.017149
  73 N :   -0.044363
  74 C :   -0.024279
  75 N :   -0.052136
  76 H :    0.050163
  77 H :    0.051457
  78 H :    0.047995
  79 H :    0.025480
  80 H :    0.023052
  81 H :    0.028743
  82 H :    0.034209
  83 H :    0.031351
  84 H :    0.038026
  85 H :    0.022420
  86 H :    0.039815
  87 H :    0.091540
  88 H :    0.027556
  89 H :    0.092840
  90 H :    0.030109
  91 H :    0.025316
  92 H :    0.034835
  93 H :    0.025292
  94 H :    0.024361
  95 H :    0.028195
  96 H :    0.034760
  97 H :    0.032187
  98 H :    0.041916
  99 H :    0.040681
 100 H :    0.027648
 101 H :    0.047028
 102 H :    0.051146
 103 H :    0.051749

  Mayer bond orders larger than 0.100000
B(  0-C ,  1-C ) :   1.3288 B(  0-C ,  5-C ) :   0.1050 B(  0-C ,  7-C ) :   1.3256
B(  0-C , 76-H ) :   0.9950 B(  1-C ,  2-F ) :   1.1384 B(  1-C ,  3-C ) :   1.3004
B(  3-C ,  4-F ) :   1.1262 B(  3-C ,  5-C ) :   1.3153 B(  5-C ,  6-C ) :   1.3289
B(  5-C , 77-H ) :   1.0196 B(  6-C ,  7-C ) :   1.3453 B(  6-C , 15-C ) :   0.9241
B(  7-C ,  8-C ) :   1.0159 B(  8-C ,  9-C ) :   1.6239 B(  8-C , 14-C ) :   1.0765
B(  9-C , 10-C ) :   1.1323 B(  9-C , 12-C ) :   1.1569 B( 10-C , 11-N ) :   2.9925
B( 12-C , 13-N ) :   3.0287 B( 14-C , 15-C ) :   0.9651 B( 14-C , 17-C ) :   1.5512
B( 15-C , 16-O ) :   2.2661 B( 17-C , 18-C ) :   1.2448 B( 17-C , 78-H ) :   0.9435
B( 18-C , 19-S ) :   1.0708 B( 18-C , 22-C ) :   1.3940 B( 19-S , 20-C ) :   1.1703
B( 20-C , 21-C ) :   1.2980 B( 20-C , 31-C ) :   1.2213 B( 21-C , 22-C ) :   1.2854
B( 21-C , 30-C ) :   1.1404 B( 22-C , 23-S ) :   1.0970 B( 23-S , 24-C ) :   1.0610
B( 24-C , 25-C ) :   0.9569 B( 24-C , 30-C ) :   1.6294 B( 25-C , 26-O ) :   2.1137
B( 25-C , 27-O ) :   1.2397 B( 27-O , 28-C ) :   0.8979 B( 28-C , 29-C ) :   1.1199
B( 28-C , 79-H ) :   0.9617 B( 28-C , 80-H ) :   0.9468 B( 29-C , 81-H ) :   0.9677
B( 29-C , 82-H ) :   0.9648 B( 29-C , 83-H ) :   0.9676 B( 30-C , 84-H ) :   0.9994
B( 31-C , 32-C ) :   1.5367 B( 31-C , 85-H ) :   0.9496 B( 32-C , 33-C ) :   1.2164
B( 32-C , 86-H ) :   0.9571 B( 33-C , 34-N ) :   1.1835 B( 33-C , 40-C ) :   1.3210
B( 34-N , 35-C ) :   1.1783 B( 34-N , 87-H ) :   0.9296 B( 35-C , 36-C ) :   1.2837
B( 35-C , 39-C ) :   1.2828 B( 36-C , 37-C ) :   1.3779 B( 36-C , 88-H ) :   1.0305
B( 37-C , 38-N ) :   1.1757 B( 37-C , 41-C ) :   1.1391 B( 38-N , 39-C ) :   1.1664
B( 38-N , 89-H ) :   0.9355 B( 39-C , 40-C ) :   1.2738 B( 40-C , 90-H ) :   1.0405
B( 41-C , 42-C ) :   1.6144 B( 41-C , 91-H ) :   0.9626 B( 42-C , 43-C ) :   1.2005
B( 42-C , 92-H ) :   0.9752 B( 43-C , 44-S ) :   1.1320 B( 43-C , 47-C ) :   1.4373
B( 44-S , 45-C ) :   1.0868 B( 45-C , 46-C ) :   1.3115 B( 45-C , 56-C ) :   1.3008
B( 46-C , 47-C ) :   1.2716 B( 46-C , 55-C ) :   1.1512 B( 47-C , 48-S ) :   1.0377
B( 48-S , 49-C ) :   1.0809 B( 49-C , 50-C ) :   0.9479 B( 49-C , 55-C ) :   1.6176
B( 50-C , 51-O ) :   2.1275 B( 50-C , 52-O ) :   1.2443 B( 52-O , 53-C ) :   0.8949
B( 53-C , 54-C ) :   1.1234 B( 53-C , 93-H ) :   0.9614 B( 53-C , 94-H ) :   0.9463
B( 54-C , 95-H ) :   0.9671 B( 54-C , 96-H ) :   0.9646 B( 54-C , 97-H ) :   0.9671
B( 55-C , 98-H ) :   1.0030 B( 56-C , 57-C ) :   1.5141 B( 56-C , 99-H ) :   0.9578
B( 57-C , 58-C ) :   1.2398 B( 57-C ,100-H ) :   0.9601 B( 58-C , 59-C ) :   1.5693
B( 58-C ,101-H ) :   0.9327 B( 59-C , 60-C ) :   0.9627 B( 59-C , 70-C ) :   1.0710
B( 60-C , 61-O ) :   2.2599 B( 60-C , 62-C ) :   0.9271 B( 62-C , 63-C ) :   1.3447
B( 62-C , 67-C ) :   1.3249 B( 63-C , 64-C ) :   1.3224 B( 63-C , 70-C ) :   1.0091
B( 64-C , 65-C ) :   1.3345 B( 64-C , 67-C ) :   0.1041 B( 64-C ,102-H ) :   0.9939
B( 65-C , 66-C ) :   1.2936 B( 65-C , 69-F ) :   1.1415 B( 66-C , 67-C ) :   1.3174
B( 66-C , 68-F ) :   1.1287 B( 67-C ,103-H ) :   1.0204 B( 70-C , 71-C ) :   1.6211
B( 71-C , 72-C ) :   1.1779 B( 71-C , 74-C ) :   1.1268 B( 72-C , 73-N ) :   2.9852
B( 74-C , 75-N ) :   2.9933

-----------------------------------------------------------------------------
         ABSORPTION SPECTRUM VIA TRANSITION ELECTRIC DIPOLE MOMENTS
-----------------------------------------------------------------------------
State   Energy  Wavelength   fosc         T2         TX        TY        TZ
        (cm-1)    (nm)                  (au**2)     (au)      (au)      (au)
-----------------------------------------------------------------------------
   0   11236.1    890.0   2.122273929  62.18150  -2.00471  -7.58392  -0.80424
   1   15368.3    650.7   0.164134722   3.51602   0.81044  -1.27401   1.11179
   2   19554.4    511.4   0.024694267   0.41575  -0.63895   0.08085   0.03077
   3   20903.8    478.4   0.375399244   5.91213  -0.33596   1.77120   1.63160
   4   22510.0    444.2   0.186403233   2.72617   0.50593  -0.53315  -1.47850
   5   23162.6    431.7   0.108614567   1.54375   0.56472   0.60037  -0.92974
   6   25472.9    392.6   0.180157870   2.32836   0.18486  -0.27871   1.48879
   7   26287.5    380.4   0.031813933   0.39842  -0.01133   0.40823   0.48129
   8   27354.7    365.6   0.065758991   0.79140   0.30359  -0.77345   0.31783
   9   27661.0    361.5   0.038837722   0.46223  -0.52430   0.13561   0.41104
  10   28032.2    356.7   0.086009946   1.01011  -0.40566   0.88545   0.24804
  11   28733.0    348.0   0.029114315   0.33358  -0.09438   0.43046   0.37333
  12   28892.7    346.1   0.035431206   0.40371  -0.25196  -0.49605   0.30686
  13   28981.9    345.0   0.085531406   0.97157  -0.11925  -0.33928  -0.91774
  14   29775.5    335.8   0.255614373   2.82619  -0.53371   0.34083  -1.55730
  15   30060.8    332.7   0.020888824   0.22876  -0.14429   0.42839   0.15631
  16   30282.9    330.2   0.100429756   1.09179  -0.24674   0.13203   1.00672
  17   30504.6    327.8   0.085890815   0.92695  -0.50229  -0.04525   0.82013
  18   30689.5    325.8   0.118662703   1.27292   0.07547   1.12294   0.07897
  19   30831.9    324.3   0.058107449   0.62045  -0.53833  -0.06913  -0.57086
  20   31300.4    319.5   0.123289247   1.29674   0.08693  -1.08292  -0.34126
  21   32361.4    309.0   0.022805149   0.23200  -0.39180   0.27298   0.06300
  22   32417.4    308.5   0.051615261   0.52417  -0.07105  -0.68835   0.21283
  23   32950.0    303.5   0.002333576   0.02332  -0.07888  -0.06465   0.11364
  24   33556.7    298.0   0.039331239   0.38586   0.19444   0.58931  -0.02787
  25   34120.6    293.1   0.079812087   0.77006  -0.27441   0.36001  -0.75177
  26   34867.8    286.8   0.121230387   1.14462   0.28274  -0.68506   0.77161
  27   35388.0    282.6   0.014475069   0.13466   0.09329   0.09921  -0.34076
  28   35508.8    281.6   0.031310220   0.29029   0.29974  -0.44571   0.04226
  29   36041.5    277.5   0.120422421   1.09997  -0.09435   0.87331  -0.57306
  30   36383.5    274.8   0.019775905   0.17894  -0.11604  -0.12002  -0.38868
  31   36659.0    272.8   0.202241732   1.81621   0.70686   0.88619  -0.72885
  32   36684.1    272.6   0.513788775   4.61087  -0.78543   1.76632  -0.93492
  33   37027.1    270.1   0.071298440   0.63392  -0.39452   0.68753   0.07469
  34   37212.6    268.7   0.172367750   1.52490   0.05369  -1.23019   0.09295
  35   37712.1    265.2   0.023278899   0.20322  -0.11198   0.39364   0.18900
  36   37870.7    264.1   0.020459619   0.17786  -0.32876   0.01421   0.26376
  37   37976.4    263.3   0.169800253   1.47198   0.74106  -0.93700   0.21176
  38   38263.8    261.3   0.199727089   1.71840  -0.80235   0.93751   0.44239
  39   38379.4    260.6   0.017577336   0.15078  -0.00328  -0.23341   0.31030
  40   38776.9    257.9   0.021948261   0.18634  -0.17875   0.22191   0.32426
  41   39166.9    255.3   0.002003455   0.01684  -0.01117  -0.11564  -0.05782
  42   39352.1    254.1   0.076636454   0.64113  -0.06400   0.79016   0.11261
  43   39784.9    251.4   0.014466367   0.11971  -0.00260  -0.02412   0.34513
  44   40161.7    249.0   0.003116450   0.02555   0.00434   0.11633   0.10952
  45   40287.5    248.2   0.003529140   0.02884  -0.09777   0.02905   0.13578

FINAL SINGLE POINT ENERGY     -4918.141244097302

DIPOLE MOMENT
-------------
                                X             Y             Z
Electronic contribution:    -28.40591       3.10217     -35.75241
Nuclear contribution   :     29.18379      -3.66403      38.22188
                        -----------------------------------------
Total Dipole Moment    :      0.77788      -0.56186       2.46947
                        -----------------------------------------
Magnitude (a.u.)       :      2.64935
Magnitude (Debye)      :      6.73411

Rotational constants in cm-1:     0.001138     0.000168     0.000154
Rotational constants in MHz :    34.124825     5.035236     4.617432

                             ****ORCA TERMINATED NORMALLY****
TOTAL RUN TIME: 0 days 0 hours 11 minutes 34 seconds 831 msec
