                         Program Version 4.2.0 -  RELEASE  -
|  1> # ORCA input file
|  2> # SCF done       -173.920608057638          0.000396271136
|  3> ! CAM-B3LYP def2-SVP def2/J RIJCOSX Grid4 TightSCF
|  4> %maxcore 5000
|  5> %tddft
|  6>     Mode sTDDFT
|  7>     Ethresh 5.0
|  8>     maxcore 5000
|  9> end
| 10>
| 11> %pal
| 12>   nprocs 6
| 13>   end
| 14> * xyz 0 1
| 15>    C        3.19936        -0.03338         0.61018
| 16>    C        2.77884         1.26110         0.34158
| 17>    F        3.45352         2.28498         0.87371
| 18>    C        1.67373         1.51829        -0.47113
| 19>    F        1.29954         2.78263        -0.69711
| 20>    C        0.96242         0.47888        -1.04939
| 21>    C        1.38704        -0.80970        -0.79212
| 22>    C        2.49242        -1.07667         0.03557
| 23>    C        2.65626        -2.52688         0.14768
| 24>    C        3.31698        -3.17285         1.15969
| 25>    C        4.10795        -2.51948         2.12673
| 26>    N        4.77845        -2.03132         2.91968
| 27>    C        3.18697        -4.55669         1.39496
| 28>    N        3.06136        -5.67141         1.63590
| 29>    C        1.77076        -3.13244        -0.81893
| 30>    C        0.83455        -2.08495        -1.30223
| 31>    O       -0.13985        -2.24701        -1.99925
| 32>    C        1.71056        -4.37670        -1.37811
| 33>    C        2.67719        -5.40031        -1.42785
| 34>    N        2.35743        -6.64661        -1.89207
| 35>    C        3.46673        -7.42721        -1.93922
| 36>    C        4.55656        -6.64608        -1.52655
| 37>    C        4.06625        -5.39670        -1.20397
| 38>    C        3.44459        -8.74751        -2.35346
| 39>    C        3.42328        -9.90322        -2.72805
| 40>    C        3.39860       -11.22040        -3.16301
| 41>    C        4.57392       -12.00209        -3.21714
| 42>    C        4.55924       -13.37176        -3.66872
| 43>    N        5.71050       -14.06141        -3.68838
| 44>    C        6.82126       -13.48318        -3.30735
| 45>    C        6.83085       -12.11574        -2.87210
| 46>    N        5.72339       -11.42139        -2.83640
| 47>    C        8.04911       -11.50421        -2.48164
| 48>    N        9.05349       -11.04450        -2.17954
| 49>    C        8.02497       -14.23198        -3.33389
| 50>    N        9.00961       -14.81678        -3.34770
| 51>    C        3.36482       -14.00778        -4.09642
| 52>    C        2.19617       -13.21141        -4.04130
| 53>    C        2.20816       -11.84475        -3.58043
| 54>    N        0.99291       -11.29313        -3.61383
| 55>    S       -0.05726       -12.37132        -4.16358
| 56>    N        0.96158       -13.58693        -4.38974
| 57>    C        3.31415       -15.35495        -4.56232
| 58>    N        2.16087       -15.92094        -4.99643
| 59>    C        2.39207       -17.20330        -5.38498
| 60>    C        3.76177       -17.47208        -5.18701
| 61>    C        4.33288       -16.32660        -4.68060
| 62>    C        1.41093       -18.02817        -5.88723
| 63>    C        0.47402       -18.67604        -6.32990
| 64>    C       -0.43936       -19.56016        -6.83905
| 65>    C       -1.75808       -19.42402        -7.18338
| 66>    C       -2.41610       -20.62763        -7.75457
| 67>    O       -1.91339       -21.71759        -7.90664
| 68>    C       -3.78952       -20.20885        -8.09781
| 69>    C       -3.95890       -18.85780        -7.75140
| 70>    C       -5.17627       -18.23841        -7.99102
| 71>    C       -6.18971       -18.98824        -8.56931
| 72>    C       -6.01012       -20.33003        -8.90719
| 73>    C       -4.79726       -20.95737        -8.67232
| 74>    F       -7.01581       -21.01397        -9.46254
| 75>    F       -7.36831       -18.40358        -8.80762
| 76>    C       -2.71612       -18.34465        -7.16037
| 77>    C       -2.57133       -17.06777        -6.68030
| 78>    C       -1.44135       -16.50153        -6.06760
| 79>    N       -0.60689       -15.90835        -5.54707
| 80>    C       -3.58042       -16.07891        -6.71507
| 81>    N       -4.33271       -15.21203        -6.70019
| 82>    H        4.05937        -0.18390         1.24239
| 83>    H        0.10842         0.67656        -1.67738
| 84>    H        0.80614        -4.55904        -1.95309
| 85>    H        1.42495        -6.96200        -2.10862
| 86>    H        5.57334        -6.98006        -1.47660
| 87>    H        4.64717        -4.55377        -0.88634
| 88>    H        1.24936       -15.46354        -5.01766
| 89>    H        4.24917       -18.40200        -5.40250
| 90>    H        5.35972       -16.18105        -4.41698
| 91>    H       -0.04865       -20.56157        -7.01983
| 92>    H       -5.37369       -17.20656        -7.75300
| 93>    H       -4.65019       -21.99375        -8.93130
| 94> *
| 95>
| 96>                          ****END OF INPUT****

CARTESIAN COORDINATES (ANGSTROEM)
---------------------------------
  C      3.199360   -0.033380    0.610180
  C      2.778840    1.261100    0.341580
  F      3.453520    2.284980    0.873710
  C      1.673730    1.518290   -0.471130
  F      1.299540    2.782630   -0.697110
  C      0.962420    0.478880   -1.049390
  C      1.387040   -0.809700   -0.792120
  C      2.492420   -1.076670    0.035570
  C      2.656260   -2.526880    0.147680
  C      3.316980   -3.172850    1.159690
  C      4.107950   -2.519480    2.126730
  N      4.778450   -2.031320    2.919680
  C      3.186970   -4.556690    1.394960
  N      3.061360   -5.671410    1.635900
  C      1.770760   -3.132440   -0.818930
  C      0.834550   -2.084950   -1.302230
  O     -0.139850   -2.247010   -1.999250
  C      1.710560   -4.376700   -1.378110
  C      2.677190   -5.400310   -1.427850
  N      2.357430   -6.646610   -1.892070
  C      3.466730   -7.427210   -1.939220
  C      4.556560   -6.646080   -1.526550
  C      4.066250   -5.396700   -1.203970
  C      3.444590   -8.747510   -2.353460
  C      3.423280   -9.903220   -2.728050
  C      3.398600  -11.220400   -3.163010
  C      4.573920  -12.002090   -3.217140
  C      4.559240  -13.371760   -3.668720
  N      5.710500  -14.061410   -3.688380
  C      6.821260  -13.483180   -3.307350
  C      6.830850  -12.115740   -2.872100
  N      5.723390  -11.421390   -2.836400
  C      8.049110  -11.504210   -2.481640
  N      9.053490  -11.044500   -2.179540
  C      8.024970  -14.231980   -3.333890
  N      9.009610  -14.816780   -3.347700
  C      3.364820  -14.007780   -4.096420
  C      2.196170  -13.211410   -4.041300
  C      2.208160  -11.844750   -3.580430
  N      0.992910  -11.293130   -3.613830
  S     -0.057260  -12.371320   -4.163580
  N      0.961580  -13.586930   -4.389740
  C      3.314150  -15.354950   -4.562320
  N      2.160870  -15.920940   -4.996430
  C      2.392070  -17.203300   -5.384980
  C      3.761770  -17.472080   -5.187010
  C      4.332880  -16.326600   -4.680600
  C      1.410930  -18.028170   -5.887230
  C      0.474020  -18.676040   -6.329900
  C     -0.439360  -19.560160   -6.839050
  C     -1.758080  -19.424020   -7.183380
  C     -2.416100  -20.627630   -7.754570
  O     -1.913390  -21.717590   -7.906640
  C     -3.789520  -20.208850   -8.097810
  C     -3.958900  -18.857800   -7.751400
  C     -5.176270  -18.238410   -7.991020
  C     -6.189710  -18.988240   -8.569310
  C     -6.010120  -20.330030   -8.907190
  C     -4.797260  -20.957370   -8.672320
  F     -7.015810  -21.013970   -9.462540
  F     -7.368310  -18.403580   -8.807620
  C     -2.716120  -18.344650   -7.160370
  C     -2.571330  -17.067770   -6.680300
  C     -1.441350  -16.501530   -6.067600
  N     -0.606890  -15.908350   -5.547070
  C     -3.580420  -16.078910   -6.715070
  N     -4.332710  -15.212030   -6.700190
  H      4.059370   -0.183900    1.242390
  H      0.108420    0.676560   -1.677380
  H      0.806140   -4.559040   -1.953090
  H      1.424950   -6.962000   -2.108620
  H      5.573340   -6.980060   -1.476600
  H      4.647170   -4.553770   -0.886340
  H      1.249360  -15.463540   -5.017660
  H      4.249170  -18.402000   -5.402500
  H      5.359720  -16.181050   -4.416980
  H     -0.048650  -20.561570   -7.019830
  H     -5.373690  -17.206560   -7.753000
  H     -4.650190  -21.993750   -8.931300

 Total Charge           Charge          ....    0
 Multiplicity           Mult            ....    1
 Number of Electrons    NEL             ....  452
 Basis Dimension        Dim             .... 1002

ORBITAL ENERGIES
----------------

  NO   OCC          E(Eh)            E(eV)
   0   2.0000     -89.060543     -2423.4606
   1   2.0000     -24.810614      -675.1311
   2   2.0000     -24.809315      -675.0958
   3   2.0000     -24.804790      -674.9727
   4   2.0000     -24.804495      -674.9646
   5   2.0000     -19.229610      -523.2643
   6   2.0000     -19.224356      -523.1213
   7   2.0000     -14.493056      -394.3761
   8   2.0000     -14.472708      -393.8224
   9   2.0000     -14.471964      -393.8021
  10   2.0000     -14.470928      -393.7740
  11   2.0000     -14.467948      -393.6929
  12   2.0000     -14.466939      -393.6654
  13   2.0000     -14.437828      -392.8733
  14   2.0000     -14.436447      -392.8357
  15   2.0000     -14.435874      -392.8201
  16   2.0000     -14.430823      -392.6826
  17   2.0000     -14.422243      -392.4492
  18   2.0000     -14.420782      -392.4094
  19   2.0000     -10.396388      -282.9001
  20   2.0000     -10.395907      -282.8870
  21   2.0000     -10.391749      -282.7739
  22   2.0000     -10.390976      -282.7528
  23   2.0000     -10.390872      -282.7500
  24   2.0000     -10.390038      -282.7273
  25   2.0000     -10.379273      -282.4344
  26   2.0000     -10.375907      -282.3428
  27   2.0000     -10.362689      -281.9831
  28   2.0000     -10.362251      -281.9712
  29   2.0000     -10.361315      -281.9457
  30   2.0000     -10.359659      -281.9006
  31   2.0000     -10.358882      -281.8795
  32   2.0000     -10.358316      -281.8641
  33   2.0000     -10.351349      -281.6745
  34   2.0000     -10.350095      -281.6404
  35   2.0000     -10.347035      -281.5571
  36   2.0000     -10.343539      -281.4620
  37   2.0000     -10.341141      -281.3968
  38   2.0000     -10.338232      -281.3176
  39   2.0000     -10.337708      -281.3033
  40   2.0000     -10.336963      -281.2831
  41   2.0000     -10.335313      -281.2382
  42   2.0000     -10.333948      -281.2010
  43   2.0000     -10.333090      -281.1777
  44   2.0000     -10.330786      -281.1150
  45   2.0000     -10.329400      -281.0773
  46   2.0000     -10.329158      -281.0707
  47   2.0000     -10.328298      -281.0473
  48   2.0000     -10.324356      -280.9400
  49   2.0000     -10.322179      -280.8808
  50   2.0000     -10.321496      -280.8622
  51   2.0000     -10.318690      -280.7858
  52   2.0000     -10.318393      -280.7778
  53   2.0000     -10.313780      -280.6522
  54   2.0000     -10.313587      -280.6470
  55   2.0000     -10.313133      -280.6346
  56   2.0000     -10.312780      -280.6250
  57   2.0000     -10.312765      -280.6246
  58   2.0000     -10.307605      -280.4842
  59   2.0000     -10.305387      -280.4238
  60   2.0000     -10.304641      -280.4035
  61   2.0000     -10.303005      -280.3590
  62   2.0000     -10.302318      -280.3403
  63   2.0000     -10.292648      -280.0772
  64   2.0000     -10.288179      -279.9556
  65   2.0000     -10.287202      -279.9290
  66   2.0000     -10.279876      -279.7296
  67   2.0000      -8.151534      -221.8145
  68   2.0000      -6.122480      -166.6012
  69   2.0000      -6.114743      -166.3906
  70   2.0000      -6.114544      -166.3852
  71   2.0000      -1.333996       -36.2999
  72   2.0000      -1.328713       -36.1561
  73   2.0000      -1.318762       -35.8853
  74   2.0000      -1.313471       -35.7413
  75   2.0000      -1.157130       -31.4871
  76   2.0000      -1.144931       -31.1552
  77   2.0000      -1.139931       -31.0191
  78   2.0000      -1.131249       -30.7829
  79   2.0000      -1.111844       -30.2548
  80   2.0000      -1.102422       -29.9984
  81   2.0000      -1.057337       -28.7716
  82   2.0000      -1.037583       -28.2341
  83   2.0000      -1.027040       -27.9472
  84   2.0000      -1.021923       -27.8079
  85   2.0000      -1.018472       -27.7140
  86   2.0000      -1.012187       -27.5430
  87   2.0000      -1.011305       -27.5190
  88   2.0000      -1.008986       -27.4559
  89   2.0000      -1.007651       -27.4196
  90   2.0000      -1.000001       -27.2114
  91   2.0000      -0.991161       -26.9709
  92   2.0000      -0.970030       -26.3959
  93   2.0000      -0.963746       -26.2249
  94   2.0000      -0.929437       -25.2913
  95   2.0000      -0.924314       -25.1519
  96   2.0000      -0.920112       -25.0375
  97   2.0000      -0.917532       -24.9673
  98   2.0000      -0.910589       -24.7784
  99   2.0000      -0.904886       -24.6232
 100   2.0000      -0.901174       -24.5222
 101   2.0000      -0.889992       -24.2179
 102   2.0000      -0.885992       -24.1091
 103   2.0000      -0.884369       -24.0649
 104   2.0000      -0.879539       -23.9335
 105   2.0000      -0.871113       -23.7042
 106   2.0000      -0.851069       -23.1588
 107   2.0000      -0.837021       -22.7765
 108   2.0000      -0.831268       -22.6199
 109   2.0000      -0.812156       -22.0999
 110   2.0000      -0.804895       -21.9023
 111   2.0000      -0.792061       -21.5531
 112   2.0000      -0.785734       -21.3809
 113   2.0000      -0.777145       -21.1472
 114   2.0000      -0.765143       -20.8206
 115   2.0000      -0.746578       -20.3154
 116   2.0000      -0.742150       -20.1949
 117   2.0000      -0.735088       -20.0028
 118   2.0000      -0.723950       -19.6997
 119   2.0000      -0.717555       -19.5257
 120   2.0000      -0.716478       -19.4963
 121   2.0000      -0.709846       -19.3159
 122   2.0000      -0.702905       -19.1270
 123   2.0000      -0.702332       -19.1114
 124   2.0000      -0.701900       -19.0997
 125   2.0000      -0.696454       -18.9515
 126   2.0000      -0.692236       -18.8367
 127   2.0000      -0.685898       -18.6642
 128   2.0000      -0.680626       -18.5208
 129   2.0000      -0.673640       -18.3307
 130   2.0000      -0.666824       -18.1452
 131   2.0000      -0.661510       -18.0006
 132   2.0000      -0.654396       -17.8070
 133   2.0000      -0.651037       -17.7156
 134   2.0000      -0.646208       -17.5842
 135   2.0000      -0.642768       -17.4906
 136   2.0000      -0.635758       -17.2998
 137   2.0000      -0.618225       -16.8228
 138   2.0000      -0.617627       -16.8065
 139   2.0000      -0.615831       -16.7576
 140   2.0000      -0.614572       -16.7234
 141   2.0000      -0.610543       -16.6137
 142   2.0000      -0.602238       -16.3877
 143   2.0000      -0.598898       -16.2969
 144   2.0000      -0.593547       -16.1512
 145   2.0000      -0.592248       -16.1159
 146   2.0000      -0.592173       -16.1138
 147   2.0000      -0.578389       -15.7388
 148   2.0000      -0.574292       -15.6273
 149   2.0000      -0.569773       -15.5043
 150   2.0000      -0.564538       -15.3619
 151   2.0000      -0.562552       -15.3078
 152   2.0000      -0.558539       -15.1986
 153   2.0000      -0.556765       -15.1504
 154   2.0000      -0.553752       -15.0684
 155   2.0000      -0.553319       -15.0566
 156   2.0000      -0.551292       -15.0014
 157   2.0000      -0.550437       -14.9782
 158   2.0000      -0.548722       -14.9315
 159   2.0000      -0.547062       -14.8863
 160   2.0000      -0.541788       -14.7428
 161   2.0000      -0.540799       -14.7159
 162   2.0000      -0.539526       -14.6813
 163   2.0000      -0.538054       -14.6412
 164   2.0000      -0.537042       -14.6137
 165   2.0000      -0.529753       -14.4153
 166   2.0000      -0.522555       -14.2195
 167   2.0000      -0.522010       -14.2046
 168   2.0000      -0.513531       -13.9739
 169   2.0000      -0.512480       -13.9453
 170   2.0000      -0.509042       -13.8517
 171   2.0000      -0.504606       -13.7310
 172   2.0000      -0.500247       -13.6124
 173   2.0000      -0.500075       -13.6077
 174   2.0000      -0.498894       -13.5756
 175   2.0000      -0.496636       -13.5142
 176   2.0000      -0.495460       -13.4822
 177   2.0000      -0.494660       -13.4604
 178   2.0000      -0.493911       -13.4400
 179   2.0000      -0.490478       -13.3466
 180   2.0000      -0.474627       -12.9152
 181   2.0000      -0.472904       -12.8684
 182   2.0000      -0.470994       -12.8164
 183   2.0000      -0.468325       -12.7438
 184   2.0000      -0.463957       -12.6249
 185   2.0000      -0.462802       -12.5935
 186   2.0000      -0.462541       -12.5864
 187   2.0000      -0.461642       -12.5619
 188   2.0000      -0.460422       -12.5287
 189   2.0000      -0.458260       -12.4699
 190   2.0000      -0.454297       -12.3620
 191   2.0000      -0.452626       -12.3166
 192   2.0000      -0.451275       -12.2798
 193   2.0000      -0.450789       -12.2666
 194   2.0000      -0.448737       -12.2108
 195   2.0000      -0.445278       -12.1166
 196   2.0000      -0.444155       -12.0861
 197   2.0000      -0.439865       -11.9693
 198   2.0000      -0.434310       -11.8182
 199   2.0000      -0.433631       -11.7997
 200   2.0000      -0.432380       -11.7657
 201   2.0000      -0.427794       -11.6409
 202   2.0000      -0.426945       -11.6178
 203   2.0000      -0.424998       -11.5648
 204   2.0000      -0.419914       -11.4264
 205   2.0000      -0.415370       -11.3028
 206   2.0000      -0.412871       -11.2348
 207   2.0000      -0.402942       -10.9646
 208   2.0000      -0.398919       -10.8551
 209   2.0000      -0.374208       -10.1827
 210   2.0000      -0.372429       -10.1343
 211   2.0000      -0.372187       -10.1277
 212   2.0000      -0.366130        -9.9629
 213   2.0000      -0.363809        -9.8997
 214   2.0000      -0.360970        -9.8225
 215   2.0000      -0.356663        -9.7053
 216   2.0000      -0.354232        -9.6391
 217   2.0000      -0.353139        -9.6094
 218   2.0000      -0.350316        -9.5326
 219   2.0000      -0.348971        -9.4960
 220   2.0000      -0.346311        -9.4236
 221   2.0000      -0.331164        -9.0114
 222   2.0000      -0.322909        -8.7868
 223   2.0000      -0.317802        -8.6478
 224   2.0000      -0.287184        -7.8147
 225   2.0000      -0.252682        -6.8758
 226   0.0000      -0.139415        -3.7937
 227   0.0000      -0.103880        -2.8267
 228   0.0000      -0.092932        -2.5288
 229   0.0000      -0.072948        -1.9850
 230   0.0000      -0.067064        -1.8249

MULLIKEN ATOMIC CHARGES
-----------------------
   0 C :   -0.088943
   1 C :    0.237117
   2 F :   -0.163861
   3 C :    0.231669
   4 F :   -0.167917
   5 C :   -0.100800
   6 C :    0.009309
   7 C :    0.027618
   8 C :    0.257704
   9 C :   -0.330409
  10 C :   -0.176506
  11 N :    0.162515
  12 C :   -0.207841
  13 N :    0.177090
  14 C :   -0.147320
  15 C :    0.136865
  16 O :   -0.142653
  17 C :    0.040217
  18 C :    0.082282
  19 N :   -0.032975
  20 C :   -0.055832
  21 C :    0.011171
  22 C :    0.011442
  23 C :    0.085715
  24 C :   -0.021761
  25 C :    0.027049
  26 C :   -0.064579
  27 C :   -0.082591
  28 N :    0.055706
  29 C :   -0.119079
  30 C :   -0.148087
  31 N :    0.086664
  32 C :   -0.203514
  33 N :    0.246881
  34 C :   -0.217606
  35 N :    0.243219
  36 C :    0.229648
  37 C :    0.003188
  38 C :    0.018172
  39 N :   -0.265903
  40 S :    0.576515
  41 N :   -0.315889
  42 C :   -0.109413
  43 N :   -0.019411
  44 C :   -0.023865
  45 C :    0.041178
  46 C :   -0.008084
  47 C :    0.171476
  48 C :   -0.053765
  49 C :   -0.068262
  50 C :   -0.124079
  51 C :    0.128971
  52 O :   -0.139066
  53 C :    0.005704
  54 C :    0.023176
  55 C :   -0.090992
  56 C :    0.235739
  57 C :    0.234959
  58 C :   -0.097266
  59 F :   -0.165226
  60 F :   -0.162671
  61 C :    0.351988
  62 C :   -0.371411
  63 C :   -0.164758
  64 N :    0.155739
  65 C :   -0.209660
  66 N :    0.160724
  67 H :    0.018485
  68 H :    0.014201
  69 H :    0.010877
  70 H :    0.136485
  71 H :   -0.005908
  72 H :    0.001690
  73 H :    0.151263
  74 H :   -0.014147
  75 H :   -0.008113
  76 H :    0.058469
  77 H :    0.017240
  78 H :    0.014044
Sum of atomic charges:   -0.0000000

LOEWDIN ATOMIC CHARGES
----------------------
   0 C :   -0.020716
   1 C :    0.075021
   2 F :   -0.041884
   3 C :    0.069332
   4 F :   -0.044702
   5 C :   -0.004466
   6 C :   -0.047439
   7 C :   -0.011723
   8 C :    0.064372
   9 C :   -0.137086
  10 C :   -0.023199
  11 N :   -0.044433
  12 C :   -0.019258
  13 N :   -0.037976
  14 C :   -0.098166
  15 C :    0.083266
  16 O :   -0.141814
  17 C :    0.052969
  18 C :   -0.018260
  19 N :    0.122169
  20 C :   -0.004663
  21 C :   -0.020837
  22 C :   -0.013231
  23 C :   -0.016667
  24 C :    0.002166
  25 C :   -0.044804
  26 C :    0.001489
  27 C :   -0.007203
  28 N :    0.009645
  29 C :   -0.024758
  30 C :   -0.025202
  31 N :    0.010321
  32 C :   -0.035867
  33 N :    0.000488
  34 C :   -0.038765
  35 N :   -0.000782
  36 C :   -0.019557
  37 C :   -0.039270
  38 C :   -0.035860
  39 N :   -0.276647
  40 S :    0.703854
  41 N :   -0.277761
  42 C :    0.008962
  43 N :    0.129856
  44 C :   -0.027194
  45 C :   -0.017090
  46 C :   -0.035674
  47 C :    0.026892
  48 C :   -0.050989
  49 C :    0.057662
  50 C :   -0.097775
  51 C :    0.081910
  52 O :   -0.136969
  53 C :   -0.045095
  54 C :   -0.014013
  55 C :   -0.019543
  56 C :    0.074814
  57 C :    0.072515
  58 C :   -0.003036
  59 F :   -0.042125
  60 F :   -0.041682
  61 C :    0.077059
  62 C :   -0.139907
  63 C :    0.018317
  64 N :   -0.056350
  65 C :   -0.020461
  66 N :   -0.049709
  67 H :    0.051593
  68 H :    0.052783
  69 H :    0.045913
  70 H :    0.102331
  71 H :    0.039627
  72 H :    0.033267
  73 H :    0.065338
  74 H :    0.034879
  75 H :    0.029436
  76 H :    0.067383
  77 H :    0.051328
  78 H :    0.053654

  Mayer bond orders larger than 0.100000
B(  0-C ,  1-C ) :   1.3332 B(  0-C ,  5-C ) :   0.1037 B(  0-C ,  7-C ) :   1.3210
B(  0-C , 67-H ) :   0.9953 B(  1-C ,  2-F ) :   1.1433 B(  1-C ,  3-C ) :   1.2909
B(  3-C ,  4-F ) :   1.1317 B(  3-C ,  5-C ) :   1.3194 B(  5-C ,  6-C ) :   1.3253
B(  5-C , 68-H ) :   1.0198 B(  6-C ,  7-C ) :   1.3431 B(  6-C , 15-C ) :   0.9294
B(  7-C ,  8-C ) :   1.0153 B(  8-C ,  9-C ) :   1.6523 B(  8-C , 14-C ) :   1.0504
B(  9-C , 10-C ) :   1.1225 B(  9-C , 12-C ) :   1.1674 B( 10-C , 11-N ) :   2.9965
B( 12-C , 13-N ) :   2.9977 B( 14-C , 15-C ) :   0.9549 B( 14-C , 17-C ) :   1.6417
B( 15-C , 16-O ) :   2.2621 B( 17-C , 18-C ) :   1.1099 B( 17-C , 69-H ) :   0.9317
B( 18-C , 19-N ) :   1.1930 B( 18-C , 20-C ) :   0.1193 B( 18-C , 22-C ) :   1.3331
B( 19-N , 20-C ) :   1.2890 B( 19-N , 70-H ) :   0.9348 B( 20-C , 21-C ) :   1.3718
B( 20-C , 23-C ) :   0.7985 B( 21-C , 22-C ) :   1.3920 B( 21-C , 71-H ) :   1.0182
B( 22-C , 72-H ) :   0.9979 B( 23-C , 24-C ) :   2.2115 B( 24-C , 25-C ) :   0.9467
B( 25-C , 26-C ) :   1.2845 B( 25-C , 36-C ) :   0.1401 B( 25-C , 38-C ) :   1.2362
B( 26-C , 27-C ) :   1.1023 B( 26-C , 31-N ) :   1.4959 B( 27-C , 28-N ) :   1.4569
B( 27-C , 36-C ) :   1.2757 B( 28-N , 29-C ) :   1.7426 B( 29-C , 30-C ) :   1.2016
B( 29-C , 34-C ) :   1.1434 B( 30-C , 31-N ) :   1.7419 B( 30-C , 32-C ) :   1.1591
B( 32-C , 33-N ) :   3.0493 B( 34-C , 35-N ) :   3.0491 B( 36-C , 37-C ) :   1.1782
B( 36-C , 42-C ) :   1.0517 B( 37-C , 38-C ) :   1.1035 B( 37-C , 41-N ) :   1.4747
B( 38-C , 39-N ) :   1.5376 B( 39-N , 40-S ) :   1.2977 B( 39-N , 41-N ) :   0.1501
B( 40-S , 41-N ) :   1.2858 B( 42-C , 43-N ) :   1.3311 B( 42-C , 44-C ) :   0.1190
B( 42-C , 46-C ) :   1.3275 B( 43-N , 44-C ) :   1.2678 B( 43-N , 73-H ) :   0.8550
B( 44-C , 45-C ) :   1.2995 B( 44-C , 47-C ) :   0.8816 B( 45-C , 46-C ) :   1.3925
B( 45-C , 74-H ) :   1.0106 B( 46-C , 75-H ) :   0.9970 B( 47-C , 48-C ) :   1.9948
B( 48-C , 49-C ) :   0.9866 B( 49-C , 50-C ) :   1.6013 B( 49-C , 76-H ) :   0.9390
B( 50-C , 51-C ) :   0.9537 B( 50-C , 61-C ) :   1.0527 B( 51-C , 52-O ) :   2.2542
B( 51-C , 53-C ) :   0.9367 B( 53-C , 54-C ) :   1.3403 B( 53-C , 58-C ) :   1.3265
B( 54-C , 55-C ) :   1.3127 B( 54-C , 61-C ) :   1.0160 B( 55-C , 56-C ) :   1.3407
B( 55-C , 58-C ) :   0.1041 B( 55-C , 77-H ) :   0.9870 B( 56-C , 57-C ) :   1.2907
B( 56-C , 60-F ) :   1.1497 B( 57-C , 58-C ) :   1.3148 B( 57-C , 59-F ) :   1.1349
B( 58-C , 78-H ) :   1.0199 B( 61-C , 62-C ) :   1.6044 B( 62-C , 63-C ) :   1.1868
B( 62-C , 65-C ) :   1.1296 B( 63-C , 64-N ) :   2.9340 B( 64-N , 73-H ) :   0.1087
B( 65-C , 66-N ) :   2.9803

-----------------------------------------------------------------------------
         ABSORPTION SPECTRUM VIA TRANSITION ELECTRIC DIPOLE MOMENTS
-----------------------------------------------------------------------------
State   Energy  Wavelength   fosc         T2         TX        TY        TZ
        (cm-1)    (nm)                  (au**2)     (au)      (au)      (au)
-----------------------------------------------------------------------------
   0    9717.8   1029.0   0.832911720  28.21662  -1.37529  -4.71974  -2.01227
   1   17725.1    564.2   0.377418822   7.00987   2.54476  -0.67766   0.27359
   2   18456.3    541.8   0.274047230   4.88830   1.25777   1.52064   0.99699
   3   20337.6    491.7   0.476875844   7.71937  -0.56894   2.44505   1.19055
   4   24941.8    400.9   0.173381185   2.28849  -0.45408  -1.34729  -0.51682
   5   25126.7    398.0   0.079154290   1.03709   0.95466   0.08129   0.34511
   6   25769.3    388.1   0.231116816   2.95260  -0.10294   1.68843   0.30201
   7   26317.2    380.0   0.004219169   0.05278  -0.05929   0.08012   0.20699
   8   26767.8    373.6   0.068857628   0.84687  -0.80299   0.43464  -0.11471
   9   26886.7    371.9   0.034679171   0.42463   0.37726  -0.50725  -0.15811
  10   27386.0    365.1   0.012263125   0.14742  -0.06974  -0.24705  -0.28551
  11   27797.5    359.7   0.067869038   0.80379  -0.81139   0.34665  -0.15896
  12   28120.1    355.6   0.123052663   1.44062  -1.00535   0.10869  -0.64659
  13   28447.0    351.5   0.012951454   0.14989   0.24519   0.29947   0.00920
  14   28762.3    347.7   0.294038053   3.36555   0.57380   1.69447   0.40630
  15   29678.2    336.9   0.025322822   0.28090   0.07181   0.22939   0.47236
  16   29887.4    334.6   0.005405243   0.05954   0.06974  -0.23286   0.02121
  17   30674.5    326.0   0.011840098   0.12707  -0.11954   0.29587  -0.15889
  18   31273.4    319.8   0.002230783   0.02348   0.14893   0.01277   0.03378
  19   31925.6    313.2   0.002674265   0.02758   0.00872   0.13369   0.09812
  20   32086.5    311.7   0.068326516   0.70104   0.45092  -0.68236  -0.17916
  21   32145.6    311.1   0.196575673   2.01319  -1.40142  -0.20927   0.07360
  22   32234.3    310.2   0.831805719   8.49532   2.80227   0.19260   0.77816
  23   32628.3    306.5   0.019671786   0.19848   0.06741   0.42736   0.10633
  24   32760.8    305.2   0.030852138   0.31003   0.31904  -0.34221   0.30189
  25   32929.6    303.7   0.310396602   3.10317  -0.61701   1.62614  -0.27954
  26   33963.9    294.4   0.174634939   1.69274  -0.30517  -1.15727  -0.51022
  27   34371.4    290.9   0.081847888   0.78395  -0.02621   0.78984   0.39926
  28   34775.5    287.6   0.113888623   1.07816   0.31856   0.95027   0.27140
  29   35025.0    285.5   0.018162990   0.17072   0.32975  -0.19368   0.15643
  30   35222.5    283.9   0.008631190   0.08067  -0.08722   0.19694   0.18515
  31   35411.5    282.4   0.012619310   0.11732  -0.29922   0.06645   0.15288
  32   35776.9    279.5   0.074043082   0.68133  -0.46520   0.53255  -0.42581
  33   35914.6    278.4   0.071908855   0.65915   0.55434   0.36122   0.47050
  34   36021.6    277.6   0.035231332   0.32199  -0.44566   0.09163  -0.33909
  35   36617.0    273.1   0.323547583   2.90891   1.03643   1.29124   0.40916
  36   36767.2    272.0   0.038630829   0.34590  -0.53045   0.13931  -0.21239
  37   36999.6    270.3   0.504543346   4.48928   1.14331  -1.69241   0.56382
  38   37179.9    269.0   0.117808091   1.04314   0.49864  -0.01748   0.89117
  39   37275.3    268.3   0.006690681   0.05909   0.01825  -0.22223  -0.09682
  40   37606.0    265.9   0.154919705   1.35620  -0.11757  -1.06985  -0.44475
  41   37907.4    263.8   0.014135873   0.12277  -0.22801   0.09872  -0.24705
  42   38759.6    258.0   0.025802773   0.21916  -0.30792  -0.34457  -0.07494
  43   39554.3    252.8   0.011038749   0.09188   0.27083  -0.10781   0.08311
  44   39754.9    251.5   0.024071816   0.19934   0.36875  -0.23502   0.09018
  45   40012.8    249.9   0.017089306   0.14061  -0.11300   0.31554   0.16813
  46   40028.0    249.8   0.030841265   0.25366   0.07255  -0.41962  -0.26891
  47   40150.9    249.1   0.078022686   0.63974   0.51657   0.47594   0.38259

FINAL SINGLE POINT ENERGY     -3437.247877941677

DIPOLE MOMENT
-------------
                                X             Y             Z
Electronic contribution:    -17.19642       7.30365      -3.74623
Nuclear contribution   :     15.10607      -8.35148       1.75901
                        -----------------------------------------
Total Dipole Moment    :     -2.09035      -1.04783      -1.98723
                        -----------------------------------------
Magnitude (a.u.)       :      3.06864
Magnitude (Debye)      :      7.79987

Rotational constants in cm-1:     0.001579     0.000293     0.000250
Rotational constants in MHz :    47.337391     8.778002     7.502188

                             ****ORCA TERMINATED NORMALLY****
TOTAL RUN TIME: 0 days 0 hours 9 minutes 57 seconds 483 msec
