                         Program Version 4.2.0 -  RELEASE  -
|  1> # ORCA input file
|  2> # SCF done       -179.268526251634          0.000374546721
|  3> ! CAM-B3LYP def2-SVP def2/J RIJCOSX Grid4 TightSCF
|  4> %maxcore 5000
|  5> %tddft
|  6>     Mode sTDDFT
|  7>     Ethresh 5.0
|  8>     maxcore 5000
|  9> end
| 10>
| 11> %pal
| 12>   nprocs 6
| 13>   end
| 14> * xyz 0 1
| 15>    C        5.66867         4.61962        -0.05079
| 16>    C        6.33351         5.81596         0.17859
| 17>    F        6.01593         6.88632        -0.56024
| 18>    C        7.31759         5.92888         1.15965
| 19>    F        7.93918         7.10169         1.34231
| 20>    C        7.65810         4.84270         1.95141
| 21>    C        6.98856         3.65586         1.73307
| 22>    C        6.00327         3.53252         0.73776
| 23>    C        5.52216         2.14940         0.72757
| 24>    C        4.91772         1.53389        -0.34235
| 25>    C        4.46670         2.21173        -1.49013
| 26>    N        4.06037         2.72294        -2.43462
| 27>    C        4.78511         0.13511        -0.44215
| 28>    N        4.71167        -1.00353        -0.57421
| 29>    C        6.06935         1.49895         1.88721
| 30>    C        7.12817         2.36329         2.44871
| 31>    O        7.90913         2.08926         3.33297
| 32>    C        5.73120         0.33346         2.53556
| 33>    C        4.53291        -0.37820         2.51459
| 34>    C        4.31031        -1.66385         3.05516
| 35>    C        2.95649        -2.09396         2.95481
| 36>    N        2.53477        -3.29046         3.38726
| 37>    C        3.42625        -4.08757         3.91692
| 38>    C        4.78728        -3.76716         4.05970
| 39>    C        5.24082        -2.54788         3.62445
| 40>    C        2.11200        -1.12117         2.36155
| 41>    S        3.02578         0.27798         1.92812
| 42>    C        0.73400        -1.16428         2.10627
| 43>    C       -0.05276        -2.25324         2.35811
| 44>    C       -1.43310        -2.32098         2.09486
| 45>    N       -2.13874        -3.49050         2.30909
| 46>    C       -3.43540        -3.28640         1.96921
| 47>    C       -4.68234        -3.88578         1.87293
| 48>    C       -5.55814        -2.89495         1.39506
| 49>    N       -4.85839        -1.72082         1.20554
| 50>    C       -3.55898        -1.93369         1.53724
| 51>    C       -2.31355        -1.33384         1.61094
| 52>    C       -6.93766        -3.04462         1.13288
| 53>    C       -7.78489        -2.02521         0.81165
| 54>    C       -9.15813        -2.11793         0.50946
| 55>    C       -9.97518        -3.20048         0.12105
| 56>    C      -11.34452        -2.82461        -0.05744
| 57>    N      -12.30450        -3.69189        -0.40561
| 58>    C      -11.95235        -4.92902        -0.62898
| 59>    C      -10.62732        -5.39360        -0.55636
| 60>    C       -9.63027        -4.52957        -0.18180
| 61>    C      -11.58073        -1.44984         0.16525
| 62>    S      -10.09934        -0.66187         0.59313
| 63>    C      -12.75618        -0.70032         0.04048
| 64>    C      -13.97092        -1.21010        -0.33529
| 65>    C      -15.15269        -0.46320        -0.46118
| 66>    C      -15.35943         0.89261        -0.56197
| 67>    C      -16.70428         1.41790        -0.22087
| 68>    O      -17.71648         0.77825        -0.04677
| 69>    C      -16.53117         2.88383        -0.09031
| 70>    C      -15.21747         3.22722        -0.45098
| 71>    C      -14.79836         4.54476        -0.37110
| 72>    C      -15.71290         5.49221         0.06616
| 73>    C      -17.01945         5.14550         0.40809
| 74>    C      -17.44444         3.82821         0.33307
| 75>    F      -17.87047         6.09443         0.81953
| 76>    F      -15.32409         6.76927         0.16593
| 77>    C      -14.51432         2.01467        -0.88325
| 78>    C      -13.38199         2.01769        -1.66089
| 79>    C      -12.83334         0.87478        -2.27406
| 80>    N      -12.34528        -0.01127        -2.81707
| 81>    C      -12.65629         3.17845        -1.99471
| 82>    N      -12.00676         4.08276        -2.27545
| 83>    H        4.91422         4.57710        -0.81947
| 84>    H        8.42033         4.92998         2.70905
| 85>    H        6.47875        -0.02062         3.23909
| 86>    H        3.05363        -5.04606         4.25377
| 87>    H        5.45999        -4.48238         4.50573
| 88>    H        6.28041        -2.27108         3.71195
| 89>    H        0.30031        -0.27711         1.66640
| 90>    H        0.42424        -3.12872         2.77670
| 91>    H       -1.72664        -4.34404         2.64518
| 92>    H       -4.95976        -4.89236         2.11312
| 93>    H       -5.24734        -0.87151         0.83579
| 94>    H       -2.04914        -0.32683         1.36182
| 95>    H       -7.31837        -4.04737         1.24526
| 96>    H       -7.40825        -1.01003         0.83807
| 97>    H      -12.75410        -5.60207        -0.90235
| 98>    H      -10.40596        -6.41959        -0.80412
| 99>    H       -8.60327        -4.85672        -0.14838
|100>    H      -12.67385         0.34783         0.30120
|101>    H      -14.03522        -2.27874        -0.48063
|102>    H      -16.07719        -1.03106        -0.40244
|103>    H      -13.79914         4.86181        -0.62120
|104>    H      -18.45360         3.55724         0.59912
|105> *
|106>
|107>                          ****END OF INPUT****

CARTESIAN COORDINATES (ANGSTROEM)
---------------------------------
  C      5.668670    4.619620   -0.050790
  C      6.333510    5.815960    0.178590
  F      6.015930    6.886320   -0.560240
  C      7.317590    5.928880    1.159650
  F      7.939180    7.101690    1.342310
  C      7.658100    4.842700    1.951410
  C      6.988560    3.655860    1.733070
  C      6.003270    3.532520    0.737760
  C      5.522160    2.149400    0.727570
  C      4.917720    1.533890   -0.342350
  C      4.466700    2.211730   -1.490130
  N      4.060370    2.722940   -2.434620
  C      4.785110    0.135110   -0.442150
  N      4.711670   -1.003530   -0.574210
  C      6.069350    1.498950    1.887210
  C      7.128170    2.363290    2.448710
  O      7.909130    2.089260    3.332970
  C      5.731200    0.333460    2.535560
  C      4.532910   -0.378200    2.514590
  C      4.310310   -1.663850    3.055160
  C      2.956490   -2.093960    2.954810
  N      2.534770   -3.290460    3.387260
  C      3.426250   -4.087570    3.916920
  C      4.787280   -3.767160    4.059700
  C      5.240820   -2.547880    3.624450
  C      2.112000   -1.121170    2.361550
  S      3.025780    0.277980    1.928120
  C      0.734000   -1.164280    2.106270
  C     -0.052760   -2.253240    2.358110
  C     -1.433100   -2.320980    2.094860
  N     -2.138740   -3.490500    2.309090
  C     -3.435400   -3.286400    1.969210
  C     -4.682340   -3.885780    1.872930
  C     -5.558140   -2.894950    1.395060
  N     -4.858390   -1.720820    1.205540
  C     -3.558980   -1.933690    1.537240
  C     -2.313550   -1.333840    1.610940
  C     -6.937660   -3.044620    1.132880
  C     -7.784890   -2.025210    0.811650
  C     -9.158130   -2.117930    0.509460
  C     -9.975180   -3.200480    0.121050
  C    -11.344520   -2.824610   -0.057440
  N    -12.304500   -3.691890   -0.405610
  C    -11.952350   -4.929020   -0.628980
  C    -10.627320   -5.393600   -0.556360
  C     -9.630270   -4.529570   -0.181800
  C    -11.580730   -1.449840    0.165250
  S    -10.099340   -0.661870    0.593130
  C    -12.756180   -0.700320    0.040480
  C    -13.970920   -1.210100   -0.335290
  C    -15.152690   -0.463200   -0.461180
  C    -15.359430    0.892610   -0.561970
  C    -16.704280    1.417900   -0.220870
  O    -17.716480    0.778250   -0.046770
  C    -16.531170    2.883830   -0.090310
  C    -15.217470    3.227220   -0.450980
  C    -14.798360    4.544760   -0.371100
  C    -15.712900    5.492210    0.066160
  C    -17.019450    5.145500    0.408090
  C    -17.444440    3.828210    0.333070
  F    -17.870470    6.094430    0.819530
  F    -15.324090    6.769270    0.165930
  C    -14.514320    2.014670   -0.883250
  C    -13.381990    2.017690   -1.660890
  C    -12.833340    0.874780   -2.274060
  N    -12.345280   -0.011270   -2.817070
  C    -12.656290    3.178450   -1.994710
  N    -12.006760    4.082760   -2.275450
  H      4.914220    4.577100   -0.819470
  H      8.420330    4.929980    2.709050
  H      6.478750   -0.020620    3.239090
  H      3.053630   -5.046060    4.253770
  H      5.459990   -4.482380    4.505730
  H      6.280410   -2.271080    3.711950
  H      0.300310   -0.277110    1.666400
  H      0.424240   -3.128720    2.776700
  H     -1.726640   -4.344040    2.645180
  H     -4.959760   -4.892360    2.113120
  H     -5.247340   -0.871510    0.835790
  H     -2.049140   -0.326830    1.361820
  H     -7.318370   -4.047370    1.245260
  H     -7.408250   -1.010030    0.838070
  H    -12.754100   -5.602070   -0.902350
  H    -10.405960   -6.419590   -0.804120
  H     -8.603270   -4.856720   -0.148380
  H    -12.673850    0.347830    0.301200
  H    -14.035220   -2.278740   -0.480630
  H    -16.077190   -1.031060   -0.402440
  H    -13.799140    4.861810   -0.621200
  H    -18.453600    3.557240    0.599120

 Total Charge           Charge          ....    0
 Multiplicity           Mult            ....    1
 Number of Electrons    NEL             ....  474
 Basis Dimension        Dim             .... 1070

ORBITAL ENERGIES
----------------

  NO   OCC          E(Eh)            E(eV)
   0   2.0000     -88.985480     -2421.4180
   1   2.0000     -88.982568     -2421.3388
   2   2.0000     -24.796223      -674.7395
   3   2.0000     -24.795558      -674.7214
   4   2.0000     -24.793709      -674.6711
   5   2.0000     -24.793273      -674.6592
   6   2.0000     -19.209431      -522.7152
   7   2.0000     -19.207264      -522.6562
   8   2.0000     -14.478206      -393.9720
   9   2.0000     -14.477412      -393.9504
  10   2.0000     -14.425967      -392.5505
  11   2.0000     -14.419821      -392.3833
  12   2.0000     -14.411360      -392.1531
  13   2.0000     -14.411154      -392.1474
  14   2.0000     -14.407618      -392.0512
  15   2.0000     -14.406305      -392.0155
  16   2.0000     -10.380837      -282.4769
  17   2.0000     -10.380210      -282.4599
  18   2.0000     -10.378222      -282.4058
  19   2.0000     -10.377446      -282.3847
  20   2.0000     -10.360917      -281.9349
  21   2.0000     -10.359718      -281.9023
  22   2.0000     -10.338936      -281.3368
  23   2.0000     -10.336965      -281.2831
  24   2.0000     -10.334935      -281.2279
  25   2.0000     -10.334929      -281.2277
  26   2.0000     -10.334772      -281.2234
  27   2.0000     -10.332633      -281.1652
  28   2.0000     -10.330418      -281.1050
  29   2.0000     -10.325902      -280.9821
  30   2.0000     -10.325748      -280.9779
  31   2.0000     -10.324674      -280.9487
  32   2.0000     -10.323582      -280.9189
  33   2.0000     -10.323216      -280.9090
  34   2.0000     -10.317767      -280.7607
  35   2.0000     -10.317275      -280.7473
  36   2.0000     -10.315338      -280.6946
  37   2.0000     -10.314878      -280.6821
  38   2.0000     -10.314834      -280.6809
  39   2.0000     -10.314559      -280.6734
  40   2.0000     -10.312339      -280.6130
  41   2.0000     -10.311762      -280.5973
  42   2.0000     -10.311073      -280.5786
  43   2.0000     -10.310790      -280.5709
  44   2.0000     -10.309143      -280.5260
  45   2.0000     -10.308704      -280.5141
  46   2.0000     -10.308086      -280.4973
  47   2.0000     -10.308029      -280.4957
  48   2.0000     -10.307605      -280.4842
  49   2.0000     -10.307429      -280.4794
  50   2.0000     -10.307209      -280.4734
  51   2.0000     -10.305458      -280.4258
  52   2.0000     -10.305095      -280.4159
  53   2.0000     -10.303439      -280.3708
  54   2.0000     -10.303238      -280.3654
  55   2.0000     -10.301136      -280.3082
  56   2.0000     -10.301129      -280.3080
  57   2.0000     -10.300691      -280.2961
  58   2.0000     -10.298758      -280.2434
  59   2.0000     -10.296263      -280.1755
  60   2.0000     -10.295868      -280.1648
  61   2.0000     -10.295289      -280.1491
  62   2.0000     -10.293773      -280.1078
  63   2.0000     -10.288500      -279.9643
  64   2.0000     -10.287093      -279.9260
  65   2.0000     -10.286455      -279.9087
  66   2.0000     -10.283552      -279.8297
  67   2.0000     -10.274011      -279.5701
  68   2.0000      -8.080762      -219.8887
  69   2.0000      -8.077124      -219.7897
  70   2.0000      -6.049589      -164.6177
  71   2.0000      -6.046140      -164.5238
  72   2.0000      -6.045639      -164.5102
  73   2.0000      -6.043687      -164.4571
  74   2.0000      -6.042044      -164.4124
  75   2.0000      -6.039836      -164.3523
  76   2.0000      -1.319284       -35.8995
  77   2.0000      -1.316784       -35.8315
  78   2.0000      -1.304103       -35.4864
  79   2.0000      -1.301618       -35.4188
  80   2.0000      -1.124874       -30.6094
  81   2.0000      -1.122417       -30.5425
  82   2.0000      -1.111083       -30.2341
  83   2.0000      -1.074370       -29.2351
  84   2.0000      -1.062480       -28.9115
  85   2.0000      -1.060745       -28.8643
  86   2.0000      -1.015938       -27.6451
  87   2.0000      -1.013773       -27.5862
  88   2.0000      -0.997465       -27.1424
  89   2.0000      -0.995549       -27.0903
  90   2.0000      -0.994219       -27.0541
  91   2.0000      -0.993334       -27.0300
  92   2.0000      -0.989839       -26.9349
  93   2.0000      -0.984699       -26.7950
  94   2.0000      -0.952216       -25.9111
  95   2.0000      -0.949563       -25.8389
  96   2.0000      -0.935192       -25.4479
  97   2.0000      -0.933066       -25.3900
  98   2.0000      -0.914705       -24.8904
  99   2.0000      -0.906950       -24.6794
 100   2.0000      -0.905176       -24.6311
 101   2.0000      -0.896492       -24.3948
 102   2.0000      -0.894733       -24.3469
 103   2.0000      -0.887920       -24.1615
 104   2.0000      -0.883067       -24.0295
 105   2.0000      -0.877116       -23.8675
 106   2.0000      -0.869195       -23.6520
 107   2.0000      -0.866645       -23.5826
 108   2.0000      -0.859718       -23.3941
 109   2.0000      -0.857671       -23.3384
 110   2.0000      -0.855514       -23.2797
 111   2.0000      -0.835303       -22.7297
 112   2.0000      -0.820714       -22.3328
 113   2.0000      -0.802272       -21.8309
 114   2.0000      -0.787879       -21.4393
 115   2.0000      -0.770690       -20.9715
 116   2.0000      -0.765740       -20.8368
 117   2.0000      -0.761730       -20.7277
 118   2.0000      -0.753489       -20.5035
 119   2.0000      -0.743181       -20.2230
 120   2.0000      -0.743037       -20.2191
 121   2.0000      -0.737362       -20.0646
 122   2.0000      -0.725388       -19.7388
 123   2.0000      -0.722354       -19.6563
 124   2.0000      -0.713523       -19.4160
 125   2.0000      -0.711613       -19.3640
 126   2.0000      -0.709377       -19.3031
 127   2.0000      -0.702886       -19.1265
 128   2.0000      -0.688001       -18.7215
 129   2.0000      -0.682701       -18.5772
 130   2.0000      -0.681805       -18.5528
 131   2.0000      -0.676874       -18.4187
 132   2.0000      -0.670206       -18.2372
 133   2.0000      -0.667429       -18.1617
 134   2.0000      -0.659861       -17.9557
 135   2.0000      -0.656211       -17.8564
 136   2.0000      -0.643513       -17.5109
 137   2.0000      -0.640864       -17.4388
 138   2.0000      -0.635618       -17.2960
 139   2.0000      -0.633984       -17.2516
 140   2.0000      -0.632482       -17.2107
 141   2.0000      -0.616893       -16.7865
 142   2.0000      -0.613109       -16.6835
 143   2.0000      -0.608081       -16.5467
 144   2.0000      -0.604230       -16.4419
 145   2.0000      -0.602584       -16.3972
 146   2.0000      -0.597335       -16.2543
 147   2.0000      -0.592690       -16.1279
 148   2.0000      -0.591197       -16.0873
 149   2.0000      -0.588308       -16.0087
 150   2.0000      -0.584367       -15.9014
 151   2.0000      -0.582210       -15.8427
 152   2.0000      -0.582034       -15.8380
 153   2.0000      -0.581174       -15.8146
 154   2.0000      -0.573936       -15.6176
 155   2.0000      -0.569733       -15.5032
 156   2.0000      -0.564705       -15.3664
 157   2.0000      -0.555651       -15.1200
 158   2.0000      -0.551867       -15.0171
 159   2.0000      -0.549026       -14.9398
 160   2.0000      -0.547301       -14.8928
 161   2.0000      -0.544673       -14.8213
 162   2.0000      -0.544608       -14.8195
 163   2.0000      -0.542303       -14.7568
 164   2.0000      -0.541287       -14.7292
 165   2.0000      -0.539008       -14.6671
 166   2.0000      -0.533338       -14.5129
 167   2.0000      -0.531887       -14.4734
 168   2.0000      -0.530658       -14.4400
 169   2.0000      -0.527938       -14.3659
 170   2.0000      -0.526453       -14.3255
 171   2.0000      -0.524144       -14.2627
 172   2.0000      -0.523053       -14.2330
 173   2.0000      -0.520832       -14.1726
 174   2.0000      -0.518173       -14.1002
 175   2.0000      -0.514493       -14.0001
 176   2.0000      -0.511367       -13.9150
 177   2.0000      -0.507744       -13.8164
 178   2.0000      -0.499995       -13.6056
 179   2.0000      -0.497306       -13.5324
 180   2.0000      -0.495219       -13.4756
 181   2.0000      -0.492888       -13.4122
 182   2.0000      -0.492467       -13.4007
 183   2.0000      -0.491335       -13.3699
 184   2.0000      -0.489772       -13.3274
 185   2.0000      -0.487841       -13.2748
 186   2.0000      -0.486595       -13.2409
 187   2.0000      -0.482982       -13.1426
 188   2.0000      -0.476807       -12.9746
 189   2.0000      -0.473455       -12.8834
 190   2.0000      -0.468690       -12.7537
 191   2.0000      -0.465671       -12.6715
 192   2.0000      -0.464402       -12.6370
 193   2.0000      -0.462236       -12.5781
 194   2.0000      -0.461885       -12.5685
 195   2.0000      -0.456235       -12.4148
 196   2.0000      -0.454420       -12.3654
 197   2.0000      -0.450913       -12.2700
 198   2.0000      -0.449088       -12.2203
 199   2.0000      -0.448015       -12.1911
 200   2.0000      -0.445879       -12.1330
 201   2.0000      -0.445738       -12.1291
 202   2.0000      -0.444682       -12.1004
 203   2.0000      -0.441770       -12.0212
 204   2.0000      -0.440997       -12.0001
 205   2.0000      -0.437571       -11.9069
 206   2.0000      -0.437083       -11.8936
 207   2.0000      -0.436565       -11.8795
 208   2.0000      -0.431914       -11.7530
 209   2.0000      -0.424000       -11.5376
 210   2.0000      -0.419602       -11.4179
 211   2.0000      -0.418416       -11.3857
 212   2.0000      -0.416277       -11.3275
 213   2.0000      -0.411456       -11.1963
 214   2.0000      -0.403487       -10.9794
 215   2.0000      -0.402974       -10.9655
 216   2.0000      -0.395236       -10.7549
 217   2.0000      -0.393414       -10.7053
 218   2.0000      -0.385678       -10.4948
 219   2.0000      -0.372648       -10.1403
 220   2.0000      -0.359893        -9.7932
 221   2.0000      -0.350118        -9.5272
 222   2.0000      -0.348028        -9.4703
 223   2.0000      -0.344380        -9.3711
 224   2.0000      -0.343924        -9.3587
 225   2.0000      -0.341049        -9.2804
 226   2.0000      -0.338026        -9.1982
 227   2.0000      -0.335650        -9.1335
 228   2.0000      -0.333733        -9.0813
 229   2.0000      -0.330238        -8.9862
 230   2.0000      -0.322867        -8.7857
 231   2.0000      -0.311599        -8.4790
 232   2.0000      -0.308730        -8.4010
 233   2.0000      -0.306164        -8.3311
 234   2.0000      -0.285224        -7.7614
 235   2.0000      -0.254934        -6.9371
 236   2.0000      -0.223883        -6.0922
 237   0.0000      -0.114042        -3.1032
 238   0.0000      -0.094818        -2.5801
 239   0.0000      -0.066837        -1.8187
 240   0.0000      -0.058727        -1.5980
 241   0.0000      -0.045884        -1.2486

MULLIKEN ATOMIC CHARGES
-----------------------
   0 C :   -0.097916
   1 C :    0.237019
   2 F :   -0.169260
   3 C :    0.232861
   4 F :   -0.173046
   5 C :   -0.112351
   6 C :    0.010446
   7 C :    0.027021
   8 C :    0.248941
   9 C :   -0.334368
  10 C :   -0.181465
  11 N :    0.149629
  12 C :   -0.217654
  13 N :    0.163672
  14 C :   -0.155422
  15 C :    0.137682
  16 O :   -0.153219
  17 C :    0.016281
  18 C :   -0.135859
  19 C :    0.145362
  20 C :    0.006314
  21 N :   -0.047381
  22 C :    0.033520
  23 C :    0.014411
  24 C :    0.017191
  25 C :   -0.064750
  26 S :    0.192097
  27 C :   -0.015998
  28 C :    0.032937
  29 C :    0.103212
  30 N :   -0.027556
  31 C :    0.129197
  32 C :   -0.164425
  33 C :    0.081259
  34 N :   -0.036959
  35 C :    0.122309
  36 C :   -0.156234
  37 C :    0.024085
  38 C :    0.027312
  39 C :   -0.124003
  40 C :    0.095167
  41 C :    0.036706
  42 N :   -0.043184
  43 C :    0.044963
  44 C :    0.001271
  45 C :    0.011864
  46 C :   -0.136430
  47 S :    0.186299
  48 C :    0.047707
  49 C :    0.009607
  50 C :    0.054179
  51 C :   -0.140022
  52 C :    0.131276
  53 O :   -0.144983
  54 C :    0.014935
  55 C :    0.020952
  56 C :   -0.093127
  57 C :    0.233462
  58 C :    0.231121
  59 C :   -0.104008
  60 F :   -0.171476
  61 F :   -0.168896
  62 C :    0.273463
  63 C :   -0.350668
  64 C :   -0.211264
  65 N :    0.176899
  66 C :   -0.182533
  67 N :    0.148524
  68 H :    0.015958
  69 H :    0.009611
  70 H :    0.014383
  71 H :    0.001281
  72 H :    0.005929
  73 H :    0.002744
  74 H :   -0.023028
  75 H :   -0.005903
  76 H :    0.128980
  77 H :   -0.029087
  78 H :    0.131176
  79 H :   -0.022789
  80 H :   -0.011393
  81 H :   -0.032806
  82 H :    0.010290
  83 H :    0.001001
  84 H :   -0.009909
  85 H :   -0.005791
  86 H :    0.014724
  87 H :    0.025145
  88 H :    0.013927
  89 H :    0.008863
Sum of atomic charges:    0.0000000

LOEWDIN ATOMIC CHARGES
----------------------
   0 C :   -0.023428
   1 C :    0.071247
   2 F :   -0.047259
   3 C :    0.066139
   4 F :   -0.049925
   5 C :   -0.008447
   6 C :   -0.045799
   7 C :   -0.011557
   8 C :    0.059152
   9 C :   -0.159274
  10 C :   -0.023590
  11 N :   -0.059887
  12 C :   -0.036531
  13 N :   -0.059061
  14 C :   -0.127083
  15 C :    0.080072
  16 O :   -0.154608
  17 C :    0.043678
  18 C :   -0.203436
  19 C :   -0.024189
  20 C :   -0.035687
  21 N :   -0.058750
  22 C :    0.022247
  23 C :   -0.030783
  24 C :    0.021753
  25 C :   -0.123417
  26 S :    0.519918
  27 C :   -0.060061
  28 C :    0.013308
  29 C :   -0.001119
  30 N :    0.077233
  31 C :   -0.010562
  32 C :   -0.082752
  33 C :    0.006961
  34 N :    0.068654
  35 C :   -0.007267
  36 C :   -0.073228
  37 C :   -0.018198
  38 C :   -0.066909
  39 C :   -0.151130
  40 C :   -0.064739
  41 C :   -0.005989
  42 N :   -0.056302
  43 C :    0.041106
  44 C :   -0.048549
  45 C :    0.022598
  46 C :   -0.189846
  47 S :    0.501140
  48 C :    0.021826
  49 C :   -0.044930
  50 C :    0.070010
  51 C :   -0.111718
  52 C :    0.081040
  53 O :   -0.145403
  54 C :   -0.045781
  55 C :   -0.012865
  56 C :   -0.023190
  57 C :    0.071875
  58 C :    0.067242
  59 C :   -0.006642
  60 F :   -0.048586
  61 F :   -0.046694
  62 C :    0.064555
  63 C :   -0.151947
  64 C :   -0.019547
  65 N :   -0.043449
  66 C :   -0.023267
  67 N :   -0.058985
  68 H :    0.050274
  69 H :    0.050740
  70 H :    0.046145
  71 H :    0.022181
  72 H :    0.037604
  73 H :    0.037795
  74 H :    0.028021
  75 H :    0.032097
  76 H :    0.094196
  77 H :    0.027506
  78 H :    0.090303
  79 H :    0.028362
  80 H :    0.035918
  81 H :    0.021701
  82 H :    0.026267
  83 H :    0.035298
  84 H :    0.032387
  85 H :    0.031073
  86 H :    0.034792
  87 H :    0.047004
  88 H :    0.049855
  89 H :    0.051090

  Mayer bond orders larger than 0.100000
B(  0-C ,  1-C ) :   1.3263 B(  0-C ,  5-C ) :   0.1053 B(  0-C ,  7-C ) :   1.3255
B(  0-C , 68-H ) :   0.9965 B(  1-C ,  2-F ) :   1.1377 B(  1-C ,  3-C ) :   1.3000
B(  3-C ,  4-F ) :   1.1268 B(  3-C ,  5-C ) :   1.3124 B(  5-C ,  6-C ) :   1.3283
B(  5-C , 69-H ) :   1.0213 B(  6-C ,  7-C ) :   1.3457 B(  6-C , 15-C ) :   0.9263
B(  7-C ,  8-C ) :   1.0103 B(  8-C ,  9-C ) :   1.6112 B(  8-C , 14-C ) :   1.0915
B(  9-C , 10-C ) :   1.1356 B(  9-C , 12-C ) :   1.1619 B( 10-C , 11-N ) :   2.9927
B( 12-C , 13-N ) :   3.0238 B( 14-C , 15-C ) :   0.9748 B( 14-C , 17-C ) :   1.5092
B( 15-C , 16-O ) :   2.2516 B( 17-C , 18-C ) :   1.2881 B( 17-C , 70-H ) :   0.9388
B( 18-C , 19-C ) :   1.2279 B( 18-C , 26-S ) :   1.0809 B( 19-C , 20-C ) :   1.2466
B( 19-C , 24-C ) :   1.2675 B( 20-C , 21-N ) :   1.4134 B( 20-C , 25-C ) :   1.2243
B( 21-N , 22-C ) :   1.6483 B( 22-C , 23-C ) :   1.2390 B( 22-C , 71-H ) :   0.9770
B( 23-C , 24-C ) :   1.5358 B( 23-C , 72-H ) :   0.9708 B( 24-C , 73-H ) :   0.9793
B( 25-C , 26-S ) :   1.2133 B( 25-C , 27-C ) :   1.2329 B( 27-C , 28-C ) :   1.5710
B( 27-C , 74-H ) :   0.9546 B( 28-C , 29-C ) :   1.1527 B( 28-C , 75-H ) :   0.9417
B( 29-C , 30-N ) :   1.1669 B( 29-C , 36-C ) :   1.3460 B( 30-N , 31-C ) :   1.1823
B( 30-N , 76-H ) :   0.9340 B( 31-C , 32-C ) :   1.2607 B( 31-C , 35-C ) :   1.2768
B( 32-C , 33-C ) :   1.3352 B( 32-C , 77-H ) :   1.0403 B( 33-C , 34-N ) :   1.1938
B( 33-C , 37-C ) :   1.1930 B( 34-N , 35-C ) :   1.1648 B( 34-N , 78-H ) :   0.9295
B( 35-C , 36-C ) :   1.3009 B( 36-C , 79-H ) :   1.0310 B( 37-C , 38-C ) :   1.5756
B( 37-C , 80-H ) :   0.9574 B( 38-C , 39-C ) :   1.2000 B( 38-C , 81-H ) :   0.9432
B( 39-C , 40-C ) :   1.2752 B( 39-C , 46-C ) :   0.1023 B( 39-C , 47-S ) :   1.1841
B( 40-C , 41-C ) :   1.2171 B( 40-C , 45-C ) :   1.2489 B( 41-C , 42-N ) :   1.4110
B( 41-C , 46-C ) :   1.2800 B( 42-N , 43-C ) :   1.6575 B( 43-C , 44-C ) :   1.2265
B( 43-C , 82-H ) :   0.9776 B( 44-C , 45-C ) :   1.5488 B( 44-C , 83-H ) :   0.9710
B( 45-C , 84-H ) :   0.9805 B( 46-C , 47-S ) :   1.1397 B( 46-C , 48-C ) :   1.2599
B( 48-C , 49-C ) :   1.5504 B( 48-C , 85-H ) :   0.9318 B( 49-C , 50-C ) :   1.2309
B( 49-C , 86-H ) :   0.9431 B( 50-C , 51-C ) :   1.5460 B( 50-C , 87-H ) :   0.9364
B( 51-C , 52-C ) :   0.9659 B( 51-C , 62-C ) :   1.0774 B( 52-C , 53-O ) :   2.2589
B( 52-C , 54-C ) :   0.9239 B( 54-C , 55-C ) :   1.3473 B( 54-C , 59-C ) :   1.3272
B( 55-C , 56-C ) :   1.3222 B( 55-C , 62-C ) :   1.0055 B( 56-C , 57-C ) :   1.3333
B( 56-C , 59-C ) :   0.1052 B( 56-C , 88-H ) :   0.9936 B( 57-C , 58-C ) :   1.2980
B( 57-C , 61-F ) :   1.1388 B( 58-C , 59-C ) :   1.3158 B( 58-C , 60-F ) :   1.1288
B( 59-C , 89-H ) :   1.0194 B( 62-C , 63-C ) :   1.6149 B( 63-C , 64-C ) :   1.1735
B( 63-C , 66-C ) :   1.1283 B( 64-C , 65-N ) :   2.9952 B( 66-C , 67-N ) :   2.9887

-----------------------------------------------------------------------------
         ABSORPTION SPECTRUM VIA TRANSITION ELECTRIC DIPOLE MOMENTS
-----------------------------------------------------------------------------
State   Energy  Wavelength   fosc         T2         TX        TY        TZ
        (cm-1)    (nm)                  (au**2)     (au)      (au)      (au)
-----------------------------------------------------------------------------
   0   10378.5    963.5   1.865249489  59.16693   7.65747   0.38870   0.61568
   1   14888.5    671.7   0.527615906  11.66657   0.60445  -3.10034   1.29966
   2   18936.7    528.1   0.107418301   1.86745   0.37420  -1.14970   0.63687
   3   20435.6    489.3   0.283531697   4.56763  -1.96473  -0.42014  -0.72865
   4   22064.1    453.2   0.067586324   1.00844   0.58940   0.06781   0.81021
   5   22739.2    439.8   0.027646419   0.40026   0.22373   0.44491   0.39020
   6   25154.8    397.5   0.019869352   0.26004  -0.33535   0.37967  -0.05858
   7   25540.1    391.5   0.047161135   0.60791  -0.30770   0.68094   0.22259
   8   26519.2    377.1   0.177316091   2.20122  -0.14668   1.25954  -0.77024
   9   27069.8    369.4   0.119578663   1.45427   0.55153   0.98360   0.42732
  10   27536.9    363.1   0.181372763   2.16836   1.37002   0.45838  -0.28511
  11   28128.9    355.5   0.064505373   0.75495  -0.45264   0.70139  -0.24110
  12   28529.3    350.5   0.067393208   0.77768   0.71534   0.03217   0.51471
  13   29180.7    342.7   0.102652804   1.15811  -1.02776  -0.31853   0.01918
  14   29756.3    336.1   0.019419542   0.21485   0.15422  -0.43044   0.07607
  15   29868.3    334.8   0.067192016   0.74060  -0.36079   0.65124   0.43165
  16   29961.6    333.8   0.061525346   0.67603  -0.62888   0.52841  -0.03633
  17   30533.4    327.5   0.023935157   0.25807   0.38207  -0.27243  -0.19461
  18   30776.3    324.9   0.005882182   0.06292  -0.05258   0.23398   0.07355
  19   31042.0    322.1   0.159564299   1.69224  -0.58317  -1.15923   0.09128
  20   31882.8    313.6   0.038988560   0.40258   0.19100  -0.50894   0.32724
  21   32277.0    309.8   0.074840412   0.76334   0.73546  -0.45522   0.12335
  22   32449.9    308.2   0.062076317   0.62978   0.23564  -0.13676   0.74535
  23   32513.7    307.6   0.056613323   0.57323  -0.00790   0.75433  -0.06450
  24   32854.2    304.4   0.028725689   0.28784  -0.17155   0.47550  -0.17976
  25   33656.0    297.1   0.010802340   0.10566   0.09621  -0.30097   0.07632
  26   33994.9    294.2   0.072302190   0.70018   0.66017   0.49738   0.13031
  27   34300.9    291.5   0.090447245   0.86809  -0.11103  -0.91548  -0.13291
  28   34818.6    287.2   0.025223616   0.23849   0.20442  -0.39576   0.20018
  29   35394.7    282.5   0.085260703   0.79302   0.71950  -0.52448  -0.01619
  30   35602.7    280.9   0.087292059   0.80717   0.61369  -0.35649  -0.55089
  31   36044.6    277.4   0.012041925   0.10998  -0.14849   0.29599   0.01807
  32   36261.9    275.8   0.152546661   1.38493   0.63518  -0.87200  -0.47022
  33   36773.6    271.9   0.274382045   2.45638   1.14548   1.00144   0.37599
  34   36917.4    270.9   0.178681241   1.59340  -0.26615  -1.16236  -0.41409
  35   37058.9    269.8   0.180744159   1.60564   0.64583  -0.46008  -0.98837
  36   37366.4    267.6   0.087216571   0.76841  -0.11617   0.75460   0.43069
  37   37517.5    266.5   0.063974991   0.56137  -0.70296  -0.24858   0.07363
  38   37907.4    263.8   0.192173181   1.66896  -1.24254   0.35245  -0.02898
  39   38108.5    262.4   0.077779403   0.67192   0.15399  -0.09642  -0.79932
  40   38459.1    260.0   0.101345366   0.86752  -0.56774  -0.53215  -0.51186
  41   38743.9    258.1   0.043308283   0.36800  -0.10160   0.03329  -0.59713
  42   38923.5    256.9   0.011475961   0.09706   0.12997  -0.13892   0.24672
  43   39505.4    253.1   0.017154841   0.14296   0.14366  -0.34843   0.03027
  44   40170.3    248.9   0.009980888   0.08180  -0.25529  -0.01004  -0.12853

FINAL SINGLE POINT ENERGY     -3774.919199087593

DIPOLE MOMENT
-------------
                                X             Y             Z
Electronic contribution:      2.90539      60.56439      -9.51742
Nuclear contribution   :     -2.82270     -64.78719      12.98950
                        -----------------------------------------
Total Dipole Moment    :      0.08269      -4.22280       3.47209
                        -----------------------------------------
Magnitude (a.u.)       :      5.46757
Magnitude (Debye)      :     13.89745

Rotational constants in cm-1:     0.001388     0.000223     0.000199
Rotational constants in MHz :    41.622067     6.695728     5.955970

                             ****ORCA TERMINATED NORMALLY****
TOTAL RUN TIME: 0 days 0 hours 9 minutes 21 seconds 48 msec
