                         Program Version 4.2.0 -  RELEASE  -
|  1> # ORCA input file
|  2> # SCF done       -217.329436173783          0.000858653760
|  3> ! CAM-B3LYP def2-SVP def2/J RIJCOSX Grid4 TightSCF
|  4> %maxcore 5000
|  5> %tddft
|  6>     Mode sTDDFT
|  7>     Ethresh 5.0
|  8>     maxcore 5000
|  9> end
| 10>
| 11> %pal
| 12>   nprocs 6
| 13>   end
| 14> * xyz 0 1
| 15>    C       -3.30449        -1.43040         2.18705
| 16>    C       -4.27537        -1.20060         1.22386
| 17>    F       -5.24569        -0.31893         1.48163
| 18>    C       -4.26606        -1.86785        -0.00293
| 19>    F       -5.22246        -1.61217        -0.90106
| 20>    C       -3.27756        -2.79321        -0.29498
| 21>    C       -2.31230        -3.02270         0.66606
| 22>    C       -2.31039        -2.35392         1.90076
| 23>    C       -1.16371        -2.81352         2.68132
| 24>    C       -0.76338        -2.29216         3.88225
| 25>    C       -1.45353        -1.26804         4.56759
| 26>    N       -1.97113        -0.44398         5.17499
| 27>    C        0.40065        -2.66497         4.58994
| 28>    N        1.33658        -2.89802         5.21251
| 29>    C       -0.49307        -3.84972         1.91358
| 30>    C       -1.17284        -3.96296         0.59978
| 31>    O       -0.91444        -4.69945        -0.32523
| 32>    C        0.47394        -4.67730         2.41747
| 33>    C        1.25425        -5.65506         1.77009
| 34>    C        1.53041        -5.88443         0.42550
| 35>    C        2.38298        -6.96172         0.24544
| 36>    C        2.76838        -7.57891         1.46191
| 37>    S        2.10780        -6.79769         2.81812
| 38>    C        3.58244        -8.69383         1.16963
| 39>    C        3.72126        -8.78300        -0.23453
| 40>    C        2.99308        -7.68757        -0.85607
| 41>    C        2.92158        -7.39978        -2.18653
| 42>    C        3.56295        -8.20008        -3.15708
| 43>    N        4.08059        -8.84881        -3.94798
| 44>    C        2.23106        -6.27551        -2.69067
| 45>    N        1.69851        -5.35655        -3.12082
| 46>    C        4.48564        -9.86836        -0.62934
| 47>    C        4.93048       -10.61388         0.45958
| 48>    S        4.40423        -9.94855         1.99550
| 49>    C        5.69740       -11.80358         0.40646
| 50>    C        6.07487       -12.48508         1.58898
| 51>    C        6.80944       -13.72539         1.59260
| 52>    N        7.12761       -14.28830         2.76737
| 53>    C        6.76227       -13.71861         3.88855
| 54>    C        6.01468       -12.49651         3.88376
| 55>    N        5.70364       -11.92644         2.74658
| 56>    C        5.60288       -11.88987         5.09659
| 57>    N        5.27750       -11.41846         6.08812
| 58>    C        7.11194       -14.31653         5.12760
| 59>    N        7.36732       -14.75368         6.15393
| 60>    C        7.18817       -14.35521         0.37833
| 61>    C        6.83511       -13.65668        -0.79889
| 62>    C        6.11311       -12.41001        -0.79943
| 63>    N        5.90627       -11.96826        -2.04118
| 64>    S        6.54215       -12.99303        -3.09161
| 65>    N        7.11635       -14.06074        -2.03857
| 66>    C        7.84821       -15.60934         0.29253
| 67>    C        8.27492       -16.43727         1.32790
| 68>    C        8.84190       -17.61050         0.85603
| 69>    C        8.85002       -17.68654        -0.55503
| 70>    S        8.17195       -16.30329        -1.29086
| 71>    C        9.40931       -18.92651        -0.92755
| 72>    C        9.77182       -19.63659         0.23909
| 73>    C        9.42862       -18.82784         1.39708
| 74>    C        9.61140       -19.14142         2.71079
| 75>    C       10.20819       -20.35521         3.11486
| 76>    N       10.70241       -21.33664         3.44044
| 77>    C        9.22298       -18.26596         3.74887
| 78>    N        8.90885       -17.55454         4.59024
| 79>    C       10.32721       -20.87847        -0.03855
| 80>    C       10.35201       -21.15238        -1.39989
| 81>    S        9.73451       -19.80121        -2.35054
| 82>    C       10.87628       -22.32131        -1.99535
| 83>    C       10.66113       -22.82918        -3.24043
| 84>    C       11.64710       -23.78023        -3.82475
| 85>    O       12.53750       -24.35124        -3.24446
| 86>    C       11.33051       -23.81444        -5.27107
| 87>    C       10.16843       -23.06087        -5.51719
| 88>    C        9.68587       -22.92538        -6.80866
| 89>    C       10.38241       -23.55349        -7.83033
| 90>    C       11.52914       -24.30956        -7.57800
| 91>    C       12.01735       -24.44793        -6.28839
| 92>    F       12.16384       -24.90330        -8.59338
| 93>    F        9.94443       -23.42679        -9.08597
| 94>    C        9.64932       -22.56761        -4.24226
| 95>    C        8.34917       -22.20841        -4.00615
| 96>    C        7.81528       -22.03813        -2.71111
| 97>    N        7.33758       -21.93370        -1.67288
| 98>    C        7.37811       -22.05561        -5.01764
| 99>    N        6.55922       -21.89346        -5.80458
|100>    H       -3.35972        -0.89211         3.11888
|101>    H       -3.26460        -3.31262        -1.23997
|102>    H        0.66321        -4.60936         3.48260
|103>    H        1.11471        -5.28820        -0.36525
|104>    H        4.72302       -10.14171        -1.64097
|105>    H        8.15682       -16.16873         2.36117
|106>    H       10.66961       -21.58382         0.69709
|107>    H       11.61209       -22.85575        -1.40108
|108>    H        8.80700       -22.34966        -7.04975
|109>    H       12.90225       -25.03233        -6.09279
|110> *
|111>
|112>                          ****END OF INPUT****

CARTESIAN COORDINATES (ANGSTROEM)
---------------------------------
  C     -3.304490   -1.430400    2.187050
  C     -4.275370   -1.200600    1.223860
  F     -5.245690   -0.318930    1.481630
  C     -4.266060   -1.867850   -0.002930
  F     -5.222460   -1.612170   -0.901060
  C     -3.277560   -2.793210   -0.294980
  C     -2.312300   -3.022700    0.666060
  C     -2.310390   -2.353920    1.900760
  C     -1.163710   -2.813520    2.681320
  C     -0.763380   -2.292160    3.882250
  C     -1.453530   -1.268040    4.567590
  N     -1.971130   -0.443980    5.174990
  C      0.400650   -2.664970    4.589940
  N      1.336580   -2.898020    5.212510
  C     -0.493070   -3.849720    1.913580
  C     -1.172840   -3.962960    0.599780
  O     -0.914440   -4.699450   -0.325230
  C      0.473940   -4.677300    2.417470
  C      1.254250   -5.655060    1.770090
  C      1.530410   -5.884430    0.425500
  C      2.382980   -6.961720    0.245440
  C      2.768380   -7.578910    1.461910
  S      2.107800   -6.797690    2.818120
  C      3.582440   -8.693830    1.169630
  C      3.721260   -8.783000   -0.234530
  C      2.993080   -7.687570   -0.856070
  C      2.921580   -7.399780   -2.186530
  C      3.562950   -8.200080   -3.157080
  N      4.080590   -8.848810   -3.947980
  C      2.231060   -6.275510   -2.690670
  N      1.698510   -5.356550   -3.120820
  C      4.485640   -9.868360   -0.629340
  C      4.930480  -10.613880    0.459580
  S      4.404230   -9.948550    1.995500
  C      5.697400  -11.803580    0.406460
  C      6.074870  -12.485080    1.588980
  C      6.809440  -13.725390    1.592600
  N      7.127610  -14.288300    2.767370
  C      6.762270  -13.718610    3.888550
  C      6.014680  -12.496510    3.883760
  N      5.703640  -11.926440    2.746580
  C      5.602880  -11.889870    5.096590
  N      5.277500  -11.418460    6.088120
  C      7.111940  -14.316530    5.127600
  N      7.367320  -14.753680    6.153930
  C      7.188170  -14.355210    0.378330
  C      6.835110  -13.656680   -0.798890
  C      6.113110  -12.410010   -0.799430
  N      5.906270  -11.968260   -2.041180
  S      6.542150  -12.993030   -3.091610
  N      7.116350  -14.060740   -2.038570
  C      7.848210  -15.609340    0.292530
  C      8.274920  -16.437270    1.327900
  C      8.841900  -17.610500    0.856030
  C      8.850020  -17.686540   -0.555030
  S      8.171950  -16.303290   -1.290860
  C      9.409310  -18.926510   -0.927550
  C      9.771820  -19.636590    0.239090
  C      9.428620  -18.827840    1.397080
  C      9.611400  -19.141420    2.710790
  C     10.208190  -20.355210    3.114860
  N     10.702410  -21.336640    3.440440
  C      9.222980  -18.265960    3.748870
  N      8.908850  -17.554540    4.590240
  C     10.327210  -20.878470   -0.038550
  C     10.352010  -21.152380   -1.399890
  S      9.734510  -19.801210   -2.350540
  C     10.876280  -22.321310   -1.995350
  C     10.661130  -22.829180   -3.240430
  C     11.647100  -23.780230   -3.824750
  O     12.537500  -24.351240   -3.244460
  C     11.330510  -23.814440   -5.271070
  C     10.168430  -23.060870   -5.517190
  C      9.685870  -22.925380   -6.808660
  C     10.382410  -23.553490   -7.830330
  C     11.529140  -24.309560   -7.578000
  C     12.017350  -24.447930   -6.288390
  F     12.163840  -24.903300   -8.593380
  F      9.944430  -23.426790   -9.085970
  C      9.649320  -22.567610   -4.242260
  C      8.349170  -22.208410   -4.006150
  C      7.815280  -22.038130   -2.711110
  N      7.337580  -21.933700   -1.672880
  C      7.378110  -22.055610   -5.017640
  N      6.559220  -21.893460   -5.804580
  H     -3.359720   -0.892110    3.118880
  H     -3.264600   -3.312620   -1.239970
  H      0.663210   -4.609360    3.482600
  H      1.114710   -5.288200   -0.365250
  H      4.723020  -10.141710   -1.640970
  H      8.156820  -16.168730    2.361170
  H     10.669610  -21.583820    0.697090
  H     11.612090  -22.855750   -1.401080
  H      8.807000  -22.349660   -7.049750
  H     12.902250  -25.032330   -6.092790

 Total Charge           Charge          ....    0
 Multiplicity           Mult            ....    1
 Number of Electrons    NEL             ....  600
 Basis Dimension        Dim             .... 1260

ORBITAL ENERGIES
----------------

  NO   OCC          E(Eh)            E(eV)
   0   2.0000     -89.073152     -2423.8037
   1   2.0000     -89.007689     -2422.0223
   2   2.0000     -89.006076     -2421.9785
   3   2.0000     -89.002453     -2421.8799
   4   2.0000     -89.002345     -2421.8769
   5   2.0000     -24.812041      -675.1700
   6   2.0000     -24.811914      -675.1665
   7   2.0000     -24.807896      -675.0572
   8   2.0000     -24.806759      -675.0262
   9   2.0000     -19.232341      -523.3386
  10   2.0000     -19.232313      -523.3378
  11   2.0000     -14.490148      -394.2970
  12   2.0000     -14.484510      -394.1435
  13   2.0000     -14.481082      -394.0503
  14   2.0000     -14.480710      -394.0402
  15   2.0000     -14.449798      -393.1990
  16   2.0000     -14.441934      -392.9850
  17   2.0000     -14.441084      -392.9619
  18   2.0000     -14.440057      -392.9339
  19   2.0000     -14.438348      -392.8874
  20   2.0000     -14.437750      -392.8712
  21   2.0000     -14.431632      -392.7047
  22   2.0000     -14.430410      -392.6714
  23   2.0000     -14.427376      -392.5888
  24   2.0000     -14.424736      -392.5170
  25   2.0000     -10.407326      -283.1977
  26   2.0000     -10.404651      -283.1250
  27   2.0000     -10.398870      -282.9676
  28   2.0000     -10.398024      -282.9446
  29   2.0000     -10.393782      -282.8292
  30   2.0000     -10.393395      -282.8186
  31   2.0000     -10.384391      -282.5737
  32   2.0000     -10.384374      -282.5732
  33   2.0000     -10.376922      -282.3704
  34   2.0000     -10.376690      -282.3641
  35   2.0000     -10.375345      -282.3275
  36   2.0000     -10.373258      -282.2707
  37   2.0000     -10.370592      -282.1982
  38   2.0000     -10.369504      -282.1685
  39   2.0000     -10.363561      -282.0068
  40   2.0000     -10.363422      -282.0031
  41   2.0000     -10.361904      -281.9617
  42   2.0000     -10.360720      -281.9295
  43   2.0000     -10.355696      -281.7928
  44   2.0000     -10.355617      -281.7907
  45   2.0000     -10.355195      -281.7792
  46   2.0000     -10.354317      -281.7553
  47   2.0000     -10.347171      -281.5608
  48   2.0000     -10.347004      -281.5563
  49   2.0000     -10.345686      -281.5204
  50   2.0000     -10.344422      -281.4860
  51   2.0000     -10.343428      -281.4590
  52   2.0000     -10.342559      -281.4353
  53   2.0000     -10.342287      -281.4279
  54   2.0000     -10.341230      -281.3992
  55   2.0000     -10.341166      -281.3974
  56   2.0000     -10.340095      -281.3683
  57   2.0000     -10.339713      -281.3579
  58   2.0000     -10.339325      -281.3473
  59   2.0000     -10.339084      -281.3408
  60   2.0000     -10.337708      -281.3033
  61   2.0000     -10.337042      -281.2852
  62   2.0000     -10.333513      -281.1892
  63   2.0000     -10.333372      -281.1854
  64   2.0000     -10.332080      -281.1502
  65   2.0000     -10.330751      -281.1140
  66   2.0000     -10.329673      -281.0847
  67   2.0000     -10.326985      -281.0115
  68   2.0000     -10.325744      -280.9778
  69   2.0000     -10.324908      -280.9550
  70   2.0000     -10.321429      -280.8604
  71   2.0000     -10.321366      -280.8587
  72   2.0000     -10.321039      -280.8497
  73   2.0000     -10.320148      -280.8255
  74   2.0000     -10.319030      -280.7951
  75   2.0000     -10.318909      -280.7918
  76   2.0000     -10.318279      -280.7747
  77   2.0000     -10.316004      -280.7127
  78   2.0000     -10.315956      -280.7114
  79   2.0000     -10.315682      -280.7040
  80   2.0000     -10.315075      -280.6875
  81   2.0000     -10.314946      -280.6839
  82   2.0000     -10.314300      -280.6664
  83   2.0000     -10.313664      -280.6491
  84   2.0000     -10.310554      -280.5644
  85   2.0000      -8.164018      -222.1542
  86   2.0000      -8.101963      -220.4656
  87   2.0000      -8.100798      -220.4339
  88   2.0000      -8.095624      -220.2931
  89   2.0000      -8.094690      -220.2677
  90   2.0000      -6.135092      -166.9443
  91   2.0000      -6.127224      -166.7302
  92   2.0000      -6.126890      -166.7211
  93   2.0000      -6.071213      -165.2061
  94   2.0000      -6.069847      -165.1689
  95   2.0000      -6.067010      -165.0917
  96   2.0000      -6.065743      -165.0572
  97   2.0000      -6.065073      -165.0390
  98   2.0000      -6.064335      -165.0190
  99   2.0000      -6.064258      -165.0168
 100   2.0000      -6.063407      -164.9937
 101   2.0000      -6.060427      -164.9126
 102   2.0000      -6.059439      -164.8857
 103   2.0000      -6.058023      -164.8472
 104   2.0000      -6.057142      -164.8232
 105   2.0000      -1.336396       -36.3652
 106   2.0000      -1.331604       -36.2348
 107   2.0000      -1.321102       -35.9490
 108   2.0000      -1.316291       -35.8181
 109   2.0000      -1.170592       -31.8534
 110   2.0000      -1.148755       -31.2592
 111   2.0000      -1.148696       -31.2576
 112   2.0000      -1.147359       -31.2212
 113   2.0000      -1.074688       -29.2437
 114   2.0000      -1.060415       -28.8554
 115   2.0000      -1.058696       -28.8086
 116   2.0000      -1.037586       -28.2341
 117   2.0000      -1.034010       -28.1368
 118   2.0000      -1.032595       -28.0984
 119   2.0000      -1.032159       -28.0865
 120   2.0000      -1.031090       -28.0574
 121   2.0000      -1.028834       -27.9960
 122   2.0000      -1.019270       -27.7357
 123   2.0000      -1.017643       -27.6915
 124   2.0000      -1.016742       -27.6670
 125   2.0000      -1.016604       -27.6632
 126   2.0000      -1.015737       -27.6396
 127   2.0000      -1.012584       -27.5538
 128   2.0000      -1.011040       -27.5118
 129   2.0000      -1.007476       -27.4148
 130   2.0000      -1.004412       -27.3314
 131   2.0000      -0.997888       -27.1539
 132   2.0000      -0.976105       -26.5612
 133   2.0000      -0.972268       -26.4568
 134   2.0000      -0.967477       -26.3264
 135   2.0000      -0.965292       -26.2669
 136   2.0000      -0.938032       -25.5252
 137   2.0000      -0.934206       -25.4210
 138   2.0000      -0.930367       -25.3166
 139   2.0000      -0.920281       -25.0421
 140   2.0000      -0.915016       -24.8989
 141   2.0000      -0.909351       -24.7447
 142   2.0000      -0.895607       -24.3707
 143   2.0000      -0.892741       -24.2927
 144   2.0000      -0.887787       -24.1579
 145   2.0000      -0.883152       -24.0318
 146   2.0000      -0.882231       -24.0067
 147   2.0000      -0.876025       -23.8378
 148   2.0000      -0.870274       -23.6814
 149   2.0000      -0.870135       -23.6776
 150   2.0000      -0.860035       -23.4027
 151   2.0000      -0.836850       -22.7718
 152   2.0000      -0.833417       -22.6784
 153   2.0000      -0.821763       -22.3613
 154   2.0000      -0.811331       -22.0774
 155   2.0000      -0.792144       -21.5553
 156   2.0000      -0.791236       -21.5306
 157   2.0000      -0.787545       -21.4302
 158   2.0000      -0.783607       -21.3230
 159   2.0000      -0.780516       -21.2389
 160   2.0000      -0.768579       -20.9141
 161   2.0000      -0.757617       -20.6158
 162   2.0000      -0.747062       -20.3286
 163   2.0000      -0.736199       -20.0330
 164   2.0000      -0.730599       -19.8806
 165   2.0000      -0.721805       -19.6413
 166   2.0000      -0.720051       -19.5936
 167   2.0000      -0.717812       -19.5327
 168   2.0000      -0.712311       -19.3830
 169   2.0000      -0.709889       -19.3170
 170   2.0000      -0.705163       -19.1885
 171   2.0000      -0.701874       -19.0990
 172   2.0000      -0.696396       -18.9499
 173   2.0000      -0.694097       -18.8873
 174   2.0000      -0.689583       -18.7645
 175   2.0000      -0.681979       -18.5576
 176   2.0000      -0.677435       -18.4339
 177   2.0000      -0.671329       -18.2678
 178   2.0000      -0.660665       -17.9776
 179   2.0000      -0.658249       -17.9119
 180   2.0000      -0.654859       -17.8196
 181   2.0000      -0.652113       -17.7449
 182   2.0000      -0.651672       -17.7329
 183   2.0000      -0.647913       -17.6306
 184   2.0000      -0.643363       -17.5068
 185   2.0000      -0.640276       -17.4228
 186   2.0000      -0.632287       -17.2054
 187   2.0000      -0.629039       -17.1170
 188   2.0000      -0.627398       -17.0724
 189   2.0000      -0.624586       -16.9958
 190   2.0000      -0.619239       -16.8504
 191   2.0000      -0.616657       -16.7801
 192   2.0000      -0.607807       -16.5393
 193   2.0000      -0.606525       -16.5044
 194   2.0000      -0.605194       -16.4682
 195   2.0000      -0.600962       -16.3530
 196   2.0000      -0.598209       -16.2781
 197   2.0000      -0.596371       -16.2281
 198   2.0000      -0.589080       -16.0297
 199   2.0000      -0.583552       -15.8793
 200   2.0000      -0.579895       -15.7797
 201   2.0000      -0.576624       -15.6907
 202   2.0000      -0.566474       -15.4146
 203   2.0000      -0.564430       -15.3589
 204   2.0000      -0.562092       -15.2953
 205   2.0000      -0.561359       -15.2754
 206   2.0000      -0.560696       -15.2573
 207   2.0000      -0.559883       -15.2352
 208   2.0000      -0.558783       -15.2052
 209   2.0000      -0.556022       -15.1301
 210   2.0000      -0.553691       -15.0667
 211   2.0000      -0.551877       -15.0173
 212   2.0000      -0.548147       -14.9158
 213   2.0000      -0.544786       -14.8244
 214   2.0000      -0.541837       -14.7441
 215   2.0000      -0.539991       -14.6939
 216   2.0000      -0.538894       -14.6641
 217   2.0000      -0.530389       -14.4326
 218   2.0000      -0.527549       -14.3553
 219   2.0000      -0.523414       -14.2428
 220   2.0000      -0.521771       -14.1981
 221   2.0000      -0.521326       -14.1860
 222   2.0000      -0.516634       -14.0583
 223   2.0000      -0.514185       -13.9917
 224   2.0000      -0.513185       -13.9645
 225   2.0000      -0.512287       -13.9401
 226   2.0000      -0.509621       -13.8675
 227   2.0000      -0.509261       -13.8577
 228   2.0000      -0.507775       -13.8173
 229   2.0000      -0.506928       -13.7942
 230   2.0000      -0.505688       -13.7605
 231   2.0000      -0.504353       -13.7241
 232   2.0000      -0.503121       -13.6906
 233   2.0000      -0.498968       -13.5776
 234   2.0000      -0.496125       -13.5003
 235   2.0000      -0.494477       -13.4554
 236   2.0000      -0.489498       -13.3199
 237   2.0000      -0.487795       -13.2736
 238   2.0000      -0.485895       -13.2219
 239   2.0000      -0.483645       -13.1606
 240   2.0000      -0.474873       -12.9220
 241   2.0000      -0.472581       -12.8596
 242   2.0000      -0.472104       -12.8466
 243   2.0000      -0.471212       -12.8223
 244   2.0000      -0.469939       -12.7877
 245   2.0000      -0.468374       -12.7451
 246   2.0000      -0.467554       -12.7228
 247   2.0000      -0.466300       -12.6887
 248   2.0000      -0.465677       -12.6717
 249   2.0000      -0.465318       -12.6620
 250   2.0000      -0.463585       -12.6148
 251   2.0000      -0.463421       -12.6103
 252   2.0000      -0.462491       -12.5850
 253   2.0000      -0.460955       -12.5432
 254   2.0000      -0.460016       -12.5177
 255   2.0000      -0.458506       -12.4766
 256   2.0000      -0.458060       -12.4644
 257   2.0000      -0.456462       -12.4210
 258   2.0000      -0.452630       -12.3167
 259   2.0000      -0.449441       -12.2299
 260   2.0000      -0.449127       -12.2214
 261   2.0000      -0.448806       -12.2126
 262   2.0000      -0.448452       -12.2030
 263   2.0000      -0.447862       -12.1870
 264   2.0000      -0.443886       -12.0787
 265   2.0000      -0.441775       -12.0213
 266   2.0000      -0.441114       -12.0033
 267   2.0000      -0.439165       -11.9503
 268   2.0000      -0.438027       -11.9193
 269   2.0000      -0.437308       -11.8998
 270   2.0000      -0.436655       -11.8820
 271   2.0000      -0.434991       -11.8367
 272   2.0000      -0.434002       -11.8098
 273   2.0000      -0.430396       -11.7117
 274   2.0000      -0.429967       -11.7000
 275   2.0000      -0.423812       -11.5325
 276   2.0000      -0.420350       -11.4383
 277   2.0000      -0.417091       -11.3496
 278   2.0000      -0.417023       -11.3478
 279   2.0000      -0.412987       -11.2379
 280   2.0000      -0.401297       -10.9198
 281   2.0000      -0.396507       -10.7895
 282   2.0000      -0.396365       -10.7856
 283   2.0000      -0.375746       -10.2246
 284   2.0000      -0.374857       -10.2004
 285   2.0000      -0.372908       -10.1473
 286   2.0000      -0.364400        -9.9158
 287   2.0000      -0.363561        -9.8930
 288   2.0000      -0.361718        -9.8428
 289   2.0000      -0.360418        -9.8075
 290   2.0000      -0.355458        -9.6725
 291   2.0000      -0.353438        -9.6175
 292   2.0000      -0.348758        -9.4902
 293   2.0000      -0.334763        -9.1094
 294   2.0000      -0.333504        -9.0751
 295   2.0000      -0.330065        -8.9815
 296   2.0000      -0.325419        -8.8551
 297   2.0000      -0.316499        -8.6124
 298   2.0000      -0.290863        -7.9148
 299   2.0000      -0.258374        -7.0307
 300   0.0000      -0.155807        -4.2397
 301   0.0000      -0.121068        -3.2944
 302   0.0000      -0.115225        -3.1354
 303   0.0000      -0.099189        -2.6991
 304   0.0000      -0.096910        -2.6371

MULLIKEN ATOMIC CHARGES
-----------------------
   0 C :   -0.084181
   1 C :    0.235057
   2 F :   -0.162142
   3 C :    0.235663
   4 F :   -0.165319
   5 C :   -0.096426
   6 C :   -0.013315
   7 C :    0.046630
   8 C :    0.290855
   9 C :   -0.338351
  10 C :   -0.186458
  11 N :    0.160906
  12 C :   -0.200930
  13 N :    0.163246
  14 C :   -0.092435
  15 C :    0.153537
  16 O :   -0.144135
  17 C :    0.034982
  18 C :   -0.115935
  19 C :    0.022894
  20 C :   -0.013973
  21 C :   -0.088759
  22 S :    0.220648
  23 C :   -0.063268
  24 C :    0.043128
  25 C :    0.310837
  26 C :   -0.295593
  27 C :   -0.187654
  28 N :    0.171979
  29 C :   -0.190285
  30 N :    0.191340
  31 C :   -0.065606
  32 C :   -0.168580
  33 S :    0.220481
  34 C :    0.186187
  35 C :   -0.056405
  36 C :   -0.069882
  37 N :    0.056044
  38 C :   -0.118314
  39 C :   -0.095124
  40 N :   -0.017340
  41 C :   -0.238812
  42 N :    0.262570
  43 C :   -0.222285
  44 N :    0.266108
  45 C :    0.217331
  46 C :   -0.027254
  47 C :   -0.001311
  48 N :   -0.277041
  49 S :    0.593272
  50 N :   -0.339847
  51 C :   -0.180429
  52 C :   -0.067211
  53 C :    0.054257
  54 C :   -0.065963
  55 S :    0.218017
  56 C :   -0.085085
  57 C :    0.027115
  58 C :    0.302754
  59 C :   -0.287448
  60 C :   -0.189085
  61 N :    0.181826
  62 C :   -0.194560
  63 N :    0.190424
  64 C :    0.011444
  65 C :   -0.096334
  66 S :    0.208330
  67 C :    0.043514
  68 C :   -0.136110
  69 C :    0.137319
  70 O :   -0.130149
  71 C :    0.008960
  72 C :    0.027096
  73 C :   -0.086848
  74 C :    0.237126
  75 C :    0.234630
  76 C :   -0.097535
  77 F :   -0.164773
  78 F :   -0.162279
  79 C :    0.242994
  80 C :   -0.317629
  81 C :   -0.207509
  82 N :    0.175055
  83 C :   -0.179050
  84 N :    0.165557
  85 H :    0.018010
  86 H :    0.015302
  87 H :    0.020976
  88 H :    0.035836
  89 H :    0.022778
  90 H :    0.025285
  91 H :    0.021354
  92 H :    0.039336
  93 H :    0.019723
  94 H :    0.016244
Sum of atomic charges:   -0.0000000

LOEWDIN ATOMIC CHARGES
----------------------
   0 C :   -0.017474
   1 C :    0.075225
   2 F :   -0.040666
   3 C :    0.072187
   4 F :   -0.042158
   5 C :   -0.002819
   6 C :   -0.044759
   7 C :   -0.015190
   8 C :    0.073982
   9 C :   -0.133825
  10 C :   -0.020204
  11 N :   -0.042780
  12 C :   -0.025024
  13 N :   -0.044237
  14 C :   -0.094709
  15 C :    0.085868
  16 O :   -0.130903
  17 C :    0.043269
  18 C :   -0.173717
  19 C :    0.021021
  20 C :   -0.067603
  21 C :   -0.160600
  22 S :    0.504717
  23 C :   -0.183326
  24 C :   -0.060668
  25 C :    0.075311
  26 C :   -0.093919
  27 C :   -0.014845
  28 N :   -0.031397
  29 C :   -0.021332
  30 N :   -0.017343
  31 C :   -0.007527
  32 C :   -0.160529
  33 S :    0.518841
  34 C :   -0.035302
  35 C :   -0.011463
  36 C :   -0.002817
  37 N :    0.010603
  38 C :   -0.015337
  39 C :   -0.015701
  40 N :   -0.019605
  41 C :   -0.040210
  42 N :    0.009791
  43 C :   -0.042830
  44 N :    0.021022
  45 C :   -0.039100
  46 C :   -0.044568
  47 C :   -0.036646
  48 N :   -0.265534
  49 S :    0.708164
  50 N :   -0.303072
  51 C :   -0.157664
  52 C :   -0.007682
  53 C :   -0.058632
  54 C :   -0.183344
  55 S :    0.520184
  56 C :   -0.152831
  57 C :   -0.063833
  58 C :    0.075853
  59 C :   -0.091523
  60 C :   -0.017290
  61 N :   -0.024294
  62 C :   -0.019369
  63 N :   -0.016846
  64 C :    0.015908
  65 C :   -0.175907
  66 S :    0.508544
  67 C :    0.052533
  68 C :   -0.100827
  69 C :    0.083726
  70 O :   -0.131378
  71 C :   -0.046607
  72 C :   -0.012929
  73 C :   -0.020202
  74 C :    0.075900
  75 C :    0.071458
  76 C :   -0.002708
  77 F :   -0.041840
  78 F :   -0.040160
  79 C :    0.059419
  80 C :   -0.138897
  81 C :   -0.036589
  82 N :   -0.042594
  83 C :   -0.022806
  84 N :   -0.041655
  85 H :    0.052084
  86 H :    0.053822
  87 H :    0.044681
  88 H :    0.045012
  89 H :    0.038911
  90 H :    0.038653
  91 H :    0.048623
  92 H :    0.057081
  93 H :    0.051764
  94 H :    0.053988

  Mayer bond orders larger than 0.100000
B(  0-C ,  1-C ) :   1.3396 B(  0-C ,  5-C ) :   0.1044 B(  0-C ,  7-C ) :   1.3098
B(  0-C , 85-H ) :   0.9915 B(  1-C ,  2-F ) :   1.1481 B(  1-C ,  3-C ) :   1.2883
B(  3-C ,  4-F ) :   1.1342 B(  3-C ,  5-C ) :   1.3169 B(  5-C ,  6-C ) :   1.3224
B(  5-C , 86-H ) :   1.0194 B(  6-C ,  7-C ) :   1.3393 B(  6-C , 15-C ) :   0.9579
B(  7-C ,  8-C ) :   1.0075 B(  8-C ,  9-C ) :   1.6457 B(  8-C , 14-C ) :   1.0780
B(  9-C , 10-C ) :   1.1370 B(  9-C , 12-C ) :   1.1379 B( 10-C , 11-N ) :   2.9809
B( 12-C , 13-N ) :   2.9880 B( 14-C , 15-C ) :   0.9438 B( 14-C , 17-C ) :   1.6003
B( 15-C , 16-O ) :   2.1966 B( 17-C , 18-C ) :   1.2056 B( 17-C , 87-H ) :   0.9200
B( 18-C , 19-C ) :   1.3935 B( 18-C , 22-S ) :   1.0809 B( 19-C , 20-C ) :   1.3433
B( 19-C , 88-H ) :   0.9732 B( 20-C , 21-C ) :   1.3664 B( 20-C , 25-C ) :   0.9928
B( 21-C , 22-S ) :   1.1648 B( 21-C , 23-C ) :   1.2191 B( 23-C , 24-C ) :   1.3918
B( 23-C , 33-S ) :   1.0800 B( 24-C , 25-C ) :   0.9896 B( 24-C , 31-C ) :   1.2911
B( 25-C , 26-C ) :   1.7175 B( 26-C , 27-C ) :   1.1401 B( 26-C , 29-C ) :   1.1330
B( 27-C , 28-N ) :   2.9830 B( 29-C , 30-N ) :   2.9958 B( 31-C , 32-C ) :   1.3980
B( 31-C , 89-H ) :   0.9829 B( 32-C , 33-S ) :   1.0942 B( 32-C , 34-C ) :   1.2141
B( 34-C , 35-C ) :   1.2467 B( 34-C , 45-C ) :   0.1234 B( 34-C , 47-C ) :   1.2039
B( 35-C , 36-C ) :   1.1093 B( 35-C , 40-N ) :   1.3962 B( 36-C , 37-N ) :   1.4529
B( 36-C , 45-C ) :   1.2495 B( 37-N , 38-C ) :   1.7297 B( 38-C , 39-C ) :   1.2138
B( 38-C , 43-C ) :   1.1623 B( 39-C , 40-N ) :   1.6921 B( 39-C , 41-C ) :   1.1643
B( 41-C , 42-N ) :   3.0423 B( 43-C , 44-N ) :   3.0238 B( 45-C , 46-C ) :   1.1904
B( 45-C , 51-C ) :   1.2026 B( 46-C , 47-C ) :   1.1092 B( 46-C , 50-N ) :   1.4677
B( 47-C , 48-N ) :   1.5107 B( 48-N , 49-S ) :   1.2955 B( 48-N , 50-N ) :   0.1487
B( 49-S , 50-N ) :   1.2741 B( 51-C , 52-C ) :   1.3902 B( 51-C , 55-S ) :   1.1042
B( 52-C , 53-C ) :   1.2829 B( 52-C , 90-H ) :   0.9853 B( 53-C , 54-C ) :   1.3847
B( 53-C , 58-C ) :   0.9921 B( 54-C , 55-S ) :   1.0964 B( 54-C , 56-C ) :   1.2222
B( 56-C , 57-C ) :   1.3890 B( 56-C , 66-S ) :   1.1496 B( 57-C , 58-C ) :   0.9890
B( 57-C , 64-C ) :   1.3115 B( 58-C , 59-C ) :   1.7221 B( 59-C , 60-C ) :   1.1313
B( 59-C , 62-C ) :   1.1352 B( 60-C , 61-N ) :   2.9933 B( 62-C , 63-N ) :   2.9919
B( 64-C , 65-C ) :   1.3892 B( 64-C , 91-H ) :   1.0002 B( 65-C , 66-S ) :   1.0885
B( 65-C , 67-C ) :   1.1457 B( 67-C , 68-C ) :   1.6386 B( 67-C , 92-H ) :   0.9462
B( 68-C , 69-C ) :   0.9406 B( 68-C , 79-C ) :   1.0373 B( 69-C , 70-O ) :   2.2810
B( 69-C , 71-C ) :   0.9310 B( 71-C , 72-C ) :   1.3419 B( 71-C , 76-C ) :   1.3217
B( 72-C , 73-C ) :   1.3194 B( 72-C , 79-C ) :   1.0207 B( 73-C , 74-C ) :   1.3365
B( 73-C , 76-C ) :   0.1037 B( 73-C , 93-H ) :   0.9945 B( 74-C , 75-C ) :   1.2871
B( 74-C , 78-F ) :   1.1436 B( 75-C , 76-C ) :   1.3234 B( 75-C , 77-F ) :   1.1351
B( 76-C , 94-H ) :   1.0199 B( 79-C , 80-C ) :   1.6607 B( 80-C , 81-C ) :   1.1534
B( 80-C , 83-C ) :   1.1275 B( 81-C , 82-N ) :   3.0202 B( 83-C , 84-N ) :   2.9995

-----------------------------------------------------------------------------
         ABSORPTION SPECTRUM VIA TRANSITION ELECTRIC DIPOLE MOMENTS
-----------------------------------------------------------------------------
State   Energy  Wavelength   fosc         T2         TX        TY        TZ
        (cm-1)    (nm)                  (au**2)     (au)      (au)      (au)
-----------------------------------------------------------------------------
   0    7677.9   1302.4   0.818520703  35.09653  -2.90873   5.09157   0.84363
   1   13845.2    722.3   0.038505837   0.91559  -0.24002  -0.57140  -0.72903
   2   14548.7    687.3   0.076810501   1.73808   0.70681  -1.04169  -0.39165
   3   16170.1    618.4   0.025323330   0.51557   0.56196  -0.09413   0.43693
   4   20036.4    499.1   0.606473532   9.96479   0.51575  -2.43087  -1.94671
   5   21223.6    471.2   0.701360571  10.87920  -2.12388   2.48933   0.41420
   6   21895.3    456.7   0.142934623   2.14913   0.59680  -1.17501  -0.64211
   7   23287.0    429.4   0.059461317   0.84061   0.38695  -0.49109   0.67061
   8   23374.3    427.8   0.002948751   0.04153  -0.08631   0.11306  -0.14594
   9   23710.5    421.8   0.126293882   1.75355   0.86272  -0.84014  -0.55084
  10   24610.3    406.3   0.006692588   0.08953  -0.01460   0.02844   0.29750
  11   24826.1    402.8   0.011923233   0.15811   0.20410  -0.02623  -0.34024
  12   25074.3    398.8   0.001094843   0.01437   0.11658   0.02700  -0.00739
  13   25367.5    394.2   0.028797668   0.37373  -0.08502   0.08357   0.59960
  14   26007.5    384.5   0.015931714   0.20167   0.33311  -0.08049  -0.29022
  15   26341.7    379.6   0.017335874   0.21666   0.13380  -0.42255   0.14216
  16   27105.5    368.9   0.117287000   1.42452   0.98758  -0.46445   0.48322
  17   27311.2    366.2   0.272672877   3.28683  -0.96022   1.39603   0.64490
  18   27960.4    357.6   0.009913503   0.11672  -0.06749  -0.07020   0.32748
  19   28836.8    346.8   0.025228119   0.28801  -0.52835   0.04620   0.08198
  20   29360.0    340.6   0.060005539   0.67284  -0.02245   0.33413   0.74879
  21   29571.0    338.2   0.095009426   1.05773   0.10476  -0.32189  -0.97116
  22   29674.1    337.0   0.035618181   0.39516  -0.46450   0.38812  -0.16961
  23   29875.7    334.7   0.069301583   0.76366   0.13569   0.16766   0.84684
  24   30040.6    332.9   0.264093089   2.89417  -0.05818   0.50843   1.62243
  25   30181.5    331.3   0.047571702   0.51890  -0.44411   0.26489   0.50150
  26   30454.1    328.4   0.048129610   0.52029   0.31746   0.05076  -0.64570
  27   30896.2    323.7   0.196888136   2.09793  -0.79090   1.16741   0.33102
  28   31023.2    322.3   0.080301899   0.85215  -0.39693   0.81953  -0.15154
  29   31692.3    315.5   0.366255921   3.80457   0.89954  -0.91319   1.47020
  30   31788.9    314.6   0.228923283   2.37077   0.94645  -1.09291  -0.52968
  31   32009.1    312.4   1.028719979  10.58034   0.24244  -1.07338   3.06095
  32   32624.1    306.5   0.133492070   1.34708  -0.36104   0.42952   1.01599
  33   32902.5    303.9   0.070506956   0.70547   0.00731  -0.48002  -0.68920
  34   32951.1    303.5   0.031092575   0.31064   0.52792  -0.11654   0.13550
  35   33092.0    302.2   0.006203517   0.06171  -0.21153  -0.08068   0.10228
  36   33391.0    299.5   0.188865629   1.86208  -0.67432   0.44440  -1.09995
  37   33623.6    297.4   0.071574462   0.70079   0.56345  -0.54698   0.29005
  38   33829.2    295.6   0.027536026   0.26797  -0.05115  -0.41944  -0.29904
  39   34103.9    293.2   0.055599552   0.53671  -0.60807   0.26686   0.30944
  40   34239.3    292.1   0.020053017   0.19281  -0.03009   0.16483  -0.40588
  41   34410.0    290.6   0.080366053   0.76889   0.32602  -0.59067  -0.56009
  42   34514.7    289.7   0.033095168   0.31567   0.00231   0.12449   0.54788
  43   34636.8    288.7   0.034151873   0.32460   0.24357  -0.42681  -0.28829
  44   34716.2    288.1   0.101623712   0.96369  -0.54635  -0.02336   0.81526
  45   34777.3    287.5   0.116208262   1.10006   0.48191  -0.70837   0.60501
  46   35003.8    285.7   0.361076734   3.39594  -0.21005   0.60710   1.72721
  47   35258.1    283.6   0.016402109   0.15315   0.30837  -0.02274  -0.23988
  48   35797.0    279.4   0.025907744   0.23826  -0.44011  -0.17690  -0.11523
  49   36053.9    277.4   0.267690998   2.44431   0.73779  -0.54647  -1.26545
  50   36295.4    275.5   0.160424351   1.45510  -0.42468   0.27573  -1.09486
  51   36371.2    274.9   0.246344025   2.22977  -1.16983   0.55728  -0.74210
  52   36807.0    271.7   0.022326903   0.19970   0.36071  -0.23463  -0.12055
  53   36949.3    270.6   0.269622169   2.40229   0.38360   0.59097   1.38054
  54   37043.5    270.0   0.088770146   0.78891   0.67662  -0.06457   0.57178
  55   37196.6    268.8   0.002029877   0.01797   0.06794   0.11477  -0.01330
  56   37437.4    267.1   0.080399412   0.70701   0.78486  -0.18188  -0.24065
  57   37487.7    266.8   0.247703418   2.17530   0.98565  -0.76571  -0.78580
  58   37697.0    265.3   0.037178832   0.32469   0.41068  -0.32739   0.22100
  59   37880.2    264.0   0.006331725   0.05503   0.00460   0.15598   0.17515
  60   38439.1    260.2   0.004933362   0.04225  -0.13662  -0.09082  -0.12385
  61   38509.1    259.7   0.116400710   0.99510   0.16341   0.29635   0.93839
  62   38785.9    257.8   0.005724233   0.04859   0.21490   0.03002  -0.03876
  63   39040.6    256.1   0.035916062   0.30286   0.04697  -0.27576  -0.47394
  64   39086.4    255.8   0.001499891   0.01263  -0.09068   0.01014   0.06563
  65   39172.3    255.3   0.102557894   0.86192  -0.32079   0.63598   0.59544
  66   39389.6    253.9   0.039104944   0.32683  -0.25636   0.45875   0.22507
  67   39581.0    252.6   0.101767154   0.84644   0.75975  -0.51886  -0.00175
  68   39722.7    251.7   0.055543311   0.46033  -0.63885   0.21167   0.08600
  69   39819.5    251.1   0.000521909   0.00431   0.05446   0.02388  -0.02790
  70   39929.9    250.4   0.000177688   0.00146  -0.03455   0.00607   0.01532
  71   39966.9    250.2   0.002783528   0.02293  -0.10920  -0.04286   0.09574

FINAL SINGLE POINT ENERGY     -5594.356844193530

DIPOLE MOMENT
-------------
                                X             Y             Z
Electronic contribution:     -6.22285       2.75255     -12.97559
Nuclear contribution   :      7.62915      -3.54079       9.91414
                        -----------------------------------------
Total Dipole Moment    :      1.40631      -0.78824      -3.06145
                        -----------------------------------------
Magnitude (a.u.)       :      3.45999
Magnitude (Debye)      :      8.79459

Rotational constants in cm-1:     0.001408     0.000171     0.000156
Rotational constants in MHz :    42.222915     5.116261     4.672841

                             ****ORCA TERMINATED NORMALLY****
TOTAL RUN TIME: 0 days 0 hours 24 minutes 51 seconds 637 msec
