                         Program Version 4.2.0 -  RELEASE  -
|  1> # ORCA input file
|  2> # SCF done       -201.966439072078          0.000478867458
|  3> ! CAM-B3LYP def2-SVP def2/J RIJCOSX Grid4 TightSCF
|  4> %maxcore 5000
|  5> %tddft
|  6>     Mode sTDDFT
|  7>     Ethresh 5.0
|  8>     maxcore 5000
|  9> end
| 10>
| 11> %pal
| 12>   nprocs 6
| 13>   end
| 14> * xyz 0 1
| 15>    C       -5.52624        -6.83848        -0.32988
| 16>    C       -6.29255        -7.86309         0.20574
| 17>    F       -7.62357        -7.74132         0.21090
| 18>    C       -5.70955        -9.01501         0.73653
| 19>    F       -6.48822        -9.97640         1.24580
| 20>    C       -4.33329        -9.17343         0.73942
| 21>    C       -3.57055        -8.15582         0.20045
| 22>    C       -4.14841        -6.98942        -0.33079
| 23>    C       -3.07983        -6.10466        -0.79327
| 24>    C       -3.23370        -4.80501        -1.19043
| 25>    C       -4.48573        -4.16461        -1.31490
| 26>    N       -5.47623        -3.59930        -1.44010
| 27>    C       -2.17480        -3.90481        -1.44929
| 28>    N       -1.37970        -3.09496        -1.61635
| 29>    C       -1.82819        -6.82396        -0.64241
| 30>    C       -2.10027        -8.08173         0.06991
| 31>    O       -1.29850        -8.90740         0.46018
| 32>    C       -0.62729        -6.46256        -1.18994
| 33>    C        0.62754        -7.08421        -1.07268
| 34>    S        1.09410        -8.42082        -0.03290
| 35>    C        1.75286        -6.64581        -1.75696
| 36>    C        2.02494        -5.61890        -2.77891
| 37>    O        1.27508        -4.85883        -3.33607
| 38>    N        3.39287        -5.71061        -3.00472
| 39>    C        4.09092        -4.88135        -3.96467
| 40>    C        4.04780        -5.49308        -5.36036
| 41>    C        4.01594        -6.70217        -2.25921
| 42>    O        5.20066        -6.94450        -2.30805
| 43>    C        2.94371        -7.31444        -1.45538
| 44>    C        2.77760        -8.32139        -0.50604
| 45>    C        3.70679        -9.20464         0.08455
| 46>    C        5.03962        -9.19208        -0.18997
| 47>    C        6.00876       -10.02547         0.40911
| 48>    N        7.34176        -9.88553         0.07836
| 49>    C        8.06579       -10.77007         0.80617
| 50>    C        9.34965       -11.22594         1.07299
| 51>    C        9.21391       -12.23016         2.04430
| 52>    N        7.87748       -12.38669         2.35833
| 53>    C        7.15614       -11.50457         1.62070
| 54>    C        5.87291       -11.03961         1.37256
| 55>    C       10.26830       -12.95783         2.63890
| 56>    C       10.12941       -13.92444         3.58625
| 57>    C       11.20923       -14.60905         4.18978
| 58>    S       10.85993       -15.82968         5.39676
| 59>    C       12.58415       -14.50991         4.04207
| 60>    C       13.53221       -13.75353         3.21399
| 61>    O       13.34556       -12.91361         2.36465
| 62>    N       14.78894       -14.19527         3.61078
| 63>    C       16.02174       -13.73780         3.00451
| 64>    C       16.50774       -14.71854         1.94353
| 65>    C       14.75662       -15.14507         4.61333
| 66>    O       15.74164       -15.61970         5.13204
| 67>    C       13.32426       -15.37232         4.88216
| 68>    C       12.55148       -16.18501         5.69105
| 69>    C       12.89293       -17.21360         6.60145
| 70>    C       14.17458       -17.56640         6.87809
| 71>    C       14.53036       -18.63310         7.73232
| 72>    C       15.79007       -19.13871         7.86209
| 73>    C       16.16705       -19.96171         9.03799
| 74>    O       15.42392       -20.49617         9.82671
| 75>    C       17.64836       -19.92695         9.06497
| 76>    C       18.12556       -19.24212         7.93213
| 77>    C       19.48705       -19.05215         7.75796
| 78>    C       20.34272       -19.55707         8.72550
| 79>    C       19.86273       -20.24561         9.84080
| 80>    C       18.50271       -20.43776        10.02260
| 81>    F       20.72606       -20.72116        10.74609
| 82>    F       21.66013       -19.37565         8.58478
| 83>    C       16.98740       -18.87102         7.09049
| 84>    C       17.05317       -18.54748         5.76286
| 85>    C       15.94387       -18.51578         4.88803
| 86>    N       15.10494       -18.55214         4.10610
| 87>    C       18.25944       -18.31417         5.06838
| 88>    N       19.20729       -18.10123         4.45799
| 89>    H       -6.02355        -5.96965        -0.72888
| 90>    H       -3.87961       -10.06198         1.14855
| 91>    H       -0.60161        -5.58549        -1.82855
| 92>    H        5.12335        -4.78478        -3.62070
| 93>    H        3.60527        -3.90277        -3.96469
| 94>    H        4.51914        -6.47343        -5.35798
| 95>    H        4.57767        -4.85165        -6.05859
| 96>    H        3.01744        -5.59546        -5.69263
| 97>    H        3.30277        -9.90335         0.80300
| 98>    H        5.41077        -8.47947        -0.91462
| 99>    H        7.68824        -9.21554        -0.58773
|100>    H       10.27908       -10.90287         0.65019
|101>    H        7.51486       -13.04132         3.02845
|102>    H        4.95271       -11.36742         1.81107
|103>    H       11.26071       -12.69675         2.29954
|104>    H        9.14985       -14.21954         3.93934
|105>    H       16.76674       -13.64063         3.79823
|106>    H       15.81818       -12.75954         2.56323
|107>    H       16.68369       -15.69559         2.38794
|108>    H       17.43710       -14.36019         1.51054
|109>    H       15.76708       -14.81851         1.15340
|110>    H       12.06949       -17.76134         7.04172
|111>    H       14.97318       -16.99438         6.43042
|112>    H       13.77417       -19.04840         8.38934
|113>    H       19.90205       -18.52346         6.91527
|114>    H       18.13025       -20.96781        10.88468
|115> *
|116>
|117>                          ****END OF INPUT****

CARTESIAN COORDINATES (ANGSTROEM)
---------------------------------
  C     -5.526240   -6.838480   -0.329880
  C     -6.292550   -7.863090    0.205740
  F     -7.623570   -7.741320    0.210900
  C     -5.709550   -9.015010    0.736530
  F     -6.488220   -9.976400    1.245800
  C     -4.333290   -9.173430    0.739420
  C     -3.570550   -8.155820    0.200450
  C     -4.148410   -6.989420   -0.330790
  C     -3.079830   -6.104660   -0.793270
  C     -3.233700   -4.805010   -1.190430
  C     -4.485730   -4.164610   -1.314900
  N     -5.476230   -3.599300   -1.440100
  C     -2.174800   -3.904810   -1.449290
  N     -1.379700   -3.094960   -1.616350
  C     -1.828190   -6.823960   -0.642410
  C     -2.100270   -8.081730    0.069910
  O     -1.298500   -8.907400    0.460180
  C     -0.627290   -6.462560   -1.189940
  C      0.627540   -7.084210   -1.072680
  S      1.094100   -8.420820   -0.032900
  C      1.752860   -6.645810   -1.756960
  C      2.024940   -5.618900   -2.778910
  O      1.275080   -4.858830   -3.336070
  N      3.392870   -5.710610   -3.004720
  C      4.090920   -4.881350   -3.964670
  C      4.047800   -5.493080   -5.360360
  C      4.015940   -6.702170   -2.259210
  O      5.200660   -6.944500   -2.308050
  C      2.943710   -7.314440   -1.455380
  C      2.777600   -8.321390   -0.506040
  C      3.706790   -9.204640    0.084550
  C      5.039620   -9.192080   -0.189970
  C      6.008760  -10.025470    0.409110
  N      7.341760   -9.885530    0.078360
  C      8.065790  -10.770070    0.806170
  C      9.349650  -11.225940    1.072990
  C      9.213910  -12.230160    2.044300
  N      7.877480  -12.386690    2.358330
  C      7.156140  -11.504570    1.620700
  C      5.872910  -11.039610    1.372560
  C     10.268300  -12.957830    2.638900
  C     10.129410  -13.924440    3.586250
  C     11.209230  -14.609050    4.189780
  S     10.859930  -15.829680    5.396760
  C     12.584150  -14.509910    4.042070
  C     13.532210  -13.753530    3.213990
  O     13.345560  -12.913610    2.364650
  N     14.788940  -14.195270    3.610780
  C     16.021740  -13.737800    3.004510
  C     16.507740  -14.718540    1.943530
  C     14.756620  -15.145070    4.613330
  O     15.741640  -15.619700    5.132040
  C     13.324260  -15.372320    4.882160
  C     12.551480  -16.185010    5.691050
  C     12.892930  -17.213600    6.601450
  C     14.174580  -17.566400    6.878090
  C     14.530360  -18.633100    7.732320
  C     15.790070  -19.138710    7.862090
  C     16.167050  -19.961710    9.037990
  O     15.423920  -20.496170    9.826710
  C     17.648360  -19.926950    9.064970
  C     18.125560  -19.242120    7.932130
  C     19.487050  -19.052150    7.757960
  C     20.342720  -19.557070    8.725500
  C     19.862730  -20.245610    9.840800
  C     18.502710  -20.437760   10.022600
  F     20.726060  -20.721160   10.746090
  F     21.660130  -19.375650    8.584780
  C     16.987400  -18.871020    7.090490
  C     17.053170  -18.547480    5.762860
  C     15.943870  -18.515780    4.888030
  N     15.104940  -18.552140    4.106100
  C     18.259440  -18.314170    5.068380
  N     19.207290  -18.101230    4.457990
  H     -6.023550   -5.969650   -0.728880
  H     -3.879610  -10.061980    1.148550
  H     -0.601610   -5.585490   -1.828550
  H      5.123350   -4.784780   -3.620700
  H      3.605270   -3.902770   -3.964690
  H      4.519140   -6.473430   -5.357980
  H      4.577670   -4.851650   -6.058590
  H      3.017440   -5.595460   -5.692630
  H      3.302770   -9.903350    0.803000
  H      5.410770   -8.479470   -0.914620
  H      7.688240   -9.215540   -0.587730
  H     10.279080  -10.902870    0.650190
  H      7.514860  -13.041320    3.028450
  H      4.952710  -11.367420    1.811070
  H     11.260710  -12.696750    2.299540
  H      9.149850  -14.219540    3.939340
  H     16.766740  -13.640630    3.798230
  H     15.818180  -12.759540    2.563230
  H     16.683690  -15.695590    2.387940
  H     17.437100  -14.360190    1.510540
  H     15.767080  -14.818510    1.153400
  H     12.069490  -17.761340    7.041720
  H     14.973180  -16.994380    6.430420
  H     13.774170  -19.048400    8.389340
  H     19.902050  -18.523460    6.915270
  H     18.130250  -20.967810   10.884680

 Total Charge           Charge          ....    0
 Multiplicity           Mult            ....    1
 Number of Electrons    NEL             ....  522
 Basis Dimension        Dim             .... 1174

ORBITAL ENERGIES
----------------

  NO   OCC          E(Eh)            E(eV)
   0   2.0000     -88.980900     -2421.2934
   1   2.0000     -88.977326     -2421.1961
   2   2.0000     -24.806359      -675.0154
   3   2.0000     -24.805276      -674.9859
   4   2.0000     -24.802149      -674.9008
   5   2.0000     -24.801580      -674.8853
   6   2.0000     -19.233214      -523.3624
   7   2.0000     -19.222814      -523.0794
   8   2.0000     -19.221161      -523.0344
   9   2.0000     -19.220503      -523.0165
  10   2.0000     -19.220474      -523.0157
  11   2.0000     -19.218915      -522.9733
  12   2.0000     -14.472812      -393.8252
  13   2.0000     -14.471473      -393.7888
  14   2.0000     -14.460881      -393.5006
  15   2.0000     -14.459768      -393.4703
  16   2.0000     -14.420673      -392.4065
  17   2.0000     -14.418389      -392.3443
  18   2.0000     -14.417589      -392.3225
  19   2.0000     -14.413541      -392.2124
  20   2.0000     -10.404494      -283.1207
  21   2.0000     -10.402031      -283.0537
  22   2.0000     -10.401817      -283.0478
  23   2.0000     -10.400683      -283.0170
  24   2.0000     -10.391954      -282.7794
  25   2.0000     -10.391432      -282.7653
  26   2.0000     -10.387898      -282.6691
  27   2.0000     -10.386980      -282.6441
  28   2.0000     -10.382176      -282.5134
  29   2.0000     -10.371890      -282.2335
  30   2.0000     -10.350932      -281.6632
  31   2.0000     -10.348339      -281.5926
  32   2.0000     -10.348151      -281.5875
  33   2.0000     -10.344555      -281.4896
  34   2.0000     -10.340382      -281.3761
  35   2.0000     -10.335671      -281.2479
  36   2.0000     -10.334134      -281.2061
  37   2.0000     -10.332054      -281.1495
  38   2.0000     -10.329513      -281.0803
  39   2.0000     -10.322762      -280.8966
  40   2.0000     -10.322633      -280.8931
  41   2.0000     -10.321152      -280.8528
  42   2.0000     -10.320328      -280.8304
  43   2.0000     -10.320321      -280.8302
  44   2.0000     -10.318739      -280.7872
  45   2.0000     -10.318665      -280.7852
  46   2.0000     -10.317064      -280.7416
  47   2.0000     -10.316283      -280.7203
  48   2.0000     -10.315156      -280.6897
  49   2.0000     -10.313472      -280.6438
  50   2.0000     -10.313210      -280.6367
  51   2.0000     -10.312161      -280.6082
  52   2.0000     -10.310457      -280.5618
  53   2.0000     -10.310218      -280.5553
  54   2.0000     -10.310170      -280.5540
  55   2.0000     -10.309472      -280.5350
  56   2.0000     -10.308858      -280.5183
  57   2.0000     -10.308404      -280.5059
  58   2.0000     -10.307008      -280.4679
  59   2.0000     -10.306586      -280.4565
  60   2.0000     -10.304012      -280.3864
  61   2.0000     -10.303592      -280.3750
  62   2.0000     -10.300097      -280.2799
  63   2.0000     -10.299830      -280.2726
  64   2.0000     -10.297221      -280.2016
  65   2.0000     -10.296680      -280.1869
  66   2.0000     -10.296600      -280.1847
  67   2.0000     -10.296479      -280.1814
  68   2.0000     -10.293325      -280.0956
  69   2.0000     -10.290259      -280.0122
  70   2.0000     -10.282309      -279.7958
  71   2.0000     -10.281906      -279.7849
  72   2.0000     -10.263117      -279.2736
  73   2.0000     -10.256838      -279.1028
  74   2.0000      -8.076503      -219.7728
  75   2.0000      -8.070765      -219.6167
  76   2.0000      -6.045814      -164.5150
  77   2.0000      -6.041650      -164.4016
  78   2.0000      -6.040273      -164.3642
  79   2.0000      -6.038551      -164.3173
  80   2.0000      -6.035650      -164.2384
  81   2.0000      -6.032847      -164.1621
  82   2.0000      -1.329809       -36.1859
  83   2.0000      -1.325690       -36.0738
  84   2.0000      -1.314524       -35.7700
  85   2.0000      -1.310428       -35.6586
  86   2.0000      -1.167226       -31.7618
  87   2.0000      -1.165737       -31.7213
  88   2.0000      -1.149017       -31.2663
  89   2.0000      -1.144141       -31.1337
  90   2.0000      -1.141961       -31.0743
  91   2.0000      -1.135769       -30.9058
  92   2.0000      -1.105215       -30.0744
  93   2.0000      -1.068423       -29.0733
  94   2.0000      -1.058236       -28.7961
  95   2.0000      -1.056407       -28.7463
  96   2.0000      -1.026672       -27.9372
  97   2.0000      -1.022500       -27.8236
  98   2.0000      -1.007909       -27.4266
  99   2.0000      -1.007662       -27.4199
 100   2.0000      -1.006085       -27.3770
 101   2.0000      -1.003490       -27.3063
 102   2.0000      -0.997137       -27.1335
 103   2.0000      -0.994253       -27.0550
 104   2.0000      -0.963817       -26.2268
 105   2.0000      -0.960627       -26.1400
 106   2.0000      -0.932902       -25.3856
 107   2.0000      -0.926400       -25.2086
 108   2.0000      -0.916235       -24.9320
 109   2.0000      -0.912730       -24.8366
 110   2.0000      -0.905805       -24.6482
 111   2.0000      -0.905160       -24.6306
 112   2.0000      -0.900292       -24.4982
 113   2.0000      -0.894838       -24.3498
 114   2.0000      -0.882635       -24.0177
 115   2.0000      -0.880308       -23.9544
 116   2.0000      -0.877647       -23.8820
 117   2.0000      -0.875817       -23.8322
 118   2.0000      -0.865557       -23.5530
 119   2.0000      -0.846462       -23.0334
 120   2.0000      -0.833594       -22.6833
 121   2.0000      -0.832055       -22.6414
 122   2.0000      -0.830207       -22.5911
 123   2.0000      -0.807497       -21.9731
 124   2.0000      -0.793957       -21.6047
 125   2.0000      -0.784736       -21.3538
 126   2.0000      -0.779713       -21.2171
 127   2.0000      -0.774566       -21.0770
 128   2.0000      -0.768854       -20.9216
 129   2.0000      -0.755184       -20.5496
 130   2.0000      -0.751365       -20.4457
 131   2.0000      -0.746962       -20.3259
 132   2.0000      -0.745391       -20.2831
 133   2.0000      -0.729445       -19.8492
 134   2.0000      -0.723516       -19.6879
 135   2.0000      -0.717713       -19.5300
 136   2.0000      -0.714054       -19.4304
 137   2.0000      -0.710146       -19.3241
 138   2.0000      -0.706533       -19.2257
 139   2.0000      -0.701451       -19.0874
 140   2.0000      -0.694141       -18.8885
 141   2.0000      -0.692786       -18.8517
 142   2.0000      -0.685366       -18.6497
 143   2.0000      -0.675099       -18.3704
 144   2.0000      -0.672258       -18.2931
 145   2.0000      -0.670592       -18.2477
 146   2.0000      -0.663717       -18.0607
 147   2.0000      -0.657542       -17.8926
 148   2.0000      -0.653728       -17.7889
 149   2.0000      -0.648358       -17.6427
 150   2.0000      -0.644359       -17.5339
 151   2.0000      -0.642997       -17.4968
 152   2.0000      -0.636061       -17.3081
 153   2.0000      -0.630135       -17.1468
 154   2.0000      -0.625865       -17.0306
 155   2.0000      -0.617992       -16.8164
 156   2.0000      -0.615147       -16.7390
 157   2.0000      -0.604585       -16.4516
 158   2.0000      -0.604248       -16.4424
 159   2.0000      -0.598556       -16.2875
 160   2.0000      -0.595202       -16.1963
 161   2.0000      -0.594720       -16.1832
 162   2.0000      -0.590469       -16.0675
 163   2.0000      -0.586683       -15.9645
 164   2.0000      -0.584309       -15.8999
 165   2.0000      -0.583206       -15.8699
 166   2.0000      -0.578274       -15.7356
 167   2.0000      -0.573775       -15.6132
 168   2.0000      -0.570055       -15.5120
 169   2.0000      -0.565985       -15.4012
 170   2.0000      -0.562726       -15.3126
 171   2.0000      -0.559102       -15.2139
 172   2.0000      -0.556495       -15.1430
 173   2.0000      -0.555879       -15.1262
 174   2.0000      -0.554532       -15.0896
 175   2.0000      -0.553223       -15.0540
 176   2.0000      -0.551079       -14.9956
 177   2.0000      -0.550537       -14.9809
 178   2.0000      -0.549744       -14.9593
 179   2.0000      -0.545861       -14.8536
 180   2.0000      -0.544705       -14.8222
 181   2.0000      -0.543796       -14.7974
 182   2.0000      -0.539781       -14.6882
 183   2.0000      -0.536569       -14.6008
 184   2.0000      -0.534540       -14.5456
 185   2.0000      -0.533169       -14.5083
 186   2.0000      -0.531397       -14.4600
 187   2.0000      -0.528623       -14.3846
 188   2.0000      -0.527528       -14.3548
 189   2.0000      -0.518753       -14.1160
 190   2.0000      -0.516174       -14.0458
 191   2.0000      -0.514502       -14.0003
 192   2.0000      -0.512572       -13.9478
 193   2.0000      -0.508389       -13.8340
 194   2.0000      -0.504726       -13.7343
 195   2.0000      -0.502974       -13.6866
 196   2.0000      -0.502654       -13.6779
 197   2.0000      -0.499703       -13.5976
 198   2.0000      -0.499173       -13.5832
 199   2.0000      -0.498269       -13.5586
 200   2.0000      -0.496901       -13.5214
 201   2.0000      -0.492520       -13.4021
 202   2.0000      -0.491987       -13.3877
 203   2.0000      -0.491499       -13.3744
 204   2.0000      -0.490667       -13.3517
 205   2.0000      -0.488028       -13.2799
 206   2.0000      -0.486014       -13.2251
 207   2.0000      -0.485063       -13.1992
 208   2.0000      -0.475897       -12.9498
 209   2.0000      -0.471341       -12.8259
 210   2.0000      -0.470268       -12.7966
 211   2.0000      -0.467249       -12.7145
 212   2.0000      -0.463943       -12.6245
 213   2.0000      -0.463157       -12.6031
 214   2.0000      -0.461694       -12.5633
 215   2.0000      -0.460487       -12.5305
 216   2.0000      -0.458672       -12.4811
 217   2.0000      -0.455397       -12.3920
 218   2.0000      -0.454453       -12.3663
 219   2.0000      -0.454007       -12.3542
 220   2.0000      -0.451490       -12.2857
 221   2.0000      -0.451328       -12.2813
 222   2.0000      -0.449608       -12.2344
 223   2.0000      -0.446131       -12.1398
 224   2.0000      -0.445441       -12.1211
 225   2.0000      -0.444446       -12.0940
 226   2.0000      -0.442236       -12.0339
 227   2.0000      -0.438136       -11.9223
 228   2.0000      -0.434380       -11.8201
 229   2.0000      -0.430726       -11.7207
 230   2.0000      -0.428684       -11.6651
 231   2.0000      -0.426834       -11.6148
 232   2.0000      -0.425679       -11.5833
 233   2.0000      -0.424908       -11.5623
 234   2.0000      -0.423333       -11.5195
 235   2.0000      -0.415753       -11.3132
 236   2.0000      -0.412593       -11.2272
 237   2.0000      -0.408498       -11.1158
 238   2.0000      -0.406722       -11.0675
 239   2.0000      -0.387686       -10.5495
 240   2.0000      -0.377608       -10.2752
 241   2.0000      -0.371485       -10.1086
 242   2.0000      -0.367994       -10.0136
 243   2.0000      -0.363824        -9.9001
 244   2.0000      -0.360206        -9.8017
 245   2.0000      -0.359861        -9.7923
 246   2.0000      -0.356771        -9.7082
 247   2.0000      -0.353791        -9.6271
 248   2.0000      -0.353397        -9.6164
 249   2.0000      -0.350195        -9.5293
 250   2.0000      -0.346346        -9.4246
 251   2.0000      -0.342871        -9.3300
 252   2.0000      -0.337384        -9.1807
 253   2.0000      -0.336002        -9.1431
 254   2.0000      -0.332273        -9.0416
 255   2.0000      -0.320985        -8.7345
 256   2.0000      -0.315003        -8.5717
 257   2.0000      -0.305520        -8.3136
 258   2.0000      -0.299194        -8.1415
 259   2.0000      -0.277112        -7.5406
 260   2.0000      -0.233810        -6.3623
 261   0.0000      -0.106557        -2.8996
 262   0.0000      -0.099370        -2.7040
 263   0.0000      -0.074730        -2.0335
 264   0.0000      -0.070510        -1.9187
 265   0.0000      -0.064548        -1.7564

MULLIKEN ATOMIC CHARGES
-----------------------
   0 C :   -0.088230
   1 C :    0.236297
   2 F :   -0.162912
   3 C :    0.235365
   4 F :   -0.167818
   5 C :   -0.101546
   6 C :   -0.007019
   7 C :    0.043010
   8 C :    0.296208
   9 C :   -0.323304
  10 C :   -0.191207
  11 N :    0.155810
  12 C :   -0.210955
  13 N :    0.182258
  14 C :   -0.088730
  15 C :    0.164618
  16 O :   -0.168131
  17 C :   -0.058540
  18 C :   -0.119095
  19 S :    0.205063
  20 C :    0.018052
  21 C :    0.198140
  22 O :   -0.150732
  23 N :   -0.303874
  24 C :    0.135222
  25 C :   -0.008035
  26 C :    0.212980
  27 O :   -0.188560
  28 C :   -0.000671
  29 C :   -0.111142
  30 C :    0.015107
  31 C :    0.024937
  32 C :    0.090208
  33 N :   -0.024263
  34 C :    0.127050
  35 C :   -0.152027
  36 C :    0.066025
  37 N :   -0.034589
  38 C :    0.115883
  39 C :   -0.155258
  40 C :    0.049682
  41 C :    0.023412
  42 C :   -0.135165
  43 S :    0.148796
  44 C :   -0.015488
  45 C :    0.208971
  46 O :   -0.179620
  47 N :   -0.291462
  48 C :    0.130775
  49 C :   -0.006862
  50 C :    0.216742
  51 O :   -0.187708
  52 C :    0.032169
  53 C :   -0.148329
  54 C :    0.063139
  55 C :   -0.000870
  56 C :    0.035114
  57 C :   -0.110555
  58 C :    0.142334
  59 O :   -0.134992
  60 C :   -0.002172
  61 C :    0.036845
  62 C :   -0.091623
  63 C :    0.236961
  64 C :    0.234147
  65 C :   -0.100823
  66 F :   -0.169004
  67 F :   -0.165268
  68 C :    0.262647
  69 C :   -0.303253
  70 C :   -0.203288
  71 N :    0.164790
  72 C :   -0.184868
  73 N :    0.154928
  74 H :    0.017437
  75 H :    0.010352
  76 H :    0.045284
  77 H :    0.030508
  78 H :    0.036576
  79 H :    0.021863
  80 H :    0.025140
  81 H :    0.030979
  82 H :   -0.024698
  83 H :   -0.008439
  84 H :    0.136340
  85 H :   -0.016897
  86 H :    0.127403
  87 H :   -0.027525
  88 H :    0.005872
  89 H :   -0.051694
  90 H :    0.031130
  91 H :    0.033163
  92 H :    0.038234
  93 H :    0.023942
  94 H :    0.023152
  95 H :   -0.010345
  96 H :    0.043793
  97 H :    0.012618
  98 H :    0.018217
  99 H :    0.011898
Sum of atomic charges:   -0.0000000

LOEWDIN ATOMIC CHARGES
----------------------
   0 C :   -0.017816
   1 C :    0.075258
   2 F :   -0.041415
   3 C :    0.070089
   4 F :   -0.044838
   5 C :   -0.005145
   6 C :   -0.046245
   7 C :   -0.011875
   8 C :    0.070939
   9 C :   -0.126996
  10 C :   -0.019124
  11 N :   -0.044836
  12 C :   -0.029467
  13 N :   -0.029996
  14 C :   -0.102779
  15 C :    0.085193
  16 O :   -0.157949
  17 C :    0.060460
  18 C :   -0.171645
  19 S :    0.508707
  20 C :   -0.050258
  21 C :    0.089823
  22 O :   -0.146495
  23 N :   -0.030453
  24 C :    0.044534
  25 C :   -0.059629
  26 C :    0.098497
  27 O :   -0.173215
  28 C :   -0.115113
  29 C :   -0.116003
  30 C :   -0.069369
  31 C :    0.014580
  32 C :   -0.003184
  33 N :    0.080989
  34 C :   -0.015657
  35 C :   -0.066799
  36 C :   -0.001447
  37 N :    0.067623
  38 C :   -0.007475
  39 C :   -0.078745
  40 C :    0.016938
  41 C :   -0.087544
  42 C :   -0.114194
  43 S :    0.450905
  44 C :   -0.107292
  45 C :    0.097292
  46 O :   -0.165465
  47 N :   -0.021906
  48 C :    0.043660
  49 C :   -0.058123
  50 C :    0.102132
  51 O :   -0.163851
  52 C :   -0.070025
  53 C :   -0.147121
  54 C :   -0.001331
  55 C :   -0.015067
  56 C :    0.066306
  57 C :   -0.086028
  58 C :    0.081606
  59 O :   -0.137530
  60 C :   -0.047597
  61 C :   -0.010291
  62 C :   -0.020551
  63 C :    0.074912
  64 C :    0.069140
  65 C :   -0.005057
  66 F :   -0.045934
  67 F :   -0.043140
  68 C :    0.067464
  69 C :   -0.119579
  70 C :   -0.016733
  71 N :   -0.052690
  72 C :   -0.015987
  73 N :   -0.046924
  74 H :    0.052144
  75 H :    0.051762
  76 H :    0.056796
  77 H :    0.031859
  78 H :    0.034836
  79 H :    0.026626
  80 H :    0.031434
  81 H :    0.029450
  82 H :    0.026949
  83 H :    0.032598
  84 H :    0.097404
  85 H :    0.033036
  86 H :    0.088925
  87 H :    0.026568
  88 H :    0.041201
  89 H :    0.016214
  90 H :    0.032241
  91 H :    0.032077
  92 H :    0.031884
  93 H :    0.031420
  94 H :    0.027541
  95 H :    0.033274
  96 H :    0.032992
  97 H :    0.043802
  98 H :    0.051678
  99 H :    0.052172

  Mayer bond orders larger than 0.100000
B(  0-C ,  1-C ) :   1.3349 B(  0-C ,  5-C ) :   0.1049 B(  0-C ,  7-C ) :   1.3164
B(  0-C , 74-H ) :   0.9925 B(  1-C ,  2-F ) :   1.1468 B(  1-C ,  3-C ) :   1.2900
B(  3-C ,  4-F ) :   1.1316 B(  3-C ,  5-C ) :   1.3189 B(  5-C ,  6-C ) :   1.3177
B(  5-C , 75-H ) :   1.0200 B(  6-C ,  7-C ) :   1.3409 B(  6-C , 15-C ) :   0.9637
B(  7-C ,  8-C ) :   1.0064 B(  8-C ,  9-C ) :   1.6601 B(  8-C , 14-C ) :   1.0620
B(  9-C , 10-C ) :   1.1359 B(  9-C , 12-C ) :   1.1368 B( 10-C , 11-N ) :   2.9819
B( 12-C , 13-N ) :   3.0073 B( 14-C , 15-C ) :   0.9733 B( 14-C , 17-C ) :   1.5245
B( 15-C , 16-O ) :   2.1553 B( 17-C , 18-C ) :   1.2488 B( 17-C , 76-H ) :   0.9432
B( 18-C , 19-S ) :   1.0780 B( 18-C , 20-C ) :   1.4308 B( 19-S , 29-C ) :   1.1305
B( 20-C , 21-C ) :   0.8876 B( 20-C , 28-C ) :   1.3381 B( 21-C , 22-O ) :   2.1623
B( 21-C , 23-N ) :   1.0795 B( 23-N , 24-C ) :   0.9177 B( 23-N , 26-C ) :   1.0929
B( 24-C , 25-C ) :   1.1266 B( 24-C , 77-H ) :   0.9407 B( 24-C , 78-H ) :   0.9419
B( 25-C , 79-H ) :   0.9687 B( 25-C , 80-H ) :   0.9701 B( 25-C , 81-H ) :   0.9691
B( 26-C , 27-O ) :   2.0693 B( 26-C , 28-C ) :   0.9046 B( 27-O , 83-H ) :   0.1141
B( 28-C , 29-C ) :   1.3745 B( 29-C , 30-C ) :   1.1895 B( 30-C , 31-C ) :   1.6062
B( 30-C , 82-H ) :   0.9612 B( 31-C , 32-C ) :   1.1462 B( 31-C , 83-H ) :   0.9348
B( 32-C , 33-N ) :   1.1794 B( 32-C , 39-C ) :   1.3643 B( 33-N , 34-C ) :   1.1802
B( 33-N , 84-H ) :   0.9312 B( 34-C , 35-C ) :   1.2453 B( 34-C , 38-C ) :   1.2831
B( 35-C , 36-C ) :   1.3471 B( 35-C , 85-H ) :   1.0457 B( 36-C , 37-N ) :   1.1845
B( 36-C , 40-C ) :   1.1879 B( 37-N , 38-C ) :   1.1698 B( 37-N , 86-H ) :   0.9324
B( 38-C , 39-C ) :   1.2899 B( 39-C , 87-H ) :   1.0321 B( 40-C , 41-C ) :   1.5778
B( 40-C , 88-H ) :   0.9330 B( 41-C , 42-C ) :   1.1839 B( 41-C , 89-H ) :   0.9496
B( 42-C , 43-S ) :   1.1323 B( 42-C , 44-C ) :   1.4558 B( 43-S , 53-C ) :   1.0969
B( 44-C , 45-C ) :   0.9129 B( 44-C , 52-C ) :   1.2864 B( 45-C , 46-O ) :   2.0803
B( 45-C , 47-N ) :   1.0813 B( 46-O , 88-H ) :   0.1092 B( 47-N , 48-C ) :   0.9162
B( 47-N , 50-C ) :   1.1125 B( 48-C , 49-C ) :   1.1252 B( 48-C , 90-H ) :   0.9421
B( 48-C , 91-H ) :   0.9395 B( 49-C , 92-H ) :   0.9688 B( 49-C , 93-H ) :   0.9697
B( 49-C , 94-H ) :   0.9677 B( 50-C , 51-O ) :   2.0462 B( 50-C , 52-C ) :   0.8979
B( 51-O , 96-H ) :   0.1058 B( 52-C , 53-C ) :   1.4974 B( 53-C , 54-C ) :   1.1352
B( 54-C , 55-C ) :   1.6618 B( 54-C , 95-H ) :   0.9675 B( 55-C , 56-C ) :   1.1326
B( 55-C , 96-H ) :   0.9226 B( 56-C , 57-C ) :   1.6181 B( 56-C , 97-H ) :   0.9656
B( 57-C , 58-C ) :   0.9427 B( 57-C , 68-C ) :   1.0380 B( 58-C , 59-O ) :   2.2806
B( 58-C , 60-C ) :   0.9287 B( 60-C , 61-C ) :   1.3408 B( 60-C , 65-C ) :   1.3230
B( 61-C , 62-C ) :   1.3178 B( 61-C , 68-C ) :   1.0191 B( 62-C , 63-C ) :   1.3372
B( 62-C , 65-C ) :   0.1053 B( 62-C , 98-H ) :   0.9937 B( 63-C , 64-C ) :   1.2897
B( 63-C , 67-F ) :   1.1422 B( 64-C , 65-C ) :   1.3225 B( 64-C , 66-F ) :   1.1314
B( 65-C , 99-H ) :   1.0191 B( 68-C , 69-C ) :   1.6635 B( 69-C , 70-C ) :   1.1603
B( 69-C , 72-C ) :   1.1358 B( 70-C , 71-N ) :   2.9925 B( 72-C , 73-N ) :   2.9894

-----------------------------------------------------------------------------
         ABSORPTION SPECTRUM VIA TRANSITION ELECTRIC DIPOLE MOMENTS
-----------------------------------------------------------------------------
State   Energy  Wavelength   fosc         T2         TX        TY        TZ
        (cm-1)    (nm)                  (au**2)     (au)      (au)      (au)
-----------------------------------------------------------------------------
   0   14388.4    695.0   2.539355782  58.10150  -6.11893   3.86401  -2.39367
   1   17171.1    582.4   0.097748268   1.87407  -0.40614  -0.87383   0.97239
   2   21222.5    471.2   0.510037923   7.91192  -1.69713   1.56447  -1.60752
   3   23093.9    433.0   0.033127623   0.47225   0.00440  -0.60272   0.33009
   4   24260.4    412.2   0.074145473   1.00615  -0.79126   0.59939  -0.14415
   5   25444.2    393.0   0.135406866   1.75198   0.98250   0.29871  -0.83512
   6   25963.6    385.2   0.238613310   3.02556   1.54422  -0.79521  -0.09267
   7   26753.0    373.8   0.010528432   0.12956   0.33192   0.13611   0.02931
   8   28453.5    351.5   0.120701413   1.39654   0.64598  -0.43193   0.89033
   9   29073.0    344.0   0.005569625   0.06307  -0.01635  -0.23432   0.08887
  10   29388.3    340.3   0.065779305   0.73687  -0.73473  -0.30148   0.32581
  11   30086.0    332.4   0.037703764   0.41257   0.39828   0.49152  -0.11113
  12   30401.5    328.9   0.012077428   0.13078  -0.30858   0.18321  -0.04472
  13   30755.3    325.1   0.053393645   0.57154  -0.53862   0.17188  -0.50188
  14   31757.7    314.9   0.017629082   0.18275  -0.09805   0.39906   0.11785
  15   32026.5    312.2   0.078126467   0.80309   0.59959   0.50176  -0.43798
  16   32397.8    308.7   0.093307022   0.94814   0.94723   0.20570  -0.09264
  17   32608.9    306.7   0.013030953   0.13156   0.36143   0.03024  -0.00363
  18   32700.5    305.8   0.030685311   0.30892   0.24849   0.39454  -0.30251
  19   32887.8    304.1   0.079172636   0.79253   0.73612  -0.12650   0.48442
  20   33064.6    302.4   0.095508399   0.95094   0.41579   0.71042  -0.52283
  21   33184.9    301.3   0.034601296   0.34326   0.42728  -0.16836   0.36380
  22   33616.5    297.5   0.145357952   1.42351   0.03356   0.75373  -0.92427
  23   33730.8    296.5   0.042600786   0.41578  -0.03161  -0.23751   0.59864
  24   34120.3    293.1   0.067870616   0.65485  -0.43774  -0.44362   0.51618
  25   34486.3    290.0   0.028034879   0.26763  -0.51580   0.03611   0.01639
  26   34594.1    289.1   0.035642862   0.33919  -0.07230  -0.42765   0.38869
  27   35283.8    283.4   0.028382393   0.26482  -0.49434   0.12522   0.06908
  28   36128.2    276.8   0.061954330   0.56455  -0.70148   0.08374   0.25584
  29   36515.6    273.9   0.145538151   1.31212   0.24607  -0.88006   0.69070
  30   36654.3    272.8   0.190876760   1.71437  -0.66235  -1.11137   0.20128
  31   36913.0    270.9   0.210699834   1.87915   0.13876   1.27936  -0.47236
  32   37635.4    265.7   0.605584217   5.29729  -0.57515   0.88291  -2.04621
  33   38060.6    262.7   0.022189192   0.19193   0.04286  -0.06536  -0.43107
  34   38123.4    262.3   0.154470845   1.33392  -0.52906   0.86761  -0.54888
  35   38517.8    259.6   0.120148777   1.02691   0.84047  -0.53954   0.17152
  36   38799.0    257.7   0.039446903   0.33471   0.13751   0.51564  -0.22342
  37   38830.3    257.5   0.022374877   0.18970  -0.14567  -0.19992   0.35848
  38   38908.8    257.0   0.151359315   1.28067  -0.74127  -0.51179   0.68502
  39   39096.2    255.8   0.035330752   0.29750   0.38835   0.18120  -0.33742
  40   39279.5    254.6   0.028776369   0.24118   0.36013  -0.29208   0.16181
  41   39367.9    254.0   0.019213435   0.16067   0.27680   0.06248  -0.28310
  42   39484.0    253.3   0.064870268   0.54088  -0.66223  -0.27870   0.15700
  43   39721.5    251.8   0.003207852   0.02659   0.14742   0.06771  -0.01643
  44   40038.5    249.8   0.021243651   0.17467  -0.41524  -0.03598  -0.03089
  45   40240.4    248.5   0.004776433   0.03908   0.06022  -0.11747   0.14715

FINAL SINGLE POINT ENERGY     -4154.131369672606

DIPOLE MOMENT
-------------
                                X             Y             Z
Electronic contribution:    -33.06766     -21.80657      37.71033
Nuclear contribution   :     33.14178      20.84733     -36.89980
                        -----------------------------------------
Total Dipole Moment    :      0.07412      -0.95924       0.81053
                        -----------------------------------------
Magnitude (a.u.)       :      1.25801
Magnitude (Debye)      :      3.19761

Rotational constants in cm-1:     0.002154     0.000152     0.000143
Rotational constants in MHz :    64.567782     4.545324     4.287327

                             ****ORCA TERMINATED NORMALLY****
TOTAL RUN TIME: 0 days 0 hours 11 minutes 55 seconds 95 msec
