                         Program Version 4.2.0 -  RELEASE  -
|  1> # ORCA input file
|  2> # SCF done       -189.181825666476          0.000638814991
|  3> ! CAM-B3LYP def2-SVP def2/J RIJCOSX Grid4 TightSCF
|  4> %maxcore 5000
|  5> %tddft
|  6>     Mode sTDDFT
|  7>     Ethresh 5.0
|  8>     maxcore 5000
|  9> end
| 10>
| 11> %pal
| 12>   nprocs 6
| 13>   end
| 14> * xyz 0 1
| 15>    C        4.42267        -1.12211         1.71360
| 16>    C        5.35417        -0.32479         1.06353
| 17>    F        5.48369         0.95450         1.43655
| 18>    C        6.15389        -0.82214         0.03607
| 19>    F        7.04134        -0.01759        -0.56427
| 20>    C        6.03690        -2.14105        -0.37447
| 21>    C        5.10113        -2.92923         0.26310
| 22>    C        4.29776        -2.43999         1.30574
| 23>    C        3.43116        -3.52408         1.77696
| 24>    C        2.60270        -3.44682         2.87012
| 25>    C        2.44747        -2.29094         3.66283
| 26>    N        2.26693        -1.38463         4.34410
| 27>    C        1.83028        -4.50172         3.39543
| 28>    N        1.19281        -5.31251         3.90336
| 29>    C        3.63987        -4.65427         0.90411
| 30>    C        4.76307        -4.35015         0.00498
| 31>    O        5.36286        -5.10737        -0.73335
| 32>    C        2.98365        -5.86476         1.00025
| 33>    C        2.99844        -6.94343         0.11959
| 34>    C        3.27941        -7.09050        -1.25628
| 35>    C        3.33181        -8.45503        -1.67179
| 36>    C        3.55830        -8.76100        -3.02542
| 37>    C        3.72836        -7.74400        -3.92632
| 38>    C        3.62352        -6.40407        -3.52489
| 39>    C        3.38063        -6.07275        -2.21742
| 40>    C        3.03781        -9.35545        -0.62706
| 41>    S        2.60933        -8.50388         0.80629
| 42>    C        3.06502       -10.77076        -0.55945
| 43>    C        3.83278       -11.59812        -1.30648
| 44>    N        3.81806       -12.95557        -1.19551
| 45>    C        3.05143       -13.55260        -0.16464
| 46>    C        1.84525       -14.15805        -0.31473
| 47>    S        1.22390       -14.71587         1.18309
| 48>    C        2.60635       -14.14510         2.02841
| 49>    C        3.50649       -13.55093         1.19209
| 50>    N        4.70264       -12.94351         1.56163
| 51>    C        5.90317       -13.15946         0.77048
| 52>    C        5.74057       -14.20480        -0.33283
| 53>    O        6.21962       -15.29922        -0.24534
| 54>    C        4.95849       -13.75536        -1.56724
| 55>    C        4.74951       -12.15704         2.67605
| 56>    C        5.86132       -11.63913         3.24126
| 57>    C        5.85113       -10.75411         4.35730
| 58>    C        4.90852        -9.77818         4.73255
| 59>    C        5.25914        -9.11655         5.94642
| 60>    C        4.43237        -8.09518         6.44353
| 61>    C        3.31674        -7.72687         5.73994
| 62>    C        2.99212        -8.34939         4.52316
| 63>    C        3.76709        -9.35912         4.02257
| 64>    C        6.47072        -9.58537         6.50052
| 65>    S        7.16912       -10.80213         5.46584
| 66>    C        7.06285        -9.23113         7.71223
| 67>    C        8.21792        -9.78795         8.20373
| 68>    C        8.73825        -9.46744         9.45757
| 69>    C        9.81391       -10.04404        10.09523
| 70>    C       10.45742        -9.33347        11.21798
| 71>    O       10.04294        -8.35863        11.80637
| 72>    C       11.74324       -10.03916        11.44102
| 73>    C       11.82169       -11.14260        10.57409
| 74>    C       12.95414       -11.93956        10.56932
| 75>    C       13.98353       -11.61308        11.44066
| 76>    C       13.89171       -10.52568        12.30730
| 77>    C       12.76247        -9.72156        12.31526
| 78>    F       14.90727       -10.25172        13.13831
| 79>    F       15.09293       -12.36436        11.44256
| 80>    C       10.56847       -11.23626         9.81676
| 81>    C       10.14557       -12.36510         9.15558
| 82>    C        8.83312       -12.59252         8.69522
| 83>    N        7.78037       -12.87887         8.33514
| 84>    C       10.95132       -13.50173         8.94554
| 85>    N       11.56239       -14.44735         8.71791
| 86>    H        3.83183        -0.68982         2.50417
| 87>    H        6.65456        -2.53007        -1.16812
| 88>    H        2.41544        -6.03864         1.90568
| 89>    H        3.54708        -9.78806        -3.35461
| 90>    H        3.90146        -7.97066        -4.96749
| 91>    H        3.70637        -5.62572        -4.26790
| 92>    H        3.22206        -5.04611        -1.93406
| 93>    H        2.47353       -11.20081         0.23791
| 94>    H        4.52005       -11.21411        -2.04573
| 95>    H        1.28232       -14.28515        -1.21707
| 96>    H        2.67967       -14.28065         3.08832
| 97>    H        6.69704       -13.52895         1.43078
| 98>    H        6.22595       -12.20777         0.32546
| 99>    H        4.63088       -14.64974        -2.10884
|100>    H        5.62955       -13.18508        -2.21609
|101>    H        3.77847       -11.96416         3.10733
|102>    H        6.84129       -11.94902         2.90869
|103>    H        4.68944        -7.59619         7.36477
|104>    H        2.68130        -6.93402         6.10330
|105>    H        2.12232        -8.01125         3.98113
|106>    H        3.53101        -9.81161         3.07297
|107>    H        6.53832        -8.50611         8.32062
|108>    H        8.73830       -10.50628         7.58638
|109>    H        8.30004        -8.62486         9.98261
|110>    H       13.07378       -12.78954         9.91771
|111>    H       12.68929        -8.87866        12.98370
|112> *
|113>
|114>                          ****END OF INPUT****

CARTESIAN COORDINATES (ANGSTROEM)
---------------------------------
  C      4.422670   -1.122110    1.713600
  C      5.354170   -0.324790    1.063530
  F      5.483690    0.954500    1.436550
  C      6.153890   -0.822140    0.036070
  F      7.041340   -0.017590   -0.564270
  C      6.036900   -2.141050   -0.374470
  C      5.101130   -2.929230    0.263100
  C      4.297760   -2.439990    1.305740
  C      3.431160   -3.524080    1.776960
  C      2.602700   -3.446820    2.870120
  C      2.447470   -2.290940    3.662830
  N      2.266930   -1.384630    4.344100
  C      1.830280   -4.501720    3.395430
  N      1.192810   -5.312510    3.903360
  C      3.639870   -4.654270    0.904110
  C      4.763070   -4.350150    0.004980
  O      5.362860   -5.107370   -0.733350
  C      2.983650   -5.864760    1.000250
  C      2.998440   -6.943430    0.119590
  C      3.279410   -7.090500   -1.256280
  C      3.331810   -8.455030   -1.671790
  C      3.558300   -8.761000   -3.025420
  C      3.728360   -7.744000   -3.926320
  C      3.623520   -6.404070   -3.524890
  C      3.380630   -6.072750   -2.217420
  C      3.037810   -9.355450   -0.627060
  S      2.609330   -8.503880    0.806290
  C      3.065020  -10.770760   -0.559450
  C      3.832780  -11.598120   -1.306480
  N      3.818060  -12.955570   -1.195510
  C      3.051430  -13.552600   -0.164640
  C      1.845250  -14.158050   -0.314730
  S      1.223900  -14.715870    1.183090
  C      2.606350  -14.145100    2.028410
  C      3.506490  -13.550930    1.192090
  N      4.702640  -12.943510    1.561630
  C      5.903170  -13.159460    0.770480
  C      5.740570  -14.204800   -0.332830
  O      6.219620  -15.299220   -0.245340
  C      4.958490  -13.755360   -1.567240
  C      4.749510  -12.157040    2.676050
  C      5.861320  -11.639130    3.241260
  C      5.851130  -10.754110    4.357300
  C      4.908520   -9.778180    4.732550
  C      5.259140   -9.116550    5.946420
  C      4.432370   -8.095180    6.443530
  C      3.316740   -7.726870    5.739940
  C      2.992120   -8.349390    4.523160
  C      3.767090   -9.359120    4.022570
  C      6.470720   -9.585370    6.500520
  S      7.169120  -10.802130    5.465840
  C      7.062850   -9.231130    7.712230
  C      8.217920   -9.787950    8.203730
  C      8.738250   -9.467440    9.457570
  C      9.813910  -10.044040   10.095230
  C     10.457420   -9.333470   11.217980
  O     10.042940   -8.358630   11.806370
  C     11.743240  -10.039160   11.441020
  C     11.821690  -11.142600   10.574090
  C     12.954140  -11.939560   10.569320
  C     13.983530  -11.613080   11.440660
  C     13.891710  -10.525680   12.307300
  C     12.762470   -9.721560   12.315260
  F     14.907270  -10.251720   13.138310
  F     15.092930  -12.364360   11.442560
  C     10.568470  -11.236260    9.816760
  C     10.145570  -12.365100    9.155580
  C      8.833120  -12.592520    8.695220
  N      7.780370  -12.878870    8.335140
  C     10.951320  -13.501730    8.945540
  N     11.562390  -14.447350    8.717910
  H      3.831830   -0.689820    2.504170
  H      6.654560   -2.530070   -1.168120
  H      2.415440   -6.038640    1.905680
  H      3.547080   -9.788060   -3.354610
  H      3.901460   -7.970660   -4.967490
  H      3.706370   -5.625720   -4.267900
  H      3.222060   -5.046110   -1.934060
  H      2.473530  -11.200810    0.237910
  H      4.520050  -11.214110   -2.045730
  H      1.282320  -14.285150   -1.217070
  H      2.679670  -14.280650    3.088320
  H      6.697040  -13.528950    1.430780
  H      6.225950  -12.207770    0.325460
  H      4.630880  -14.649740   -2.108840
  H      5.629550  -13.185080   -2.216090
  H      3.778470  -11.964160    3.107330
  H      6.841290  -11.949020    2.908690
  H      4.689440   -7.596190    7.364770
  H      2.681300   -6.934020    6.103300
  H      2.122320   -8.011250    3.981130
  H      3.531010   -9.811610    3.072970
  H      6.538320   -8.506110    8.320620
  H      8.738300  -10.506280    7.586380
  H      8.300040   -8.624860    9.982610
  H     13.073780  -12.789540    9.917710
  H     12.689290   -8.878660   12.983700

 Total Charge           Charge          ....    0
 Multiplicity           Mult            ....    1
 Number of Electrons    NEL             ....  506
 Basis Dimension        Dim             .... 1136

ORBITAL ENERGIES
----------------

  NO   OCC          E(Eh)            E(eV)
   0   2.0000     -88.992482     -2421.6086
   1   2.0000     -88.986933     -2421.4576
   2   2.0000     -88.972960     -2421.0773
   3   2.0000     -24.797981      -674.7874
   4   2.0000     -24.795608      -674.7228
   5   2.0000     -24.788951      -674.5416
   6   2.0000     -24.787994      -674.5156
   7   2.0000     -19.255783      -523.9765
   8   2.0000     -19.211612      -522.7745
   9   2.0000     -19.200087      -522.4609
  10   2.0000     -14.490022      -394.2935
  11   2.0000     -14.488943      -394.2642
  12   2.0000     -14.419288      -392.3688
  13   2.0000     -14.410525      -392.1303
  14   2.0000     -14.402771      -391.9193
  15   2.0000     -14.401245      -391.8778
  16   2.0000     -10.403020      -283.0806
  17   2.0000     -10.381890      -282.5056
  18   2.0000     -10.380743      -282.4744
  19   2.0000     -10.372658      -282.2544
  20   2.0000     -10.372174      -282.2412
  21   2.0000     -10.362757      -281.9850
  22   2.0000     -10.360416      -281.9213
  23   2.0000     -10.353043      -281.7206
  24   2.0000     -10.351600      -281.6813
  25   2.0000     -10.349748      -281.6310
  26   2.0000     -10.349698      -281.6296
  27   2.0000     -10.348575      -281.5990
  28   2.0000     -10.345844      -281.5247
  29   2.0000     -10.345555      -281.5169
  30   2.0000     -10.340414      -281.3770
  31   2.0000     -10.337230      -281.2903
  32   2.0000     -10.333034      -281.1762
  33   2.0000     -10.331337      -281.1300
  34   2.0000     -10.329123      -281.0697
  35   2.0000     -10.327697      -281.0309
  36   2.0000     -10.325104      -280.9604
  37   2.0000     -10.323592      -280.9192
  38   2.0000     -10.319306      -280.8026
  39   2.0000     -10.317138      -280.7436
  40   2.0000     -10.314424      -280.6697
  41   2.0000     -10.310979      -280.5760
  42   2.0000     -10.306475      -280.4534
  43   2.0000     -10.305313      -280.4218
  44   2.0000     -10.305095      -280.4159
  45   2.0000     -10.305084      -280.4156
  46   2.0000     -10.304416      -280.3974
  47   2.0000     -10.304181      -280.3910
  48   2.0000     -10.303862      -280.3823
  49   2.0000     -10.303372      -280.3690
  50   2.0000     -10.302471      -280.3445
  51   2.0000     -10.302212      -280.3374
  52   2.0000     -10.300096      -280.2799
  53   2.0000     -10.297224      -280.2017
  54   2.0000     -10.297079      -280.1978
  55   2.0000     -10.295375      -280.1514
  56   2.0000     -10.295348      -280.1507
  57   2.0000     -10.294891      -280.1382
  58   2.0000     -10.293476      -280.0997
  59   2.0000     -10.290914      -280.0300
  60   2.0000     -10.290533      -280.0196
  61   2.0000     -10.289637      -279.9953
  62   2.0000     -10.289398      -279.9888
  63   2.0000     -10.288753      -279.9712
  64   2.0000     -10.287356      -279.9332
  65   2.0000     -10.284446      -279.8540
  66   2.0000     -10.280633      -279.7502
  67   2.0000     -10.279758      -279.7264
  68   2.0000     -10.275659      -279.6149
  69   2.0000     -10.275025      -279.5976
  70   2.0000     -10.274270      -279.5771
  71   2.0000      -8.088376      -220.0959
  72   2.0000      -8.082159      -219.9267
  73   2.0000      -8.068176      -219.5462
  74   2.0000      -6.057651      -164.8371
  75   2.0000      -6.053284      -164.7182
  76   2.0000      -6.051180      -164.6610
  77   2.0000      -6.050686      -164.6475
  78   2.0000      -6.047078      -164.5494
  79   2.0000      -6.044804      -164.4875
  80   2.0000      -6.037117      -164.2783
  81   2.0000      -6.032999      -164.1663
  82   2.0000      -6.030982      -164.1114
  83   2.0000      -1.320082       -35.9213
  84   2.0000      -1.311467       -35.6868
  85   2.0000      -1.304872       -35.5074
  86   2.0000      -1.296341       -35.2752
  87   2.0000      -1.175848       -31.9964
  88   2.0000      -1.126151       -30.6441
  89   2.0000      -1.118713       -30.4417
  90   2.0000      -1.114783       -30.3348
  91   2.0000      -1.088827       -29.6285
  92   2.0000      -1.020328       -27.7645
  93   2.0000      -1.017478       -27.6870
  94   2.0000      -1.010514       -27.4975
  95   2.0000      -1.007124       -27.4052
  96   2.0000      -1.005738       -27.3675
  97   2.0000      -1.001150       -27.2427
  98   2.0000      -0.992396       -27.0045
  99   2.0000      -0.988727       -26.9046
 100   2.0000      -0.980924       -26.6923
 101   2.0000      -0.954886       -25.9838
 102   2.0000      -0.949393       -25.8343
 103   2.0000      -0.944373       -25.6977
 104   2.0000      -0.938174       -25.5290
 105   2.0000      -0.929455       -25.2918
 106   2.0000      -0.923991       -25.1431
 107   2.0000      -0.903376       -24.5821
 108   2.0000      -0.898572       -24.4514
 109   2.0000      -0.894629       -24.3441
 110   2.0000      -0.886629       -24.1264
 111   2.0000      -0.882232       -24.0068
 112   2.0000      -0.870609       -23.6905
 113   2.0000      -0.869248       -23.6535
 114   2.0000      -0.865776       -23.5590
 115   2.0000      -0.860878       -23.4257
 116   2.0000      -0.859471       -23.3874
 117   2.0000      -0.850013       -23.1300
 118   2.0000      -0.842075       -22.9140
 119   2.0000      -0.838113       -22.8062
 120   2.0000      -0.835292       -22.7295
 121   2.0000      -0.823753       -22.4154
 122   2.0000      -0.807275       -21.9671
 123   2.0000      -0.797067       -21.6893
 124   2.0000      -0.772777       -21.0283
 125   2.0000      -0.768628       -20.9154
 126   2.0000      -0.766578       -20.8597
 127   2.0000      -0.757372       -20.6091
 128   2.0000      -0.744131       -20.2488
 129   2.0000      -0.737353       -20.0644
 130   2.0000      -0.726781       -19.7767
 131   2.0000      -0.724563       -19.7164
 132   2.0000      -0.715193       -19.4614
 133   2.0000      -0.712486       -19.3877
 134   2.0000      -0.707756       -19.2590
 135   2.0000      -0.703437       -19.1415
 136   2.0000      -0.701048       -19.0765
 137   2.0000      -0.692907       -18.8550
 138   2.0000      -0.690596       -18.7921
 139   2.0000      -0.683694       -18.6043
 140   2.0000      -0.676658       -18.4128
 141   2.0000      -0.669859       -18.2278
 142   2.0000      -0.667393       -18.1607
 143   2.0000      -0.659656       -17.9502
 144   2.0000      -0.657905       -17.9025
 145   2.0000      -0.648567       -17.6484
 146   2.0000      -0.644035       -17.5251
 147   2.0000      -0.639396       -17.3988
 148   2.0000      -0.637048       -17.3349
 149   2.0000      -0.632312       -17.2061
 150   2.0000      -0.627877       -17.0854
 151   2.0000      -0.622637       -16.9428
 152   2.0000      -0.616687       -16.7809
 153   2.0000      -0.614114       -16.7109
 154   2.0000      -0.611422       -16.6376
 155   2.0000      -0.607848       -16.5404
 156   2.0000      -0.605063       -16.4646
 157   2.0000      -0.600867       -16.3504
 158   2.0000      -0.595384       -16.2012
 159   2.0000      -0.591108       -16.0849
 160   2.0000      -0.585378       -15.9289
 161   2.0000      -0.583872       -15.8880
 162   2.0000      -0.582314       -15.8456
 163   2.0000      -0.579067       -15.7572
 164   2.0000      -0.576671       -15.6920
 165   2.0000      -0.569862       -15.5067
 166   2.0000      -0.567650       -15.4465
 167   2.0000      -0.563299       -15.3281
 168   2.0000      -0.558524       -15.1982
 169   2.0000      -0.554530       -15.0895
 170   2.0000      -0.553887       -15.0720
 171   2.0000      -0.548753       -14.9323
 172   2.0000      -0.547624       -14.9016
 173   2.0000      -0.545453       -14.8425
 174   2.0000      -0.544643       -14.8205
 175   2.0000      -0.540593       -14.7103
 176   2.0000      -0.539167       -14.6715
 177   2.0000      -0.537575       -14.6282
 178   2.0000      -0.537150       -14.6166
 179   2.0000      -0.535401       -14.5690
 180   2.0000      -0.528242       -14.3742
 181   2.0000      -0.526207       -14.3188
 182   2.0000      -0.524738       -14.2788
 183   2.0000      -0.523375       -14.2418
 184   2.0000      -0.522663       -14.2224
 185   2.0000      -0.518527       -14.1098
 186   2.0000      -0.516374       -14.0512
 187   2.0000      -0.515619       -14.0307
 188   2.0000      -0.511251       -13.9119
 189   2.0000      -0.510334       -13.8869
 190   2.0000      -0.507982       -13.8229
 191   2.0000      -0.506849       -13.7921
 192   2.0000      -0.504661       -13.7325
 193   2.0000      -0.499033       -13.5794
 194   2.0000      -0.496699       -13.5159
 195   2.0000      -0.492678       -13.4064
 196   2.0000      -0.491616       -13.3776
 197   2.0000      -0.490437       -13.3455
 198   2.0000      -0.489353       -13.3160
 199   2.0000      -0.485215       -13.2034
 200   2.0000      -0.484136       -13.1740
 201   2.0000      -0.483929       -13.1684
 202   2.0000      -0.481719       -13.1083
 203   2.0000      -0.479135       -13.0379
 204   2.0000      -0.476634       -12.9699
 205   2.0000      -0.466276       -12.6880
 206   2.0000      -0.456696       -12.4273
 207   2.0000      -0.455543       -12.3960
 208   2.0000      -0.454034       -12.3549
 209   2.0000      -0.453173       -12.3315
 210   2.0000      -0.451669       -12.2905
 211   2.0000      -0.451270       -12.2797
 212   2.0000      -0.449585       -12.2338
 213   2.0000      -0.447523       -12.1777
 214   2.0000      -0.445717       -12.1286
 215   2.0000      -0.442249       -12.0342
 216   2.0000      -0.440723       -11.9927
 217   2.0000      -0.438662       -11.9366
 218   2.0000      -0.438270       -11.9259
 219   2.0000      -0.437033       -11.8923
 220   2.0000      -0.436333       -11.8732
 221   2.0000      -0.430273       -11.7083
 222   2.0000      -0.429456       -11.6861
 223   2.0000      -0.427674       -11.6376
 224   2.0000      -0.427022       -11.6198
 225   2.0000      -0.423867       -11.5340
 226   2.0000      -0.418433       -11.3861
 227   2.0000      -0.416650       -11.3376
 228   2.0000      -0.415974       -11.3192
 229   2.0000      -0.413089       -11.2407
 230   2.0000      -0.410386       -11.1672
 231   2.0000      -0.407889       -11.0992
 232   2.0000      -0.397285       -10.8107
 233   2.0000      -0.394203       -10.7268
 234   2.0000      -0.392326       -10.6757
 235   2.0000      -0.372054       -10.1241
 236   2.0000      -0.367605       -10.0030
 237   2.0000      -0.356044        -9.6884
 238   2.0000      -0.351053        -9.5526
 239   2.0000      -0.348514        -9.4836
 240   2.0000      -0.343677        -9.3519
 241   2.0000      -0.336850        -9.1661
 242   2.0000      -0.335665        -9.1339
 243   2.0000      -0.327209        -8.9038
 244   2.0000      -0.325824        -8.8661
 245   2.0000      -0.323216        -8.7952
 246   2.0000      -0.322948        -8.7879
 247   2.0000      -0.317314        -8.6346
 248   2.0000      -0.309041        -8.4094
 249   2.0000      -0.304597        -8.2885
 250   2.0000      -0.291971        -7.9449
 251   2.0000      -0.253583        -6.9004
 252   2.0000      -0.233526        -6.3546
 253   0.0000      -0.097906        -2.6642
 254   0.0000      -0.091161        -2.4806
 255   0.0000      -0.065949        -1.7946
 256   0.0000      -0.052992        -1.4420
 257   0.0000      -0.032892        -0.8950

MULLIKEN ATOMIC CHARGES
-----------------------
   0 C :   -0.095017
   1 C :    0.234618
   2 F :   -0.168751
   3 C :    0.236125
   4 F :   -0.172468
   5 C :   -0.114797
   6 C :   -0.003239
   7 C :    0.048487
   8 C :    0.308174
   9 C :   -0.366587
  10 C :   -0.194014
  11 N :    0.148737
  12 C :   -0.165677
  13 N :    0.126232
  14 C :   -0.113263
  15 C :    0.108155
  16 O :   -0.153342
  17 C :    0.036571
  18 C :   -0.149028
  19 C :    0.141058
  20 C :    0.091873
  21 C :   -0.047951
  22 C :    0.029561
  23 C :    0.020300
  24 C :    0.018128
  25 C :   -0.075403
  26 S :    0.164472
  27 C :    0.007138
  28 C :    0.068617
  29 N :   -0.220382
  30 C :    0.042889
  31 C :   -0.120519
  32 S :    0.155382
  33 C :   -0.166149
  34 C :    0.171024
  35 N :   -0.233046
  36 C :    0.220587
  37 C :   -0.112254
  38 O :   -0.120271
  39 C :    0.252393
  40 C :    0.103639
  41 C :   -0.039176
  42 C :   -0.102082
  43 C :    0.108756
  44 C :    0.124867
  45 C :   -0.038666
  46 C :    0.035507
  47 C :    0.009649
  48 C :   -0.024415
  49 C :   -0.105191
  50 S :    0.184004
  51 C :    0.023191
  52 C :   -0.017829
  53 C :    0.028635
  54 C :   -0.131769
  55 C :    0.136380
  56 O :   -0.152257
  57 C :    0.006010
  58 C :    0.027801
  59 C :   -0.094407
  60 C :    0.233784
  61 C :    0.231761
  62 C :   -0.110637
  63 F :   -0.174764
  64 F :   -0.171413
  65 C :    0.288439
  66 C :   -0.352193
  67 C :   -0.222391
  68 N :    0.162706
  69 C :   -0.185735
  70 N :    0.138865
  71 H :    0.014492
  72 H :    0.005069
  73 H :   -0.002043
  74 H :   -0.031699
  75 H :   -0.009906
  76 H :   -0.003246
  77 H :   -0.017425
  78 H :    0.015767
  79 H :    0.021726
  80 H :    0.023723
  81 H :    0.034963
  82 H :    0.052552
  83 H :    0.031504
  84 H :    0.037545
  85 H :    0.052038
  86 H :    0.032998
  87 H :    0.001590
  88 H :   -0.021626
  89 H :    0.005072
  90 H :   -0.002845
  91 H :   -0.050065
  92 H :    0.003188
  93 H :    0.016437
  94 H :    0.009066
  95 H :    0.013471
  96 H :    0.008220
Sum of atomic charges:    0.0000000

LOEWDIN ATOMIC CHARGES
----------------------
   0 C :   -0.018907
   1 C :    0.069418
   2 F :   -0.047068
   3 C :    0.068838
   4 F :   -0.049131
   5 C :   -0.012317
   6 C :   -0.042610
   7 C :   -0.016737
   8 C :    0.080756
   9 C :   -0.156254
  10 C :   -0.021888
  11 N :   -0.058675
  12 C :   -0.011142
  13 N :   -0.070518
  14 C :   -0.129243
  15 C :    0.069721
  16 O :   -0.147441
  17 C :    0.035027
  18 C :   -0.193873
  19 C :   -0.007881
  20 C :   -0.059443
  21 C :   -0.016752
  22 C :   -0.024120
  23 C :   -0.002074
  24 C :    0.006147
  25 C :   -0.113821
  26 S :    0.508750
  27 C :   -0.128295
  28 C :    0.059886
  29 N :   -0.017408
  30 C :   -0.054292
  31 C :   -0.170211
  32 S :    0.478336
  33 C :   -0.202556
  34 C :   -0.037419
  35 N :   -0.003843
  36 C :    0.025965
  37 C :    0.061924
  38 O :   -0.088432
  39 C :    0.027141
  40 C :    0.055942
  41 C :   -0.125763
  42 C :   -0.126806
  43 C :   -0.061109
  44 C :   -0.015335
  45 C :   -0.020357
  46 C :    0.001466
  47 C :   -0.029248
  48 C :   -0.018721
  49 C :   -0.202395
  50 S :    0.504238
  51 C :    0.028946
  52 C :   -0.065642
  53 C :    0.067949
  54 C :   -0.123441
  55 C :    0.078789
  56 O :   -0.153886
  57 C :   -0.045116
  58 C :   -0.011966
  59 C :   -0.023719
  60 C :    0.070298
  61 C :    0.066077
  62 C :   -0.009012
  63 F :   -0.051217
  64 F :   -0.049251
  65 C :    0.071524
  66 C :   -0.154698
  67 C :   -0.023969
  68 N :   -0.064185
  69 C :   -0.021366
  70 N :   -0.063972
  71 H :    0.050817
  72 H :    0.049132
  73 H :    0.039695
  74 H :    0.024731
  75 H :    0.031116
  76 H :    0.034066
  77 H :    0.031338
  78 H :    0.033952
  79 H :    0.031437
  80 H :    0.033544
  81 H :    0.032781
  82 H :    0.042733
  83 H :    0.032867
  84 H :    0.041857
  85 H :    0.045910
  86 H :    0.034415
  87 H :    0.030019
  88 H :    0.029475
  89 H :    0.036917
  90 H :    0.026038
  91 H :    0.008763
  92 H :    0.040180
  93 H :    0.022211
  94 H :    0.042353
  95 H :    0.049707
  96 H :    0.050337

  Mayer bond orders larger than 0.100000
B(  0-C ,  1-C ) :   1.3278 B(  0-C ,  5-C ) :   0.1052 B(  0-C ,  7-C ) :   1.3133
B(  0-C , 71-H ) :   0.9941 B(  1-C ,  2-F ) :   1.1418 B(  1-C ,  3-C ) :   1.3001
B(  3-C ,  4-F ) :   1.1270 B(  3-C ,  5-C ) :   1.3062 B(  5-C ,  6-C ) :   1.3285
B(  5-C , 72-H ) :   1.0222 B(  6-C ,  7-C ) :   1.3439 B(  6-C , 15-C ) :   0.9299
B(  7-C ,  8-C ) :   0.9950 B(  8-C ,  9-C ) :   1.5936 B(  8-C , 14-C ) :   1.1302
B(  9-C , 10-C ) :   1.1440 B(  9-C , 12-C ) :   1.1545 B( 10-C , 11-N ) :   2.9760
B( 12-C , 13-N ) :   2.9279 B( 14-C , 15-C ) :   0.9738 B( 14-C , 17-C ) :   1.4703
B( 15-C , 16-O ) :   2.2173 B( 17-C , 18-C ) :   1.3259 B( 17-C , 73-H ) :   0.9106
B( 18-C , 19-C ) :   1.2453 B( 18-C , 26-S ) :   1.0853 B( 19-C , 20-C ) :   1.2468
B( 19-C , 24-C ) :   1.2622 B( 20-C , 21-C ) :   1.2243 B( 20-C , 25-C ) :   1.2698
B( 21-C , 22-C ) :   1.5146 B( 21-C , 74-H ) :   0.9902 B( 22-C , 23-C ) :   1.2492
B( 22-C , 75-H ) :   0.9872 B( 23-C , 24-C ) :   1.5082 B( 23-C , 76-H ) :   0.9875
B( 24-C , 77-H ) :   0.9863 B( 25-C , 26-S ) :   1.2348 B( 25-C , 27-C ) :   1.1486
B( 27-C , 28-C ) :   1.6383 B( 27-C , 78-H ) :   0.9308 B( 28-C , 29-N ) :   1.1475
B( 28-C , 79-H ) :   0.9673 B( 29-N , 30-C ) :   0.9989 B( 29-N , 39-C ) :   0.9716
B( 30-C , 31-C ) :   1.5669 B( 30-C , 34-C ) :   1.2593 B( 31-C , 32-S ) :   1.1969
B( 31-C , 80-H ) :   0.9759 B( 32-S , 33-C ) :   1.1640 B( 33-C , 34-C ) :   1.5295
B( 33-C , 81-H ) :   0.9668 B( 34-C , 35-N ) :   1.0462 B( 35-N , 36-C ) :   0.9686
B( 35-N , 40-C ) :   1.1490 B( 36-C , 37-C ) :   0.9339 B( 36-C , 82-H ) :   0.9202
B( 36-C , 83-H ) :   0.9189 B( 37-C , 38-O ) :   2.2613 B( 37-C , 39-C ) :   0.9439
B( 39-C , 84-H ) :   0.9252 B( 39-C , 85-H ) :   0.9230 B( 40-C , 41-C ) :   1.6446
B( 40-C , 86-H ) :   0.9616 B( 41-C , 42-C ) :   1.1241 B( 41-C , 87-H ) :   0.9442
B( 42-C , 43-C ) :   1.3068 B( 42-C , 50-S ) :   1.2284 B( 43-C , 44-C ) :   1.2301
B( 43-C , 48-C ) :   1.2185 B( 44-C , 45-C ) :   1.2408 B( 44-C , 49-C ) :   1.2520
B( 45-C , 46-C ) :   1.5137 B( 45-C , 88-H ) :   0.9944 B( 46-C , 47-C ) :   1.2464
B( 46-C , 89-H ) :   0.9873 B( 47-C , 48-C ) :   1.5156 B( 47-C , 90-H ) :   0.9834
B( 48-C , 91-H ) :   0.9812 B( 49-C , 50-S ) :   1.0872 B( 49-C , 51-C ) :   1.2737
B( 51-C , 52-C ) :   1.4954 B( 51-C , 92-H ) :   0.9786 B( 52-C , 53-C ) :   1.2423
B( 52-C , 93-H ) :   0.9612 B( 53-C , 54-C ) :   1.4849 B( 53-C , 94-H ) :   0.9590
B( 54-C , 55-C ) :   0.9726 B( 54-C , 65-C ) :   1.0908 B( 55-C , 56-O ) :   2.2551
B( 55-C , 57-C ) :   0.9249 B( 57-C , 58-C ) :   1.3461 B( 57-C , 62-C ) :   1.3289
B( 58-C , 59-C ) :   1.3227 B( 58-C , 65-C ) :   1.0104 B( 59-C , 60-C ) :   1.3295
B( 59-C , 62-C ) :   0.1053 B( 59-C , 95-H ) :   0.9930 B( 60-C , 61-C ) :   1.3009
B( 60-C , 64-F ) :   1.1368 B( 61-C , 62-C ) :   1.3120 B( 61-C , 63-F ) :   1.1251
B( 62-C , 96-H ) :   1.0210 B( 65-C , 66-C ) :   1.6016 B( 66-C , 67-C ) :   1.1691
B( 66-C , 69-C ) :   1.1305 B( 67-C , 68-N ) :   3.0117 B( 69-C , 70-N ) :   2.9835

-----------------------------------------------------------------------------
         ABSORPTION SPECTRUM VIA TRANSITION ELECTRIC DIPOLE MOMENTS
-----------------------------------------------------------------------------
State   Energy  Wavelength   fosc         T2         TX        TY        TZ
        (cm-1)    (nm)                  (au**2)     (au)      (au)      (au)
-----------------------------------------------------------------------------
   0   14868.5    672.6   0.916162193  20.28533  -3.07484   0.92644  -3.15791
   1   16616.6    601.8   0.014908565   0.29537   0.04883   0.44634   0.30621
   2   17352.3    576.3   0.942183031  17.87534   0.49079   3.60894   2.14709
   3   22925.1    436.2   0.051640495   0.74157  -0.31534  -0.38012   0.70544
   4   23043.9    434.0   0.262293380   3.74721   0.62445   1.33315   1.25697
   5   23390.2    427.5   0.015386354   0.21656   0.27469   0.32367   0.19064
   6   24910.9    401.4   0.001319459   0.01744  -0.11189  -0.05402  -0.04472
   7   27428.1    364.6   0.009983873   0.11983  -0.14871  -0.27597   0.14683
   8   27639.5    361.8   0.283494427   3.37668  -0.65000  -1.31830  -1.10285
   9   28266.2    353.8   0.162957175   1.89793  -0.50971   1.27663   0.09139
  10   29018.3    344.6   0.039747722   0.45094   0.44260  -0.50098   0.06375
  11   29468.5    339.3   0.008582005   0.09588  -0.09932  -0.03004   0.29173
  12   29736.3    336.3   0.109669674   1.21416   0.65706   0.73384  -0.49387
  13   30222.6    330.9   0.094572692   1.03017  -0.58159   0.82261   0.12346
  14   30836.7    324.3   0.034047177   0.36349  -0.00969   0.56273  -0.21618
  15   31018.8    322.4   0.020516359   0.21775  -0.41267  -0.17255   0.13296
  16   31099.1    321.6   0.150447169   1.59262  -0.79916   0.30946  -0.92639
  17   31763.5    314.8   0.019300711   0.20004   0.02961  -0.43899  -0.08034
  18   31878.5    313.7   0.148835332   1.53703  -0.30664   1.04156  -0.59846
  19   32032.3    312.2   0.006937453   0.07130  -0.16295   0.11641   0.17662
  20   32509.1    307.6   0.002519507   0.02551   0.12560  -0.09344  -0.03174
  21   32776.3    305.1   0.178273465   1.79062   1.10189  -0.65736   0.37991
  22   32868.9    304.2   0.037485522   0.37545   0.53010  -0.15190   0.26716
  23   33436.3    299.1   0.027389695   0.26968  -0.04109  -0.01629   0.51742
  24   34059.5    293.6   0.083455655   0.80666   0.38432   0.79770   0.15044
  25   34225.2    292.2   0.008669767   0.08339  -0.15646  -0.21855  -0.10559
  26   34275.9    291.7   0.021689568   0.20832   0.05993   0.05529   0.44908
  27   34484.5    290.0   0.013961350   0.13328   0.01199  -0.12271   0.34363
  28   35043.1    285.4   0.024363773   0.22889   0.07943  -0.25443  -0.39729
  29   35573.4    281.1   0.546198224   5.05476  -1.60306  -0.35711   1.53539
  30   36164.6    276.5   0.368269456   3.35242   1.01185   0.99183   1.15968
  31   36366.1    275.0   0.010804187   0.09781  -0.20328  -0.18883   0.14431
  32   36611.3    273.1   0.194098066   1.74535   1.05881   0.26245   0.74524
  33   36652.3    272.8   0.037670569   0.33836  -0.01603   0.09610   0.57347
  34   36859.9    271.3   0.101353000   0.90523   0.31969   0.80901   0.38539
  35   36949.0    270.6   0.036576796   0.32590  -0.09136  -0.49546  -0.26845
  36   37377.0    267.5   0.052001468   0.45802   0.58571  -0.32490  -0.09696
  37   37684.1    265.4   0.000737389   0.00644   0.04554   0.06539  -0.00960
  38   37847.1    264.2   0.002535707   0.02206   0.12996  -0.05435   0.04703
  39   38555.5    259.4   0.145635308   1.24353   0.09061  -1.00090  -0.48323
  40   38749.1    258.1   0.054746365   0.46513  -0.10209   0.62703   0.24806
  41   38950.3    256.7   0.017321358   0.14640  -0.15880  -0.34168   0.06666
  42   39329.7    254.3   0.121879203   1.02020  -0.11066  -0.98016   0.21733
  43   39420.8    253.7   0.055247315   0.46138   0.03454  -0.67524   0.06516
  44   39785.5    251.3   0.100266791   0.82968  -0.13264   0.65054   0.62360
  45   39950.7    250.3   0.018650237   0.15369  -0.29274   0.16660   0.20059
  46   40129.5    249.2   0.005439212   0.04462  -0.17389   0.02369   0.11758
  47   40252.7    248.4   0.031782993   0.25994  -0.07949   0.39717  -0.30964

FINAL SINGLE POINT ENERGY     -4255.319308531096

DIPOLE MOMENT
-------------
                                X             Y             Z
Electronic contribution:     35.36820      27.07284      37.69229
Nuclear contribution   :    -37.76170     -28.90393     -43.70955
                        -----------------------------------------
Total Dipole Moment    :     -2.39350      -1.83108      -6.01726
                        -----------------------------------------
Magnitude (a.u.)       :      6.72972
Magnitude (Debye)      :     17.10560

Rotational constants in cm-1:     0.000913     0.000457     0.000342
Rotational constants in MHz :    27.369499    13.688729    10.254890

                             ****ORCA TERMINATED NORMALLY****
TOTAL RUN TIME: 0 days 0 hours 9 minutes 42 seconds 941 msec
