                         Program Version 4.2.0 -  RELEASE  -
|  1> # ORCA input file
|  2> # SCF done       -184.953970619705          0.000600519360
|  3> ! CAM-B3LYP def2-SVP def2/J RIJCOSX Grid4 TightSCF
|  4> %maxcore 5000
|  5> %tddft
|  6>     Mode sTDDFT
|  7>     Ethresh 5.0
|  8>     maxcore 5000
|  9> end
| 10>
| 11> %pal
| 12>   nprocs 6
| 13>   end
| 14> * xyz 0 1
| 15>    C       -3.04414        -8.09098        -1.13987
| 16>    C       -4.42374        -8.16738        -1.00952
| 17>    F       -5.12120        -8.87699        -1.90561
| 18>    C       -5.09664        -7.52825         0.03073
| 19>    F       -6.43068        -7.62249         0.11355
| 20>    C       -4.40082        -6.79972         0.98338
| 21>    C       -3.02769        -6.73449         0.86249
| 22>    C       -2.34413        -7.36605        -0.19118
| 23>    C       -0.91533        -7.06718        -0.06460
| 24>    C       -0.00784        -7.11693        -1.09557
| 25>    C       -0.26924        -7.70220        -2.34819
| 26>    N       -0.42222        -8.19530        -3.37399
| 27>    C        1.25025        -6.48619        -1.03399
| 28>    N        2.25847        -5.93636        -1.03682
| 29>    C       -0.72192        -6.44434         1.21589
| 30>    C       -2.04677        -6.06513         1.75165
| 31>    O       -2.27786        -5.39299         2.73222
| 32>    C        0.38927        -6.25462         2.00648
| 33>    C        1.62280        -6.90032         2.00729
| 34>    C        2.72789        -6.57993         2.83639
| 35>    C        3.80106        -7.50207         2.71415
| 36>    C        4.97592        -7.31245         3.45852
| 37>    C        5.06999        -6.23220         4.29637
| 38>    C        4.01153        -5.31893         4.41448
| 39>    C        2.85408        -5.47979         3.69746
| 40>    C        3.53109        -8.54144         1.79152
| 41>    S        1.95820        -8.35023         1.10106
| 42>    C        4.38210        -9.59675         1.44012
| 43>    C        4.12992       -10.49533         0.44081
| 44>    C        5.01351       -11.53295         0.10908
| 45>    S        4.72220       -12.58466        -1.25585
| 46>    C        6.18270       -13.50028        -1.00748
| 47>    C        6.52827       -14.65933        -1.87152
| 48>    C        5.72975       -15.90216        -1.46821
| 49>    C        6.84161       -13.01785         0.08192
| 50>    C        6.20756       -11.90552         0.73053
| 51>    N        6.84303       -11.43778         1.81354
| 52>    C        7.93202       -12.09514         2.07166
| 53>    S        8.30300       -13.42657         0.91995
| 54>    C        8.75751       -11.83847         3.18468
| 55>    C        9.89838       -12.52481         3.46547
| 56>    C       10.68802       -12.33065         4.61222
| 57>    C       11.88490       -13.00097         4.95181
| 58>    C       12.39998       -12.61979         6.22563
| 59>    C       13.62817       -13.15513         6.64926
| 60>    C       14.27519       -14.07336         5.86488
| 61>    C       13.74037       -14.48187         4.63395
| 62>    C       12.56813       -13.94791         4.17082
| 63>    C       11.57494       -11.67642         6.88221
| 64>    S       10.24461       -11.22124         5.85840
| 65>    C       11.57890       -11.14584         8.18069
| 66>    C       12.27156       -11.61199         9.26559
| 67>    C       12.10048       -11.06480        10.54497
| 68>    C       12.55720       -11.56954        11.73609
| 69>    C       12.60673       -10.69090        12.92793
| 70>    O       12.10719        -9.59567        13.04867
| 71>    C       13.43634       -11.42108        13.91466
| 72>    C       13.78123       -12.68000        13.39211
| 73>    C       14.58560       -13.53666        14.12566
| 74>    C       15.02235       -13.11209        15.37219
| 75>    C       14.66464       -11.86686        15.88879
| 76>    C       13.86339       -11.00290        15.15898
| 77>    F       15.10271       -11.50159        17.09966
| 78>    F       15.80830       -13.92064        16.09206
| 79>    C       13.13403       -12.84363        12.08641
| 80>    C       12.94946       -14.04876        11.45469
| 81>    C       12.07733       -14.27298        10.36902
| 82>    N       11.35406       -14.54357         9.51908
| 83>    C       13.53913       -15.25753        11.88008
| 84>    N       14.01169       -16.26667        12.15618
| 85>    H       -2.56557        -8.60134        -1.95985
| 86>    H       -4.92083        -6.30443         1.78769
| 87>    H        0.22344        -5.56864         2.83186
| 88>    H        5.79259        -8.01074         3.36362
| 89>    H        5.96866        -6.07387         4.87291
| 90>    H        4.11700        -4.47506         5.07932
| 91>    H        2.04978        -4.76700         3.78772
| 92>    H        5.31057        -9.69273         1.98462
| 93>    H        3.22658       -10.40766        -0.14880
| 94>    H        7.59742       -14.86126        -1.77299
| 95>    H        6.31268       -14.41591        -2.91391
| 96>    H        5.94201       -16.17102        -0.43596
| 97>    H        5.99658       -16.73909        -2.10748
| 98>    H        4.66325       -15.71367        -1.56682
| 99>    H        8.41653       -11.05267         3.84532
|100>    H       10.22432       -13.29310         2.77662
|101>    H       14.07825       -12.82637         7.57053
|102>    H       15.21734       -14.48644         6.19155
|103>    H       14.27296       -15.21084         4.04273
|104>    H       12.17387       -14.24098         3.21052
|105>    H       10.86499       -10.34860         8.35477
|106>    H       12.93486       -12.45269         9.15567
|107>    H       11.60110       -10.10424        10.61945
|108>    H       14.89122       -14.50719        13.77056
|109>    H       13.58597       -10.03918        15.55522
|110> *
|111>
|112>                          ****END OF INPUT****

CARTESIAN COORDINATES (ANGSTROEM)
---------------------------------
  C     -3.044140   -8.090980   -1.139870
  C     -4.423740   -8.167380   -1.009520
  F     -5.121200   -8.876990   -1.905610
  C     -5.096640   -7.528250    0.030730
  F     -6.430680   -7.622490    0.113550
  C     -4.400820   -6.799720    0.983380
  C     -3.027690   -6.734490    0.862490
  C     -2.344130   -7.366050   -0.191180
  C     -0.915330   -7.067180   -0.064600
  C     -0.007840   -7.116930   -1.095570
  C     -0.269240   -7.702200   -2.348190
  N     -0.422220   -8.195300   -3.373990
  C      1.250250   -6.486190   -1.033990
  N      2.258470   -5.936360   -1.036820
  C     -0.721920   -6.444340    1.215890
  C     -2.046770   -6.065130    1.751650
  O     -2.277860   -5.392990    2.732220
  C      0.389270   -6.254620    2.006480
  C      1.622800   -6.900320    2.007290
  C      2.727890   -6.579930    2.836390
  C      3.801060   -7.502070    2.714150
  C      4.975920   -7.312450    3.458520
  C      5.069990   -6.232200    4.296370
  C      4.011530   -5.318930    4.414480
  C      2.854080   -5.479790    3.697460
  C      3.531090   -8.541440    1.791520
  S      1.958200   -8.350230    1.101060
  C      4.382100   -9.596750    1.440120
  C      4.129920  -10.495330    0.440810
  C      5.013510  -11.532950    0.109080
  S      4.722200  -12.584660   -1.255850
  C      6.182700  -13.500280   -1.007480
  C      6.528270  -14.659330   -1.871520
  C      5.729750  -15.902160   -1.468210
  C      6.841610  -13.017850    0.081920
  C      6.207560  -11.905520    0.730530
  N      6.843030  -11.437780    1.813540
  C      7.932020  -12.095140    2.071660
  S      8.303000  -13.426570    0.919950
  C      8.757510  -11.838470    3.184680
  C      9.898380  -12.524810    3.465470
  C     10.688020  -12.330650    4.612220
  C     11.884900  -13.000970    4.951810
  C     12.399980  -12.619790    6.225630
  C     13.628170  -13.155130    6.649260
  C     14.275190  -14.073360    5.864880
  C     13.740370  -14.481870    4.633950
  C     12.568130  -13.947910    4.170820
  C     11.574940  -11.676420    6.882210
  S     10.244610  -11.221240    5.858400
  C     11.578900  -11.145840    8.180690
  C     12.271560  -11.611990    9.265590
  C     12.100480  -11.064800   10.544970
  C     12.557200  -11.569540   11.736090
  C     12.606730  -10.690900   12.927930
  O     12.107190   -9.595670   13.048670
  C     13.436340  -11.421080   13.914660
  C     13.781230  -12.680000   13.392110
  C     14.585600  -13.536660   14.125660
  C     15.022350  -13.112090   15.372190
  C     14.664640  -11.866860   15.888790
  C     13.863390  -11.002900   15.158980
  F     15.102710  -11.501590   17.099660
  F     15.808300  -13.920640   16.092060
  C     13.134030  -12.843630   12.086410
  C     12.949460  -14.048760   11.454690
  C     12.077330  -14.272980   10.369020
  N     11.354060  -14.543570    9.519080
  C     13.539130  -15.257530   11.880080
  N     14.011690  -16.266670   12.156180
  H     -2.565570   -8.601340   -1.959850
  H     -4.920830   -6.304430    1.787690
  H      0.223440   -5.568640    2.831860
  H      5.792590   -8.010740    3.363620
  H      5.968660   -6.073870    4.872910
  H      4.117000   -4.475060    5.079320
  H      2.049780   -4.767000    3.787720
  H      5.310570   -9.692730    1.984620
  H      3.226580  -10.407660   -0.148800
  H      7.597420  -14.861260   -1.772990
  H      6.312680  -14.415910   -2.913910
  H      5.942010  -16.171020   -0.435960
  H      5.996580  -16.739090   -2.107480
  H      4.663250  -15.713670   -1.566820
  H      8.416530  -11.052670    3.845320
  H     10.224320  -13.293100    2.776620
  H     14.078250  -12.826370    7.570530
  H     15.217340  -14.486440    6.191550
  H     14.272960  -15.210840    4.042730
  H     12.173870  -14.240980    3.210520
  H     10.864990  -10.348600    8.354770
  H     12.934860  -12.452690    9.155670
  H     11.601100  -10.104240   10.619450
  H     14.891220  -14.507190   13.770560
  H     13.585970  -10.039180   15.555220

 Total Charge           Charge          ....    0
 Multiplicity           Mult            ....    1
 Number of Electrons    NEL             ....  506
 Basis Dimension        Dim             .... 1121

ORBITAL ENERGIES
----------------

  NO   OCC          E(Eh)            E(eV)
   0   2.0000     -88.994276     -2421.6574
   1   2.0000     -88.975181     -2421.1378
   2   2.0000     -88.974689     -2421.1244
   3   2.0000     -88.972671     -2421.0695
   4   2.0000     -24.803782      -674.9452
   5   2.0000     -24.803088      -674.9263
   6   2.0000     -24.791124      -674.6008
   7   2.0000     -24.790648      -674.5878
   8   2.0000     -19.221136      -523.0337
   9   2.0000     -19.203567      -522.5556
  10   2.0000     -14.431873      -392.7112
  11   2.0000     -14.421540      -392.4301
  12   2.0000     -14.420360      -392.3979
  13   2.0000     -14.405329      -391.9889
  14   2.0000     -14.402469      -391.9111
  15   2.0000     -10.389263      -282.7062
  16   2.0000     -10.388631      -282.6890
  17   2.0000     -10.375309      -282.3265
  18   2.0000     -10.374472      -282.3037
  19   2.0000     -10.372338      -282.2457
  20   2.0000     -10.364063      -282.0205
  21   2.0000     -10.355663      -281.7919
  22   2.0000     -10.350648      -281.6554
  23   2.0000     -10.349460      -281.6231
  24   2.0000     -10.338306      -281.3196
  25   2.0000     -10.333723      -281.1949
  26   2.0000     -10.331217      -281.1267
  27   2.0000     -10.330488      -281.1069
  28   2.0000     -10.329328      -281.0753
  29   2.0000     -10.324765      -280.9511
  30   2.0000     -10.324295      -280.9383
  31   2.0000     -10.324131      -280.9339
  32   2.0000     -10.323213      -280.9089
  33   2.0000     -10.322965      -280.9022
  34   2.0000     -10.322388      -280.8865
  35   2.0000     -10.320882      -280.8455
  36   2.0000     -10.320422      -280.8330
  37   2.0000     -10.318314      -280.7756
  38   2.0000     -10.314841      -280.6811
  39   2.0000     -10.311827      -280.5991
  40   2.0000     -10.311418      -280.5880
  41   2.0000     -10.311262      -280.5837
  42   2.0000     -10.310815      -280.5715
  43   2.0000     -10.310678      -280.5678
  44   2.0000     -10.309514      -280.5361
  45   2.0000     -10.309049      -280.5235
  46   2.0000     -10.308897      -280.5194
  47   2.0000     -10.307381      -280.4781
  48   2.0000     -10.305464      -280.4259
  49   2.0000     -10.305086      -280.4156
  50   2.0000     -10.304976      -280.4127
  51   2.0000     -10.300711      -280.2966
  52   2.0000     -10.300005      -280.2774
  53   2.0000     -10.299962      -280.2762
  54   2.0000     -10.298020      -280.2234
  55   2.0000     -10.297712      -280.2150
  56   2.0000     -10.297528      -280.2100
  57   2.0000     -10.297472      -280.2084
  58   2.0000     -10.296415      -280.1797
  59   2.0000     -10.295889      -280.1654
  60   2.0000     -10.295426      -280.1528
  61   2.0000     -10.292203      -280.0651
  62   2.0000     -10.290469      -280.0179
  63   2.0000     -10.290424      -280.0167
  64   2.0000     -10.287385      -279.9340
  65   2.0000     -10.285111      -279.8721
  66   2.0000     -10.282620      -279.8043
  67   2.0000     -10.280592      -279.7491
  68   2.0000     -10.279243      -279.7124
  69   2.0000     -10.273749      -279.5629
  70   2.0000      -8.089548      -220.1278
  71   2.0000      -8.070327      -219.6048
  72   2.0000      -8.069275      -219.5761
  73   2.0000      -8.068143      -219.5453
  74   2.0000      -6.058355      -164.8562
  75   2.0000      -6.054415      -164.7490
  76   2.0000      -6.052466      -164.6960
  77   2.0000      -6.039668      -164.3477
  78   2.0000      -6.038274      -164.3098
  79   2.0000      -6.037665      -164.2932
  80   2.0000      -6.035502      -164.2344
  81   2.0000      -6.034201      -164.1989
  82   2.0000      -6.034037      -164.1945
  83   2.0000      -6.032438      -164.1510
  84   2.0000      -6.031986      -164.1387
  85   2.0000      -6.029225      -164.0635
  86   2.0000      -1.327115       -36.1126
  87   2.0000      -1.314146       -35.7597
  88   2.0000      -1.311900       -35.6986
  89   2.0000      -1.298978       -35.3470
  90   2.0000      -1.136256       -30.9191
  91   2.0000      -1.118751       -30.4428
  92   2.0000      -1.085549       -29.5393
  93   2.0000      -1.026180       -27.9238
  94   2.0000      -1.024513       -27.8784
  95   2.0000      -1.012510       -27.5518
  96   2.0000      -1.006953       -27.4006
  97   2.0000      -1.005146       -27.3514
  98   2.0000      -0.999458       -27.1966
  99   2.0000      -0.993692       -27.0397
 100   2.0000      -0.990829       -26.9618
 101   2.0000      -0.982716       -26.7411
 102   2.0000      -0.963387       -26.2151
 103   2.0000      -0.956847       -26.0371
 104   2.0000      -0.947237       -25.7756
 105   2.0000      -0.945653       -25.7325
 106   2.0000      -0.941739       -25.6260
 107   2.0000      -0.929539       -25.2941
 108   2.0000      -0.920792       -25.0560
 109   2.0000      -0.907879       -24.7046
 110   2.0000      -0.904562       -24.6144
 111   2.0000      -0.891164       -24.2498
 112   2.0000      -0.888014       -24.1641
 113   2.0000      -0.887049       -24.1378
 114   2.0000      -0.877942       -23.8900
 115   2.0000      -0.870679       -23.6924
 116   2.0000      -0.863674       -23.5018
 117   2.0000      -0.859889       -23.3988
 118   2.0000      -0.854052       -23.2399
 119   2.0000      -0.852705       -23.2033
 120   2.0000      -0.842363       -22.9219
 121   2.0000      -0.838209       -22.8088
 122   2.0000      -0.819343       -22.2955
 123   2.0000      -0.813845       -22.1459
 124   2.0000      -0.798353       -21.7243
 125   2.0000      -0.790240       -21.5035
 126   2.0000      -0.777353       -21.1529
 127   2.0000      -0.770317       -20.9614
 128   2.0000      -0.759617       -20.6702
 129   2.0000      -0.757148       -20.6030
 130   2.0000      -0.739827       -20.1317
 131   2.0000      -0.733539       -19.9606
 132   2.0000      -0.729891       -19.8614
 133   2.0000      -0.722175       -19.6514
 134   2.0000      -0.721009       -19.6196
 135   2.0000      -0.713712       -19.4211
 136   2.0000      -0.707893       -19.2628
 137   2.0000      -0.698810       -19.0156
 138   2.0000      -0.696253       -18.9460
 139   2.0000      -0.689659       -18.7666
 140   2.0000      -0.682233       -18.5645
 141   2.0000      -0.676267       -18.4022
 142   2.0000      -0.670094       -18.2342
 143   2.0000      -0.667908       -18.1747
 144   2.0000      -0.659031       -17.9331
 145   2.0000      -0.653317       -17.7777
 146   2.0000      -0.648535       -17.6475
 147   2.0000      -0.645724       -17.5710
 148   2.0000      -0.645226       -17.5575
 149   2.0000      -0.637900       -17.3581
 150   2.0000      -0.632685       -17.2162
 151   2.0000      -0.630069       -17.1450
 152   2.0000      -0.626240       -17.0409
 153   2.0000      -0.615174       -16.7397
 154   2.0000      -0.613019       -16.6811
 155   2.0000      -0.603599       -16.4248
 156   2.0000      -0.599892       -16.3239
 157   2.0000      -0.595811       -16.2129
 158   2.0000      -0.592133       -16.1128
 159   2.0000      -0.591654       -16.0997
 160   2.0000      -0.589670       -16.0457
 161   2.0000      -0.579176       -15.7602
 162   2.0000      -0.578873       -15.7519
 163   2.0000      -0.574281       -15.6270
 164   2.0000      -0.573007       -15.5923
 165   2.0000      -0.566788       -15.4231
 166   2.0000      -0.560962       -15.2646
 167   2.0000      -0.560558       -15.2536
 168   2.0000      -0.557862       -15.1802
 169   2.0000      -0.555301       -15.1105
 170   2.0000      -0.554807       -15.0971
 171   2.0000      -0.552033       -15.0216
 172   2.0000      -0.548509       -14.9257
 173   2.0000      -0.541866       -14.7449
 174   2.0000      -0.540999       -14.7213
 175   2.0000      -0.539609       -14.6835
 176   2.0000      -0.538489       -14.6530
 177   2.0000      -0.536619       -14.6022
 178   2.0000      -0.535244       -14.5647
 179   2.0000      -0.533558       -14.5188
 180   2.0000      -0.529740       -14.4150
 181   2.0000      -0.529072       -14.3968
 182   2.0000      -0.526509       -14.3270
 183   2.0000      -0.523179       -14.2364
 184   2.0000      -0.521319       -14.1858
 185   2.0000      -0.520627       -14.1670
 186   2.0000      -0.515963       -14.0401
 187   2.0000      -0.513580       -13.9752
 188   2.0000      -0.511431       -13.9167
 189   2.0000      -0.508480       -13.8364
 190   2.0000      -0.503516       -13.7014
 191   2.0000      -0.502885       -13.6842
 192   2.0000      -0.500684       -13.6243
 193   2.0000      -0.497728       -13.5439
 194   2.0000      -0.495501       -13.4833
 195   2.0000      -0.492123       -13.3913
 196   2.0000      -0.489947       -13.3321
 197   2.0000      -0.485910       -13.2223
 198   2.0000      -0.483669       -13.1613
 199   2.0000      -0.482336       -13.1250
 200   2.0000      -0.479602       -13.0506
 201   2.0000      -0.471780       -12.8378
 202   2.0000      -0.466651       -12.6982
 203   2.0000      -0.464370       -12.6362
 204   2.0000      -0.462641       -12.5891
 205   2.0000      -0.458921       -12.4879
 206   2.0000      -0.456668       -12.4266
 207   2.0000      -0.455544       -12.3960
 208   2.0000      -0.454587       -12.3699
 209   2.0000      -0.453057       -12.3283
 210   2.0000      -0.450583       -12.2610
 211   2.0000      -0.449260       -12.2250
 212   2.0000      -0.447371       -12.1736
 213   2.0000      -0.446736       -12.1563
 214   2.0000      -0.444884       -12.1059
 215   2.0000      -0.442304       -12.0357
 216   2.0000      -0.441061       -12.0019
 217   2.0000      -0.439072       -11.9478
 218   2.0000      -0.438503       -11.9323
 219   2.0000      -0.436770       -11.8851
 220   2.0000      -0.433454       -11.7949
 221   2.0000      -0.432911       -11.7801
 222   2.0000      -0.432414       -11.7666
 223   2.0000      -0.430791       -11.7224
 224   2.0000      -0.427761       -11.6400
 225   2.0000      -0.426482       -11.6052
 226   2.0000      -0.424249       -11.5444
 227   2.0000      -0.422674       -11.5016
 228   2.0000      -0.418309       -11.3828
 229   2.0000      -0.414698       -11.2845
 230   2.0000      -0.412957       -11.2371
 231   2.0000      -0.411075       -11.1859
 232   2.0000      -0.399664       -10.8754
 233   2.0000      -0.396845       -10.7987
 234   2.0000      -0.386866       -10.5272
 235   2.0000      -0.382022       -10.3953
 236   2.0000      -0.368452       -10.0261
 237   2.0000      -0.367971       -10.0130
 238   2.0000      -0.354461        -9.6454
 239   2.0000      -0.353450        -9.6179
 240   2.0000      -0.345565        -9.4033
 241   2.0000      -0.341154        -9.2833
 242   2.0000      -0.340885        -9.2760
 243   2.0000      -0.334472        -9.1014
 244   2.0000      -0.333030        -9.0622
 245   2.0000      -0.325447        -8.8559
 246   2.0000      -0.323339        -8.7985
 247   2.0000      -0.319143        -8.6843
 248   2.0000      -0.310579        -8.4513
 249   2.0000      -0.303408        -8.2561
 250   2.0000      -0.288924        -7.8620
 251   2.0000      -0.257202        -6.9988
 252   2.0000      -0.233701        -6.3593
 253   0.0000      -0.122805        -3.3417
 254   0.0000      -0.099167        -2.6985
 255   0.0000      -0.075930        -2.0661
 256   0.0000      -0.059560        -1.6207
 257   0.0000      -0.052943        -1.4406

MULLIKEN ATOMIC CHARGES
-----------------------
   0 C :   -0.091363
   1 C :    0.232251
   2 F :   -0.170529
   3 C :    0.229057
   4 F :   -0.174265
   5 C :   -0.105697
   6 C :    0.010043
   7 C :    0.028005
   8 C :    0.251839
   9 C :   -0.337891
  10 C :   -0.176616
  11 N :    0.142394
  12 C :   -0.226257
  13 N :    0.171188
  14 C :   -0.154715
  15 C :    0.136811
  16 O :   -0.154345
  17 C :    0.012884
  18 C :   -0.103053
  19 C :    0.146769
  20 C :    0.092891
  21 C :   -0.025971
  22 C :    0.026425
  23 C :    0.040974
  24 C :   -0.036441
  25 C :   -0.033705
  26 S :    0.166483
  27 C :   -0.029710
  28 C :    0.045270
  29 C :   -0.173469
  30 S :    0.160841
  31 C :   -0.329847
  32 C :    0.080839
  33 C :    0.015308
  34 C :    0.055446
  35 C :    0.100882
  36 N :   -0.029605
  37 C :   -0.051395
  38 S :    0.069879
  39 C :    0.023410
  40 C :    0.000010
  41 C :   -0.082811
  42 C :    0.106692
  43 C :    0.137280
  44 C :   -0.031236
  45 C :    0.037351
  46 C :    0.029262
  47 C :   -0.030640
  48 C :   -0.117907
  49 S :    0.177372
  50 C :    0.060256
  51 C :   -0.010053
  52 C :    0.027775
  53 C :   -0.119979
  54 C :    0.139117
  55 O :   -0.140700
  56 C :    0.000671
  57 C :    0.030256
  58 C :   -0.089602
  59 C :    0.235505
  60 C :    0.234183
  61 C :   -0.101520
  62 F :   -0.168334
  63 F :   -0.166024
  64 C :    0.283153
  65 C :   -0.338739
  66 C :   -0.221958
  67 N :    0.170752
  68 C :   -0.185151
  69 N :    0.156555
  70 H :    0.013036
  71 H :    0.007758
  72 H :    0.015370
  73 H :   -0.018241
  74 H :   -0.012797
  75 H :   -0.004807
  76 H :   -0.010617
  77 H :    0.005911
  78 H :   -0.009275
  79 H :    0.016922
  80 H :    0.023458
  81 H :    0.021277
  82 H :    0.025841
  83 H :    0.020147
  84 H :    0.010251
  85 H :    0.012642
  86 H :   -0.015792
  87 H :   -0.001278
  88 H :   -0.002114
  89 H :   -0.020389
  90 H :    0.002702
  91 H :    0.020561
  92 H :    0.015366
  93 H :    0.015911
  94 H :    0.011606
Sum of atomic charges:   -0.0000000

LOEWDIN ATOMIC CHARGES
----------------------
   0 C :   -0.024259
   1 C :    0.070499
   2 F :   -0.048255
   3 C :    0.065307
   4 F :   -0.050634
   5 C :   -0.008440
   6 C :   -0.045443
   7 C :   -0.010914
   8 C :    0.060037
   9 C :   -0.161184
  10 C :   -0.023047
  11 N :   -0.062970
  12 C :   -0.040925
  13 N :   -0.055910
  14 C :   -0.126651
  15 C :    0.080211
  16 O :   -0.154431
  17 C :    0.045400
  18 C :   -0.194024
  19 C :   -0.006538
  20 C :   -0.050248
  21 C :   -0.002330
  22 C :   -0.027748
  23 C :   -0.002734
  24 C :   -0.016081
  25 C :   -0.117055
  26 S :    0.512612
  27 C :   -0.047827
  28 C :   -0.006678
  29 C :   -0.189632
  30 S :    0.456654
  31 C :   -0.179680
  32 C :   -0.043021
  33 C :   -0.047913
  34 C :   -0.211933
  35 C :   -0.049097
  36 N :   -0.088207
  37 C :   -0.089124
  38 S :    0.352619
  39 C :   -0.047775
  40 C :   -0.018010
  41 C :   -0.162624
  42 C :   -0.032713
  43 C :   -0.024212
  44 C :   -0.010090
  45 C :   -0.004910
  46 C :   -0.012565
  47 C :   -0.009922
  48 C :   -0.168717
  49 S :    0.504347
  50 C :    0.010374
  51 C :   -0.038298
  52 C :    0.067447
  53 C :   -0.103619
  54 C :    0.080919
  55 O :   -0.142257
  56 C :   -0.046536
  57 C :   -0.012708
  58 C :   -0.021366
  59 C :    0.073945
  60 C :    0.069431
  61 C :   -0.005100
  62 F :   -0.045628
  63 F :   -0.043758
  64 C :    0.069048
  65 C :   -0.141603
  66 C :   -0.025613
  67 N :   -0.048613
  68 C :   -0.021800
  69 N :   -0.049373
  70 H :    0.049626
  71 H :    0.050397
  72 H :    0.047493
  73 H :    0.031766
  74 H :    0.030072
  75 H :    0.033397
  76 H :    0.032958
  77 H :    0.035145
  78 H :    0.027905
  79 H :    0.034362
  80 H :    0.035834
  81 H :    0.027311
  82 H :    0.027786
  83 H :    0.024585
  84 H :    0.036283
  85 H :    0.031944
  86 H :    0.030943
  87 H :    0.035233
  88 H :    0.034481
  89 H :    0.030349
  90 H :    0.036235
  91 H :    0.030021
  92 H :    0.044767
  93 H :    0.050797
  94 H :    0.052203

  Mayer bond orders larger than 0.100000
B(  0-C ,  1-C ) :   1.3263 B(  0-C ,  5-C ) :   0.1047 B(  0-C ,  7-C ) :   1.3285
B(  0-C , 70-H ) :   0.9951 B(  1-C ,  2-F ) :   1.1359 B(  1-C ,  3-C ) :   1.3035
B(  3-C ,  4-F ) :   1.1251 B(  3-C ,  5-C ) :   1.3122 B(  5-C ,  6-C ) :   1.3324
B(  5-C , 71-H ) :   1.0196 B(  6-C ,  7-C ) :   1.3455 B(  6-C , 15-C ) :   0.9284
B(  7-C ,  8-C ) :   1.0093 B(  8-C ,  9-C ) :   1.6070 B(  8-C , 14-C ) :   1.0894
B(  9-C , 10-C ) :   1.1338 B(  9-C , 12-C ) :   1.1634 B( 10-C , 11-N ) :   2.9893
B( 12-C , 13-N ) :   3.0248 B( 14-C , 15-C ) :   0.9757 B( 14-C , 17-C ) :   1.5033
B( 15-C , 16-O ) :   2.2425 B( 17-C , 18-C ) :   1.3029 B( 17-C , 72-H ) :   0.9346
B( 18-C , 19-C ) :   1.2295 B( 18-C , 26-S ) :   1.0846 B( 19-C , 20-C ) :   1.2471
B( 19-C , 24-C ) :   1.2563 B( 20-C , 21-C ) :   1.2462 B( 20-C , 25-C ) :   1.2375
B( 21-C , 22-C ) :   1.5138 B( 21-C , 73-H ) :   0.9909 B( 22-C , 23-C ) :   1.2504
B( 22-C , 74-H ) :   0.9846 B( 23-C , 24-C ) :   1.5086 B( 23-C , 75-H ) :   0.9845
B( 24-C , 76-H ) :   0.9892 B( 25-C , 26-S ) :   1.1956 B( 25-C , 27-C ) :   1.2320
B( 27-C , 28-C ) :   1.5669 B( 27-C , 77-H ) :   0.9512 B( 28-C , 29-C ) :   1.2074
B( 28-C , 78-H ) :   0.9568 B( 29-C , 30-S ) :   1.1063 B( 29-C , 35-C ) :   1.3749
B( 30-S , 31-C ) :   1.1464 B( 31-C , 32-C ) :   1.0557 B( 31-C , 34-C ) :   1.5867
B( 32-C , 33-C ) :   1.0982 B( 32-C , 79-H ) :   0.9336 B( 32-C , 80-H ) :   0.9229
B( 33-C , 81-H ) :   0.9718 B( 33-C , 82-H ) :   0.9688 B( 33-C , 83-H ) :   0.9710
B( 34-C , 35-C ) :   1.2090 B( 34-C , 38-S ) :   1.0182 B( 35-C , 36-N ) :   1.3311
B( 36-N , 37-C ) :   1.6822 B( 37-C , 38-S ) :   1.0267 B( 37-C , 39-C ) :   1.1530
B( 39-C , 40-C ) :   1.5885 B( 39-C , 84-H ) :   0.9751 B( 40-C , 41-C ) :   1.2216
B( 40-C , 85-H ) :   0.9609 B( 41-C , 42-C ) :   1.2664 B( 41-C , 49-S ) :   1.1694
B( 42-C , 43-C ) :   1.2395 B( 42-C , 47-C ) :   1.2353 B( 43-C , 44-C ) :   1.2312
B( 43-C , 48-C ) :   1.2757 B( 44-C , 45-C ) :   1.5254 B( 44-C , 86-H ) :   0.9897
B( 45-C , 46-C ) :   1.2399 B( 45-C , 87-H ) :   0.9856 B( 46-C , 47-C ) :   1.5290
B( 46-C , 88-H ) :   0.9860 B( 47-C , 89-H ) :   0.9920 B( 48-C , 49-S ) :   1.1424
B( 48-C , 50-C ) :   1.2005 B( 50-C , 51-C ) :   1.5773 B( 50-C , 90-H ) :   0.9576
B( 51-C , 52-C ) :   1.1949 B( 51-C , 91-H ) :   0.9530 B( 52-C , 53-C ) :   1.5519
B( 52-C , 92-H ) :   0.9557 B( 53-C , 54-C ) :   0.9533 B( 53-C , 64-C ) :   1.0653
B( 54-C , 55-O ) :   2.2667 B( 54-C , 56-C ) :   0.9296 B( 56-C , 57-C ) :   1.3435
B( 56-C , 61-C ) :   1.3264 B( 57-C , 58-C ) :   1.3180 B( 57-C , 64-C ) :   1.0153
B( 58-C , 59-C ) :   1.3332 B( 58-C , 61-C ) :   0.1046 B( 58-C , 93-H ) :   0.9932
B( 59-C , 60-C ) :   1.2933 B( 59-C , 63-F ) :   1.1423 B( 60-C , 61-C ) :   1.3169
B( 60-C , 62-F ) :   1.1316 B( 61-C , 94-H ) :   1.0203 B( 64-C , 65-C ) :   1.6251
B( 65-C , 66-C ) :   1.1622 B( 65-C , 68-C ) :   1.1287 B( 66-C , 67-N ) :   3.0105
B( 68-C , 69-N ) :   2.9879

-----------------------------------------------------------------------------
         ABSORPTION SPECTRUM VIA TRANSITION ELECTRIC DIPOLE MOMENTS
-----------------------------------------------------------------------------
State   Energy  Wavelength   fosc         T2         TX        TY        TZ
        (cm-1)    (nm)                  (au**2)     (au)      (au)      (au)
-----------------------------------------------------------------------------
   0   11196.3    893.2   1.219374192  35.85410   4.62582  -2.40278   2.94662
   1   15102.0    662.2   0.520314764  11.34249  -0.30424   1.03305   3.19104
   2   15753.4    634.8   0.347474288   7.26146   1.50802  -0.38521   2.19976
   3   21281.4    469.9   0.131819805   2.03918  -0.99082   0.44024   0.92932
   4   22342.9    447.6   0.024237709   0.35713   0.29949  -0.44120  -0.26977
   5   22961.9    435.5   0.279709527   4.01029  -0.22465   1.32683   1.48302
   6   23893.0    418.5   0.030284304   0.41728  -0.14482  -0.27793  -0.56485
   7   25605.6    390.5   0.111678322   1.43585   0.39268   0.73823   0.85829
   8   26059.0    383.7   0.056753809   0.71699   0.66984   0.49241   0.16075
   9   26479.4    377.7   0.127333740   1.58311   0.91996  -0.42335  -0.74670
  10   27443.9    364.4   0.255879220   3.06947   0.35545   1.29268   1.12787
  11   27715.2    360.8   0.019171980   0.22773  -0.47528   0.01444   0.04040
  12   27980.3    357.4   0.056946394   0.67002   0.80202  -0.15712  -0.04584
  13   28518.8    350.6   0.104880255   1.21070   0.59906   0.42923   0.81706
  14   29581.9    338.0   0.009471949   0.10541   0.27575   0.16334   0.05189
  15   29673.6    337.0   0.019340285   0.21457  -0.23366   0.12313   0.38054
  16   29926.4    334.2   0.194628422   2.14105  -0.68606  -0.44798  -1.21231
  17   30012.5    333.2   0.139150453   1.52636   1.00024   0.59927   0.40836
  18   30664.8    326.1   0.078278952   0.84039  -0.09285   0.31309  -0.85659
  19   31376.8    318.7   0.020752332   0.21774  -0.31900   0.34055  -0.00106
  20   31934.9    313.1   0.052481265   0.54102  -0.20527  -0.32243  -0.62843
  21   32061.7    311.9   0.306003414   3.14206   1.42851  -0.90094   0.53826
  22   32422.7    308.4   0.034674441   0.35208   0.20616   0.28366   0.47866
  23   32515.2    307.5   0.101271109   1.02536  -1.00208  -0.13674   0.04988
  24   32884.4    304.1   0.027453651   0.27484  -0.26512  -0.08306  -0.44459
  25   33308.4    300.2   0.047261289   0.46712  -0.18882  -0.00725  -0.65682
  26   33548.2    298.1   0.092418927   0.90692   0.27117   0.30675   0.85982
  27   33687.0    296.9   0.002242875   0.02192  -0.03754   0.01124  -0.14277
  28   34226.3    292.2   0.080125545   0.77070   0.68491   0.27301   0.47652
  29   34770.5    287.6   0.012592121   0.11922   0.32505  -0.11067  -0.03633
  30   35027.9    285.5   0.024253185   0.22795  -0.18288   0.44049   0.02154
  31   35100.1    284.9   0.013556098   0.12715   0.35194  -0.02624   0.05093
  32   35672.0    280.3   0.058160395   0.53675  -0.35802   0.44078   0.46291
  33   35936.7    278.3   0.453500087   4.15446  -0.14822  -1.45939  -1.41516
  34   36502.0    274.0   0.273579441   2.46742  -0.89576  -0.60844  -1.13791
  35   36853.5    271.3   0.058346200   0.52121  -0.48603  -0.45173  -0.28447
  36   36921.4    270.8   0.449516541   4.00814   1.78418  -0.19236  -0.88761
  37   37079.0    269.7   0.069263232   0.61496  -0.73029  -0.24575   0.14578
  38   37531.0    266.4   0.006677004   0.05857  -0.16500  -0.13966  -0.10881
  39   37664.0    265.5   0.153459598   1.34135  -0.37072  -0.90885  -0.61474
  40   37858.2    264.1   0.071416483   0.62103  -0.04909  -0.39802  -0.67838
  41   38392.0    260.5   0.008362292   0.07171   0.02218   0.26502  -0.03132
  42   38750.0    258.1   0.092746907   0.78796   0.01241  -0.36681  -0.80824
  43   38782.0    257.9   0.067146225   0.56999  -0.42550   0.12994   0.60997
  44   38872.1    257.3   0.001738877   0.01473   0.06555   0.08442   0.05747
  45   39457.9    253.4   0.001759872   0.01468   0.02093   0.03887   0.11285
  46   39726.2    251.7   0.002920065   0.02420   0.05022  -0.02210   0.14556
  47   40083.8    249.5   0.010230567   0.08402  -0.28239   0.04982   0.04244
  48   40282.3    248.2   0.018554030   0.15164  -0.23849  -0.19483  -0.23833

FINAL SINGLE POINT ENERGY     -4522.993060869202

DIPOLE MOMENT
-------------
                                X             Y             Z
Electronic contribution:    -25.63287      14.29870      28.14218
Nuclear contribution   :     29.05569     -15.67788     -28.04131
                        -----------------------------------------
Total Dipole Moment    :      3.42282      -1.37918       0.10088
                        -----------------------------------------
Magnitude (a.u.)       :      3.69161
Magnitude (Debye)      :      9.38334

Rotational constants in cm-1:     0.001402     0.000242     0.000217
Rotational constants in MHz :    42.019353     7.253665     6.491303

                             ****ORCA TERMINATED NORMALLY****
TOTAL RUN TIME: 0 days 0 hours 8 minutes 59 seconds 602 msec
