                         Program Version 4.2.0 -  RELEASE  -
|  1> # ORCA input file
|  2> # SCF done       -195.460542102170          0.000971989441
|  3> ! CAM-B3LYP def2-SVP def2/J RIJCOSX Grid4 TightSCF
|  4> %maxcore 5000
|  5> %tddft
|  6>     Mode sTDDFT
|  7>     Ethresh 5.0
|  8>     maxcore 5000
|  9> end
| 10>
| 11> %pal
| 12>   nprocs 6
| 13>   end
| 14> * xyz 0 1
| 15>    C       -3.78473        -6.11106        -0.80283
| 16>    C       -4.49866        -7.26006        -0.49331
| 17>    F       -5.83578        -7.22896        -0.56065
| 18>    C       -3.86053        -8.43930        -0.11310
| 19>    F       -4.58950        -9.52561         0.17870
| 20>    C       -2.47815        -8.49904        -0.03136
| 21>    C       -1.76960        -7.35515        -0.33655
| 22>    C       -2.40259        -6.16243        -0.72183
| 23>    C       -1.37639        -5.14588        -0.96643
| 24>    C       -1.62891        -3.87132        -1.41282
| 25>    C       -2.91857        -3.37019        -1.68557
| 26>    N       -3.93580        -2.89583        -1.92676
| 27>    C       -0.66246        -2.88123        -1.68246
| 28>    N        0.05496        -2.01747        -1.92964
| 29>    C       -0.09386        -5.74574        -0.67768
| 30>    C       -0.30334        -7.14726        -0.31719
| 31>    O        0.53080        -7.99374        -0.05145
| 32>    C        1.10889        -5.06831        -0.69376
| 33>    C        2.40833        -5.49450        -0.42846
| 34>    S        2.88117        -7.13847        -0.08154
| 35>    C        4.53708        -6.66548         0.08273
| 36>    C        4.71753        -5.28692        -0.11524
| 37>    C        3.52823        -4.63037        -0.41006
| 38>    C        3.40329        -3.15659        -0.64425
| 39>    C        2.90965        -2.42765         0.60882
| 40>    C        6.06560        -4.63989        -0.00345
| 41>    C        6.39959        -4.29079         1.44861
| 42>    C        5.53521        -7.61171         0.41040
| 43>    C        5.33573        -8.95828         0.44513
| 44>    C        6.33908        -9.88063         0.81167
| 45>    C        6.18594       -11.23074         0.73678
| 46>    C        7.15582       -12.17942         1.13708
| 47>    N        6.99656       -13.52578         0.87057
| 48>    C        8.06066       -14.19970         1.37816
| 49>    C        8.63945       -15.45603         1.51568
| 50>    C        9.81886       -15.26414         2.24819
| 51>    N        9.95783       -13.92293         2.54731
| 52>    C        8.90773       -13.24995         2.00912
| 53>    C        8.35004       -11.98889         1.84867
| 54>    C       10.74378       -16.25704         2.65172
| 55>    C       11.74509       -16.08657         3.55347
| 56>    C       12.67380       -17.09262         3.91603
| 57>    S       12.81725       -18.55551         2.99133
| 58>    C       14.07692       -19.15087         4.04198
| 59>    C       14.33719       -18.24577         5.07289
| 60>    C       13.57164       -17.07689         4.98331
| 61>    C       13.64033       -15.94101         5.95910
| 62>    C       12.53825       -16.05808         7.01460
| 63>    C       15.38156       -18.49675         6.11670
| 64>    C       16.76191       -18.05333         5.62501
| 65>    C       14.72295       -20.37281         3.78123
| 66>    C       14.53376       -21.13075         2.66080
| 67>    C       15.25229       -22.30718         2.39814
| 68>    C       15.17494       -22.98868         1.21273
| 69>    C       15.92835       -24.13866         0.94689
| 70>    C       16.04194       -24.80849        -0.24761
| 71>    C       16.51743       -26.20772        -0.26634
| 72>    O       17.03049       -26.82278         0.64211
| 73>    C       16.18499       -26.71251        -1.62141
| 74>    C       15.63954       -25.66650        -2.38600
| 75>    C       15.21870       -25.90234        -3.68404
| 76>    C       15.35776       -27.18706        -4.18924
| 77>    C       15.91126       -28.21621        -3.42923
| 78>    C       16.33293       -27.98747        -2.12862
| 79>    F       16.03395       -29.44052        -3.96036
| 80>    F       14.94608       -27.44022        -5.43826
| 81>    C       15.66481       -24.43809        -1.58662
| 82>    C       15.56755       -23.16778        -2.10014
| 83>    C       15.91651       -21.99536        -1.39897
| 84>    N       16.24132       -21.00870        -0.90933
| 85>    C       15.21511       -22.88323        -3.43438
| 86>    N       14.90570       -22.58943        -4.50056
| 87>    H       -4.32702        -5.22532        -1.08965
| 88>    H       -1.98016        -9.40883         0.26334
| 89>    H        1.03667        -4.01707        -0.93364
| 90>    H        2.71374        -2.95849        -1.46700
| 91>    H        4.37291        -2.74750        -0.92824
| 92>    H        1.92900        -2.78946         0.90783
| 93>    H        2.83633        -1.36182         0.41049
| 94>    H        3.59624        -2.58161         1.43793
| 95>    H        6.09456        -3.73063        -0.60461
| 96>    H        6.82579        -5.31589        -0.39916
| 97>    H        5.67453        -3.58566         1.84662
| 98>    H        7.38729        -3.83980         1.50953
| 99>    H        6.38388        -5.18183         2.07219
|100>    H        6.52185        -7.23261         0.64024
|101>    H        4.36320        -9.34938         0.17534
|102>    H        7.27945        -9.47655         1.16029
|103>    H        5.26102       -11.62535         0.33416
|104>    H        6.22526       -13.91651         0.35726
|105>    H        8.27833       -16.40051         1.16176
|106>    H       10.74739       -13.51935         3.01902
|107>    H        8.72405       -11.05087         2.20471
|108>    H       10.60450       -17.23375         2.20867
|109>    H       11.84947       -15.14055         4.06698
|110>    H       13.53691       -14.99215         5.42860
|111>    H       14.61353       -15.93378         6.44975
|112>    H       11.55708       -16.04715         6.54507
|113>    H       12.59802       -15.23091         7.71805
|114>    H       12.63940       -16.98976         7.56665
|115>    H       15.40798       -19.55935         6.36365
|116>    H       15.12863       -17.95585         7.02919
|117>    H       17.03560       -18.59282         4.72128
|118>    H       17.51315       -18.24551         6.38724
|119>    H       16.76243       -16.98958         5.39789
|120>    H       15.45197       -20.70407         4.50897
|121>    H       13.83210       -20.78981         1.91062
|122>    H       15.94276       -22.65825         3.15526
|123>    H       14.50027       -22.61863         0.45376
|124>    H       16.42916       -24.61325         1.78450
|125>    H       14.78392       -25.13962        -4.30921
|126>    H       16.76097       -28.78252        -1.53925
|127> *
|128>
|129>                          ****END OF INPUT****

CARTESIAN COORDINATES (ANGSTROEM)
---------------------------------
  C     -3.784730   -6.111060   -0.802830
  C     -4.498660   -7.260060   -0.493310
  F     -5.835780   -7.228960   -0.560650
  C     -3.860530   -8.439300   -0.113100
  F     -4.589500   -9.525610    0.178700
  C     -2.478150   -8.499040   -0.031360
  C     -1.769600   -7.355150   -0.336550
  C     -2.402590   -6.162430   -0.721830
  C     -1.376390   -5.145880   -0.966430
  C     -1.628910   -3.871320   -1.412820
  C     -2.918570   -3.370190   -1.685570
  N     -3.935800   -2.895830   -1.926760
  C     -0.662460   -2.881230   -1.682460
  N      0.054960   -2.017470   -1.929640
  C     -0.093860   -5.745740   -0.677680
  C     -0.303340   -7.147260   -0.317190
  O      0.530800   -7.993740   -0.051450
  C      1.108890   -5.068310   -0.693760
  C      2.408330   -5.494500   -0.428460
  S      2.881170   -7.138470   -0.081540
  C      4.537080   -6.665480    0.082730
  C      4.717530   -5.286920   -0.115240
  C      3.528230   -4.630370   -0.410060
  C      3.403290   -3.156590   -0.644250
  C      2.909650   -2.427650    0.608820
  C      6.065600   -4.639890   -0.003450
  C      6.399590   -4.290790    1.448610
  C      5.535210   -7.611710    0.410400
  C      5.335730   -8.958280    0.445130
  C      6.339080   -9.880630    0.811670
  C      6.185940  -11.230740    0.736780
  C      7.155820  -12.179420    1.137080
  N      6.996560  -13.525780    0.870570
  C      8.060660  -14.199700    1.378160
  C      8.639450  -15.456030    1.515680
  C      9.818860  -15.264140    2.248190
  N      9.957830  -13.922930    2.547310
  C      8.907730  -13.249950    2.009120
  C      8.350040  -11.988890    1.848670
  C     10.743780  -16.257040    2.651720
  C     11.745090  -16.086570    3.553470
  C     12.673800  -17.092620    3.916030
  S     12.817250  -18.555510    2.991330
  C     14.076920  -19.150870    4.041980
  C     14.337190  -18.245770    5.072890
  C     13.571640  -17.076890    4.983310
  C     13.640330  -15.941010    5.959100
  C     12.538250  -16.058080    7.014600
  C     15.381560  -18.496750    6.116700
  C     16.761910  -18.053330    5.625010
  C     14.722950  -20.372810    3.781230
  C     14.533760  -21.130750    2.660800
  C     15.252290  -22.307180    2.398140
  C     15.174940  -22.988680    1.212730
  C     15.928350  -24.138660    0.946890
  C     16.041940  -24.808490   -0.247610
  C     16.517430  -26.207720   -0.266340
  O     17.030490  -26.822780    0.642110
  C     16.184990  -26.712510   -1.621410
  C     15.639540  -25.666500   -2.386000
  C     15.218700  -25.902340   -3.684040
  C     15.357760  -27.187060   -4.189240
  C     15.911260  -28.216210   -3.429230
  C     16.332930  -27.987470   -2.128620
  F     16.033950  -29.440520   -3.960360
  F     14.946080  -27.440220   -5.438260
  C     15.664810  -24.438090   -1.586620
  C     15.567550  -23.167780   -2.100140
  C     15.916510  -21.995360   -1.398970
  N     16.241320  -21.008700   -0.909330
  C     15.215110  -22.883230   -3.434380
  N     14.905700  -22.589430   -4.500560
  H     -4.327020   -5.225320   -1.089650
  H     -1.980160   -9.408830    0.263340
  H      1.036670   -4.017070   -0.933640
  H      2.713740   -2.958490   -1.467000
  H      4.372910   -2.747500   -0.928240
  H      1.929000   -2.789460    0.907830
  H      2.836330   -1.361820    0.410490
  H      3.596240   -2.581610    1.437930
  H      6.094560   -3.730630   -0.604610
  H      6.825790   -5.315890   -0.399160
  H      5.674530   -3.585660    1.846620
  H      7.387290   -3.839800    1.509530
  H      6.383880   -5.181830    2.072190
  H      6.521850   -7.232610    0.640240
  H      4.363200   -9.349380    0.175340
  H      7.279450   -9.476550    1.160290
  H      5.261020  -11.625350    0.334160
  H      6.225260  -13.916510    0.357260
  H      8.278330  -16.400510    1.161760
  H     10.747390  -13.519350    3.019020
  H      8.724050  -11.050870    2.204710
  H     10.604500  -17.233750    2.208670
  H     11.849470  -15.140550    4.066980
  H     13.536910  -14.992150    5.428600
  H     14.613530  -15.933780    6.449750
  H     11.557080  -16.047150    6.545070
  H     12.598020  -15.230910    7.718050
  H     12.639400  -16.989760    7.566650
  H     15.407980  -19.559350    6.363650
  H     15.128630  -17.955850    7.029190
  H     17.035600  -18.592820    4.721280
  H     17.513150  -18.245510    6.387240
  H     16.762430  -16.989580    5.397890
  H     15.451970  -20.704070    4.508970
  H     13.832100  -20.789810    1.910620
  H     15.942760  -22.658250    3.155260
  H     14.500270  -22.618630    0.453760
  H     16.429160  -24.613250    1.784500
  H     14.783920  -25.139620   -4.309210
  H     16.760970  -28.782520   -1.539250

 Total Charge           Charge          ....    0
 Multiplicity           Mult            ....    1
 Number of Electrons    NEL             ....  514
 Basis Dimension        Dim             .... 1216

ORBITAL ENERGIES
----------------

  NO   OCC          E(Eh)            E(eV)
   0   2.0000     -88.957600     -2420.6594
   1   2.0000     -88.953174     -2420.5389
   2   2.0000     -24.796950      -674.7593
   3   2.0000     -24.795276      -674.7138
   4   2.0000     -24.795103      -674.7090
   5   2.0000     -24.794472      -674.6919
   6   2.0000     -19.215797      -522.8884
   7   2.0000     -19.209376      -522.7137
   8   2.0000     -14.468167      -393.6988
   9   2.0000     -14.465935      -393.6381
  10   2.0000     -14.415164      -392.2566
  11   2.0000     -14.410533      -392.1306
  12   2.0000     -14.408765      -392.0824
  13   2.0000     -14.407555      -392.0495
  14   2.0000     -10.380974      -282.4807
  15   2.0000     -10.380258      -282.4612
  16   2.0000     -10.379916      -282.4519
  17   2.0000     -10.379333      -282.4360
  18   2.0000     -10.365644      -282.0635
  19   2.0000     -10.360913      -281.9348
  20   2.0000     -10.338097      -281.3139
  21   2.0000     -10.337505      -281.2978
  22   2.0000     -10.336727      -281.2767
  23   2.0000     -10.335755      -281.2502
  24   2.0000     -10.318844      -280.7900
  25   2.0000     -10.315724      -280.7051
  26   2.0000     -10.315413      -280.6967
  27   2.0000     -10.314689      -280.6770
  28   2.0000     -10.313464      -280.6436
  29   2.0000     -10.312537      -280.6184
  30   2.0000     -10.311894      -280.6009
  31   2.0000     -10.310517      -280.5634
  32   2.0000     -10.310141      -280.5532
  33   2.0000     -10.309874      -280.5459
  34   2.0000     -10.308047      -280.4962
  35   2.0000     -10.308028      -280.4957
  36   2.0000     -10.304147      -280.3901
  37   2.0000     -10.304114      -280.3892
  38   2.0000     -10.303961      -280.3850
  39   2.0000     -10.303889      -280.3831
  40   2.0000     -10.303812      -280.3810
  41   2.0000     -10.303018      -280.3594
  42   2.0000     -10.302744      -280.3519
  43   2.0000     -10.302569      -280.3472
  44   2.0000     -10.302182      -280.3366
  45   2.0000     -10.302006      -280.3318
  46   2.0000     -10.296199      -280.1738
  47   2.0000     -10.295416      -280.1525
  48   2.0000     -10.295285      -280.1489
  49   2.0000     -10.294701      -280.1331
  50   2.0000     -10.294398      -280.1248
  51   2.0000     -10.291634      -280.0496
  52   2.0000     -10.290881      -280.0291
  53   2.0000     -10.290838      -280.0279
  54   2.0000     -10.287822      -279.9459
  55   2.0000     -10.285341      -279.8784
  56   2.0000     -10.284972      -279.8683
  57   2.0000     -10.283966      -279.8409
  58   2.0000     -10.283927      -279.8399
  59   2.0000     -10.283314      -279.8232
  60   2.0000     -10.283202      -279.8202
  61   2.0000     -10.282866      -279.8110
  62   2.0000     -10.281736      -279.7802
  63   2.0000     -10.280545      -279.7478
  64   2.0000     -10.277267      -279.6587
  65   2.0000     -10.275921      -279.6220
  66   2.0000     -10.275107      -279.5999
  67   2.0000     -10.274469      -279.5825
  68   2.0000     -10.269097      -279.4363
  69   2.0000     -10.269046      -279.4349
  70   2.0000     -10.265388      -279.3354
  71   2.0000     -10.261338      -279.2252
  72   2.0000      -8.053180      -219.1382
  73   2.0000      -8.047227      -218.9762
  74   2.0000      -6.022322      -163.8757
  75   2.0000      -6.018544      -163.7729
  76   2.0000      -6.016518      -163.7178
  77   2.0000      -6.015205      -163.6821
  78   2.0000      -6.012210      -163.6006
  79   2.0000      -6.009371      -163.5233
  80   2.0000      -1.319122       -35.8951
  81   2.0000      -1.318007       -35.8648
  82   2.0000      -1.303925       -35.4816
  83   2.0000      -1.302847       -35.4523
  84   2.0000      -1.131107       -30.7790
  85   2.0000      -1.123982       -30.5851
  86   2.0000      -1.099174       -29.9100
  87   2.0000      -1.062748       -28.9188
  88   2.0000      -1.016819       -27.6690
  89   2.0000      -1.014465       -27.6050
  90   2.0000      -0.999240       -27.1907
  91   2.0000      -0.996427       -27.1142
  92   2.0000      -0.995918       -27.1003
  93   2.0000      -0.993050       -27.0223
  94   2.0000      -0.989901       -26.9366
  95   2.0000      -0.987654       -26.8754
  96   2.0000      -0.952304       -25.9135
  97   2.0000      -0.952013       -25.9056
  98   2.0000      -0.932462       -25.3736
  99   2.0000      -0.926943       -25.2234
 100   2.0000      -0.916583       -24.9415
 101   2.0000      -0.905825       -24.6487
 102   2.0000      -0.902426       -24.5563
 103   2.0000      -0.896704       -24.4005
 104   2.0000      -0.894296       -24.3350
 105   2.0000      -0.893228       -24.3060
 106   2.0000      -0.888049       -24.1651
 107   2.0000      -0.877853       -23.8876
 108   2.0000      -0.875318       -23.8186
 109   2.0000      -0.869779       -23.6679
 110   2.0000      -0.868921       -23.6445
 111   2.0000      -0.868101       -23.6222
 112   2.0000      -0.862753       -23.4767
 113   2.0000      -0.855304       -23.2740
 114   2.0000      -0.842187       -22.9171
 115   2.0000      -0.821113       -22.3436
 116   2.0000      -0.811461       -22.0810
 117   2.0000      -0.806536       -21.9470
 118   2.0000      -0.804277       -21.8855
 119   2.0000      -0.794040       -21.6069
 120   2.0000      -0.781918       -21.2771
 121   2.0000      -0.769044       -20.9268
 122   2.0000      -0.767354       -20.8808
 123   2.0000      -0.762835       -20.7578
 124   2.0000      -0.749542       -20.3961
 125   2.0000      -0.735496       -20.0139
 126   2.0000      -0.727997       -19.8098
 127   2.0000      -0.717207       -19.5162
 128   2.0000      -0.714922       -19.4540
 129   2.0000      -0.712240       -19.3810
 130   2.0000      -0.709119       -19.2961
 131   2.0000      -0.703850       -19.1527
 132   2.0000      -0.702319       -19.1111
 133   2.0000      -0.701062       -19.0769
 134   2.0000      -0.697167       -18.9709
 135   2.0000      -0.693513       -18.8714
 136   2.0000      -0.682239       -18.5647
 137   2.0000      -0.677492       -18.4355
 138   2.0000      -0.669069       -18.2063
 139   2.0000      -0.666691       -18.1416
 140   2.0000      -0.663971       -18.0676
 141   2.0000      -0.656081       -17.8529
 142   2.0000      -0.648589       -17.6490
 143   2.0000      -0.645868       -17.5750
 144   2.0000      -0.638424       -17.3724
 145   2.0000      -0.637489       -17.3470
 146   2.0000      -0.635158       -17.2835
 147   2.0000      -0.629533       -17.1305
 148   2.0000      -0.624742       -17.0001
 149   2.0000      -0.616902       -16.7868
 150   2.0000      -0.609082       -16.5740
 151   2.0000      -0.606979       -16.5167
 152   2.0000      -0.604805       -16.4576
 153   2.0000      -0.599923       -16.3247
 154   2.0000      -0.593214       -16.1422
 155   2.0000      -0.590421       -16.0662
 156   2.0000      -0.586125       -15.9493
 157   2.0000      -0.585056       -15.9202
 158   2.0000      -0.584426       -15.9030
 159   2.0000      -0.583136       -15.8679
 160   2.0000      -0.577531       -15.7154
 161   2.0000      -0.570951       -15.5364
 162   2.0000      -0.561468       -15.2783
 163   2.0000      -0.558974       -15.2105
 164   2.0000      -0.555834       -15.1250
 165   2.0000      -0.554870       -15.0988
 166   2.0000      -0.547322       -14.8934
 167   2.0000      -0.546807       -14.8794
 168   2.0000      -0.545008       -14.8304
 169   2.0000      -0.544512       -14.8169
 170   2.0000      -0.543876       -14.7996
 171   2.0000      -0.543411       -14.7870
 172   2.0000      -0.539856       -14.6902
 173   2.0000      -0.536083       -14.5875
 174   2.0000      -0.534064       -14.5326
 175   2.0000      -0.532088       -14.4788
 176   2.0000      -0.529627       -14.4119
 177   2.0000      -0.528336       -14.3767
 178   2.0000      -0.527594       -14.3565
 179   2.0000      -0.526121       -14.3165
 180   2.0000      -0.522750       -14.2248
 181   2.0000      -0.519235       -14.1291
 182   2.0000      -0.518121       -14.0988
 183   2.0000      -0.514212       -13.9924
 184   2.0000      -0.509816       -13.8728
 185   2.0000      -0.507618       -13.8130
 186   2.0000      -0.504382       -13.7249
 187   2.0000      -0.499634       -13.5957
 188   2.0000      -0.496455       -13.5092
 189   2.0000      -0.493297       -13.4233
 190   2.0000      -0.492267       -13.3953
 191   2.0000      -0.491750       -13.3812
 192   2.0000      -0.491250       -13.3676
 193   2.0000      -0.491142       -13.3646
 194   2.0000      -0.489068       -13.3082
 195   2.0000      -0.488509       -13.2930
 196   2.0000      -0.487753       -13.2724
 197   2.0000      -0.483494       -13.1565
 198   2.0000      -0.481894       -13.1130
 199   2.0000      -0.481250       -13.0955
 200   2.0000      -0.479894       -13.0586
 201   2.0000      -0.472894       -12.8681
 202   2.0000      -0.466980       -12.7072
 203   2.0000      -0.465165       -12.6578
 204   2.0000      -0.459737       -12.5101
 205   2.0000      -0.456387       -12.4189
 206   2.0000      -0.456377       -12.4187
 207   2.0000      -0.455662       -12.3992
 208   2.0000      -0.454297       -12.3621
 209   2.0000      -0.452953       -12.3255
 210   2.0000      -0.451785       -12.2937
 211   2.0000      -0.451469       -12.2851
 212   2.0000      -0.451018       -12.2728
 213   2.0000      -0.449879       -12.2418
 214   2.0000      -0.447945       -12.1892
 215   2.0000      -0.446902       -12.1608
 216   2.0000      -0.445836       -12.1318
 217   2.0000      -0.445130       -12.1126
 218   2.0000      -0.442673       -12.0458
 219   2.0000      -0.441903       -12.0248
 220   2.0000      -0.439531       -11.9603
 221   2.0000      -0.436514       -11.8781
 222   2.0000      -0.433289       -11.7904
 223   2.0000      -0.429779       -11.6949
 224   2.0000      -0.426447       -11.6042
 225   2.0000      -0.425222       -11.5709
 226   2.0000      -0.423851       -11.5336
 227   2.0000      -0.422158       -11.4875
 228   2.0000      -0.420989       -11.4557
 229   2.0000      -0.420107       -11.4317
 230   2.0000      -0.419166       -11.4061
 231   2.0000      -0.417503       -11.3608
 232   2.0000      -0.413834       -11.2610
 233   2.0000      -0.412799       -11.2328
 234   2.0000      -0.408131       -11.1058
 235   2.0000      -0.405584       -11.0365
 236   2.0000      -0.405422       -11.0321
 237   2.0000      -0.401872       -10.9355
 238   2.0000      -0.395048       -10.7498
 239   2.0000      -0.391496       -10.6531
 240   2.0000      -0.380310       -10.3488
 241   2.0000      -0.368263       -10.0210
 242   2.0000      -0.354461        -9.6454
 243   2.0000      -0.345638        -9.4053
 244   2.0000      -0.342902        -9.3308
 245   2.0000      -0.334315        -9.0972
 246   2.0000      -0.330556        -8.9949
 247   2.0000      -0.328529        -8.9397
 248   2.0000      -0.317641        -8.6435
 249   2.0000      -0.314833        -8.5670
 250   2.0000      -0.312076        -8.4920
 251   2.0000      -0.308973        -8.4076
 252   2.0000      -0.301757        -8.2112
 253   2.0000      -0.299247        -8.1429
 254   2.0000      -0.273262        -7.4358
 255   2.0000      -0.250928        -6.8281
 256   2.0000      -0.218457        -5.9445
 257   0.0000      -0.099765        -2.7148
 258   0.0000      -0.090155        -2.4532
 259   0.0000      -0.063640        -1.7317
 260   0.0000      -0.059493        -1.6189
 261   0.0000      -0.044479        -1.2103

MULLIKEN ATOMIC CHARGES
-----------------------
   0 C :   -0.088335
   1 C :    0.232671
   2 F :   -0.168503
   3 C :    0.234400
   4 F :   -0.172915
   5 C :   -0.109079
   6 C :   -0.000651
   7 C :    0.036499
   8 C :    0.317789
   9 C :   -0.363113
  10 C :   -0.192502
  11 N :    0.149104
  12 C :   -0.179723
  13 N :    0.137574
  14 C :   -0.110471
  15 C :    0.148830
  16 O :   -0.174765
  17 C :   -0.023285
  18 C :   -0.089353
  19 S :    0.161823
  20 C :   -0.049837
  21 C :   -0.063146
  22 C :   -0.040740
  23 C :    0.067331
  24 C :    0.026771
  25 C :    0.073732
  26 C :    0.027059
  27 C :   -0.036641
  28 C :    0.037018
  29 C :   -0.003222
  30 C :    0.011715
  31 C :    0.103140
  32 N :   -0.031844
  33 C :    0.117711
  34 C :   -0.159578
  35 C :    0.081913
  36 N :   -0.039062
  37 C :    0.114165
  38 C :   -0.163605
  39 C :    0.027992
  40 C :   -0.025428
  41 C :   -0.078890
  42 S :    0.104208
  43 C :   -0.088793
  44 C :   -0.041929
  45 C :   -0.065407
  46 C :    0.062361
  47 C :    0.027498
  48 C :    0.051150
  49 C :    0.028865
  50 C :    0.012810
  51 C :    0.002792
  52 C :    0.044276
  53 C :    0.001688
  54 C :    0.032096
  55 C :   -0.121530
  56 C :    0.137313
  57 O :   -0.146620
  58 C :    0.002493
  59 C :    0.028703
  60 C :   -0.089459
  61 C :    0.232963
  62 C :    0.232523
  63 C :   -0.105064
  64 F :   -0.172924
  65 F :   -0.168397
  66 C :    0.275183
  67 C :   -0.337595
  68 C :   -0.223420
  69 N :    0.168902
  70 C :   -0.183247
  71 N :    0.149399
  72 H :    0.013227
  73 H :    0.005347
  74 H :   -0.015886
  75 H :    0.034622
  76 H :   -0.001982
  77 H :    0.012428
  78 H :    0.031345
  79 H :    0.006808
  80 H :    0.002779
  81 H :    0.008678
  82 H :    0.009811
  83 H :    0.016869
  84 H :    0.012211
  85 H :   -0.015678
  86 H :    0.007772
  87 H :   -0.013330
  88 H :   -0.022026
  89 H :    0.123093
  90 H :   -0.032235
  91 H :    0.124180
  92 H :   -0.034695
  93 H :   -0.004817
  94 H :   -0.039421
  95 H :    0.004582
  96 H :    0.003036
  97 H :    0.015949
  98 H :    0.017720
  99 H :    0.013122
 100 H :    0.011273
 101 H :    0.006889
 102 H :    0.018231
 103 H :    0.021492
 104 H :    0.014440
 105 H :   -0.006263
 106 H :    0.005549
 107 H :    0.000122
 108 H :    0.014214
 109 H :    0.012355
 110 H :    0.014915
 111 H :    0.009885
Sum of atomic charges:   -0.0000000

LOEWDIN ATOMIC CHARGES
----------------------
   0 C :   -0.018698
   1 C :    0.070906
   2 F :   -0.046901
   3 C :    0.068547
   4 F :   -0.049625
   5 C :   -0.009445
   6 C :   -0.042746
   7 C :   -0.014985
   8 C :    0.078581
   9 C :   -0.152574
  10 C :   -0.020904
  11 N :   -0.058014
  12 C :   -0.018155
  13 N :   -0.061995
  14 C :   -0.127300
  15 C :    0.079734
  16 O :   -0.167778
  17 C :    0.053408
  18 C :   -0.195277
  19 S :    0.493846
  20 C :   -0.141957
  21 C :   -0.063993
  22 C :   -0.000391
  23 C :   -0.031526
  24 C :   -0.043796
  25 C :   -0.029879
  26 C :   -0.049308
  27 C :   -0.063611
  28 C :    0.003468
  29 C :   -0.033530
  30 C :   -0.018023
  31 C :   -0.003669
  32 N :    0.072877
  33 C :   -0.020865
  34 C :   -0.082886
  35 C :   -0.001562
  36 N :    0.066850
  37 C :   -0.013090
  38 C :   -0.087289
  39 C :   -0.017954
  40 C :   -0.070477
  41 C :   -0.148357
  42 S :    0.433212
  43 C :   -0.185356
  44 C :   -0.025759
  45 C :   -0.060442
  46 C :   -0.030020
  47 C :   -0.048777
  48 C :   -0.030588
  49 C :   -0.046714
  50 C :    0.003071
  51 C :   -0.047728
  52 C :    0.041907
  53 C :   -0.047254
  54 C :    0.069670
  55 C :   -0.111747
  56 C :    0.080114
  57 O :   -0.148430
  58 C :   -0.045892
  59 C :   -0.012311
  60 C :   -0.022329
  61 C :    0.072051
  62 C :    0.067644
  63 C :   -0.007332
  64 F :   -0.049454
  65 F :   -0.046933
  66 C :    0.069655
  67 C :   -0.144923
  68 C :   -0.024445
  69 N :   -0.053258
  70 C :   -0.021443
  71 N :   -0.055803
  72 H :    0.050860
  73 H :    0.049541
  74 H :    0.045461
  75 H :    0.036889
  76 H :    0.030114
  77 H :    0.022869
  78 H :    0.032067
  79 H :    0.021239
  80 H :    0.028627
  81 H :    0.028266
  82 H :    0.023632
  83 H :    0.025159
  84 H :    0.022685
  85 H :    0.029003
  86 H :    0.027006
  87 H :    0.027529
  88 H :    0.029866
  89 H :    0.090798
  90 H :    0.026732
  91 H :    0.086992
  92 H :    0.023967
  93 H :    0.031553
  94 H :    0.021401
  95 H :    0.026084
  96 H :    0.027502
  97 H :    0.024610
  98 H :    0.024362
  99 H :    0.024894
 100 H :    0.029340
 101 H :    0.028837
 102 H :    0.026251
 103 H :    0.026351
 104 H :    0.025129
 105 H :    0.034856
 106 H :    0.026514
 107 H :    0.033703
 108 H :    0.032574
 109 H :    0.043177
 110 H :    0.050397
 111 H :    0.051120

  Mayer bond orders larger than 0.100000
B(  0-C ,  1-C ) :   1.3289 B(  0-C ,  5-C ) :   0.1055 B(  0-C ,  7-C ) :   1.3205
B(  0-C , 72-H ) :   0.9917 B(  1-C ,  2-F ) :   1.1430 B(  1-C ,  3-C ) :   1.2997
B(  3-C ,  4-F ) :   1.1269 B(  3-C ,  5-C ) :   1.3085 B(  5-C ,  6-C ) :   1.3239
B(  5-C , 73-H ) :   1.0205 B(  6-C ,  7-C ) :   1.3453 B(  6-C , 15-C ) :   0.9607
B(  7-C ,  8-C ) :   0.9943 B(  8-C ,  9-C ) :   1.6000 B(  8-C , 14-C ) :   1.1145
B(  9-C , 10-C ) :   1.1451 B(  9-C , 12-C ) :   1.1554 B( 10-C , 11-N ) :   2.9745
B( 12-C , 13-N ) :   2.9564 B( 14-C , 15-C ) :   0.9775 B( 14-C , 17-C ) :   1.4555
B( 15-C , 16-O ) :   2.1580 B( 17-C , 18-C ) :   1.3354 B( 17-C , 74-H ) :   0.9251
B( 18-C , 19-S ) :   1.0710 B( 18-C , 22-C ) :   1.3197 B( 19-S , 20-C ) :   1.1276
B( 20-C , 21-C ) :   1.3599 B( 20-C , 27-C ) :   1.1703 B( 21-C , 22-C ) :   1.4292
B( 21-C , 25-C ) :   1.0825 B( 22-C , 23-C ) :   1.0860 B( 23-C , 24-C ) :   1.1049
B( 23-C , 75-H ) :   0.9028 B( 23-C , 76-H ) :   0.9162 B( 24-C , 77-H ) :   0.9676
B( 24-C , 78-H ) :   0.9641 B( 24-C , 79-H ) :   0.9642 B( 25-C , 26-C ) :   1.1031
B( 25-C , 80-H ) :   0.9203 B( 25-C , 81-H ) :   0.9135 B( 26-C , 82-H ) :   0.9667
B( 26-C , 83-H ) :   0.9649 B( 26-C , 84-H ) :   0.9687 B( 27-C , 28-C ) :   1.5832
B( 27-C , 85-H ) :   0.9752 B( 28-C , 29-C ) :   1.1728 B( 28-C , 86-H ) :   0.9849
B( 29-C , 30-C ) :   1.6079 B( 29-C , 87-H ) :   0.9875 B( 30-C , 31-C ) :   1.1134
B( 30-C , 88-H ) :   0.9711 B( 31-C , 32-N ) :   1.1730 B( 31-C , 38-C ) :   1.3823
B( 32-N , 33-C ) :   1.1690 B( 32-N , 89-H ) :   0.9367 B( 33-C , 34-C ) :   1.2517
B( 33-C , 37-C ) :   1.3000 B( 34-C , 35-C ) :   1.3539 B( 34-C , 90-H ) :   1.0420
B( 35-C , 36-N ) :   1.1918 B( 35-C , 39-C ) :   1.1704 B( 36-N , 37-C ) :   1.1647
B( 36-N , 91-H ) :   0.9321 B( 37-C , 38-C ) :   1.2805 B( 38-C , 92-H ) :   1.0311
B( 39-C , 40-C ) :   1.5971 B( 39-C , 93-H ) :   0.9592 B( 40-C , 41-C ) :   1.1904
B( 40-C , 94-H ) :   0.9606 B( 41-C , 42-S ) :   1.1262 B( 41-C , 45-C ) :   1.4419
B( 42-S , 43-C ) :   1.0804 B( 43-C , 44-C ) :   1.4292 B( 43-C , 50-C ) :   1.2040
B( 44-C , 45-C ) :   1.3495 B( 44-C , 48-C ) :   1.0812 B( 45-C , 46-C ) :   1.0791
B( 46-C , 47-C ) :   1.1039 B( 46-C , 95-H ) :   0.9147 B( 46-C , 96-H ) :   0.9185
B( 47-C , 97-H ) :   0.9685 B( 47-C , 98-H ) :   0.9677 B( 47-C , 99-H ) :   0.9675
B( 48-C , 49-C ) :   1.1037 B( 48-C ,100-H ) :   0.9164 B( 48-C ,101-H ) :   0.9180
B( 49-C ,102-H ) :   0.9677 B( 49-C ,103-H ) :   0.9670 B( 49-C ,104-H ) :   0.9673
B( 50-C , 51-C ) :   1.5484 B( 50-C ,105-H ) :   0.9709 B( 51-C , 52-C ) :   1.1977
B( 51-C ,106-H ) :   0.9805 B( 52-C , 53-C ) :   1.5411 B( 52-C ,107-H ) :   0.9923
B( 53-C , 54-C ) :   1.1864 B( 53-C ,108-H ) :   0.9673 B( 54-C , 55-C ) :   1.5345
B( 54-C ,109-H ) :   0.9567 B( 55-C , 56-C ) :   0.9623 B( 55-C , 66-C ) :   1.0756
B( 56-C , 57-O ) :   2.2637 B( 56-C , 58-C ) :   0.9266 B( 58-C , 59-C ) :   1.3445
B( 58-C , 63-C ) :   1.3295 B( 59-C , 60-C ) :   1.3227 B( 59-C , 66-C ) :   1.0123
B( 60-C , 61-C ) :   1.3306 B( 60-C , 63-C ) :   0.1052 B( 60-C ,110-H ) :   0.9924
B( 61-C , 62-C ) :   1.2978 B( 61-C , 65-F ) :   1.1399 B( 62-C , 63-C ) :   1.3158
B( 62-C , 64-F ) :   1.1269 B( 63-C ,111-H ) :   1.0189 B( 66-C , 67-C ) :   1.6218
B( 67-C , 68-C ) :   1.1643 B( 67-C , 70-C ) :   1.1291 B( 68-C , 69-N ) :   3.0180
B( 70-C , 71-N ) :   2.9873

-----------------------------------------------------------------------------
         ABSORPTION SPECTRUM VIA TRANSITION ELECTRIC DIPOLE MOMENTS
-----------------------------------------------------------------------------
State   Energy  Wavelength   fosc         T2         TX        TY        TZ
        (cm-1)    (nm)                  (au**2)     (au)      (au)      (au)
-----------------------------------------------------------------------------
   0   12891.0    775.7   2.606020409  66.55272   5.27762  -6.21722  -0.21357
   1   16258.8    615.1   0.452543510   9.16319  -1.95853   0.16258  -2.30237
   2   21367.6    468.0   0.331244482   5.10352   0.75651   0.15859   2.12275
   3   21811.8    458.5   0.038995675   0.58857  -0.17018   0.70937  -0.23751
   4   22915.9    436.4   0.137158754   1.97044  -0.16473  -1.30179   0.49865
   5   23897.6    418.5   0.306688238   4.22491  -1.49279   1.07714   0.91447
   6   25882.2    386.4   0.240002529   3.05274   0.65069  -1.00965   1.26884
   7   27695.1    361.1   0.019732864   0.23456   0.19992   0.22830  -0.37746
   8   28648.2    349.1   0.101971353   1.17181  -0.40659   0.76695  -0.64674
   9   28955.3    345.4   0.011174777   0.12705   0.22286  -0.27736   0.02141
  10   29143.7    343.1   0.006005940   0.06784  -0.05281   0.07927   0.24243
  11   29728.8    336.4   0.047031592   0.52082   0.17783  -0.66816   0.20679
  12   29891.1    334.5   0.182677809   2.01196   0.78003   0.89535   0.77579
  13   30431.7    328.6   0.081058635   0.87690   0.01190   0.76310   0.54262
  14   30580.1    327.0   0.030636159   0.32982   0.40993   0.37788   0.13779
  15   30715.3    325.6   0.025971235   0.27836   0.15162  -0.29909  -0.40733
  16   31324.9    319.2   0.110467980   1.16097  -0.12222   0.99138   0.40399
  17   31885.6    313.6   0.203138813   2.09737  -0.84142  -1.17433   0.10163
  18   31997.0    312.5   0.049332912   0.50758   0.27588  -0.06026   0.65409
  19   32311.5    309.5   0.003213882   0.03275   0.11476   0.13867   0.01860
  20   32538.1    307.3   0.034317601   0.34722   0.05117   0.57973  -0.09225
  21   32924.0    303.7   0.024778981   0.24777  -0.27193  -0.41563   0.03280
  22   33713.8    296.6   0.120823324   1.17983  -0.44164  -0.86916  -0.47889
  23   34429.4    290.4   0.103372977   0.98845  -0.35855  -0.61237  -0.69634
  24   35049.8    285.3   0.053900069   0.50627   0.13100   0.13495   0.68622
  25   35444.1    282.1   0.064009876   0.59454   0.43902   0.50659   0.38100
  26   35904.6    278.5   0.011264537   0.10329  -0.11833  -0.06945  -0.29062
  27   36508.8    273.9   0.306376753   2.76270  -0.43728  -1.56715   0.33990
  28   36993.3    270.3   0.741264286   6.59669  -0.31415  -2.54911  -0.00729
  29   37071.0    269.8   0.045161638   0.40106   0.15907   0.38014  -0.48089
  30   37281.6    268.2   0.044425143   0.39229   0.52663   0.30021   0.15756
  31   37645.6    265.6   0.074212036   0.64899   0.44628  -0.49253  -0.45523
  32   37727.9    265.1   0.337079057   2.94134  -0.04568  -1.71352   0.05555
  33   38239.8    261.5   0.027304217   0.23507  -0.29081  -0.18925  -0.33865
  34   38675.7    258.6   0.494375693   4.20819   0.80249  -1.61237   0.98207
  35   39440.9    253.5   0.027906455   0.23293   0.46775   0.10502  -0.05578
  36   39974.6    250.2   0.019486166   0.16048   0.32224  -0.06241  -0.22966
  37   40056.8    249.6   0.046687706   0.38371  -0.41305  -0.33970  -0.31257
  38   40258.9    248.4   0.006995245   0.05720  -0.00074   0.23318  -0.05320

FINAL SINGLE POINT ENERGY     -3904.704307635612

DIPOLE MOMENT
-------------
                                X             Y             Z
Electronic contribution:    -60.34136     -71.32273     -75.00632
Nuclear contribution   :     62.42802      71.17658      79.06969
                        -----------------------------------------
Total Dipole Moment    :      2.08666      -0.14615       4.06337
                        -----------------------------------------
Magnitude (a.u.)       :      4.57018
Magnitude (Debye)      :     11.61647

Rotational constants in cm-1:     0.001255     0.000145     0.000137
Rotational constants in MHz :    37.618633     4.346116     4.104167

                             ****ORCA TERMINATED NORMALLY****
TOTAL RUN TIME: 0 days 0 hours 10 minutes 28 seconds 980 msec
