                         Program Version 4.2.0 -  RELEASE  -
|  1> # ORCA input file
|  2> # SCF done       -244.971989623031          0.000752174559
|  3> ! CAM-B3LYP def2-SVP def2/J RIJCOSX Grid4 TightSCF
|  4> %maxcore 5000
|  5> %tddft
|  6>     Mode sTDDFT
|  7>     Ethresh 5.0
|  8>     maxcore 5000
|  9> end
| 10>
| 11> %pal
| 12>   nprocs 6
| 13>   end
| 14> * xyz 0 1
| 15>    C       -2.65760        -8.19502         5.42639
| 16>    C       -3.44946        -9.33381         5.45433
| 17>    F       -4.53538        -9.34715         6.23434
| 18>    C       -3.14200       -10.46040         4.69089
| 19>    F       -3.93429       -11.53709         4.74916
| 20>    C       -2.02415       -10.47405         3.87221
| 21>    C       -1.23797        -9.33960         3.84379
| 22>    C       -1.53767        -8.20044         4.60968
| 23>    C       -0.51935        -7.17981         4.35497
| 24>    C       -0.47028        -5.94939         4.95770
| 25>    C       -1.41159        -5.49550         5.90691
| 26>    N       -2.14050        -5.06714         6.68296
| 27>    C        0.51522        -4.96358         4.73962
| 28>    N        1.28075        -4.11492         4.62100
| 29>    C        0.40236        -7.72358         3.37668
| 30>    C       -0.01035        -9.09358         3.05794
| 31>    O        0.53286        -9.88337         2.30904
| 32>    C        1.46225        -7.04518         2.82521
| 33>    C        2.39661        -7.43465         1.85894
| 34>    S        2.49009        -8.99100         1.08333
| 35>    C        3.83702        -8.47990         0.12347
| 36>    C        4.21377        -7.16376         0.40820
| 37>    C        3.40879        -6.58016         1.37952
| 38>    C        3.63273        -5.19734         1.90570
| 39>    C        4.61870        -4.40086         1.04623
| 40>    C        3.91893        -3.81651        -0.17348
| 41>    F        3.14774        -4.68852        -0.83926
| 42>    F        3.11235        -2.80369         0.17457
| 43>    F        4.78538        -3.32043        -1.07249
| 44>    C        5.82829        -5.27155         0.66749
| 45>    O        6.40899        -5.66488         1.89270
| 46>    C        7.73456        -6.12589         1.80317
| 47>    C        5.38704        -6.46074        -0.19659
| 48>    C        4.38425        -9.42125        -0.78805
| 49>    C        5.14727        -9.14575        -1.87569
| 50>    C        5.66752       -10.17131        -2.71385
| 51>    O        5.52162       -11.45078        -2.33790
| 52>    C        6.08905       -12.25554        -3.26362
| 53>    C        6.61965       -11.47028        -4.29832
| 54>    C        6.35709       -10.12407        -3.93367
| 55>    C        6.74910        -8.88604        -4.66141
| 56>    F        6.46348        -7.75875        -3.99682
| 57>    F        8.07455        -8.82422        -4.90441
| 58>    F        6.14587        -8.76029        -5.86023
| 59>    O        7.22320       -12.05123        -5.34296
| 60>    C        7.61219       -11.31372        -6.48843
| 61>    C        6.10118       -13.65343        -3.01808
| 62>    C        6.65601       -14.56775        -3.84979
| 63>    C        6.78207       -15.96772        -3.63499
| 64>    S        7.15639       -16.94845        -5.02162
| 65>    C        7.12940       -18.40649        -4.07377
| 66>    C        6.93965       -18.11411        -2.73210
| 67>    C        6.71985       -16.74794        -2.48712
| 68>    C        6.40828       -16.21508        -1.12293
| 69>    C        6.80084       -17.18182        -0.00009
| 70>    C        8.28106       -17.03644         0.32086
| 71>    F        9.08093       -17.01836        -0.75352
| 72>    F        8.51695       -15.88428         0.97248
| 73>    F        8.73721       -18.01812         1.11606
| 74>    C        6.41782       -18.63711        -0.35768
| 75>    O        5.04680       -18.75030        -0.63742
| 76>    C        4.18942       -18.83275         0.47374
| 77>    C        7.15737       -19.08909        -1.61559
| 78>    C        7.31644       -19.65833        -4.73398
| 79>    C        6.64167       -20.81105        -4.48199
| 80>    C        5.48733       -20.87949        -3.66276
| 81>    C        4.83919       -21.97184        -3.16569
| 82>    C        3.80165       -21.75198        -2.12053
| 83>    O        3.18401       -20.73759        -1.90300
| 84>    C        3.71175       -23.03713        -1.39074
| 85>    C        4.50131       -23.99909        -2.04369
| 86>    C        4.61251       -25.27642        -1.51780
| 87>    C        3.92206       -25.56133        -0.34905
| 88>    C        3.12745       -24.60478         0.28431
| 89>    C        3.01421       -23.32502        -0.23410
| 90>    F        2.47515       -24.92406         1.40846
| 91>    F        4.02775       -26.78267         0.18409
| 92>    C        5.07267       -23.40049        -3.25445
| 93>    C        5.53240       -24.12191        -4.32230
| 94>    C        5.82240       -23.59498        -5.59833
| 95>    N        6.03014       -23.24649        -6.67198
| 96>    C        5.66848       -25.52786        -4.31838
| 97>    N        5.81816       -26.66417        -4.36985
| 98>    H       -2.94107        -7.35212         6.03476
| 99>    H       -1.78280       -11.34149         3.27900
|100>    H        1.60400        -6.03305         3.17688
|101>    H        4.05469        -5.27354         2.91126
|102>    H        2.69416        -4.64272         1.97872
|103>    H        4.97931        -3.54310         1.62295
|104>    H        6.55176        -4.66730         0.09544
|105>    H        8.08006        -6.24393         2.82796
|106>    H        8.37198        -5.40114         1.28421
|107>    H        7.80307        -7.09126         1.29066
|108>    H        6.21944        -7.15938        -0.30043
|109>    H        5.13890        -6.09578        -1.19638
|110>    H        4.11577       -10.45267        -0.60021
|111>    H        5.34885        -8.13061        -2.16092
|112>    H        7.94714       -12.06461        -7.20226
|113>    H        8.43901       -10.63568        -6.27168
|114>    H        6.77334       -10.76199        -6.91591
|115>    H        5.61522       -13.93743        -2.09882
|116>    H        7.04737       -14.21605        -4.79315
|117>    H        5.32861       -16.05142        -1.06202
|118>    H        6.91148       -15.25735        -0.96790
|119>    H        6.28007       -16.89648         0.92091
|120>    H        6.68877       -19.29352         0.48622
|121>    H        3.21984       -19.11212         0.06727
|122>    H        4.10395       -17.87749         1.00383
|123>    H        4.52783       -19.60147         1.17813
|124>    H        6.81095       -20.08573        -1.88003
|125>    H        8.22958       -19.15547        -1.41146
|126>    H        8.04534       -19.66056        -5.53485
|127>    H        6.97614       -21.70245        -4.98724
|128>    H        5.06301       -19.93199        -3.34334
|129>    H        5.21598       -26.04840        -1.96633
|130>    H        2.40180       -22.58406         0.25439
|131> *
|132>
|133>                          ****END OF INPUT****

CARTESIAN COORDINATES (ANGSTROEM)
---------------------------------
  C     -2.657600   -8.195020    5.426390
  C     -3.449460   -9.333810    5.454330
  F     -4.535380   -9.347150    6.234340
  C     -3.142000  -10.460400    4.690890
  F     -3.934290  -11.537090    4.749160
  C     -2.024150  -10.474050    3.872210
  C     -1.237970   -9.339600    3.843790
  C     -1.537670   -8.200440    4.609680
  C     -0.519350   -7.179810    4.354970
  C     -0.470280   -5.949390    4.957700
  C     -1.411590   -5.495500    5.906910
  N     -2.140500   -5.067140    6.682960
  C      0.515220   -4.963580    4.739620
  N      1.280750   -4.114920    4.621000
  C      0.402360   -7.723580    3.376680
  C     -0.010350   -9.093580    3.057940
  O      0.532860   -9.883370    2.309040
  C      1.462250   -7.045180    2.825210
  C      2.396610   -7.434650    1.858940
  S      2.490090   -8.991000    1.083330
  C      3.837020   -8.479900    0.123470
  C      4.213770   -7.163760    0.408200
  C      3.408790   -6.580160    1.379520
  C      3.632730   -5.197340    1.905700
  C      4.618700   -4.400860    1.046230
  C      3.918930   -3.816510   -0.173480
  F      3.147740   -4.688520   -0.839260
  F      3.112350   -2.803690    0.174570
  F      4.785380   -3.320430   -1.072490
  C      5.828290   -5.271550    0.667490
  O      6.408990   -5.664880    1.892700
  C      7.734560   -6.125890    1.803170
  C      5.387040   -6.460740   -0.196590
  C      4.384250   -9.421250   -0.788050
  C      5.147270   -9.145750   -1.875690
  C      5.667520  -10.171310   -2.713850
  O      5.521620  -11.450780   -2.337900
  C      6.089050  -12.255540   -3.263620
  C      6.619650  -11.470280   -4.298320
  C      6.357090  -10.124070   -3.933670
  C      6.749100   -8.886040   -4.661410
  F      6.463480   -7.758750   -3.996820
  F      8.074550   -8.824220   -4.904410
  F      6.145870   -8.760290   -5.860230
  O      7.223200  -12.051230   -5.342960
  C      7.612190  -11.313720   -6.488430
  C      6.101180  -13.653430   -3.018080
  C      6.656010  -14.567750   -3.849790
  C      6.782070  -15.967720   -3.634990
  S      7.156390  -16.948450   -5.021620
  C      7.129400  -18.406490   -4.073770
  C      6.939650  -18.114110   -2.732100
  C      6.719850  -16.747940   -2.487120
  C      6.408280  -16.215080   -1.122930
  C      6.800840  -17.181820   -0.000090
  C      8.281060  -17.036440    0.320860
  F      9.080930  -17.018360   -0.753520
  F      8.516950  -15.884280    0.972480
  F      8.737210  -18.018120    1.116060
  C      6.417820  -18.637110   -0.357680
  O      5.046800  -18.750300   -0.637420
  C      4.189420  -18.832750    0.473740
  C      7.157370  -19.089090   -1.615590
  C      7.316440  -19.658330   -4.733980
  C      6.641670  -20.811050   -4.481990
  C      5.487330  -20.879490   -3.662760
  C      4.839190  -21.971840   -3.165690
  C      3.801650  -21.751980   -2.120530
  O      3.184010  -20.737590   -1.903000
  C      3.711750  -23.037130   -1.390740
  C      4.501310  -23.999090   -2.043690
  C      4.612510  -25.276420   -1.517800
  C      3.922060  -25.561330   -0.349050
  C      3.127450  -24.604780    0.284310
  C      3.014210  -23.325020   -0.234100
  F      2.475150  -24.924060    1.408460
  F      4.027750  -26.782670    0.184090
  C      5.072670  -23.400490   -3.254450
  C      5.532400  -24.121910   -4.322300
  C      5.822400  -23.594980   -5.598330
  N      6.030140  -23.246490   -6.671980
  C      5.668480  -25.527860   -4.318380
  N      5.818160  -26.664170   -4.369850
  H     -2.941070   -7.352120    6.034760
  H     -1.782800  -11.341490    3.279000
  H      1.604000   -6.033050    3.176880
  H      4.054690   -5.273540    2.911260
  H      2.694160   -4.642720    1.978720
  H      4.979310   -3.543100    1.622950
  H      6.551760   -4.667300    0.095440
  H      8.080060   -6.243930    2.827960
  H      8.371980   -5.401140    1.284210
  H      7.803070   -7.091260    1.290660
  H      6.219440   -7.159380   -0.300430
  H      5.138900   -6.095780   -1.196380
  H      4.115770  -10.452670   -0.600210
  H      5.348850   -8.130610   -2.160920
  H      7.947140  -12.064610   -7.202260
  H      8.439010  -10.635680   -6.271680
  H      6.773340  -10.761990   -6.915910
  H      5.615220  -13.937430   -2.098820
  H      7.047370  -14.216050   -4.793150
  H      5.328610  -16.051420   -1.062020
  H      6.911480  -15.257350   -0.967900
  H      6.280070  -16.896480    0.920910
  H      6.688770  -19.293520    0.486220
  H      3.219840  -19.112120    0.067270
  H      4.103950  -17.877490    1.003830
  H      4.527830  -19.601470    1.178130
  H      6.810950  -20.085730   -1.880030
  H      8.229580  -19.155470   -1.411460
  H      8.045340  -19.660560   -5.534850
  H      6.976140  -21.702450   -4.987240
  H      5.063010  -19.931990   -3.343340
  H      5.215980  -26.048400   -1.966330
  H      2.401800  -22.584060    0.254390

 Total Charge           Charge          ....    0
 Multiplicity           Mult            ....    1
 Number of Electrons    NEL             ....  606
 Basis Dimension        Dim             .... 1335

ORBITAL ENERGIES
----------------

  NO   OCC          E(Eh)            E(eV)
   0   2.0000     -88.964914     -2420.8584
   1   2.0000     -88.961242     -2420.7585
   2   2.0000     -24.822059      -675.4426
   3   2.0000     -24.814519      -675.2374
   4   2.0000     -24.814023      -675.2239
   5   2.0000     -24.809477      -675.1002
   6   2.0000     -24.808228      -675.0662
   7   2.0000     -24.807264      -675.0400
   8   2.0000     -24.806357      -675.0153
   9   2.0000     -24.805762      -674.9991
  10   2.0000     -24.805141      -674.9822
  11   2.0000     -24.803780      -674.9452
  12   2.0000     -24.803745      -674.9442
  13   2.0000     -24.802010      -674.8970
  14   2.0000     -24.801086      -674.8719
  15   2.0000     -19.315592      -525.6040
  16   2.0000     -19.276053      -524.5281
  17   2.0000     -19.231896      -523.3265
  18   2.0000     -19.229963      -523.2739
  19   2.0000     -19.226824      -523.1885
  20   2.0000     -19.223450      -523.0967
  21   2.0000     -14.423793      -392.4914
  22   2.0000     -14.422120      -392.4458
  23   2.0000     -14.421151      -392.4195
  24   2.0000     -14.417916      -392.3314
  25   2.0000     -10.541577      -286.8509
  26   2.0000     -10.520144      -286.2677
  27   2.0000     -10.517544      -286.1969
  28   2.0000     -10.391526      -282.7678
  29   2.0000     -10.391110      -282.7565
  30   2.0000     -10.388637      -282.6892
  31   2.0000     -10.388050      -282.6732
  32   2.0000     -10.375796      -282.3398
  33   2.0000     -10.373741      -282.2838
  34   2.0000     -10.367311      -282.1089
  35   2.0000     -10.364323      -282.0276
  36   2.0000     -10.352698      -281.7112
  37   2.0000     -10.351055      -281.6665
  38   2.0000     -10.347808      -281.5782
  39   2.0000     -10.346875      -281.5528
  40   2.0000     -10.345638      -281.5191
  41   2.0000     -10.342137      -281.4239
  42   2.0000     -10.340962      -281.3919
  43   2.0000     -10.337070      -281.2860
  44   2.0000     -10.326858      -281.0081
  45   2.0000     -10.325335      -280.9667
  46   2.0000     -10.324146      -280.9343
  47   2.0000     -10.323114      -280.9062
  48   2.0000     -10.322901      -280.9004
  49   2.0000     -10.322578      -280.8916
  50   2.0000     -10.321015      -280.8491
  51   2.0000     -10.318842      -280.7900
  52   2.0000     -10.317924      -280.7650
  53   2.0000     -10.316484      -280.7258
  54   2.0000     -10.316236      -280.7191
  55   2.0000     -10.315600      -280.7017
  56   2.0000     -10.314668      -280.6764
  57   2.0000     -10.314653      -280.6760
  58   2.0000     -10.313474      -280.6439
  59   2.0000     -10.312526      -280.6181
  60   2.0000     -10.312329      -280.6128
  61   2.0000     -10.311466      -280.5893
  62   2.0000     -10.310423      -280.5609
  63   2.0000     -10.308870      -280.5186
  64   2.0000     -10.308196      -280.5003
  65   2.0000     -10.307649      -280.4854
  66   2.0000     -10.306374      -280.4507
  67   2.0000     -10.304961      -280.4122
  68   2.0000     -10.304793      -280.4077
  69   2.0000     -10.304144      -280.3900
  70   2.0000     -10.303806      -280.3808
  71   2.0000     -10.301897      -280.3289
  72   2.0000     -10.299829      -280.2726
  73   2.0000     -10.296886      -280.1925
  74   2.0000     -10.295105      -280.1440
  75   2.0000     -10.294380      -280.1243
  76   2.0000     -10.292872      -280.0833
  77   2.0000     -10.292574      -280.0752
  78   2.0000     -10.292274      -280.0670
  79   2.0000     -10.290207      -280.0108
  80   2.0000     -10.289406      -279.9890
  81   2.0000     -10.288550      -279.9657
  82   2.0000     -10.282910      -279.8122
  83   2.0000      -8.058907      -219.2940
  84   2.0000      -8.057324      -219.2509
  85   2.0000      -6.028209      -164.0359
  86   2.0000      -6.026511      -163.9897
  87   2.0000      -6.023767      -163.9150
  88   2.0000      -6.022539      -163.8816
  89   2.0000      -6.021147      -163.8437
  90   2.0000      -6.019368      -163.7953
  91   2.0000      -1.408078       -38.3158
  92   2.0000      -1.397693       -38.0332
  93   2.0000      -1.395538       -37.9745
  94   2.0000      -1.329626       -36.1810
  95   2.0000      -1.326838       -36.1051
  96   2.0000      -1.314428       -35.7674
  97   2.0000      -1.311590       -35.6902
  98   2.0000      -1.311023       -35.6748
  99   2.0000      -1.305276       -35.5184
 100   2.0000      -1.301005       -35.4021
 101   2.0000      -1.298304       -35.3286
 102   2.0000      -1.297016       -35.2936
 103   2.0000      -1.295134       -35.2424
 104   2.0000      -1.238438       -33.6996
 105   2.0000      -1.177657       -32.0457
 106   2.0000      -1.142635       -31.0927
 107   2.0000      -1.139324       -31.0026
 108   2.0000      -1.135335       -30.8940
 109   2.0000      -1.134463       -30.8703
 110   2.0000      -1.026874       -27.9427
 111   2.0000      -1.025711       -27.9110
 112   2.0000      -1.008252       -27.4359
 113   2.0000      -1.007708       -27.4211
 114   2.0000      -1.005671       -27.3657
 115   2.0000      -1.001639       -27.2560
 116   2.0000      -0.999901       -27.2087
 117   2.0000      -0.998814       -27.1791
 118   2.0000      -0.963020       -26.2051
 119   2.0000      -0.961190       -26.1553
 120   2.0000      -0.946300       -25.7501
 121   2.0000      -0.941714       -25.6253
 122   2.0000      -0.940806       -25.6006
 123   2.0000      -0.935855       -25.4659
 124   2.0000      -0.927651       -25.2427
 125   2.0000      -0.916383       -24.9360
 126   2.0000      -0.908444       -24.7200
 127   2.0000      -0.905001       -24.6263
 128   2.0000      -0.894191       -24.3322
 129   2.0000      -0.880166       -23.9505
 130   2.0000      -0.878431       -23.9033
 131   2.0000      -0.877139       -23.8682
 132   2.0000      -0.867776       -23.6134
 133   2.0000      -0.867317       -23.6009
 134   2.0000      -0.860842       -23.4247
 135   2.0000      -0.849850       -23.1256
 136   2.0000      -0.848624       -23.0922
 137   2.0000      -0.831118       -22.6159
 138   2.0000      -0.822930       -22.3931
 139   2.0000      -0.808493       -22.0002
 140   2.0000      -0.804707       -21.8972
 141   2.0000      -0.800952       -21.7950
 142   2.0000      -0.798372       -21.7248
 143   2.0000      -0.787121       -21.4186
 144   2.0000      -0.778750       -21.1909
 145   2.0000      -0.777809       -21.1653
 146   2.0000      -0.771659       -20.9979
 147   2.0000      -0.769700       -20.9446
 148   2.0000      -0.764779       -20.8107
 149   2.0000      -0.749951       -20.4072
 150   2.0000      -0.739960       -20.1353
 151   2.0000      -0.736991       -20.0546
 152   2.0000      -0.733950       -19.9718
 153   2.0000      -0.733305       -19.9542
 154   2.0000      -0.723010       -19.6741
 155   2.0000      -0.716974       -19.5099
 156   2.0000      -0.712340       -19.3838
 157   2.0000      -0.706856       -19.2345
 158   2.0000      -0.703811       -19.1517
 159   2.0000      -0.697388       -18.9769
 160   2.0000      -0.694899       -18.9092
 161   2.0000      -0.690296       -18.7839
 162   2.0000      -0.689862       -18.7721
 163   2.0000      -0.682324       -18.5670
 164   2.0000      -0.681412       -18.5422
 165   2.0000      -0.679859       -18.4999
 166   2.0000      -0.677847       -18.4451
 167   2.0000      -0.676225       -18.4010
 168   2.0000      -0.675786       -18.3891
 169   2.0000      -0.674166       -18.3450
 170   2.0000      -0.666830       -18.1454
 171   2.0000      -0.662541       -18.0287
 172   2.0000      -0.652793       -17.7634
 173   2.0000      -0.652043       -17.7430
 174   2.0000      -0.648686       -17.6516
 175   2.0000      -0.646866       -17.6021
 176   2.0000      -0.645539       -17.5660
 177   2.0000      -0.638951       -17.3867
 178   2.0000      -0.632808       -17.2196
 179   2.0000      -0.622894       -16.9498
 180   2.0000      -0.621119       -16.9015
 181   2.0000      -0.617227       -16.7956
 182   2.0000      -0.613554       -16.6957
 183   2.0000      -0.604878       -16.4596
 184   2.0000      -0.604455       -16.4481
 185   2.0000      -0.601648       -16.3717
 186   2.0000      -0.599198       -16.3050
 187   2.0000      -0.594780       -16.1848
 188   2.0000      -0.594470       -16.1763
 189   2.0000      -0.592498       -16.1227
 190   2.0000      -0.591803       -16.1038
 191   2.0000      -0.590973       -16.0812
 192   2.0000      -0.584660       -15.9094
 193   2.0000      -0.582206       -15.8426
 194   2.0000      -0.576807       -15.6957
 195   2.0000      -0.573790       -15.6136
 196   2.0000      -0.569494       -15.4967
 197   2.0000      -0.565415       -15.3857
 198   2.0000      -0.564570       -15.3627
 199   2.0000      -0.561935       -15.2910
 200   2.0000      -0.561539       -15.2802
 201   2.0000      -0.559652       -15.2289
 202   2.0000      -0.559039       -15.2122
 203   2.0000      -0.558634       -15.2012
 204   2.0000      -0.558127       -15.1874
 205   2.0000      -0.557060       -15.1584
 206   2.0000      -0.556293       -15.1375
 207   2.0000      -0.554871       -15.0988
 208   2.0000      -0.554442       -15.0871
 209   2.0000      -0.554372       -15.0852
 210   2.0000      -0.551674       -15.0118
 211   2.0000      -0.550628       -14.9834
 212   2.0000      -0.549268       -14.9463
 213   2.0000      -0.547294       -14.8926
 214   2.0000      -0.545265       -14.8374
 215   2.0000      -0.544668       -14.8212
 216   2.0000      -0.542895       -14.7729
 217   2.0000      -0.539800       -14.6887
 218   2.0000      -0.538859       -14.6631
 219   2.0000      -0.537452       -14.6248
 220   2.0000      -0.535532       -14.5726
 221   2.0000      -0.530943       -14.4477
 222   2.0000      -0.526989       -14.3401
 223   2.0000      -0.523989       -14.2585
 224   2.0000      -0.522211       -14.2101
 225   2.0000      -0.517241       -14.0748
 226   2.0000      -0.515704       -14.0330
 227   2.0000      -0.515473       -14.0267
 228   2.0000      -0.510096       -13.8804
 229   2.0000      -0.509600       -13.8669
 230   2.0000      -0.508660       -13.8413
 231   2.0000      -0.506194       -13.7742
 232   2.0000      -0.505267       -13.7490
 233   2.0000      -0.503251       -13.6942
 234   2.0000      -0.503045       -13.6886
 235   2.0000      -0.502040       -13.6612
 236   2.0000      -0.501919       -13.6579
 237   2.0000      -0.501523       -13.6471
 238   2.0000      -0.499697       -13.5974
 239   2.0000      -0.498930       -13.5766
 240   2.0000      -0.498459       -13.5638
 241   2.0000      -0.496530       -13.5113
 242   2.0000      -0.494033       -13.4433
 243   2.0000      -0.492497       -13.4015
 244   2.0000      -0.491265       -13.3680
 245   2.0000      -0.491025       -13.3615
 246   2.0000      -0.488487       -13.2924
 247   2.0000      -0.486803       -13.2466
 248   2.0000      -0.486566       -13.2401
 249   2.0000      -0.481484       -13.1019
 250   2.0000      -0.476774       -12.9737
 251   2.0000      -0.474475       -12.9111
 252   2.0000      -0.471214       -12.8224
 253   2.0000      -0.465200       -12.6587
 254   2.0000      -0.464507       -12.6399
 255   2.0000      -0.463546       -12.6137
 256   2.0000      -0.460492       -12.5306
 257   2.0000      -0.460109       -12.5202
 258   2.0000      -0.457251       -12.4424
 259   2.0000      -0.456847       -12.4314
 260   2.0000      -0.455151       -12.3853
 261   2.0000      -0.454426       -12.3655
 262   2.0000      -0.453396       -12.3375
 263   2.0000      -0.451521       -12.2865
 264   2.0000      -0.448285       -12.1985
 265   2.0000      -0.446772       -12.1573
 266   2.0000      -0.445743       -12.1293
 267   2.0000      -0.437220       -11.8974
 268   2.0000      -0.434985       -11.8366
 269   2.0000      -0.434491       -11.8231
 270   2.0000      -0.433740       -11.8027
 271   2.0000      -0.432014       -11.7557
 272   2.0000      -0.429852       -11.6969
 273   2.0000      -0.429678       -11.6921
 274   2.0000      -0.427821       -11.6416
 275   2.0000      -0.425975       -11.5914
 276   2.0000      -0.424027       -11.5384
 277   2.0000      -0.421003       -11.4561
 278   2.0000      -0.416503       -11.3336
 279   2.0000      -0.415596       -11.3089
 280   2.0000      -0.414360       -11.2753
 281   2.0000      -0.410653       -11.1744
 282   2.0000      -0.408701       -11.1213
 283   2.0000      -0.399542       -10.8721
 284   2.0000      -0.397746       -10.8232
 285   2.0000      -0.395651       -10.7662
 286   2.0000      -0.385482       -10.4895
 287   2.0000      -0.372367       -10.1326
 288   2.0000      -0.355897        -9.6844
 289   2.0000      -0.355696        -9.6790
 290   2.0000      -0.349638        -9.5141
 291   2.0000      -0.349156        -9.5010
 292   2.0000      -0.346905        -9.4398
 293   2.0000      -0.344754        -9.3812
 294   2.0000      -0.340014        -9.2523
 295   2.0000      -0.335702        -9.1349
 296   2.0000      -0.322682        -8.7806
 297   2.0000      -0.320414        -8.7189
 298   2.0000      -0.318350        -8.6627
 299   2.0000      -0.317630        -8.6432
 300   2.0000      -0.302084        -8.2201
 301   2.0000      -0.278517        -7.5788
 302   2.0000      -0.241684        -6.5766
 303   0.0000      -0.102977        -2.8021
 304   0.0000      -0.093574        -2.5463
 305   0.0000      -0.070963        -1.9310
 306   0.0000      -0.066001        -1.7960
 307   0.0000      -0.047469        -1.2917

MULLIKEN ATOMIC CHARGES
-----------------------
   0 C :   -0.086444
   1 C :    0.234621
   2 F :   -0.164423
   3 C :    0.234562
   4 F :   -0.168979
   5 C :   -0.104123
   6 C :   -0.003246
   7 C :    0.036262
   8 C :    0.314084
   9 C :   -0.352551
  10 C :   -0.191320
  11 N :    0.153998
  12 C :   -0.178452
  13 N :    0.141748
  14 C :   -0.091736
  15 C :    0.153146
  16 O :   -0.169167
  17 C :   -0.043804
  18 C :   -0.089226
  19 S :    0.193762
  20 C :   -0.104041
  21 C :   -0.036286
  22 C :   -0.091408
  23 C :    0.153775
  24 C :   -0.112861
  25 C :    0.480173
  26 F :   -0.161755
  27 F :   -0.157463
  28 F :   -0.164574
  29 C :    0.136587
  30 O :   -0.377053
  31 C :    0.188389
  32 C :    0.115997
  33 C :    0.034432
  34 C :   -0.053185
  35 C :    0.118311
  36 O :   -0.186324
  37 C :    0.131381
  38 C :    0.132465
  39 C :   -0.151556
  40 C :    0.508589
  41 F :   -0.147146
  42 F :   -0.163479
  43 F :   -0.159610
  44 O :   -0.305183
  45 C :    0.180652
  46 C :   -0.035256
  47 C :    0.031538
  48 C :   -0.113930
  49 S :    0.136357
  50 C :   -0.176117
  51 C :   -0.014809
  52 C :   -0.093090
  53 C :    0.153436
  54 C :   -0.142675
  55 C :    0.478401
  56 F :   -0.157913
  57 F :   -0.165122
  58 F :   -0.163208
  59 C :    0.106313
  60 O :   -0.364503
  61 C :    0.181456
  62 C :    0.179007
  63 C :    0.039110
  64 C :   -0.000720
  65 C :    0.037234
  66 C :   -0.122355
  67 C :    0.137856
  68 O :   -0.138764
  69 C :    0.012761
  70 C :    0.028242
  71 C :   -0.089566
  72 C :    0.236212
  73 C :    0.234904
  74 C :   -0.110676
  75 F :   -0.168822
  76 F :   -0.164139
  77 C :    0.272427
  78 C :   -0.321548
  79 C :   -0.197731
  80 N :    0.172680
  81 C :   -0.185069
  82 N :    0.155681
  83 H :    0.016106
  84 H :    0.009475
  85 H :   -0.011491
  86 H :    0.053845
  87 H :    0.056777
  88 H :    0.040552
  89 H :    0.004404
  90 H :    0.035295
  91 H :    0.006289
  92 H :    0.010468
  93 H :    0.012972
  94 H :    0.052359
  95 H :    0.004870
  96 H :    0.007083
  97 H :    0.040141
  98 H :    0.039986
  99 H :    0.036134
 100 H :   -0.011582
 101 H :    0.002861
 102 H :    0.041340
 103 H :    0.031801
 104 H :    0.026525
 105 H :    0.003782
 106 H :    0.050383
 107 H :    0.001327
 108 H :   -0.000772
 109 H :    0.008296
 110 H :    0.038022
 111 H :    0.025057
 112 H :    0.000099
 113 H :    0.043496
 114 H :    0.020585
 115 H :    0.008373
Sum of atomic charges:   -0.0000000

LOEWDIN ATOMIC CHARGES
----------------------
   0 C :   -0.017637
   1 C :    0.072834
   2 F :   -0.043220
   3 C :    0.070114
   4 F :   -0.045548
   5 C :   -0.006815
   6 C :   -0.043932
   7 C :   -0.014759
   8 C :    0.078069
   9 C :   -0.143388
  10 C :   -0.020367
  11 N :   -0.050400
  12 C :   -0.018484
  13 N :   -0.055120
  14 C :   -0.116177
  15 C :    0.082133
  16 O :   -0.160690
  17 C :    0.058027
  18 C :   -0.195151
  19 S :    0.511405
  20 C :   -0.153973
  21 C :   -0.058656
  22 C :   -0.006598
  23 C :   -0.017368
  24 C :   -0.064139
  25 C :    0.162445
  26 F :   -0.055933
  27 F :   -0.057429
  28 F :   -0.063099
  29 C :    0.074704
  30 O :   -0.166679
  31 C :    0.071704
  32 C :   -0.043935
  33 C :   -0.026365
  34 C :   -0.038311
  35 C :    0.051801
  36 O :    0.033861
  37 C :    0.003184
  38 C :    0.031635
  39 C :   -0.156064
  40 C :    0.174274
  41 F :   -0.046936
  42 F :   -0.062402
  43 F :   -0.061262
  44 O :   -0.083091
  45 C :    0.076931
  46 C :   -0.036705
  47 C :   -0.039334
  48 C :   -0.158623
  49 S :    0.443917
  50 C :   -0.193419
  51 C :   -0.033792
  52 C :   -0.053554
  53 C :   -0.017336
  54 C :   -0.076337
  55 C :    0.162801
  56 F :   -0.052494
  57 F :   -0.064980
  58 F :   -0.062356
  59 C :    0.069644
  60 O :   -0.154815
  61 C :    0.067786
  62 C :   -0.029626
  63 C :    0.018820
  64 C :   -0.048332
  65 C :    0.067733
  66 C :   -0.096367
  67 C :    0.085158
  68 O :   -0.130036
  69 C :   -0.046983
  70 C :   -0.011814
  71 C :   -0.020126
  72 C :    0.074167
  73 C :    0.069370
  74 C :   -0.009127
  75 F :   -0.045836
  76 F :   -0.042313
  77 C :    0.071259
  78 C :   -0.132082
  79 C :   -0.022532
  80 N :   -0.040443
  81 C :   -0.020724
  82 N :   -0.044191
  83 H :    0.051680
  84 H :    0.051251
  85 H :    0.047053
  86 H :    0.053727
  87 H :    0.041457
  88 H :    0.051491
  89 H :    0.013503
  90 H :    0.027627
  91 H :    0.009933
  92 H :    0.007162
  93 H :    0.033751
  94 H :    0.035959
  95 H :    0.032567
  96 H :    0.033100
  97 H :    0.031530
  98 H :    0.018011
  99 H :    0.018656
 100 H :    0.035393
 101 H :    0.029983
 102 H :    0.043110
 103 H :    0.035551
 104 H :    0.041947
 105 H :    0.011911
 106 H :    0.027935
 107 H :    0.002355
 108 H :    0.007099
 109 H :    0.034557
 110 H :    0.038793
 111 H :    0.040856
 112 H :    0.035058
 113 H :    0.049467
 114 H :    0.051826
 115 H :    0.050132

  Mayer bond orders larger than 0.100000
B(  0-C ,  1-C ) :   1.3334 B(  0-C ,  5-C ) :   0.1047 B(  0-C ,  7-C ) :   1.3164
B(  0-C , 83-H ) :   0.9910 B(  1-C ,  2-F ) :   1.1466 B(  1-C ,  3-C ) :   1.2948
B(  3-C ,  4-F ) :   1.1305 B(  3-C ,  5-C ) :   1.3117 B(  5-C ,  6-C ) :   1.3216
B(  5-C , 84-H ) :   1.0204 B(  6-C ,  7-C ) :   1.3454 B(  6-C , 15-C ) :   0.9630
B(  7-C ,  8-C ) :   0.9996 B(  8-C ,  9-C ) :   1.6188 B(  8-C , 14-C ) :   1.0959
B(  9-C , 10-C ) :   1.1410 B(  9-C , 12-C ) :   1.1512 B( 10-C , 11-N ) :   2.9759
B( 12-C , 13-N ) :   2.9566 B( 14-C , 15-C ) :   0.9727 B( 14-C , 17-C ) :   1.4929
B( 15-C , 16-O ) :   2.1572 B( 17-C , 18-C ) :   1.2938 B( 17-C , 85-H ) :   0.9240
B( 18-C , 19-S ) :   1.0836 B( 18-C , 22-C ) :   1.3579 B( 19-S , 20-C ) :   1.1305
B( 20-C , 21-C ) :   1.4027 B( 20-C , 33-C ) :   1.1163 B( 21-C , 22-C ) :   1.4155
B( 21-C , 32-C ) :   1.0260 B( 22-C , 23-C ) :   1.0551 B( 23-C , 24-C ) :   1.0232
B( 23-C , 86-H ) :   0.8885 B( 23-C , 87-H ) :   0.8976 B( 24-C , 25-C ) :   0.9801
B( 24-C , 29-C ) :   0.9984 B( 24-C , 88-H ) :   0.8918 B( 25-C , 26-F ) :   1.1287
B( 25-C , 27-F ) :   1.1545 B( 25-C , 28-F ) :   1.1400 B( 29-C , 30-O ) :   1.0475
B( 29-C , 32-C ) :   1.0339 B( 29-C , 89-H ) :   0.9274 B( 30-O , 31-C ) :   0.9863
B( 31-C , 90-H ) :   0.9813 B( 31-C , 91-H ) :   0.9655 B( 31-C , 92-H ) :   0.9666
B( 32-C , 93-H ) :   0.8994 B( 32-C , 94-H ) :   0.8864 B( 33-C , 34-C ) :   1.6411
B( 33-C , 95-H ) :   0.9591 B( 34-C , 35-C ) :   1.1757 B( 34-C , 96-H ) :   0.9508
B( 35-C , 36-O ) :   1.1887 B( 35-C , 37-C ) :   0.1139 B( 35-C , 39-C ) :   1.3847
B( 36-O , 37-C ) :   1.1092 B( 37-C , 38-C ) :   1.4053 B( 37-C , 46-C ) :   1.1541
B( 38-C , 39-C ) :   1.2395 B( 38-C , 44-O ) :   1.1963 B( 39-C , 40-C ) :   0.9492
B( 40-C , 41-F ) :   1.1456 B( 40-C , 42-F ) :   1.1531 B( 40-C , 43-F ) :   1.1618
B( 44-O , 45-C ) :   0.9173 B( 45-C , 97-H ) :   0.9764 B( 45-C , 98-H ) :   0.9654
B( 45-C , 99-H ) :   0.9655 B( 46-C , 47-C ) :   1.6533 B( 46-C ,100-H ) :   0.9509
B( 47-C , 48-C ) :   1.1211 B( 47-C ,101-H ) :   0.9424 B( 48-C , 49-S ) :   1.1294
B( 48-C , 52-C ) :   1.4950 B( 49-S , 50-C ) :   1.1064 B( 50-C , 51-C ) :   1.4929
B( 50-C , 63-C ) :   1.0838 B( 51-C , 52-C ) :   1.3183 B( 51-C , 62-C ) :   1.0395
B( 52-C , 53-C ) :   1.0566 B( 53-C , 54-C ) :   1.0081 B( 53-C ,102-H ) :   0.8946
B( 53-C ,103-H ) :   0.9064 B( 54-C , 55-C ) :   0.9799 B( 54-C , 59-C ) :   0.9950
B( 54-C ,104-H ) :   0.8908 B( 55-C , 56-F ) :   1.1371 B( 55-C , 57-F ) :   1.1448
B( 55-C , 58-F ) :   1.1454 B( 59-C , 60-O ) :   1.0469 B( 59-C , 62-C ) :   1.0412
B( 59-C ,105-H ) :   0.9288 B( 60-O , 61-C ) :   0.9779 B( 61-C ,106-H ) :   0.9751
B( 61-C ,107-H ) :   0.9665 B( 61-C ,108-H ) :   0.9647 B( 62-C ,109-H ) :   0.8907
B( 62-C ,110-H ) :   0.9047 B( 63-C , 64-C ) :   1.7236 B( 63-C ,111-H ) :   0.9557
B( 64-C , 65-C ) :   1.1291 B( 64-C ,112-H ) :   0.9608 B( 65-C , 66-C ) :   1.6658
B( 65-C ,113-H ) :   0.9244 B( 66-C , 67-C ) :   0.9556 B( 66-C , 77-C ) :   1.0149
B( 67-C , 68-O ) :   2.2163 B( 67-C , 69-C ) :   0.9279 B( 69-C , 70-C ) :   1.3412
B( 69-C , 74-C ) :   1.3202 B( 70-C , 71-C ) :   1.3187 B( 70-C , 77-C ) :   1.0169
B( 71-C , 72-C ) :   1.3384 B( 71-C , 74-C ) :   0.1048 B( 71-C ,114-H ) :   0.9926
B( 72-C , 73-C ) :   1.2894 B( 72-C , 76-F ) :   1.1436 B( 73-C , 74-C ) :   1.3231
B( 73-C , 75-F ) :   1.1315 B( 74-C ,115-H ) :   1.0201 B( 77-C , 78-C ) :   1.6680
B( 78-C , 79-C ) :   1.1656 B( 78-C , 81-C ) :   1.1155 B( 79-C , 80-N ) :   2.9935
B( 81-C , 82-N ) :   2.9955

-----------------------------------------------------------------------------
         ABSORPTION SPECTRUM VIA TRANSITION ELECTRIC DIPOLE MOMENTS
-----------------------------------------------------------------------------
State   Energy  Wavelength   fosc         T2         TX        TY        TZ
        (cm-1)    (nm)                  (au**2)     (au)      (au)      (au)
-----------------------------------------------------------------------------
   0   16100.9    621.1   1.584383950  32.39567  -1.91723   4.71634   2.54480
   1   19200.9    520.8   0.629229269  10.78854  -2.24352  -1.38597   1.95812
   2   23926.2    418.0   0.020592237   0.28334   0.17701   0.35931  -0.35057
   3   24872.6    402.0   0.097283129   1.28763  -0.87030   0.13582   0.71537
   4   25172.6    397.3   0.426726205   5.58081  -1.57822  -1.12319   1.35222
   5   27677.2    361.3   0.055579001   0.66110  -0.18622  -0.72753  -0.31164
   6   28345.1    352.8   0.402239789   4.67178  -0.24337   2.12169   0.33317
   7   29272.0    341.6   0.016589596   0.18658   0.12369   0.40526   0.08391
   8   30208.6    331.0   0.002358870   0.02571   0.15231   0.04309   0.02556
   9   30410.9    328.8   0.058402385   0.63223   0.16719   0.28110  -0.72475
  10   30455.7    328.3   0.009909431   0.10712   0.12418  -0.22872  -0.19845
  11   30763.0    325.1   0.069665574   0.74553  -0.38445  -0.76987   0.07090
  12   31615.1    316.3   0.097009336   1.01017  -0.69071  -0.70713   0.18179
  13   32030.0    312.2   0.001177315   0.01210  -0.08114  -0.00492  -0.07412
  14   32217.7    310.4   0.142023660   1.45125  -0.59858  -0.28676   1.00535
  15   32408.2    308.6   0.021326683   0.21664  -0.05553   0.19378   0.41953
  16   32661.0    306.2   0.103676255   1.04502   0.33233   0.88062   0.39885
  17   33232.7    300.9   0.070064450   0.69408  -0.46267  -0.59837   0.34924
  18   33686.2    296.9   0.121085605   1.18336   0.18247   0.72673  -0.78863
  19   34783.0    287.5   0.202295692   1.91468   0.84245   0.95350  -0.54386
  20   35925.3    278.4   0.019634398   0.17993   0.13384  -0.39962  -0.04812
  21   36200.2    276.2   0.016117167   0.14657  -0.08997   0.16320   0.33443
  22   36372.2    274.9   0.324692128   2.93885  -0.72640  -1.53652  -0.22429
  23   36661.4    272.8   0.019027517   0.17086   0.07203   0.40236   0.06148
  24   36741.2    272.2   0.073922927   0.66237  -0.02075  -0.74258  -0.33244
  25   36859.5    271.3   0.056269563   0.50257   0.06761  -0.47213  -0.52449
  26   37067.6    269.8   0.116427978   1.03404   0.33100  -0.39512  -0.87656
  27   37716.7    265.1   0.338825876   2.95746  -0.25695   1.32392   1.06708
  28   37906.1    263.8   0.366533221   3.18332  -1.24651  -0.10775   1.27198
  29   38661.2    258.7   0.120029650   1.02209   0.34500  -0.74411  -0.59108
  30   39018.1    256.3   0.087074324   0.73468  -0.28963  -0.47558   0.65163
  31   39485.9    253.3   0.043784122   0.36505  -0.10435  -0.28671   0.52149
  32   39597.6    252.5   0.124385810   1.03414   0.27908  -0.50233  -0.83900
  33   39927.1    250.5   0.048565062   0.40043   0.38459   0.17105  -0.47251
  34   40182.1    248.9   0.052720438   0.43194   0.14747  -0.61086  -0.19245
  35   40237.3    248.5   0.032063671   0.26234   0.24413   0.43766  -0.10581

FINAL SINGLE POINT ENERGY     -4989.451456838303

DIPOLE MOMENT
-------------
                                X             Y             Z
Electronic contribution:    -32.44495       1.24710      10.61737
Nuclear contribution   :     34.64373      -0.56453     -10.91297
                        -----------------------------------------
Total Dipole Moment    :      2.19878       0.68257      -0.29560
                        -----------------------------------------
Magnitude (a.u.)       :      2.32119
Magnitude (Debye)      :      5.89999

Rotational constants in cm-1:     0.000798     0.000255     0.000206
Rotational constants in MHz :    23.916406     7.649816     6.187998

                             ****ORCA TERMINATED NORMALLY****
TOTAL RUN TIME: 0 days 0 hours 13 minutes 5 seconds 470 msec
