                         Program Version 4.2.0 -  RELEASE  -
|  1> # ORCA input file
|  2> # SCF done       -201.063414605470          0.000882066026
|  3> ! CAM-B3LYP def2-SVP def2/J RIJCOSX Grid4 TightSCF
|  4> %maxcore 5000
|  5> %tddft
|  6>     Mode sTDDFT
|  7>     Ethresh 5.0
|  8>     maxcore 5000
|  9> end
| 10>
| 11> %pal
| 12>   nprocs 6
| 13>   end
| 14> * xyz 0 1
| 15>    C       -4.14965        -4.17955        -2.32194
| 16>    C       -4.38128        -3.44115        -3.47281
| 17>    F       -5.64426        -3.19298        -3.83867
| 18>    C       -3.33436        -2.95128        -4.25391
| 19>    F       -3.60543        -2.23941        -5.35472
| 20>    C       -2.01735        -3.19726        -3.90115
| 21>    C       -1.78828        -3.94088        -2.76096
| 22>    C       -2.83389        -4.42997        -1.96313
| 23>    C       -2.25806        -5.13815        -0.81934
| 24>    C       -2.98535        -5.62039         0.24060
| 25>    C       -4.39335        -5.57545         0.32234
| 26>    N       -5.53355        -5.57956         0.45505
| 27>    C       -2.46005        -6.15955         1.43067
| 28>    N       -2.12716        -6.55598         2.45746
| 29>    C       -0.81995        -5.17012        -0.99702
| 30>    C       -0.48560        -4.35462        -2.18673
| 31>    O        0.60285        -4.03432        -2.60954
| 32>    C        0.06264        -5.80572        -0.16082
| 33>    C        1.45380        -5.99715        -0.32126
| 34>    C        2.14407        -6.12915        -1.50589
| 35>    C        3.46322        -6.59223        -1.23578
| 36>    O        4.26278        -6.87065        -2.27649
| 37>    C        5.42514        -7.64671        -2.10049
| 38>    C        3.62610        -6.74535         0.13602
| 39>    C        2.39290        -6.31604         0.76945
| 40>    C        2.19359        -6.01946         2.09684
| 41>    C        1.06953        -5.34456         2.67632
| 42>    C        1.24699        -5.29266         4.02806
| 43>    O        0.48267        -4.79615         4.99385
| 44>    C       -0.77849        -4.27799         4.61848
| 45>    C        2.53325        -5.91596         4.35892
| 46>    C        3.10096        -6.32632         3.21793
| 47>    C        4.84860        -7.13557         0.80614
| 48>    N        4.93055        -8.27372         1.58043
| 49>    C        6.19896        -8.36595         2.07478
| 50>    C        7.04710        -9.12690         2.87208
| 51>    C        8.28338        -8.46382         2.86930
| 52>    N        8.18772        -7.33109         2.08362
| 53>    C        6.92717        -7.25279         1.59071
| 54>    C        6.07751        -6.48820         0.78617
| 55>    C        9.46558        -8.86028         3.53700
| 56>    C       10.63308        -8.16151         3.55748
| 57>    C       11.80552        -8.54153         4.25644
| 58>    C       12.71687        -7.62254         4.74585
| 59>    C       13.63717        -8.27615         5.59117
| 60>    O       14.59222        -7.72005         6.33845
| 61>    C       14.79651        -6.32607         6.22654
| 62>    C       13.32609        -9.65338         5.64875
| 63>    C       12.25726        -9.87147         4.68042
| 64>    C       12.03375       -11.04730         4.01351
| 65>    C       11.22052       -11.26740         2.84396
| 66>    C       11.33046       -12.57471         2.48985
| 67>    O       10.77323       -13.25994         1.48381
| 68>    C        9.94103       -12.53604         0.60691
| 69>    C       12.23961       -13.24712         3.42192
| 70>    C       12.67168       -12.33958         4.30823
| 71>    C       13.83758       -10.58756         6.55517
| 72>    C       15.00704       -10.57291         7.28563
| 73>    C       15.08259       -11.38338         8.51820
| 74>    O       14.26892       -12.18698         8.92131
| 75>    C       16.35014       -10.98165         9.17676
| 76>    C       17.02419       -10.06477         8.35273
| 77>    C       18.23313        -9.52704         8.75987
| 78>    C       18.73833        -9.91940         9.99160
| 79>    C       18.06684       -10.83368        10.79971
| 80>    C       16.85769       -11.37963        10.39619
| 81>    F       18.59357       -11.18846        11.98131
| 82>    F       19.90144        -9.40021        10.40975
| 83>    C       16.24875        -9.87845         7.12251
| 84>    C       16.73168        -9.29598         5.97224
| 85>    C       16.08387        -9.36969         4.72717
| 86>    N       15.59323        -9.40774         3.68871
| 87>    C       17.94380        -8.58749         5.89082
| 88>    N       18.89681        -7.95732         5.76942
| 89>    H       -4.99480        -4.53154        -1.75400
| 90>    H       -1.20327        -2.82125        -4.50005
| 91>    H       -0.35369        -6.27159         0.72251
| 92>    H        1.76322        -5.99964        -2.49879
| 93>    H        5.72923        -7.94815        -3.10235
| 94>    H        5.22578        -8.53483        -1.49518
| 95>    H        6.22797        -7.07077        -1.63347
| 96>    H        0.26091        -4.90495         2.13151
| 97>    H       -1.27595        -3.99084         5.54241
| 98>    H       -1.36786        -5.03650         4.09570
| 99>    H       -0.66196        -3.40148         3.97461
|100>    H        2.91062        -5.99718         5.35980
|101>    H        4.05658        -6.79689         3.12829
|102>    H        4.16214        -8.89756         1.75901
|103>    H        6.83183       -10.03319         3.40160
|104>    H        8.93695        -6.68342         1.91623
|105>    H        6.28385        -5.56092         0.29012
|106>    H        9.40127        -9.78814         4.08679
|107>    H       10.67187        -7.17611         3.10855
|108>    H       12.67521        -6.56381         4.56765
|109>    H       15.64492        -6.09566         6.86869
|110>    H       13.91837        -5.77080         6.56716
|111>    H       15.03333        -6.04621         5.19665
|112>    H       10.67463       -10.50772         2.32493
|113>    H        9.57114       -13.25227        -0.12435
|114>    H       10.50093       -11.74547         0.09865
|115>    H        9.09975       -12.08767         1.14480
|116>    H       12.50348       -14.28404         3.34534
|117>    H       13.38004       -12.50836         5.09255
|118>    H       13.16484       -11.39296         6.83442
|119>    H       18.79036        -8.81790         8.16990
|120>    H       16.33781       -12.08962        11.01923
|121> *
|122>
|123>                          ****END OF INPUT****

CARTESIAN COORDINATES (ANGSTROEM)
---------------------------------
  C     -4.149650   -4.179550   -2.321940
  C     -4.381280   -3.441150   -3.472810
  F     -5.644260   -3.192980   -3.838670
  C     -3.334360   -2.951280   -4.253910
  F     -3.605430   -2.239410   -5.354720
  C     -2.017350   -3.197260   -3.901150
  C     -1.788280   -3.940880   -2.760960
  C     -2.833890   -4.429970   -1.963130
  C     -2.258060   -5.138150   -0.819340
  C     -2.985350   -5.620390    0.240600
  C     -4.393350   -5.575450    0.322340
  N     -5.533550   -5.579560    0.455050
  C     -2.460050   -6.159550    1.430670
  N     -2.127160   -6.555980    2.457460
  C     -0.819950   -5.170120   -0.997020
  C     -0.485600   -4.354620   -2.186730
  O      0.602850   -4.034320   -2.609540
  C      0.062640   -5.805720   -0.160820
  C      1.453800   -5.997150   -0.321260
  C      2.144070   -6.129150   -1.505890
  C      3.463220   -6.592230   -1.235780
  O      4.262780   -6.870650   -2.276490
  C      5.425140   -7.646710   -2.100490
  C      3.626100   -6.745350    0.136020
  C      2.392900   -6.316040    0.769450
  C      2.193590   -6.019460    2.096840
  C      1.069530   -5.344560    2.676320
  C      1.246990   -5.292660    4.028060
  O      0.482670   -4.796150    4.993850
  C     -0.778490   -4.277990    4.618480
  C      2.533250   -5.915960    4.358920
  C      3.100960   -6.326320    3.217930
  C      4.848600   -7.135570    0.806140
  N      4.930550   -8.273720    1.580430
  C      6.198960   -8.365950    2.074780
  C      7.047100   -9.126900    2.872080
  C      8.283380   -8.463820    2.869300
  N      8.187720   -7.331090    2.083620
  C      6.927170   -7.252790    1.590710
  C      6.077510   -6.488200    0.786170
  C      9.465580   -8.860280    3.537000
  C     10.633080   -8.161510    3.557480
  C     11.805520   -8.541530    4.256440
  C     12.716870   -7.622540    4.745850
  C     13.637170   -8.276150    5.591170
  O     14.592220   -7.720050    6.338450
  C     14.796510   -6.326070    6.226540
  C     13.326090   -9.653380    5.648750
  C     12.257260   -9.871470    4.680420
  C     12.033750  -11.047300    4.013510
  C     11.220520  -11.267400    2.843960
  C     11.330460  -12.574710    2.489850
  O     10.773230  -13.259940    1.483810
  C      9.941030  -12.536040    0.606910
  C     12.239610  -13.247120    3.421920
  C     12.671680  -12.339580    4.308230
  C     13.837580  -10.587560    6.555170
  C     15.007040  -10.572910    7.285630
  C     15.082590  -11.383380    8.518200
  O     14.268920  -12.186980    8.921310
  C     16.350140  -10.981650    9.176760
  C     17.024190  -10.064770    8.352730
  C     18.233130   -9.527040    8.759870
  C     18.738330   -9.919400    9.991600
  C     18.066840  -10.833680   10.799710
  C     16.857690  -11.379630   10.396190
  F     18.593570  -11.188460   11.981310
  F     19.901440   -9.400210   10.409750
  C     16.248750   -9.878450    7.122510
  C     16.731680   -9.295980    5.972240
  C     16.083870   -9.369690    4.727170
  N     15.593230   -9.407740    3.688710
  C     17.943800   -8.587490    5.890820
  N     18.896810   -7.957320    5.769420
  H     -4.994800   -4.531540   -1.754000
  H     -1.203270   -2.821250   -4.500050
  H     -0.353690   -6.271590    0.722510
  H      1.763220   -5.999640   -2.498790
  H      5.729230   -7.948150   -3.102350
  H      5.225780   -8.534830   -1.495180
  H      6.227970   -7.070770   -1.633470
  H      0.260910   -4.904950    2.131510
  H     -1.275950   -3.990840    5.542410
  H     -1.367860   -5.036500    4.095700
  H     -0.661960   -3.401480    3.974610
  H      2.910620   -5.997180    5.359800
  H      4.056580   -6.796890    3.128290
  H      4.162140   -8.897560    1.759010
  H      6.831830  -10.033190    3.401600
  H      8.936950   -6.683420    1.916230
  H      6.283850   -5.560920    0.290120
  H      9.401270   -9.788140    4.086790
  H     10.671870   -7.176110    3.108550
  H     12.675210   -6.563810    4.567650
  H     15.644920   -6.095660    6.868690
  H     13.918370   -5.770800    6.567160
  H     15.033330   -6.046210    5.196650
  H     10.674630  -10.507720    2.324930
  H      9.571140  -13.252270   -0.124350
  H     10.500930  -11.745470    0.098650
  H      9.099750  -12.087670    1.144800
  H     12.503480  -14.284040    3.345340
  H     13.380040  -12.508360    5.092550
  H     13.164840  -11.392960    6.834420
  H     18.790360   -8.817900    8.169900
  H     16.337810  -12.089620   11.019230

 Total Charge           Charge          ....    0
 Multiplicity           Mult            ....    1
 Number of Electrons    NEL             ....  506
 Basis Dimension        Dim             .... 1196

ORBITAL ENERGIES
----------------

  NO   OCC          E(Eh)            E(eV)
   0   2.0000     -24.806267      -675.0128
   1   2.0000     -24.804368      -674.9612
   2   2.0000     -24.785790      -674.4556
   3   2.0000     -24.785613      -674.4508
   4   2.0000     -19.279893      -524.6326
   5   2.0000     -19.266988      -524.2814
   6   2.0000     -19.265090      -524.2297
   7   2.0000     -19.262023      -524.1463
   8   2.0000     -19.223946      -523.1102
   9   2.0000     -19.198157      -522.4084
  10   2.0000     -14.471718      -393.7955
  11   2.0000     -14.470841      -393.7716
  12   2.0000     -14.429260      -392.6401
  13   2.0000     -14.421431      -392.4271
  14   2.0000     -14.399062      -391.8184
  15   2.0000     -14.397425      -391.7739
  16   2.0000     -10.391558      -282.7687
  17   2.0000     -10.390798      -282.7480
  18   2.0000     -10.376444      -282.3574
  19   2.0000     -10.369374      -282.1650
  20   2.0000     -10.368232      -282.1339
  21   2.0000     -10.358289      -281.8634
  22   2.0000     -10.352092      -281.6947
  23   2.0000     -10.349785      -281.6320
  24   2.0000     -10.348965      -281.6096
  25   2.0000     -10.348522      -281.5976
  26   2.0000     -10.346286      -281.5367
  27   2.0000     -10.339132      -281.3421
  28   2.0000     -10.336528      -281.2712
  29   2.0000     -10.332922      -281.1731
  30   2.0000     -10.330976      -281.1202
  31   2.0000     -10.329981      -281.0931
  32   2.0000     -10.324710      -280.9496
  33   2.0000     -10.324235      -280.9367
  34   2.0000     -10.322674      -280.8943
  35   2.0000     -10.322408      -280.8870
  36   2.0000     -10.321503      -280.8624
  37   2.0000     -10.318485      -280.7803
  38   2.0000     -10.317922      -280.7649
  39   2.0000     -10.316927      -280.7379
  40   2.0000     -10.313401      -280.6419
  41   2.0000     -10.313281      -280.6386
  42   2.0000     -10.309546      -280.5370
  43   2.0000     -10.308491      -280.5083
  44   2.0000     -10.306683      -280.4591
  45   2.0000     -10.304792      -280.4077
  46   2.0000     -10.303628      -280.3760
  47   2.0000     -10.303525      -280.3732
  48   2.0000     -10.303507      -280.3727
  49   2.0000     -10.302853      -280.3549
  50   2.0000     -10.300500      -280.2909
  51   2.0000     -10.299852      -280.2732
  52   2.0000     -10.299280      -280.2577
  53   2.0000     -10.297531      -280.2101
  54   2.0000     -10.295861      -280.1646
  55   2.0000     -10.295490      -280.1545
  56   2.0000     -10.294446      -280.1261
  57   2.0000     -10.293903      -280.1113
  58   2.0000     -10.292545      -280.0744
  59   2.0000     -10.292318      -280.0682
  60   2.0000     -10.290954      -280.0311
  61   2.0000     -10.288240      -279.9573
  62   2.0000     -10.283242      -279.8213
  63   2.0000     -10.282932      -279.8128
  64   2.0000     -10.282627      -279.8045
  65   2.0000     -10.278946      -279.7043
  66   2.0000     -10.278530      -279.6930
  67   2.0000     -10.275784      -279.6183
  68   2.0000     -10.274335      -279.5789
  69   2.0000     -10.273862      -279.5660
  70   2.0000     -10.270103      -279.4637
  71   2.0000     -10.269152      -279.4378
  72   2.0000     -10.256315      -279.0885
  73   2.0000     -10.249894      -278.9138
  74   2.0000      -1.328938       -36.1622
  75   2.0000      -1.313669       -35.7468
  76   2.0000      -1.308405       -35.6035
  77   2.0000      -1.293340       -35.1936
  78   2.0000      -1.184009       -32.2185
  79   2.0000      -1.171449       -31.8767
  80   2.0000      -1.169290       -31.8180
  81   2.0000      -1.165776       -31.7224
  82   2.0000      -1.140036       -31.0220
  83   2.0000      -1.112317       -30.2677
  84   2.0000      -1.103510       -30.0280
  85   2.0000      -1.067091       -29.0370
  86   2.0000      -1.029605       -28.0170
  87   2.0000      -1.011466       -27.5234
  88   2.0000      -1.002846       -27.2888
  89   2.0000      -1.002275       -27.2733
  90   2.0000      -0.993781       -27.0422
  91   2.0000      -0.989718       -26.9316
  92   2.0000      -0.984767       -26.7969
  93   2.0000      -0.977334       -26.5946
  94   2.0000      -0.967027       -26.3141
  95   2.0000      -0.961610       -26.1667
  96   2.0000      -0.958720       -26.0881
  97   2.0000      -0.937627       -25.5141
  98   2.0000      -0.913061       -24.8457
  99   2.0000      -0.911874       -24.8134
 100   2.0000      -0.897671       -24.4269
 101   2.0000      -0.887624       -24.1535
 102   2.0000      -0.882999       -24.0276
 103   2.0000      -0.879724       -23.9385
 104   2.0000      -0.877293       -23.8724
 105   2.0000      -0.869115       -23.6498
 106   2.0000      -0.861965       -23.4553
 107   2.0000      -0.857150       -23.3242
 108   2.0000      -0.854784       -23.2599
 109   2.0000      -0.842479       -22.9250
 110   2.0000      -0.831949       -22.6385
 111   2.0000      -0.826876       -22.5004
 112   2.0000      -0.814852       -22.1732
 113   2.0000      -0.812342       -22.1050
 114   2.0000      -0.808464       -21.9994
 115   2.0000      -0.800802       -21.7909
 116   2.0000      -0.793339       -21.5878
 117   2.0000      -0.786779       -21.4093
 118   2.0000      -0.780813       -21.2470
 119   2.0000      -0.779181       -21.2026
 120   2.0000      -0.756336       -20.5809
 121   2.0000      -0.751368       -20.4458
 122   2.0000      -0.742579       -20.2066
 123   2.0000      -0.736335       -20.0367
 124   2.0000      -0.720932       -19.6176
 125   2.0000      -0.715790       -19.4776
 126   2.0000      -0.711485       -19.3605
 127   2.0000      -0.707666       -19.2566
 128   2.0000      -0.704985       -19.1836
 129   2.0000      -0.699912       -19.0456
 130   2.0000      -0.692002       -18.8303
 131   2.0000      -0.685053       -18.6412
 132   2.0000      -0.672713       -18.3055
 133   2.0000      -0.670565       -18.2470
 134   2.0000      -0.669108       -18.2073
 135   2.0000      -0.666084       -18.1251
 136   2.0000      -0.663610       -18.0577
 137   2.0000      -0.653019       -17.7696
 138   2.0000      -0.651725       -17.7343
 139   2.0000      -0.649595       -17.6764
 140   2.0000      -0.646502       -17.5922
 141   2.0000      -0.640306       -17.4236
 142   2.0000      -0.638619       -17.3777
 143   2.0000      -0.634203       -17.2576
 144   2.0000      -0.629303       -17.1242
 145   2.0000      -0.623871       -16.9764
 146   2.0000      -0.620013       -16.8714
 147   2.0000      -0.617727       -16.8092
 148   2.0000      -0.616443       -16.7743
 149   2.0000      -0.603372       -16.4186
 150   2.0000      -0.601882       -16.3781
 151   2.0000      -0.600536       -16.3414
 152   2.0000      -0.599772       -16.3206
 153   2.0000      -0.594278       -16.1711
 154   2.0000      -0.593337       -16.1455
 155   2.0000      -0.589537       -16.0421
 156   2.0000      -0.579883       -15.7794
 157   2.0000      -0.578436       -15.7400
 158   2.0000      -0.574293       -15.6273
 159   2.0000      -0.573578       -15.6079
 160   2.0000      -0.570782       -15.5318
 161   2.0000      -0.564497       -15.3608
 162   2.0000      -0.563257       -15.3270
 163   2.0000      -0.563118       -15.3232
 164   2.0000      -0.559101       -15.2139
 165   2.0000      -0.557522       -15.1709
 166   2.0000      -0.555663       -15.1204
 167   2.0000      -0.553876       -15.0717
 168   2.0000      -0.553678       -15.0663
 169   2.0000      -0.549198       -14.9444
 170   2.0000      -0.545649       -14.8479
 171   2.0000      -0.543771       -14.7968
 172   2.0000      -0.541649       -14.7390
 173   2.0000      -0.539907       -14.6916
 174   2.0000      -0.538427       -14.6513
 175   2.0000      -0.536048       -14.5866
 176   2.0000      -0.534827       -14.5534
 177   2.0000      -0.534354       -14.5405
 178   2.0000      -0.530353       -14.4316
 179   2.0000      -0.529273       -14.4023
 180   2.0000      -0.528387       -14.3781
 181   2.0000      -0.523424       -14.2431
 182   2.0000      -0.517196       -14.0736
 183   2.0000      -0.512054       -13.9337
 184   2.0000      -0.510993       -13.9048
 185   2.0000      -0.510473       -13.8907
 186   2.0000      -0.505173       -13.7465
 187   2.0000      -0.504330       -13.7235
 188   2.0000      -0.501897       -13.6573
 189   2.0000      -0.500065       -13.6075
 190   2.0000      -0.495735       -13.4896
 191   2.0000      -0.494761       -13.4631
 192   2.0000      -0.493027       -13.4160
 193   2.0000      -0.490487       -13.3468
 194   2.0000      -0.488165       -13.2836
 195   2.0000      -0.485363       -13.2074
 196   2.0000      -0.482750       -13.1363
 197   2.0000      -0.479279       -13.0418
 198   2.0000      -0.478668       -13.0252
 199   2.0000      -0.477449       -12.9920
 200   2.0000      -0.476784       -12.9739
 201   2.0000      -0.469727       -12.7819
 202   2.0000      -0.469104       -12.7650
 203   2.0000      -0.468549       -12.7499
 204   2.0000      -0.465424       -12.6648
 205   2.0000      -0.463554       -12.6140
 206   2.0000      -0.462998       -12.5988
 207   2.0000      -0.461916       -12.5694
 208   2.0000      -0.458607       -12.4793
 209   2.0000      -0.457944       -12.4613
 210   2.0000      -0.456456       -12.4208
 211   2.0000      -0.451938       -12.2979
 212   2.0000      -0.451670       -12.2906
 213   2.0000      -0.442634       -12.0447
 214   2.0000      -0.442407       -12.0385
 215   2.0000      -0.438883       -11.9426
 216   2.0000      -0.437791       -11.9129
 217   2.0000      -0.436881       -11.8881
 218   2.0000      -0.435108       -11.8399
 219   2.0000      -0.434492       -11.8231
 220   2.0000      -0.429001       -11.6737
 221   2.0000      -0.426663       -11.6101
 222   2.0000      -0.425338       -11.5740
 223   2.0000      -0.424223       -11.5437
 224   2.0000      -0.423738       -11.5305
 225   2.0000      -0.417540       -11.3618
 226   2.0000      -0.413846       -11.2613
 227   2.0000      -0.412692       -11.2299
 228   2.0000      -0.411641       -11.2013
 229   2.0000      -0.410935       -11.1821
 230   2.0000      -0.405937       -11.0461
 231   2.0000      -0.401518       -10.9258
 232   2.0000      -0.398262       -10.8372
 233   2.0000      -0.393456       -10.7065
 234   2.0000      -0.388719       -10.5776
 235   2.0000      -0.378035       -10.2869
 236   2.0000      -0.360989        -9.8230
 237   2.0000      -0.355748        -9.6804
 238   2.0000      -0.351209        -9.5569
 239   2.0000      -0.345068        -9.3898
 240   2.0000      -0.338593        -9.2136
 241   2.0000      -0.331498        -9.0205
 242   2.0000      -0.321761        -8.7556
 243   2.0000      -0.320925        -8.7328
 244   2.0000      -0.310929        -8.4608
 245   2.0000      -0.309117        -8.4115
 246   2.0000      -0.304619        -8.2891
 247   2.0000      -0.293463        -7.9855
 248   2.0000      -0.290986        -7.9181
 249   2.0000      -0.277078        -7.5397
 250   2.0000      -0.271085        -7.3766
 251   2.0000      -0.264271        -7.1912
 252   2.0000      -0.231368        -6.2958
 253   0.0000      -0.107563        -2.9269
 254   0.0000      -0.088588        -2.4106
 255   0.0000      -0.077818        -2.1175
 256   0.0000      -0.058739        -1.5984
 257   0.0000      -0.056663        -1.5419

MULLIKEN ATOMIC CHARGES
-----------------------
   0 C :   -0.086519
   1 C :    0.235195
   2 F :   -0.165186
   3 C :    0.236188
   4 F :   -0.167905
   5 C :   -0.104476
   6 C :   -0.008740
   7 C :    0.042447
   8 C :    0.307527
   9 C :   -0.363155
  10 C :   -0.193053
  11 N :    0.154659
  12 C :   -0.161391
  13 N :    0.139318
  14 C :   -0.086227
  15 C :    0.130367
  16 O :   -0.140968
  17 C :   -0.041264
  18 C :    0.042714
  19 C :   -0.006913
  20 C :    0.149555
  21 O :   -0.282454
  22 C :    0.202885
  23 C :   -0.038391
  24 C :    0.103459
  25 C :    0.017364
  26 C :   -0.178065
  27 C :    0.223750
  28 O :   -0.266317
  29 C :    0.167277
  30 C :    0.007468
  31 C :    0.015497
  32 C :   -0.051949
  33 N :   -0.044810
  34 C :    0.120498
  35 C :   -0.163900
  36 C :    0.055257
  37 N :   -0.029303
  38 C :    0.106240
  39 C :   -0.138703
  40 C :    0.050778
  41 C :   -0.046029
  42 C :    0.095152
  43 C :   -0.129565
  44 C :    0.202370
  45 O :   -0.271080
  46 C :    0.171759
  47 C :   -0.019127
  48 C :    0.066817
  49 C :    0.046209
  50 C :   -0.184281
  51 C :    0.212435
  52 O :   -0.277812
  53 C :    0.180529
  54 C :    0.013728
  55 C :    0.022090
  56 C :   -0.015242
  57 C :   -0.149347
  58 C :    0.129386
  59 O :   -0.156780
  60 C :    0.007790
  61 C :    0.033781
  62 C :   -0.106830
  63 C :    0.234770
  64 C :    0.227284
  65 C :   -0.111007
  66 F :   -0.176964
  67 F :   -0.172886
  68 C :    0.317860
  69 C :   -0.354752
  70 C :   -0.219332
  71 N :    0.156596
  72 C :   -0.197605
  73 N :    0.135191
  74 H :    0.016894
  75 H :    0.012021
  76 H :    0.033450
  77 H :   -0.003831
  78 H :    0.034221
  79 H :    0.025358
  80 H :    0.026841
  81 H :   -0.030628
  82 H :    0.038935
  83 H :    0.043636
  84 H :    0.024650
  85 H :   -0.012779
  86 H :   -0.018029
  87 H :    0.125036
  88 H :   -0.028260
  89 H :    0.126406
  90 H :   -0.029382
  91 H :    0.012812
  92 H :   -0.043570
  93 H :   -0.031623
  94 H :    0.055858
  95 H :    0.034431
  96 H :    0.044284
  97 H :   -0.016609
  98 H :    0.038835
  99 H :    0.029637
 100 H :    0.022083
 101 H :   -0.013154
 102 H :   -0.007845
 103 H :    0.022183
 104 H :    0.009089
 105 H :    0.005190
Sum of atomic charges:   -0.0000000

LOEWDIN ATOMIC CHARGES
----------------------
   0 C :   -0.018016
   1 C :    0.073446
   2 F :   -0.043794
   3 C :    0.071835
   4 F :   -0.044984
   5 C :   -0.006419
   6 C :   -0.043665
   7 C :   -0.016968
   8 C :    0.080722
   9 C :   -0.148645
  10 C :   -0.021446
  11 N :   -0.051484
  12 C :   -0.012170
  13 N :   -0.053441
  14 C :   -0.109293
  15 C :    0.081385
  16 O :   -0.135316
  17 C :    0.079307
  18 C :   -0.048916
  19 C :    0.046795
  20 C :    0.049289
  21 O :   -0.082423
  22 C :    0.082114
  23 C :   -0.093888
  24 C :   -0.001991
  25 C :    0.041437
  26 C :   -0.144460
  27 C :    0.077869
  28 O :   -0.061173
  29 C :    0.080292
  30 C :   -0.010334
  31 C :   -0.022034
  32 C :    0.000981
  33 N :    0.072301
  34 C :   -0.039596
  35 C :   -0.074679
  36 C :   -0.016492
  37 N :    0.071324
  38 C :   -0.016564
  39 C :   -0.098126
  40 C :    0.005160
  41 C :   -0.060915
  42 C :    0.035701
  43 C :   -0.075857
  44 C :    0.098518
  45 O :   -0.039988
  46 C :    0.085708
  47 C :   -0.090540
  48 C :    0.004316
  49 C :    0.044698
  50 C :   -0.143424
  51 C :    0.063525
  52 O :   -0.075235
  53 C :    0.081830
  54 C :   -0.009794
  55 C :   -0.013015
  56 C :    0.059410
  57 C :   -0.123922
  58 C :    0.080692
  59 O :   -0.156870
  60 C :   -0.048525
  61 C :   -0.009413
  62 C :   -0.028414
  63 C :    0.069412
  64 C :    0.062022
  65 C :   -0.009675
  66 F :   -0.053903
  67 F :   -0.051208
  68 C :    0.065006
  69 C :   -0.158748
  70 C :   -0.018030
  71 N :   -0.068264
  72 C :   -0.024218
  73 N :   -0.074786
  74 H :    0.051510
  75 H :    0.051917
  76 H :    0.045943
  77 H :    0.034034
  78 H :    0.026806
  79 H :    0.018251
  80 H :    0.018645
  81 H :    0.018343
  82 H :    0.029458
  83 H :    0.022940
  84 H :    0.018479
  85 H :    0.031250
  86 H :    0.026927
  87 H :    0.090376
  88 H :    0.028144
  89 H :    0.088054
  90 H :    0.026624
  91 H :    0.043301
  92 H :    0.020600
  93 H :    0.023550
  94 H :    0.036106
  95 H :    0.021835
  96 H :    0.026117
  97 H :    0.020750
  98 H :    0.028753
  99 H :    0.020074
 100 H :    0.016601
 101 H :    0.031081
 102 H :    0.030539
 103 H :    0.041600
 104 H :    0.048251
 105 H :    0.049107

  Mayer bond orders larger than 0.100000
B(  0-C ,  1-C ) :   1.3390 B(  0-C ,  5-C ) :   0.1054 B(  0-C ,  7-C ) :   1.3084
B(  0-C , 74-H ) :   0.9913 B(  1-C ,  2-F ) :   1.1453 B(  1-C ,  3-C ) :   1.2900
B(  3-C ,  4-F ) :   1.1327 B(  3-C ,  5-C ) :   1.3146 B(  5-C ,  6-C ) :   1.3240
B(  5-C , 75-H ) :   1.0196 B(  6-C ,  7-C ) :   1.3382 B(  6-C , 15-C ) :   0.9418
B(  7-C ,  8-C ) :   1.0055 B(  8-C ,  9-C ) :   1.6130 B(  8-C , 14-C ) :   1.0808
B(  9-C , 10-C ) :   1.1370 B(  9-C , 12-C ) :   1.1633 B( 10-C , 11-N ) :   2.9795
B( 12-C , 13-N ) :   2.8720 B( 14-C , 15-C ) :   0.9403 B( 14-C , 17-C ) :   1.5563
B( 15-C , 16-O ) :   2.2357 B( 17-C , 18-C ) :   1.1565 B( 17-C , 76-H ) :   0.9337
B( 18-C , 19-C ) :   1.4899 B( 18-C , 24-C ) :   1.0211 B( 19-C , 20-C ) :   1.1375
B( 19-C , 77-H ) :   1.0155 B( 20-C , 21-O ) :   1.2264 B( 20-C , 23-C ) :   1.4917
B( 21-O , 22-C ) :   0.9394 B( 22-C , 78-H ) :   0.9755 B( 22-C , 79-H ) :   0.9622
B( 22-C , 80-H ) :   0.9672 B( 23-C , 24-C ) :   1.1294 B( 23-C , 32-C ) :   0.8985
B( 24-C , 25-C ) :   1.5374 B( 25-C , 26-C ) :   1.1068 B( 25-C , 31-C ) :   1.0339
B( 26-C , 27-C ) :   1.5179 B( 26-C , 81-H ) :   1.0074 B( 27-C , 28-O ) :   1.2351
B( 27-C , 30-C ) :   1.0582 B( 28-O , 29-C ) :   0.9289 B( 29-C , 82-H ) :   0.9772
B( 29-C , 83-H ) :   0.9612 B( 29-C , 84-H ) :   0.9675 B( 30-C , 31-C ) :   1.7007
B( 30-C , 85-H ) :   1.0157 B( 31-C , 86-H ) :   1.0072 B( 32-C , 33-N ) :   1.2150
B( 32-C , 39-C ) :   1.4954 B( 33-N , 34-C ) :   1.1224 B( 33-N , 87-H ) :   0.9382
B( 34-C , 35-C ) :   1.2489 B( 34-C , 38-C ) :   1.3331 B( 35-C , 36-C ) :   1.3447
B( 35-C , 88-H ) :   1.0438 B( 36-C , 37-N ) :   1.1921 B( 36-C , 40-C ) :   1.1823
B( 37-N , 38-C ) :   1.1790 B( 37-N , 89-H ) :   0.9301 B( 38-C , 39-C ) :   1.2104
B( 39-C , 90-H ) :   1.0411 B( 40-C , 41-C ) :   1.5608 B( 40-C , 91-H ) :   0.9601
B( 41-C , 42-C ) :   1.1843 B( 41-C , 92-H ) :   0.9582 B( 42-C , 43-C ) :   1.4539
B( 42-C , 48-C ) :   1.0397 B( 43-C , 44-C ) :   1.1469 B( 43-C , 93-H ) :   1.0197
B( 44-C , 45-O ) :   1.2238 B( 44-C , 47-C ) :   1.3521 B( 45-O , 46-C ) :   0.9277
B( 46-C , 94-H ) :   0.9784 B( 46-C , 95-H ) :   0.9728 B( 46-C , 96-H ) :   0.9703
B( 47-C , 48-C ) :   1.0565 B( 47-C , 56-C ) :   1.2473 B( 48-C , 49-C ) :   1.5863
B( 49-C , 50-C ) :   1.0825 B( 49-C , 55-C ) :   1.0514 B( 50-C , 51-C ) :   1.5461
B( 50-C , 97-H ) :   1.0073 B( 51-C , 52-O ) :   1.1956 B( 51-C , 54-C ) :   1.0668
B( 52-O , 53-C ) :   0.9554 B( 53-C , 98-H ) :   0.9801 B( 53-C , 99-H ) :   0.9703
B( 53-C ,100-H ) :   0.9668 B( 54-C , 55-C ) :   1.7012 B( 54-C ,101-H ) :   1.0137
B( 55-C ,102-H ) :   0.9978 B( 56-C , 57-C ) :   1.4840 B( 56-C ,103-H ) :   0.9318
B( 57-C , 58-C ) :   0.9697 B( 57-C , 68-C ) :   1.1303 B( 58-C , 59-O ) :   2.2501
B( 58-C , 60-C ) :   0.9242 B( 60-C , 61-C ) :   1.3453 B( 60-C , 65-C ) :   1.3294
B( 61-C , 62-C ) :   1.3263 B( 61-C , 68-C ) :   1.0047 B( 62-C , 63-C ) :   1.3213
B( 62-C , 65-C ) :   0.1060 B( 62-C ,104-H ) :   0.9943 B( 63-C , 64-C ) :   1.3063
B( 63-C , 67-F ) :   1.1364 B( 64-C , 65-C ) :   1.3096 B( 64-C , 66-F ) :   1.1228
B( 65-C ,105-H ) :   1.0204 B( 68-C , 69-C ) :   1.5715 B( 69-C , 70-C ) :   1.1830
B( 69-C , 72-C ) :   1.1453 B( 70-C , 71-N ) :   2.9997 B( 72-C , 73-N ) :   2.9753

-----------------------------------------------------------------------------
         ABSORPTION SPECTRUM VIA TRANSITION ELECTRIC DIPOLE MOMENTS
-----------------------------------------------------------------------------
State   Energy  Wavelength   fosc         T2         TX        TY        TZ
        (cm-1)    (nm)                  (au**2)     (au)      (au)      (au)
-----------------------------------------------------------------------------
   0   12821.5    779.9   0.871290323  22.37166   4.12965  -1.47394   1.77346
   1   14566.6    686.5   0.032143978   0.72647  -0.57796   0.60250  -0.17151
   2   16356.2    611.4   0.120044963   2.41622   0.62135   0.04346   1.42417
   3   20043.8    498.9   0.192492957   3.16162  -1.37601  -0.63250  -0.93175
   4   20527.6    487.1   0.689045565  11.05057  -3.08789   0.29801  -1.19444
   5   20772.8    481.4   0.021552106   0.34156  -0.35716   0.37583   0.26972
   6   21882.8    457.0   0.096459176   1.45116   1.16693  -0.24367  -0.17337
   7   23261.4    429.9   0.055294074   0.78256  -0.79979   0.19867  -0.32159
   8   23882.6    418.7   0.021188591   0.29208   0.23084  -0.09020   0.48027
   9   24696.8    404.9   0.200021249   2.66631   1.01203  -0.53963   1.16229
  10   25178.0    397.2   0.158505080   2.07252   1.08300  -0.36450   0.87566
  11   25489.0    392.3   0.025275018   0.32645  -0.39442   0.28212  -0.30214
  12   26331.3    379.8   0.016106590   0.20138   0.00489  -0.05808   0.44495
  13   26768.3    373.6   0.146719210   1.80444   0.98830  -0.16811  -0.89411
  14   26946.2    371.1   0.098460003   1.20292   0.61953   0.81937   0.38438
  15   27200.5    367.6   0.075232524   0.91055   0.65441   0.00359   0.69447
  16   28116.2    355.7   0.035331704   0.41370  -0.09553  -0.51481  -0.37355
  17   28312.3    353.2   0.003653095   0.04248   0.11015  -0.14992   0.08870
  18   28595.7    349.7   0.042615389   0.49061  -0.44281   0.39537   0.37178
  19   28746.8    347.9   0.027030212   0.30955  -0.15597  -0.32375   0.42475
  20   29165.8    342.9   0.171294673   1.93350  -0.65199  -0.04073   1.22750
  21   29643.9    337.3   0.147840894   1.64185  -0.51703   1.11344   0.36713
  22   29979.4    333.6   0.002908965   0.03194   0.16421   0.05401   0.04540
  23   30970.8    322.9   0.009920238   0.10545   0.15473   0.10126  -0.26693
  24   31248.0    320.0   0.039584714   0.41704   0.60335  -0.22414  -0.05266
  25   31355.8    318.9   0.043409501   0.45577  -0.65587  -0.14431  -0.06910
  26   31470.4    317.8   0.228160997   2.38680  -1.38059   0.52734  -0.45019
  27   32349.9    309.1   0.208851161   2.12539  -0.69693  -0.15339  -1.27128
  28   32450.6    308.2   0.119589422   1.21324   0.62511   0.52304   0.74088
  29   33030.1    302.8   0.025100249   0.25017   0.26127  -0.12037   0.40918
  30   33064.3    302.4   0.016729390   0.16657   0.00537  -0.35562   0.20018
  31   33309.1    300.2   0.066313318   0.65541   0.54735   0.46161  -0.37780
  32   33515.6    298.4   0.271856399   2.67035  -0.76088  -0.01224  -1.44612
  33   33879.8    295.2   0.032172499   0.31262   0.02244   0.24524  -0.50197
  34   34256.4    291.9   0.122177203   1.17415   0.55440  -0.92681   0.08839
  35   34347.2    291.1   0.068920486   0.66059   0.15958  -0.37168  -0.70497
  36   34906.9    286.5   0.109243649   1.03029   0.06469   0.01450   1.01287
  37   35706.0    280.1   0.015542293   0.14330   0.08023   0.30981   0.20219
  38   35849.6    278.9   0.041279236   0.37907   0.25356   0.00606   0.56102
  39   35996.8    277.8   0.060339194   0.55184  -0.04433   0.35154  -0.65291
  40   36115.5    276.9   0.448969369   4.09260   0.22892   0.80972  -1.83971
  41   36317.6    275.3   0.380743599   3.45136  -0.32009  -0.35360   1.79552
  42   36356.9    275.1   0.055440131   0.50201   0.27302  -0.03721  -0.65275
  43   36870.6    271.2   0.314843691   2.81119   0.93906   0.67680  -1.21297
  44   37121.2    269.4   0.046455870   0.41200  -0.12476  -0.59435  -0.20781
  45   37371.7    267.6   0.047654961   0.41980  -0.07048   0.63713  -0.09434
  46   37466.8    266.9   0.060091271   0.52801   0.72069   0.01458  -0.09168
  47   37541.6    266.4   0.024843432   0.21786  -0.20841  -0.41395  -0.05538
  48   37679.8    265.4   0.039739114   0.34720  -0.24208  -0.41094  -0.34602
  49   37916.9    263.7   0.098524626   0.85544  -0.43293  -0.77946   0.24587
  50   38129.3    262.3   0.081286144   0.70183   0.46237   0.67107   0.19418
  51   38235.2    261.5   0.161794154   1.39308  -0.12468   0.31544   1.13050
  52   38647.7    258.7   0.004329985   0.03688   0.02082  -0.18901   0.02691
  53   38995.2    256.4   0.064300696   0.54285  -0.24895   0.63824  -0.27115
  54   39119.7    255.6   0.002704362   0.02276  -0.03144   0.01691  -0.14657
  55   39890.8    250.7   0.021871820   0.18050   0.34033  -0.17931   0.18035
  56   40117.5    249.3   0.071059126   0.58313  -0.72704   0.06961  -0.22291
  57   40242.2    248.5   0.032051776   0.26221   0.09576  -0.05385  -0.50014

FINAL SINGLE POINT ENERGY     -3404.181941679623

DIPOLE MOMENT
-------------
                                X             Y             Z
Electronic contribution:     -4.58313      11.14257       5.60961
Nuclear contribution   :      2.34067     -10.04409      -7.49642
                        -----------------------------------------
Total Dipole Moment    :     -2.24246       1.09849      -1.88680
                        -----------------------------------------
Magnitude (a.u.)       :      3.12975
Magnitude (Debye)      :      7.95519

Rotational constants in cm-1:     0.002532     0.000212     0.000207
Rotational constants in MHz :    75.911678     6.346554     6.196463

                             ****ORCA TERMINATED NORMALLY****
TOTAL RUN TIME: 0 days 0 hours 11 minutes 31 seconds 649 msec
