                         Program Version 4.2.0 -  RELEASE  -
|  1> # ORCA input file
|  2> # SCF done       -203.237914191943          0.000245640937
|  3> ! CAM-B3LYP def2-SVP def2/J RIJCOSX Grid4 TightSCF
|  4> %maxcore 5000
|  5> %tddft
|  6>     Mode sTDDFT
|  7>     Ethresh 5.0
|  8>     maxcore 5000
|  9> end
| 10>
| 11> %pal
| 12>   nprocs 6
| 13>   end
| 14> * xyz 0 1
| 15>    C        9.54726         4.10940         5.09513
| 16>    C       10.55606         4.67666         5.85871
| 17>    F       10.52102         4.53250         7.18757
| 18>    C       11.60475         5.38906         5.27457
| 19>    F       12.55303         5.92447         6.05158
| 20>    C       11.67477         5.54399         3.89955
| 21>    C       10.67652         4.97033         3.13664
| 22>    C        9.61099         4.25985         3.71849
| 23>    C        8.69464         3.83164         2.66111
| 24>    C        7.39381         3.44598         2.84596
| 25>    C        6.84312         3.11856         4.10171
| 26>    N        6.37016         2.79067         5.09463
| 27>    C        6.42085         3.43503         1.82547
| 28>    N        5.55921         3.51366         1.07182
| 29>    C        9.34533         4.10955         1.39544
| 30>    C       10.53140         4.96438         1.66264
| 31>    O       11.24683         5.49513         0.84676
| 32>    C        9.12790         3.63585         0.14200
| 33>    C        8.20477         2.63227        -0.29888
| 34>    C        7.50089         2.84963        -1.45870
| 35>    S        6.20148         1.77526        -1.70681
| 36>    C        6.62622         0.90908        -0.26131
| 37>    C        7.76034         1.43469         0.37614
| 38>    C        8.30841         0.74501         1.48063
| 39>    C        9.69578         1.06026         1.96157
| 40>    C        7.61271        -0.31467         2.05357
| 41>    C        8.08361        -0.90538         3.34458
| 42>    C        6.44837        -0.81593         1.43238
| 43>    C        5.97056        -0.19005         0.26668
| 44>    S        4.51395        -0.90323        -0.34507
| 45>    C        4.54063        -2.05064         0.92738
| 46>    C        5.60227        -1.93312         1.77895
| 47>    C        5.79652        -2.94676         2.78650
| 48>    S        4.35951        -3.64629         3.58427
| 49>    C        5.41410        -4.76323         4.34538
| 50>    C        6.73122        -4.53011         3.95541
| 51>    N        6.91381        -3.52549         3.09549
| 52>    C        7.66033        -5.51690         4.58901
| 53>    C        6.69283        -6.36033         5.36777
| 54>    C        5.39293        -5.88079         5.21494
| 55>    S        4.24625        -6.81385         6.08089
| 56>    C        5.51754        -7.88686         6.63648
| 57>    C        6.75886        -7.49664         6.16992
| 58>    C        5.15085        -9.01000         7.43715
| 59>    C        5.97774       -10.01630         7.77660
| 60>    C        5.56004       -11.19708         8.50018
| 61>    C        4.29962       -11.70438         8.36930
| 62>    S        4.04563       -13.21680         9.14430
| 63>    C        5.69145       -13.21139         9.69244
| 64>    C        6.39537       -12.05663         9.30860
| 65>    C        7.73213       -11.89775         9.73431
| 66>    C        8.44611       -10.59602         9.51276
| 67>    C        8.38299       -12.92801        10.40563
| 68>    C        9.86135       -12.83761        10.64821
| 69>    C        7.65962       -14.07016        10.81233
| 70>    C        6.31433       -14.19608        10.43949
| 71>    S        5.60213       -15.68905        10.98573
| 72>    C        7.07950       -16.15521        11.69028
| 73>    C        8.08630       -15.22746        11.57318
| 74>    C        9.32306       -15.32411        12.28039
| 75>    C       10.04288       -16.43709        12.59978
| 76>    C        9.82292       -17.80974        12.08461
| 77>    O        8.94702       -18.21098        11.35134
| 78>    C       10.93898       -18.61728        12.62654
| 79>    C       11.77029       -17.80987        13.41936
| 80>    C       12.87855       -18.36537        14.04202
| 81>    C       13.12411       -19.71647        13.85135
| 82>    C       12.29360       -20.50928        13.05740
| 83>    C       11.18548       -19.96220        12.43211
| 84>    F       12.57090       -21.80852        12.90085
| 85>    F       14.18696       -20.27059        14.44400
| 86>    C       11.25318       -16.44241        13.40662
| 87>    C       11.83444       -15.37667        14.04181
| 88>    C       11.38401       -14.04021        14.00136
| 89>    N       11.10194       -12.92626        14.00596
| 90>    C       13.00707       -15.46437        14.82394
| 91>    N       13.95276       -15.46472        15.47378
| 92>    H        8.75699         3.56902         5.59072
| 93>    H       12.48314         6.09504         3.44608
| 94>    H        9.71345         4.11736        -0.63571
| 95>    H        7.63349         3.67702        -2.12938
| 96>    H       10.23995         1.62641         1.21081
| 97>    H       10.23144         0.12927         2.13772
| 98>    H        9.70532         1.62829         2.89226
| 99>    H        8.73400        -0.22067         3.87948
|100>    H        8.61134        -1.84200         3.17316
|101>    H        7.22781        -1.12389         3.97789
|102>    H        3.77440        -2.80111         0.96458
|103>    H        8.39112        -5.02716         5.23562
|104>    H        8.20878        -6.09452         3.84302
|105>    H        7.66770        -8.01707         6.41040
|106>    H        4.12196        -9.02667         7.77000
|107>    H        7.00114        -9.99614         7.43777
|108>    H        3.49623       -11.28741         7.79454
|109>    H        9.01691       -10.60585         8.58332
|110>    H        9.13445       -10.40049        10.33085
|111>    H        7.73071        -9.77930         9.47511
|112>    H       10.33653       -12.23738         9.87719
|113>    H       10.30506       -13.83071        10.61333
|114>    H       10.09058       -12.38812        11.61557
|115>    H        7.12049       -17.07718        12.23464
|116>    H        9.70484       -14.37728        12.63103
|117>    H       13.55307       -17.79892        14.66251
|118>    H       10.53967       -20.56858        11.81716
|119> *
|120>
|121>                          ****END OF INPUT****

CARTESIAN COORDINATES (ANGSTROEM)
---------------------------------
  C      9.547260    4.109400    5.095130
  C     10.556060    4.676660    5.858710
  F     10.521020    4.532500    7.187570
  C     11.604750    5.389060    5.274570
  F     12.553030    5.924470    6.051580
  C     11.674770    5.543990    3.899550
  C     10.676520    4.970330    3.136640
  C      9.610990    4.259850    3.718490
  C      8.694640    3.831640    2.661110
  C      7.393810    3.445980    2.845960
  C      6.843120    3.118560    4.101710
  N      6.370160    2.790670    5.094630
  C      6.420850    3.435030    1.825470
  N      5.559210    3.513660    1.071820
  C      9.345330    4.109550    1.395440
  C     10.531400    4.964380    1.662640
  O     11.246830    5.495130    0.846760
  C      9.127900    3.635850    0.142000
  C      8.204770    2.632270   -0.298880
  C      7.500890    2.849630   -1.458700
  S      6.201480    1.775260   -1.706810
  C      6.626220    0.909080   -0.261310
  C      7.760340    1.434690    0.376140
  C      8.308410    0.745010    1.480630
  C      9.695780    1.060260    1.961570
  C      7.612710   -0.314670    2.053570
  C      8.083610   -0.905380    3.344580
  C      6.448370   -0.815930    1.432380
  C      5.970560   -0.190050    0.266680
  S      4.513950   -0.903230   -0.345070
  C      4.540630   -2.050640    0.927380
  C      5.602270   -1.933120    1.778950
  C      5.796520   -2.946760    2.786500
  S      4.359510   -3.646290    3.584270
  C      5.414100   -4.763230    4.345380
  C      6.731220   -4.530110    3.955410
  N      6.913810   -3.525490    3.095490
  C      7.660330   -5.516900    4.589010
  C      6.692830   -6.360330    5.367770
  C      5.392930   -5.880790    5.214940
  S      4.246250   -6.813850    6.080890
  C      5.517540   -7.886860    6.636480
  C      6.758860   -7.496640    6.169920
  C      5.150850   -9.010000    7.437150
  C      5.977740  -10.016300    7.776600
  C      5.560040  -11.197080    8.500180
  C      4.299620  -11.704380    8.369300
  S      4.045630  -13.216800    9.144300
  C      5.691450  -13.211390    9.692440
  C      6.395370  -12.056630    9.308600
  C      7.732130  -11.897750    9.734310
  C      8.446110  -10.596020    9.512760
  C      8.382990  -12.928010   10.405630
  C      9.861350  -12.837610   10.648210
  C      7.659620  -14.070160   10.812330
  C      6.314330  -14.196080   10.439490
  S      5.602130  -15.689050   10.985730
  C      7.079500  -16.155210   11.690280
  C      8.086300  -15.227460   11.573180
  C      9.323060  -15.324110   12.280390
  C     10.042880  -16.437090   12.599780
  C      9.822920  -17.809740   12.084610
  O      8.947020  -18.210980   11.351340
  C     10.938980  -18.617280   12.626540
  C     11.770290  -17.809870   13.419360
  C     12.878550  -18.365370   14.042020
  C     13.124110  -19.716470   13.851350
  C     12.293600  -20.509280   13.057400
  C     11.185480  -19.962200   12.432110
  F     12.570900  -21.808520   12.900850
  F     14.186960  -20.270590   14.444000
  C     11.253180  -16.442410   13.406620
  C     11.834440  -15.376670   14.041810
  C     11.384010  -14.040210   14.001360
  N     11.101940  -12.926260   14.005960
  C     13.007070  -15.464370   14.823940
  N     13.952760  -15.464720   15.473780
  H      8.756990    3.569020    5.590720
  H     12.483140    6.095040    3.446080
  H      9.713450    4.117360   -0.635710
  H      7.633490    3.677020   -2.129380
  H     10.239950    1.626410    1.210810
  H     10.231440    0.129270    2.137720
  H      9.705320    1.628290    2.892260
  H      8.734000   -0.220670    3.879480
  H      8.611340   -1.842000    3.173160
  H      7.227810   -1.123890    3.977890
  H      3.774400   -2.801110    0.964580
  H      8.391120   -5.027160    5.235620
  H      8.208780   -6.094520    3.843020
  H      7.667700   -8.017070    6.410400
  H      4.121960   -9.026670    7.770000
  H      7.001140   -9.996140    7.437770
  H      3.496230  -11.287410    7.794540
  H      9.016910  -10.605850    8.583320
  H      9.134450  -10.400490   10.330850
  H      7.730710   -9.779300    9.475110
  H     10.336530  -12.237380    9.877190
  H     10.305060  -13.830710   10.613330
  H     10.090580  -12.388120   11.615570
  H      7.120490  -17.077180   12.234640
  H      9.704840  -14.377280   12.631030
  H     13.553070  -17.798920   14.662510
  H     10.539670  -20.568580   11.817160

 Total Charge           Charge          ....    0
 Multiplicity           Mult            ....    1
 Number of Electrons    NEL             ....  570
 Basis Dimension        Dim             .... 1237

ORBITAL ENERGIES
----------------

  NO   OCC          E(Eh)            E(eV)
   0   2.0000     -88.970875     -2421.0206
   1   2.0000     -88.968475     -2420.9553
   2   2.0000     -88.966346     -2420.8973
   3   2.0000     -88.961453     -2420.7642
   4   2.0000     -88.961185     -2420.7569
   5   2.0000     -88.956609     -2420.6324
   6   2.0000     -24.806868      -675.0292
   7   2.0000     -24.805192      -674.9836
   8   2.0000     -24.803946      -674.9497
   9   2.0000     -24.803815      -674.9461
  10   2.0000     -19.226329      -523.1750
  11   2.0000     -19.222123      -523.0606
  12   2.0000     -14.427460      -392.5911
  13   2.0000     -14.422231      -392.4489
  14   2.0000     -14.420549      -392.4031
  15   2.0000     -14.412916      -392.1954
  16   2.0000     -14.411524      -392.1575
  17   2.0000     -10.392415      -282.7920
  18   2.0000     -10.391795      -282.7751
  19   2.0000     -10.390161      -282.7306
  20   2.0000     -10.388957      -282.6979
  21   2.0000     -10.378842      -282.4226
  22   2.0000     -10.373291      -282.2716
  23   2.0000     -10.352297      -281.7003
  24   2.0000     -10.351718      -281.6846
  25   2.0000     -10.348502      -281.5970
  26   2.0000     -10.345972      -281.5282
  27   2.0000     -10.338375      -281.3215
  28   2.0000     -10.330242      -281.1002
  29   2.0000     -10.326020      -280.9853
  30   2.0000     -10.324989      -280.9572
  31   2.0000     -10.322802      -280.8977
  32   2.0000     -10.322664      -280.8940
  33   2.0000     -10.322491      -280.8893
  34   2.0000     -10.321144      -280.8526
  35   2.0000     -10.318813      -280.7892
  36   2.0000     -10.317993      -280.7669
  37   2.0000     -10.316225      -280.7188
  38   2.0000     -10.314560      -280.6734
  39   2.0000     -10.314074      -280.6602
  40   2.0000     -10.312373      -280.6139
  41   2.0000     -10.311482      -280.5897
  42   2.0000     -10.308094      -280.4975
  43   2.0000     -10.308086      -280.4973
  44   2.0000     -10.308034      -280.4959
  45   2.0000     -10.307344      -280.4771
  46   2.0000     -10.305853      -280.4365
  47   2.0000     -10.305729      -280.4331
  48   2.0000     -10.305451      -280.4256
  49   2.0000     -10.305156      -280.4176
  50   2.0000     -10.303255      -280.3658
  51   2.0000     -10.302597      -280.3479
  52   2.0000     -10.301720      -280.3240
  53   2.0000     -10.301643      -280.3220
  54   2.0000     -10.299711      -280.2694
  55   2.0000     -10.299665      -280.2681
  56   2.0000     -10.298181      -280.2278
  57   2.0000     -10.297363      -280.2055
  58   2.0000     -10.294715      -280.1334
  59   2.0000     -10.289749      -279.9983
  60   2.0000     -10.288997      -279.9779
  61   2.0000     -10.287954      -279.9495
  62   2.0000     -10.287931      -279.9488
  63   2.0000     -10.285694      -279.8879
  64   2.0000     -10.284505      -279.8556
  65   2.0000     -10.284245      -279.8485
  66   2.0000     -10.283914      -279.8395
  67   2.0000     -10.283880      -279.8386
  68   2.0000     -10.283455      -279.8270
  69   2.0000     -10.283098      -279.8173
  70   2.0000     -10.279182      -279.7108
  71   2.0000     -10.279033      -279.7067
  72   2.0000     -10.276428      -279.6358
  73   2.0000     -10.268811      -279.4286
  74   2.0000     -10.267269      -279.3866
  75   2.0000     -10.266577      -279.3678
  76   2.0000     -10.252787      -278.9925
  77   2.0000      -8.066978      -219.5136
  78   2.0000      -8.064363      -219.4425
  79   2.0000      -8.061325      -219.3598
  80   2.0000      -8.057346      -219.2515
  81   2.0000      -8.056603      -219.2313
  82   2.0000      -8.052864      -219.1296
  83   2.0000      -6.036317      -164.2565
  84   2.0000      -6.033758      -164.1869
  85   2.0000      -6.031992      -164.1389
  86   2.0000      -6.030561      -164.0999
  87   2.0000      -6.029451      -164.0697
  88   2.0000      -6.029066      -164.0592
  89   2.0000      -6.026829      -163.9984
  90   2.0000      -6.026579      -163.9916
  91   2.0000      -6.026330      -163.9848
  92   2.0000      -6.025945      -163.9743
  93   2.0000      -6.023476      -163.9071
  94   2.0000      -6.022569      -163.8824
  95   2.0000      -6.022390      -163.8776
  96   2.0000      -6.021852      -163.8629
  97   2.0000      -6.019083      -163.7876
  98   2.0000      -6.018705      -163.7773
  99   2.0000      -6.018141      -163.7620
 100   2.0000      -6.014490      -163.6626
 101   2.0000      -1.329998       -36.1911
 102   2.0000      -1.327813       -36.1316
 103   2.0000      -1.314722       -35.7754
 104   2.0000      -1.312552       -35.7164
 105   2.0000      -1.142473       -31.0883
 106   2.0000      -1.137842       -30.9622
 107   2.0000      -1.067931       -29.0599
 108   2.0000      -1.029423       -28.0120
 109   2.0000      -1.025508       -27.9055
 110   2.0000      -1.013069       -27.5670
 111   2.0000      -1.012644       -27.5554
 112   2.0000      -1.010821       -27.5058
 113   2.0000      -1.005180       -27.3523
 114   2.0000      -1.002743       -27.2860
 115   2.0000      -0.996523       -27.1168
 116   2.0000      -0.994367       -27.0581
 117   2.0000      -0.982950       -26.7474
 118   2.0000      -0.982153       -26.7257
 119   2.0000      -0.963766       -26.2254
 120   2.0000      -0.960260       -26.1300
 121   2.0000      -0.930930       -25.3319
 122   2.0000      -0.930557       -25.3217
 123   2.0000      -0.928828       -25.2747
 124   2.0000      -0.914937       -24.8967
 125   2.0000      -0.910346       -24.7718
 126   2.0000      -0.903057       -24.5734
 127   2.0000      -0.900584       -24.5061
 128   2.0000      -0.894075       -24.3290
 129   2.0000      -0.891663       -24.2634
 130   2.0000      -0.880811       -23.9681
 131   2.0000      -0.877935       -23.8898
 132   2.0000      -0.871615       -23.7178
 133   2.0000      -0.856799       -23.3147
 134   2.0000      -0.854335       -23.2476
 135   2.0000      -0.852955       -23.2101
 136   2.0000      -0.841899       -22.9092
 137   2.0000      -0.836724       -22.7684
 138   2.0000      -0.833470       -22.6799
 139   2.0000      -0.824770       -22.4431
 140   2.0000      -0.813638       -22.1402
 141   2.0000      -0.792336       -21.5606
 142   2.0000      -0.789597       -21.4860
 143   2.0000      -0.787027       -21.4161
 144   2.0000      -0.784638       -21.3511
 145   2.0000      -0.780846       -21.2479
 146   2.0000      -0.775539       -21.1035
 147   2.0000      -0.772887       -21.0313
 148   2.0000      -0.762711       -20.7544
 149   2.0000      -0.754111       -20.5204
 150   2.0000      -0.744843       -20.2682
 151   2.0000      -0.728605       -19.8264
 152   2.0000      -0.728359       -19.8197
 153   2.0000      -0.720078       -19.5943
 154   2.0000      -0.714523       -19.4431
 155   2.0000      -0.707050       -19.2398
 156   2.0000      -0.704293       -19.1648
 157   2.0000      -0.700128       -19.0514
 158   2.0000      -0.693024       -18.8581
 159   2.0000      -0.686802       -18.6888
 160   2.0000      -0.677532       -18.4366
 161   2.0000      -0.668123       -18.1806
 162   2.0000      -0.667473       -18.1629
 163   2.0000      -0.664744       -18.0886
 164   2.0000      -0.662649       -18.0316
 165   2.0000      -0.650577       -17.7031
 166   2.0000      -0.649316       -17.6688
 167   2.0000      -0.646287       -17.5864
 168   2.0000      -0.645520       -17.5655
 169   2.0000      -0.641496       -17.4560
 170   2.0000      -0.634537       -17.2666
 171   2.0000      -0.628895       -17.1131
 172   2.0000      -0.624468       -16.9926
 173   2.0000      -0.618848       -16.8397
 174   2.0000      -0.617897       -16.8138
 175   2.0000      -0.613305       -16.6889
 176   2.0000      -0.608815       -16.5667
 177   2.0000      -0.604591       -16.4518
 178   2.0000      -0.601766       -16.3749
 179   2.0000      -0.595039       -16.1918
 180   2.0000      -0.593688       -16.1551
 181   2.0000      -0.592612       -16.1258
 182   2.0000      -0.587644       -15.9906
 183   2.0000      -0.580428       -15.7942
 184   2.0000      -0.577323       -15.7098
 185   2.0000      -0.564201       -15.3527
 186   2.0000      -0.562998       -15.3200
 187   2.0000      -0.558490       -15.1973
 188   2.0000      -0.555651       -15.1200
 189   2.0000      -0.554763       -15.0959
 190   2.0000      -0.554405       -15.0861
 191   2.0000      -0.552628       -15.0378
 192   2.0000      -0.550837       -14.9890
 193   2.0000      -0.548897       -14.9362
 194   2.0000      -0.547654       -14.9024
 195   2.0000      -0.545977       -14.8568
 196   2.0000      -0.543730       -14.7957
 197   2.0000      -0.537808       -14.6345
 198   2.0000      -0.536049       -14.5866
 199   2.0000      -0.535175       -14.5629
 200   2.0000      -0.532618       -14.4933
 201   2.0000      -0.531590       -14.4653
 202   2.0000      -0.530252       -14.4289
 203   2.0000      -0.526504       -14.3269
 204   2.0000      -0.523261       -14.2387
 205   2.0000      -0.521801       -14.1989
 206   2.0000      -0.517253       -14.0752
 207   2.0000      -0.516539       -14.0557
 208   2.0000      -0.508746       -13.8437
 209   2.0000      -0.505872       -13.7655
 210   2.0000      -0.502440       -13.6721
 211   2.0000      -0.501290       -13.6408
 212   2.0000      -0.498819       -13.5736
 213   2.0000      -0.497350       -13.5336
 214   2.0000      -0.496649       -13.5145
 215   2.0000      -0.495864       -13.4931
 216   2.0000      -0.493987       -13.4421
 217   2.0000      -0.493333       -13.4243
 218   2.0000      -0.491784       -13.3821
 219   2.0000      -0.490917       -13.3585
 220   2.0000      -0.488356       -13.2888
 221   2.0000      -0.485493       -13.2109
 222   2.0000      -0.483510       -13.1570
 223   2.0000      -0.480035       -13.0624
 224   2.0000      -0.478386       -13.0176
 225   2.0000      -0.472315       -12.8524
 226   2.0000      -0.471380       -12.8269
 227   2.0000      -0.468817       -12.7572
 228   2.0000      -0.465642       -12.6708
 229   2.0000      -0.465330       -12.6623
 230   2.0000      -0.465011       -12.6536
 231   2.0000      -0.463461       -12.6114
 232   2.0000      -0.462538       -12.5863
 233   2.0000      -0.461017       -12.5449
 234   2.0000      -0.459350       -12.4995
 235   2.0000      -0.458725       -12.4826
 236   2.0000      -0.457107       -12.4385
 237   2.0000      -0.455784       -12.4025
 238   2.0000      -0.454279       -12.3615
 239   2.0000      -0.451821       -12.2947
 240   2.0000      -0.450752       -12.2656
 241   2.0000      -0.449871       -12.2416
 242   2.0000      -0.448617       -12.2075
 243   2.0000      -0.447254       -12.1704
 244   2.0000      -0.443990       -12.0816
 245   2.0000      -0.443254       -12.0615
 246   2.0000      -0.436395       -11.8749
 247   2.0000      -0.434800       -11.8315
 248   2.0000      -0.433826       -11.8050
 249   2.0000      -0.432888       -11.7795
 250   2.0000      -0.431132       -11.7317
 251   2.0000      -0.429571       -11.6892
 252   2.0000      -0.424299       -11.5458
 253   2.0000      -0.422704       -11.5024
 254   2.0000      -0.420497       -11.4423
 255   2.0000      -0.418516       -11.3884
 256   2.0000      -0.416655       -11.3378
 257   2.0000      -0.412489       -11.2244
 258   2.0000      -0.407396       -11.0858
 259   2.0000      -0.406718       -11.0674
 260   2.0000      -0.404687       -11.0121
 261   2.0000      -0.399580       -10.8731
 262   2.0000      -0.386395       -10.5143
 263   2.0000      -0.383756       -10.4425
 264   2.0000      -0.377699       -10.2777
 265   2.0000      -0.372348       -10.1321
 266   2.0000      -0.363838        -9.9005
 267   2.0000      -0.356000        -9.6873
 268   2.0000      -0.354450        -9.6451
 269   2.0000      -0.350564        -9.5393
 270   2.0000      -0.347795        -9.4640
 271   2.0000      -0.346302        -9.4234
 272   2.0000      -0.343503        -9.3472
 273   2.0000      -0.340239        -9.2584
 274   2.0000      -0.328992        -8.9523
 275   2.0000      -0.328647        -8.9430
 276   2.0000      -0.322686        -8.7807
 277   2.0000      -0.316884        -8.6228
 278   2.0000      -0.314987        -8.5712
 279   2.0000      -0.308720        -8.4007
 280   2.0000      -0.285846        -7.7783
 281   2.0000      -0.275814        -7.5053
 282   2.0000      -0.273973        -7.4552
 283   2.0000      -0.270074        -7.3491
 284   2.0000      -0.234515        -6.3815
 285   0.0000      -0.091961        -2.5024
 286   0.0000      -0.087155        -2.3716
 287   0.0000      -0.067253        -1.8300
 288   0.0000      -0.060839        -1.6555
 289   0.0000      -0.043888        -1.1942

MULLIKEN ATOMIC CHARGES
-----------------------
   0 C :   -0.095501
   1 C :    0.237612
   2 F :   -0.164341
   3 C :    0.235159
   4 F :   -0.168458
   5 C :   -0.105728
   6 C :    0.007282
   7 C :    0.043489
   8 C :    0.223450
   9 C :   -0.307083
  10 C :   -0.193950
  11 N :    0.158559
  12 C :   -0.174196
  13 N :    0.168093
  14 C :   -0.134207
  15 C :    0.139700
  16 O :   -0.134302
  17 C :    0.007794
  18 C :    0.025377
  19 C :   -0.065790
  20 S :    0.180546
  21 C :   -0.123192
  22 C :    0.074548
  23 C :   -0.164265
  24 C :    0.124749
  25 C :   -0.195695
  26 C :    0.136497
  27 C :    0.138267
  28 C :   -0.148045
  29 S :    0.146606
  30 C :   -0.109617
  31 C :    0.092644
  32 C :   -0.153174
  33 S :    0.127862
  34 C :   -0.056124
  35 C :   -0.223882
  36 N :   -0.022339
  37 C :    0.388674
  38 C :   -0.164365
  39 C :   -0.105339
  40 S :    0.144280
  41 C :   -0.083463
  42 C :   -0.017487
  43 C :    0.043590
  44 C :   -0.039115
  45 C :    0.078451
  46 C :   -0.120711
  47 S :    0.127869
  48 C :   -0.138298
  49 C :    0.100816
  50 C :   -0.158335
  51 C :    0.064642
  52 C :   -0.147446
  53 C :    0.056443
  54 C :    0.108731
  55 C :   -0.150529
  56 S :    0.164137
  57 C :   -0.044879
  58 C :    0.059730
  59 C :   -0.067728
  60 C :   -0.083146
  61 C :    0.131871
  62 O :   -0.140351
  63 C :   -0.014789
  64 C :    0.043442
  65 C :   -0.088895
  66 C :    0.237213
  67 C :    0.239719
  68 C :   -0.104082
  69 F :   -0.166912
  70 F :   -0.163789
  71 C :    0.312555
  72 C :   -0.353790
  73 C :   -0.170528
  74 N :    0.148926
  75 C :   -0.192854
  76 N :    0.160320
  77 H :    0.014950
  78 H :    0.012525
  79 H :    0.025623
  80 H :    0.033308
  81 H :    0.015571
  82 H :    0.029364
  83 H :    0.026609
  84 H :   -0.005501
  85 H :    0.039852
  86 H :    0.026658
  87 H :    0.030801
  88 H :    0.033580
  89 H :    0.033287
  90 H :   -0.029084
  91 H :   -0.017828
  92 H :   -0.001545
  93 H :    0.021464
  94 H :    0.033378
  95 H :    0.024889
  96 H :    0.037923
  97 H :    0.014391
  98 H :    0.025762
  99 H :    0.058161
 100 H :    0.037903
 101 H :    0.024840
 102 H :    0.017816
 103 H :    0.012378
Sum of atomic charges:   -0.0000000

LOEWDIN ATOMIC CHARGES
----------------------
   0 C :   -0.023884
   1 C :    0.075337
   2 F :   -0.042641
   3 C :    0.068605
   4 F :   -0.045232
   5 C :   -0.003888
   6 C :   -0.048646
   7 C :   -0.012625
   8 C :    0.061428
   9 C :   -0.123586
  10 C :   -0.018421
  11 N :   -0.047563
  12 C :   -0.014200
  13 N :   -0.047795
  14 C :   -0.097144
  15 C :    0.083467
  16 O :   -0.137478
  17 C :    0.078216
  18 C :   -0.081608
  19 C :   -0.129500
  20 S :    0.464867
  21 C :   -0.173811
  22 C :   -0.046277
  23 C :   -0.033611
  24 C :   -0.046335
  25 C :   -0.006531
  26 C :   -0.048438
  27 C :   -0.033647
  28 C :   -0.171852
  29 S :    0.431039
  30 C :   -0.166540
  31 C :   -0.084439
  32 C :   -0.117049
  33 S :    0.412476
  34 C :   -0.214977
  35 C :   -0.045703
  36 N :   -0.077684
  37 C :   -0.012594
  38 C :   -0.049274
  39 C :   -0.204367
  40 S :    0.434951
  41 C :   -0.168353
  42 C :   -0.056305
  43 C :   -0.041774
  44 C :   -0.023741
  45 C :   -0.060228
  46 C :   -0.166539
  47 S :    0.413885
  48 C :   -0.177493
  49 C :   -0.041113
  50 C :   -0.020015
  51 C :   -0.048307
  52 C :   -0.026520
  53 C :   -0.051211
  54 C :   -0.038666
  55 C :   -0.180767
  56 S :    0.454826
  57 C :   -0.110107
  58 C :   -0.082254
  59 C :    0.085162
  60 C :   -0.105250
  61 C :    0.081647
  62 O :   -0.134860
  63 C :   -0.044906
  64 C :   -0.016284
  65 C :   -0.017373
  66 C :    0.074511
  67 C :    0.072274
  68 C :   -0.005364
  69 F :   -0.043725
  70 F :   -0.042310
  71 C :    0.078355
  72 C :   -0.138749
  73 C :   -0.015474
  74 N :   -0.048629
  75 C :   -0.020203
  76 N :   -0.046572
  77 H :    0.050937
  78 H :    0.052587
  79 H :    0.048767
  80 H :    0.031002
  81 H :    0.031437
  82 H :    0.037833
  83 H :    0.031238
  84 H :    0.024306
  85 H :    0.037877
  86 H :    0.036536
  87 H :    0.021520
  88 H :    0.054969
  89 H :    0.054096
  90 H :    0.028174
  91 H :    0.025789
  92 H :    0.028242
  93 H :    0.022724
  94 H :    0.033739
  95 H :    0.035875
  96 H :    0.036943
  97 H :    0.033180
  98 H :    0.032486
  99 H :    0.039820
 100 H :    0.029392
 101 H :    0.045714
 102 H :    0.051929
 103 H :    0.052274

  Mayer bond orders larger than 0.100000
B(  0-C ,  1-C ) :   1.3352 B(  0-C ,  5-C ) :   0.1068 B(  0-C ,  7-C ) :   1.3116
B(  0-C , 77-H ) :   0.9961 B(  1-C ,  2-F ) :   1.1444 B(  1-C ,  3-C ) :   1.2885
B(  3-C ,  4-F ) :   1.1319 B(  3-C ,  5-C ) :   1.3207 B(  5-C ,  6-C ) :   1.3172
B(  5-C , 78-H ) :   1.0199 B(  6-C ,  7-C ) :   1.3453 B(  6-C , 15-C ) :   0.9272
B(  7-C ,  8-C ) :   1.0281 B(  8-C ,  9-C ) :   1.6702 B(  8-C , 14-C ) :   1.0151
B(  9-C , 10-C ) :   1.1277 B(  9-C , 12-C ) :   1.1690 B( 10-C , 11-N ) :   2.9863
B( 12-C , 13-N ) :   2.9878 B( 14-C , 15-C ) :   0.9441 B( 14-C , 17-C ) :   1.7110
B( 15-C , 16-O ) :   2.2809 B( 17-C , 18-C ) :   1.0538 B( 17-C , 79-H ) :   0.9420
B( 18-C , 19-C ) :   1.5285 B( 18-C , 22-C ) :   1.1223 B( 19-C , 20-S ) :   1.1829
B( 19-C , 80-H ) :   0.9681 B( 20-S , 21-C ) :   1.0746 B( 21-C , 22-C ) :   1.3771
B( 21-C , 28-C ) :   1.3885 B( 22-C , 23-C ) :   1.2868 B( 23-C , 24-C ) :   1.1157
B( 23-C , 25-C ) :   1.4732 B( 24-C , 81-H ) :   0.9365 B( 24-C , 82-H ) :   0.9391
B( 24-C , 83-H ) :   0.9154 B( 25-C , 26-C ) :   1.1258 B( 25-C , 27-C ) :   1.2875
B( 26-C , 84-H ) :   0.9318 B( 26-C , 85-H ) :   0.9188 B( 26-C , 86-H ) :   0.9373
B( 27-C , 28-C ) :   1.3530 B( 27-C , 31-C ) :   1.1582 B( 28-C , 29-S ) :   1.0796
B( 29-S , 30-C ) :   1.1291 B( 30-C , 31-C ) :   1.6056 B( 30-C , 87-H ) :   0.9622
B( 31-C , 32-C ) :   0.9995 B( 32-C , 33-S ) :   1.0858 B( 32-C , 36-N ) :   1.6952
B( 33-S , 34-C ) :   1.0799 B( 34-C , 35-C ) :   1.5154 B( 34-C , 39-C ) :   1.1745
B( 35-C , 36-N ) :   1.3883 B( 35-C , 37-C ) :   1.0456 B( 37-C , 38-C ) :   0.9836
B( 37-C , 88-H ) :   0.8577 B( 37-C , 89-H ) :   0.8643 B( 38-C , 39-C ) :   1.5386
B( 38-C , 42-C ) :   1.3002 B( 39-C , 40-S ) :   1.0860 B( 40-S , 41-C ) :   1.1041
B( 41-C , 42-C ) :   1.4900 B( 41-C , 43-C ) :   1.0923 B( 42-C , 90-H ) :   0.9956
B( 43-C , 44-C ) :   1.7629 B( 43-C , 91-H ) :   0.9602 B( 44-C , 45-C ) :   1.0390
B( 44-C , 92-H ) :   0.9604 B( 45-C , 46-C ) :   1.6113 B( 45-C , 49-C ) :   1.1373
B( 46-C , 47-S ) :   1.1120 B( 46-C , 93-H ) :   0.9598 B( 47-S , 48-C ) :   1.0797
B( 48-C , 49-C ) :   1.3625 B( 48-C , 55-C ) :   1.3915 B( 49-C , 50-C ) :   1.2792
B( 50-C , 51-C ) :   1.0902 B( 50-C , 52-C ) :   1.5037 B( 51-C , 94-H ) :   0.9375
B( 51-C , 95-H ) :   0.9404 B( 51-C , 96-H ) :   0.9472 B( 52-C , 53-C ) :   1.0902
B( 52-C , 54-C ) :   1.2845 B( 53-C , 97-H ) :   0.9347 B( 53-C , 98-H ) :   0.9451
B( 53-C , 99-H ) :   0.9294 B( 54-C , 55-C ) :   1.3771 B( 54-C , 58-C ) :   1.1271
B( 55-C , 56-S ) :   1.0584 B( 56-S , 57-C ) :   1.1869 B( 57-C , 58-C ) :   1.5389
B( 57-C ,100-H ) :   0.9531 B( 58-C , 59-C ) :   1.0895 B( 59-C , 60-C ) :   1.6208
B( 59-C ,101-H ) :   0.9295 B( 60-C , 61-C ) :   0.9347 B( 60-C , 71-C ) :   1.0608
B( 61-C , 62-O ) :   2.2358 B( 61-C , 63-C ) :   0.9505 B( 63-C , 64-C ) :   1.3365
B( 63-C , 68-C ) :   1.3202 B( 64-C , 65-C ) :   1.3057 B( 64-C , 71-C ) :   1.0101
B( 65-C , 66-C ) :   1.3404 B( 65-C , 68-C ) :   0.1057 B( 65-C ,102-H ) :   0.9920
B( 66-C , 67-C ) :   1.2855 B( 66-C , 70-F ) :   1.1475 B( 67-C , 68-C ) :   1.3173
B( 67-C , 69-F ) :   1.1331 B( 68-C ,103-H ) :   1.0205 B( 71-C , 72-C ) :   1.6381
B( 72-C , 73-C ) :   1.1531 B( 72-C , 75-C ) :   1.1376 B( 73-C , 74-N ) :   2.9287
B( 75-C , 76-N ) :   2.9792

-----------------------------------------------------------------------------
         ABSORPTION SPECTRUM VIA TRANSITION ELECTRIC DIPOLE MOMENTS
-----------------------------------------------------------------------------
State   Energy  Wavelength   fosc         T2         TX        TY        TZ
        (cm-1)    (nm)                  (au**2)     (au)      (au)      (au)
-----------------------------------------------------------------------------
   0   20442.8    489.2   0.075704953   1.21915   0.25689   1.06429  -0.14299
   1   20866.4    479.2   0.035400579   0.55852   0.26841  -0.56083   0.41466
   2   22038.7    453.7   0.237927835   3.55414   0.27843   1.55621   1.02704
   3   22379.0    446.8   0.584174530   8.59365  -2.18621   0.95751  -1.70214
   4   25386.6    393.9   0.056952975   0.73856   0.13785  -0.75600   0.38473
   5   25731.7    388.6   1.659344689  21.22968  -0.29176  -3.76748   2.63641
   6   26055.2    383.8   0.067312272   0.85050  -0.49353  -0.46681   0.62372
   7   26589.2    376.1   0.010347009   0.12811  -0.13792   0.32252   0.07118
   8   27270.7    366.7   0.014596229   0.17621  -0.29846  -0.25886   0.14184
   9   27810.9    359.6   0.001504454   0.01781  -0.08399  -0.07413  -0.07252
  10   28860.5    346.5   0.079399360   0.90571   0.40057   0.41221   0.75851
  11   29799.6    335.6   0.103745330   1.14613  -1.04788  -0.16611   0.14313
  12   30773.5    325.0   0.016922292   0.18103  -0.07461   0.39592   0.13679
  13   31492.8    317.5   0.044025598   0.46022  -0.42845  -0.52494  -0.03298
  14   31496.4    317.5   0.097926594   1.02357   0.43192   0.61122   0.68075
  15   32238.5    310.2   0.064878796   0.66253   0.01183   0.78324   0.22119
  16   32639.0    306.4   0.120517693   1.21560  -0.90261  -0.54619  -0.32028
  17   32911.9    303.8   0.002134171   0.02135   0.05510   0.09737   0.09397
  18   33035.7    302.7   0.051701056   0.51522   0.57123  -0.15249   0.40701
  19   33286.0    300.4   0.041621176   0.41165  -0.55435  -0.29388  -0.13407
  20   33432.6    299.1   0.051856401   0.51063   0.40617   0.23599   0.53849
  21   33677.4    296.9   0.095330218   0.93190  -0.76499  -0.14595  -0.57043
  22   33765.7    296.2   0.236086550   2.30182  -1.13078   0.91303  -0.43535
  23   33930.3    294.7   0.043257191   0.41971   0.30093   0.55331   0.15164
  24   34227.7    292.2   0.015805196   0.15202   0.05875   0.27685  -0.26818
  25   34351.1    291.1   0.047311047   0.45342   0.39527   0.03162   0.54422
  26   35159.1    284.4   0.001164655   0.01091  -0.06326  -0.04533  -0.06963
  27   35233.1    283.8   0.000419742   0.00392  -0.00807   0.04611  -0.04160
  28   35940.5    278.2   0.090049803   0.82485   0.85335   0.00654   0.31079
  29   36184.8    276.4   0.064627378   0.58798   0.28754   0.54487  -0.45653
  30   36569.2    273.5   0.921268115   8.29365  -2.15055  -1.75834  -0.75962
  31   36616.0    273.1   0.583358022   5.24493   0.62120  -2.16686  -0.40467
  32   37219.6    268.7   0.030701895   0.27156   0.43017  -0.21425   0.20152
  33   37823.5    264.4   0.266299804   2.31785   0.60057  -1.05051   0.92390
  34   38013.3    263.1   0.008472001   0.07337  -0.11595  -0.23228   0.07727
  35   38471.1    259.9   0.060585494   0.51845  -0.52437  -0.30984  -0.38404
  36   38567.4    259.3   0.014434657   0.12321  -0.15746  -0.31125   0.03924
  37   38623.6    258.9   0.009378589   0.07994  -0.05551  -0.11586  -0.25186
  38   39065.1    256.0   0.014296714   0.12048  -0.16596   0.00447  -0.30483
  39   39507.9    253.1   0.125950374   1.04952   0.60051  -0.55912   0.61343
  40   39733.1    251.7   0.043881524   0.36358   0.42125  -0.40326  -0.15335
  41   39919.7    250.5   0.010999722   0.09071   0.22985  -0.12582   0.14849
  42   40108.8    249.3   0.259447612   2.12954  -1.17753  -0.47741  -0.71766
  43   40246.9    248.5   0.000690639   0.00565   0.07211   0.01489  -0.01509

FINAL SINGLE POINT ENERGY     -5510.661881053361

DIPOLE MOMENT
-------------
                                X             Y             Z
Electronic contribution:      1.98541      -7.34784      14.32302
Nuclear contribution   :     -2.40975       6.13895     -16.10078
                        -----------------------------------------
Total Dipole Moment    :     -0.42435      -1.20889      -1.77776
                        -----------------------------------------
Magnitude (a.u.)       :      2.19133
Magnitude (Debye)      :      5.56992

Rotational constants in cm-1:     0.001299     0.000156     0.000145
Rotational constants in MHz :    38.930445     4.685600     4.350568

                             ****ORCA TERMINATED NORMALLY****
TOTAL RUN TIME: 0 days 0 hours 11 minutes 59 seconds 424 msec
