                         Program Version 4.2.0 -  RELEASE  -
|  1> # ORCA input file
|  2> # SCF done       -180.815049346977          0.000626550921
|  3> ! CAM-B3LYP def2-SVP def2/J RIJCOSX Grid4 TightSCF
|  4> %maxcore 5000
|  5> %tddft
|  6>     Mode sTDDFT
|  7>     Ethresh 5.0
|  8>     maxcore 5000
|  9> end
| 10>
| 11> %pal
| 12>   nprocs 6
| 13>   end
| 14> * xyz 0 1
| 15>    C        5.17178        -4.98686         6.33850
| 16>    C        6.03829        -5.76390         7.09142
| 17>    F        6.49734        -5.28001         8.25115
| 18>    C        6.44019        -7.03176         6.66946
| 19>    F        7.27681        -7.74058         7.43081
| 20>    C        5.98264        -7.55795         5.47123
| 21>    C        5.12131        -6.78000         4.71899
| 22>    C        4.70949        -5.50425         5.13843
| 23>    C        3.80313        -4.94771         4.13614
| 24>    C        3.19743        -3.72188         4.23274
| 25>    C        3.38165        -2.82952         5.31197
| 26>    N        3.48121        -2.05049         6.14890
| 27>    C        2.30328        -3.13945         3.30815
| 28>    N        1.56800        -2.57550         2.62933
| 29>    C        3.67687        -5.91991         3.06345
| 30>    C        4.50161        -7.09958         3.41287
| 31>    O        4.67687        -8.13912         2.80282
| 32>    C        2.91003        -5.70293         1.94210
| 33>    C        2.70402        -6.52395         0.82971
| 34>    O        3.27612        -7.73989         0.69517
| 35>    C        2.90299        -8.28775        -0.47478
| 36>    C        2.05004        -7.40135        -1.14002
| 37>    C        1.91899        -6.27247        -0.31162
| 38>    O        1.21011        -5.15984        -0.51391
| 39>    S        1.26357        -7.58923        -2.70074
| 40>    C        3.42554        -9.57173        -0.76989
| 41>    C        4.24502       -10.11991         0.17012
| 42>    C        4.93207       -11.33577         0.21815
| 43>    S        4.99087       -12.62848        -0.96711
| 44>    C        6.05255       -13.60827        -0.00086
| 45>    C        6.35790       -12.96450         1.20441
| 46>    C        5.72393       -11.69553         1.30625
| 47>    N        6.06686       -11.12721         2.48452
| 48>    C        6.90267       -12.00760         3.13154
| 49>    N        7.44588       -11.67139         4.38440
| 50>    O        7.10284       -10.59672         4.85253
| 51>    O        8.21726       -12.45138         4.90085
| 52>    C        7.10815       -13.14982         2.38298
| 53>    C        6.49451       -14.87474        -0.41440
| 54>    O        7.30772       -15.59565         0.38771
| 55>    C        7.54912       -16.78656        -0.20986
| 56>    C        6.89136       -16.82182        -1.44561
| 57>    C        6.20614       -15.60371        -1.57247
| 58>    O        5.42191       -15.15799        -2.57238
| 59>    S        6.90847       -18.16521        -2.57210
| 60>    C        8.31495       -17.77167         0.43972
| 61>    C        8.85254       -17.59038         1.68191
| 62>    C        9.53852       -18.61197         2.35816
| 63>    C       10.03366       -18.62960         3.63339
| 64>    C       10.96469       -19.73258         3.99247
| 65>    O       11.19023       -20.72711         3.34224
| 66>    C       11.57443       -19.33208         5.27664
| 67>    C       10.98538       -18.13373         5.71469
| 68>    C       11.44002       -17.52680         6.87485
| 69>    C       12.46253       -18.14749         7.57735
| 70>    C       13.02554       -19.34937         7.14595
| 71>    C       12.58624       -19.95530         5.98036
| 72>    F       14.00523       -19.91624         7.85996
| 73>    F       12.92194       -17.57346         8.69379
| 74>    C        9.92623       -17.74561         4.77455
| 75>    C        8.93631       -16.84803         5.07848
| 76>    C        7.79972       -16.54159         4.30357
| 77>    N        6.83528       -16.23193         3.76173
| 78>    C        8.85645       -16.16511         6.31518
| 79>    N        8.71757       -15.60822         7.30788
| 80>    H        4.89195        -4.01548         6.71027
| 81>    H        6.30161        -8.54204         5.16331
| 82>    H        2.37320        -4.76729         1.86674
| 83>    H        0.74503        -5.19902        -1.36040
| 84>    H        1.75175        -8.79837        -2.94892
| 85>    H        3.17479       -10.06670        -1.69480
| 86>    H        4.40751        -9.51486         1.05398
| 87>    H        5.77401       -10.22601         2.84473
| 88>    H        7.69342       -13.99865         2.66689
| 89>    H        5.18435       -15.88730        -3.16114
| 90>    H        6.68898       -17.42057        -3.66242
| 91>    H        8.42388       -18.71550        -0.07581
| 92>    H        8.73088       -16.62753         2.15037
| 93>    H        9.75688       -19.51105         1.78906
| 94>    H       11.04700       -16.59526         7.24746
| 95>    H       13.02423       -20.87897         5.63743
| 96> *
| 97>
| 98>                          ****END OF INPUT****

CARTESIAN COORDINATES (ANGSTROEM)
---------------------------------
  C      5.171780   -4.986860    6.338500
  C      6.038290   -5.763900    7.091420
  F      6.497340   -5.280010    8.251150
  C      6.440190   -7.031760    6.669460
  F      7.276810   -7.740580    7.430810
  C      5.982640   -7.557950    5.471230
  C      5.121310   -6.780000    4.718990
  C      4.709490   -5.504250    5.138430
  C      3.803130   -4.947710    4.136140
  C      3.197430   -3.721880    4.232740
  C      3.381650   -2.829520    5.311970
  N      3.481210   -2.050490    6.148900
  C      2.303280   -3.139450    3.308150
  N      1.568000   -2.575500    2.629330
  C      3.676870   -5.919910    3.063450
  C      4.501610   -7.099580    3.412870
  O      4.676870   -8.139120    2.802820
  C      2.910030   -5.702930    1.942100
  C      2.704020   -6.523950    0.829710
  O      3.276120   -7.739890    0.695170
  C      2.902990   -8.287750   -0.474780
  C      2.050040   -7.401350   -1.140020
  C      1.918990   -6.272470   -0.311620
  O      1.210110   -5.159840   -0.513910
  S      1.263570   -7.589230   -2.700740
  C      3.425540   -9.571730   -0.769890
  C      4.245020  -10.119910    0.170120
  C      4.932070  -11.335770    0.218150
  S      4.990870  -12.628480   -0.967110
  C      6.052550  -13.608270   -0.000860
  C      6.357900  -12.964500    1.204410
  C      5.723930  -11.695530    1.306250
  N      6.066860  -11.127210    2.484520
  C      6.902670  -12.007600    3.131540
  N      7.445880  -11.671390    4.384400
  O      7.102840  -10.596720    4.852530
  O      8.217260  -12.451380    4.900850
  C      7.108150  -13.149820    2.382980
  C      6.494510  -14.874740   -0.414400
  O      7.307720  -15.595650    0.387710
  C      7.549120  -16.786560   -0.209860
  C      6.891360  -16.821820   -1.445610
  C      6.206140  -15.603710   -1.572470
  O      5.421910  -15.157990   -2.572380
  S      6.908470  -18.165210   -2.572100
  C      8.314950  -17.771670    0.439720
  C      8.852540  -17.590380    1.681910
  C      9.538520  -18.611970    2.358160
  C     10.033660  -18.629600    3.633390
  C     10.964690  -19.732580    3.992470
  O     11.190230  -20.727110    3.342240
  C     11.574430  -19.332080    5.276640
  C     10.985380  -18.133730    5.714690
  C     11.440020  -17.526800    6.874850
  C     12.462530  -18.147490    7.577350
  C     13.025540  -19.349370    7.145950
  C     12.586240  -19.955300    5.980360
  F     14.005230  -19.916240    7.859960
  F     12.921940  -17.573460    8.693790
  C      9.926230  -17.745610    4.774550
  C      8.936310  -16.848030    5.078480
  C      7.799720  -16.541590    4.303570
  N      6.835280  -16.231930    3.761730
  C      8.856450  -16.165110    6.315180
  N      8.717570  -15.608220    7.307880
  H      4.891950   -4.015480    6.710270
  H      6.301610   -8.542040    5.163310
  H      2.373200   -4.767290    1.866740
  H      0.745030   -5.199020   -1.360400
  H      1.751750   -8.798370   -2.948920
  H      3.174790  -10.066700   -1.694800
  H      4.407510   -9.514860    1.053980
  H      5.774010  -10.226010    2.844730
  H      7.693420  -13.998650    2.666890
  H      5.184350  -15.887300   -3.161140
  H      6.688980  -17.420570   -3.662420
  H      8.423880  -18.715500   -0.075810
  H      8.730880  -16.627530    2.150370
  H      9.756880  -19.511050    1.789060
  H     11.047000  -16.595260    7.247460
  H     13.024230  -20.878970    5.637430

 Total Charge           Charge          ....    0
 Multiplicity           Mult            ....    1
 Number of Electrons    NEL             ....  470
 Basis Dimension        Dim             .... 1002

ORBITAL ENERGIES
----------------

  NO   OCC          E(Eh)            E(eV)
   0   2.0000     -88.987386     -2421.4699
   1   2.0000     -88.978894     -2421.2388
   2   2.0000     -88.961698     -2420.7709
   3   2.0000     -24.802368      -674.9067
   4   2.0000     -24.800976      -674.8689
   5   2.0000     -24.789480      -674.5561
   6   2.0000     -24.788010      -674.5160
   7   2.0000     -19.322094      -525.7809
   8   2.0000     -19.297108      -525.1010
   9   2.0000     -19.296810      -525.0929
  10   2.0000     -19.286498      -524.8123
  11   2.0000     -19.250360      -523.8289
  12   2.0000     -19.250266      -523.8264
  13   2.0000     -19.220947      -523.0286
  14   2.0000     -19.218135      -522.9521
  15   2.0000     -14.660465      -398.9315
  16   2.0000     -14.481708      -394.0673
  17   2.0000     -14.423475      -392.4827
  18   2.0000     -14.416653      -392.2971
  19   2.0000     -14.409319      -392.0975
  20   2.0000     -14.405716      -391.9995
  21   2.0000     -10.387698      -282.6636
  22   2.0000     -10.387252      -282.6515
  23   2.0000     -10.374313      -282.2994
  24   2.0000     -10.374190      -282.2961
  25   2.0000     -10.373409      -282.2748
  26   2.0000     -10.372572      -282.2520
  27   2.0000     -10.371594      -282.2254
  28   2.0000     -10.370364      -282.1919
  29   2.0000     -10.370146      -282.1860
  30   2.0000     -10.366645      -282.0907
  31   2.0000     -10.366459      -282.0857
  32   2.0000     -10.365709      -282.0653
  33   2.0000     -10.350955      -281.6638
  34   2.0000     -10.349735      -281.6306
  35   2.0000     -10.343202      -281.4528
  36   2.0000     -10.342462      -281.4327
  37   2.0000     -10.341775      -281.4140
  38   2.0000     -10.336437      -281.2688
  39   2.0000     -10.334973      -281.2289
  40   2.0000     -10.333456      -281.1876
  41   2.0000     -10.326502      -280.9984
  42   2.0000     -10.322368      -280.8859
  43   2.0000     -10.322325      -280.8848
  44   2.0000     -10.320485      -280.8347
  45   2.0000     -10.319234      -280.8006
  46   2.0000     -10.319009      -280.7945
  47   2.0000     -10.318747      -280.7874
  48   2.0000     -10.316109      -280.7156
  49   2.0000     -10.312359      -280.6135
  50   2.0000     -10.310585      -280.5653
  51   2.0000     -10.309491      -280.5355
  52   2.0000     -10.309443      -280.5342
  53   2.0000     -10.305186      -280.4184
  54   2.0000     -10.304550      -280.4011
  55   2.0000     -10.304133      -280.3897
  56   2.0000     -10.302063      -280.3334
  57   2.0000     -10.301887      -280.3286
  58   2.0000     -10.301280      -280.3121
  59   2.0000     -10.300366      -280.2872
  60   2.0000     -10.297668      -280.2138
  61   2.0000     -10.296678      -280.1869
  62   2.0000     -10.294462      -280.1265
  63   2.0000     -10.291804      -280.0542
  64   2.0000     -10.291662      -280.0504
  65   2.0000      -8.081337      -219.9043
  66   2.0000      -8.073485      -219.6907
  67   2.0000      -8.056836      -219.2377
  68   2.0000      -6.050868      -164.6525
  69   2.0000      -6.046575      -164.5357
  70   2.0000      -6.043782      -164.4597
  71   2.0000      -6.043353      -164.4480
  72   2.0000      -6.040041      -164.3579
  73   2.0000      -6.033282      -164.1740
  74   2.0000      -6.027303      -164.0113
  75   2.0000      -6.023373      -163.9043
  76   2.0000      -6.016493      -163.7171
  77   2.0000      -1.330609       -36.2077
  78   2.0000      -1.325603       -36.0715
  79   2.0000      -1.313163       -35.7330
  80   2.0000      -1.310336       -35.6560
  81   2.0000      -1.297762       -35.3139
  82   2.0000      -1.244085       -33.8533
  83   2.0000      -1.229395       -33.4536
  84   2.0000      -1.188907       -32.3518
  85   2.0000      -1.181954       -32.1626
  86   2.0000      -1.150728       -31.3129
  87   2.0000      -1.136524       -30.9264
  88   2.0000      -1.130283       -30.7566
  89   2.0000      -1.109849       -30.2005
  90   2.0000      -1.025039       -27.8927
  91   2.0000      -1.012732       -27.5578
  92   2.0000      -1.007111       -27.4049
  93   2.0000      -1.001359       -27.2484
  94   2.0000      -0.997416       -27.1411
  95   2.0000      -0.993967       -27.0472
  96   2.0000      -0.986175       -26.8352
  97   2.0000      -0.963595       -26.2208
  98   2.0000      -0.959087       -26.0981
  99   2.0000      -0.951390       -25.8886
 100   2.0000      -0.944408       -25.6986
 101   2.0000      -0.941525       -25.6202
 102   2.0000      -0.933529       -25.4026
 103   2.0000      -0.920637       -25.0518
 104   2.0000      -0.908678       -24.7264
 105   2.0000      -0.901875       -24.5413
 106   2.0000      -0.897285       -24.4164
 107   2.0000      -0.892152       -24.2767
 108   2.0000      -0.881668       -23.9914
 109   2.0000      -0.876540       -23.8519
 110   2.0000      -0.869946       -23.6724
 111   2.0000      -0.862917       -23.4812
 112   2.0000      -0.859382       -23.3850
 113   2.0000      -0.854491       -23.2519
 114   2.0000      -0.834469       -22.7071
 115   2.0000      -0.815814       -22.1994
 116   2.0000      -0.801172       -21.8010
 117   2.0000      -0.789162       -21.4742
 118   2.0000      -0.779752       -21.2181
 119   2.0000      -0.772264       -21.0144
 120   2.0000      -0.765423       -20.8282
 121   2.0000      -0.755060       -20.5462
 122   2.0000      -0.744559       -20.2605
 123   2.0000      -0.730706       -19.8835
 124   2.0000      -0.729501       -19.8507
 125   2.0000      -0.721917       -19.6444
 126   2.0000      -0.714936       -19.4544
 127   2.0000      -0.702911       -19.1272
 128   2.0000      -0.698688       -19.0123
 129   2.0000      -0.695280       -18.9195
 130   2.0000      -0.687926       -18.7194
 131   2.0000      -0.686809       -18.6890
 132   2.0000      -0.679850       -18.4996
 133   2.0000      -0.668998       -18.2044
 134   2.0000      -0.664713       -18.0878
 135   2.0000      -0.661068       -17.9886
 136   2.0000      -0.656980       -17.8773
 137   2.0000      -0.651500       -17.7282
 138   2.0000      -0.644881       -17.5481
 139   2.0000      -0.643031       -17.4978
 140   2.0000      -0.642239       -17.4762
 141   2.0000      -0.641160       -17.4468
 142   2.0000      -0.635646       -17.2968
 143   2.0000      -0.630837       -17.1659
 144   2.0000      -0.625144       -17.0110
 145   2.0000      -0.617853       -16.8126
 146   2.0000      -0.610215       -16.6048
 147   2.0000      -0.607022       -16.5179
 148   2.0000      -0.601669       -16.3723
 149   2.0000      -0.599554       -16.3147
 150   2.0000      -0.598990       -16.2993
 151   2.0000      -0.597701       -16.2643
 152   2.0000      -0.590538       -16.0694
 153   2.0000      -0.583975       -15.8908
 154   2.0000      -0.583904       -15.8888
 155   2.0000      -0.579826       -15.7779
 156   2.0000      -0.577982       -15.7277
 157   2.0000      -0.574877       -15.6432
 158   2.0000      -0.568031       -15.4569
 159   2.0000      -0.559051       -15.2126
 160   2.0000      -0.553628       -15.0650
 161   2.0000      -0.550690       -14.9850
 162   2.0000      -0.550416       -14.9776
 163   2.0000      -0.549354       -14.9487
 164   2.0000      -0.546197       -14.8628
 165   2.0000      -0.545134       -14.8338
 166   2.0000      -0.540254       -14.7011
 167   2.0000      -0.538633       -14.6569
 168   2.0000      -0.537726       -14.6323
 169   2.0000      -0.536074       -14.5873
 170   2.0000      -0.532710       -14.4958
 171   2.0000      -0.530838       -14.4448
 172   2.0000      -0.528860       -14.3910
 173   2.0000      -0.528572       -14.3832
 174   2.0000      -0.524796       -14.2804
 175   2.0000      -0.521927       -14.2024
 176   2.0000      -0.515568       -14.0293
 177   2.0000      -0.513802       -13.9812
 178   2.0000      -0.508117       -13.8266
 179   2.0000      -0.507131       -13.7997
 180   2.0000      -0.506085       -13.7713
 181   2.0000      -0.500987       -13.6326
 182   2.0000      -0.498819       -13.5736
 183   2.0000      -0.495863       -13.4931
 184   2.0000      -0.494251       -13.4492
 185   2.0000      -0.489762       -13.3271
 186   2.0000      -0.487457       -13.2644
 187   2.0000      -0.484688       -13.1890
 188   2.0000      -0.479245       -13.0409
 189   2.0000      -0.475489       -12.9387
 190   2.0000      -0.470220       -12.7953
 191   2.0000      -0.468522       -12.7491
 192   2.0000      -0.464861       -12.6495
 193   2.0000      -0.461430       -12.5562
 194   2.0000      -0.460747       -12.5376
 195   2.0000      -0.460139       -12.5210
 196   2.0000      -0.456836       -12.4311
 197   2.0000      -0.455390       -12.3918
 198   2.0000      -0.449076       -12.2200
 199   2.0000      -0.446656       -12.1541
 200   2.0000      -0.446391       -12.1469
 201   2.0000      -0.443744       -12.0749
 202   2.0000      -0.443174       -12.0594
 203   2.0000      -0.441393       -12.0109
 204   2.0000      -0.436593       -11.8803
 205   2.0000      -0.435446       -11.8491
 206   2.0000      -0.432912       -11.7801
 207   2.0000      -0.430957       -11.7269
 208   2.0000      -0.428664       -11.6645
 209   2.0000      -0.422238       -11.4897
 210   2.0000      -0.419280       -11.4092
 211   2.0000      -0.418638       -11.3917
 212   2.0000      -0.413034       -11.2392
 213   2.0000      -0.411315       -11.1925
 214   2.0000      -0.408262       -11.1094
 215   2.0000      -0.399807       -10.8793
 216   2.0000      -0.397445       -10.8150
 217   2.0000      -0.396544       -10.7905
 218   2.0000      -0.389321       -10.5940
 219   2.0000      -0.380063       -10.3420
 220   2.0000      -0.376401       -10.2424
 221   2.0000      -0.356434        -9.6991
 222   2.0000      -0.355750        -9.6804
 223   2.0000      -0.349464        -9.5094
 224   2.0000      -0.343496        -9.3470
 225   2.0000      -0.339115        -9.2278
 226   2.0000      -0.338514        -9.2114
 227   2.0000      -0.336407        -9.1541
 228   2.0000      -0.326041        -8.8720
 229   2.0000      -0.319313        -8.6890
 230   2.0000      -0.310793        -8.4571
 231   2.0000      -0.307195        -8.3592
 232   2.0000      -0.297657        -8.0996
 233   2.0000      -0.274562        -7.4712
 234   2.0000      -0.235135        -6.3984
 235   0.0000      -0.115471        -3.1421
 236   0.0000      -0.084982        -2.3125
 237   0.0000      -0.071702        -1.9511
 238   0.0000      -0.062842        -1.7100
 239   0.0000      -0.056495        -1.5373

MULLIKEN ATOMIC CHARGES
-----------------------
   0 C :   -0.087009
   1 C :    0.228578
   2 F :   -0.166258
   3 C :    0.227549
   4 F :   -0.162703
   5 C :   -0.107745
   6 C :    0.006922
   7 C :    0.035860
   8 C :    0.314004
   9 C :   -0.368486
  10 C :   -0.196153
  11 N :    0.152457
  12 C :   -0.183458
  13 N :    0.147421
  14 C :   -0.085062
  15 C :    0.166987
  16 O :   -0.167396
  17 C :   -0.043577
  18 C :    0.086244
  19 O :   -0.190197
  20 C :    0.148862
  21 C :   -0.109641
  22 C :    0.094881
  23 O :   -0.143118
  24 S :    0.031833
  25 C :   -0.086413
  26 C :   -0.034568
  27 C :   -0.098877
  28 S :    0.193160
  29 C :   -0.158676
  30 C :    0.119380
  31 C :    0.108651
  32 N :   -0.029623
  33 C :    0.139485
  34 N :    0.305564
  35 O :   -0.267276
  36 O :   -0.224920
  37 C :   -0.055014
  38 C :    0.139518
  39 O :   -0.198498
  40 C :    0.128090
  41 C :   -0.086621
  42 C :    0.048735
  43 O :   -0.177405
  44 S :    0.069585
  45 C :   -0.037478
  46 C :    0.026761
  47 C :    0.012998
  48 C :   -0.105817
  49 C :    0.132643
  50 O :   -0.142942
  51 C :    0.004887
  52 C :    0.023376
  53 C :   -0.082460
  54 C :    0.234603
  55 C :    0.230963
  56 C :   -0.096391
  57 F :   -0.168912
  58 F :   -0.163338
  59 C :    0.299249
  60 C :   -0.337612
  61 C :   -0.194369
  62 N :    0.159547
  63 C :   -0.192609
  64 N :    0.166479
  65 H :    0.012741
  66 H :   -0.014810
  67 H :    0.013970
  68 H :    0.202326
  69 H :    0.078054
  70 H :   -0.018286
  71 H :    0.033424
  72 H :    0.153863
  73 H :   -0.021936
  74 H :    0.186652
  75 H :    0.058860
  76 H :    0.013691
  77 H :    0.018201
  78 H :    0.015778
  79 H :    0.021424
  80 H :    0.011397
Sum of atomic charges:   -0.0000000

LOEWDIN ATOMIC CHARGES
----------------------
   0 C :   -0.021270
   1 C :    0.071360
   2 F :   -0.045450
   3 C :    0.069385
   4 F :   -0.040460
   5 C :   -0.007662
   6 C :   -0.048554
   7 C :   -0.016964
   8 C :    0.076803
   9 C :   -0.147391
  10 C :   -0.019752
  11 N :   -0.056690
  12 C :   -0.024342
  13 N :   -0.053087
  14 C :   -0.117450
  15 C :    0.093630
  16 O :   -0.168548
  17 C :    0.051181
  18 C :   -0.023534
  19 O :    0.031103
  20 C :    0.059565
  21 C :   -0.255084
  22 C :    0.040244
  23 O :   -0.012675
  24 S :    0.221746
  25 C :   -0.086241
  26 C :    0.007731
  27 C :   -0.216704
  28 S :    0.473678
  29 C :   -0.167720
  30 C :   -0.063594
  31 C :    0.018639
  32 N :    0.078023
  33 C :   -0.000017
  34 N :    0.286271
  35 O :   -0.223389
  36 O :   -0.187639
  37 C :   -0.011262
  38 C :    0.006523
  39 O :    0.028120
  40 C :    0.013711
  41 C :   -0.218781
  42 C :   -0.006700
  43 O :   -0.040460
  44 S :    0.253822
  45 C :    0.006426
  46 C :   -0.027496
  47 C :    0.060963
  48 C :   -0.097181
  49 C :    0.081855
  50 O :   -0.142037
  51 C :   -0.047454
  52 C :   -0.011539
  53 C :   -0.018190
  54 C :    0.074813
  55 C :    0.069965
  56 C :   -0.004988
  57 F :   -0.045379
  58 F :   -0.041802
  59 C :    0.068873
  60 C :   -0.132554
  61 C :   -0.016521
  62 N :   -0.050399
  63 C :   -0.021848
  64 N :   -0.037909
  65 H :    0.050273
  66 H :    0.042576
  67 H :    0.055395
  68 H :    0.106767
  69 H :   -0.013164
  70 H :    0.024963
  71 H :    0.043345
  72 H :    0.089612
  73 H :    0.037037
  74 H :    0.095595
  75 H :   -0.023548
  76 H :    0.041888
  77 H :    0.032903
  78 H :    0.044116
  79 H :    0.052435
  80 H :    0.052093

  Mayer bond orders larger than 0.100000
B(  0-C ,  1-C ) :   1.3324 B(  0-C ,  5-C ) :   0.1056 B(  0-C ,  7-C ) :   1.3170
B(  0-C , 65-H ) :   0.9899 B(  1-C ,  2-F ) :   1.1466 B(  1-C ,  3-C ) :   1.2864
B(  3-C ,  4-F ) :   1.1387 B(  3-C ,  5-C ) :   1.3345 B(  5-C ,  6-C ) :   1.3046
B(  5-C , 66-H ) :   1.0109 B(  6-C ,  7-C ) :   1.3375 B(  6-C , 15-C ) :   0.9617
B(  7-C ,  8-C ) :   1.0001 B(  8-C ,  9-C ) :   1.6104 B(  8-C , 14-C ) :   1.1045
B(  9-C , 10-C ) :   1.1460 B(  9-C , 12-C ) :   1.1408 B( 10-C , 11-N ) :   2.9751
B( 12-C , 13-N ) :   2.9564 B( 14-C , 15-C ) :   0.9757 B( 14-C , 17-C ) :   1.4320
B( 15-C , 16-O ) :   2.1052 B( 17-C , 18-C ) :   1.3131 B( 17-C , 67-H ) :   0.9235
B( 18-C , 19-O ) :   1.0984 B( 18-C , 22-C ) :   1.2888 B( 19-O , 20-C ) :   1.1887
B( 20-C , 21-C ) :   1.3647 B( 20-C , 25-C ) :   1.1972 B( 21-C , 22-C ) :   1.3072
B( 21-C , 24-S ) :   0.9963 B( 22-C , 23-O ) :   1.3033 B( 23-O , 68-H ) :   0.9441
B( 24-S , 69-H ) :   0.9506 B( 25-C , 26-C ) :   1.5803 B( 25-C , 70-H ) :   0.9651
B( 26-C , 27-C ) :   1.2062 B( 26-C , 71-H ) :   0.9540 B( 27-C , 28-S ) :   1.0427
B( 27-C , 29-C ) :   0.1065 B( 27-C , 31-C ) :   1.3525 B( 28-S , 29-C ) :   1.1657
B( 29-C , 30-C ) :   1.2827 B( 29-C , 38-C ) :   1.2074 B( 30-C , 31-C ) :   1.2193
B( 30-C , 37-C ) :   1.1666 B( 31-C , 32-N ) :   1.2399 B( 32-N , 33-C ) :   1.1724
B( 32-N , 72-H ) :   0.8751 B( 33-C , 34-N ) :   0.9291 B( 33-C , 37-C ) :   1.4971
B( 34-N , 35-O ) :   1.4320 B( 34-N , 36-O ) :   1.5525 B( 35-O , 36-O ) :   0.2668
B( 37-C , 73-H ) :   1.0247 B( 38-C , 39-O ) :   1.1616 B( 38-C , 40-C ) :   0.1127
B( 38-C , 42-C ) :   1.3711 B( 39-O , 40-C ) :   1.1321 B( 40-C , 41-C ) :   1.3849
B( 40-C , 45-C ) :   1.1978 B( 41-C , 42-C ) :   1.3011 B( 41-C , 44-S ) :   1.0256
B( 42-C , 43-O ) :   1.2513 B( 43-O , 74-H ) :   0.9446 B( 44-S , 75-H ) :   0.9443
B( 45-C , 46-C ) :   1.5759 B( 45-C , 76-H ) :   0.9684 B( 46-C , 47-C ) :   1.1563
B( 46-C , 77-H ) :   0.9717 B( 47-C , 48-C ) :   1.5707 B( 47-C , 78-H ) :   0.9515
B( 48-C , 49-C ) :   0.9531 B( 48-C , 59-C ) :   1.0430 B( 49-C , 50-O ) :   2.2542
B( 49-C , 51-C ) :   0.9367 B( 51-C , 52-C ) :   1.3439 B( 51-C , 56-C ) :   1.3233
B( 52-C , 53-C ) :   1.3172 B( 52-C , 59-C ) :   1.0060 B( 53-C , 54-C ) :   1.3420
B( 53-C , 56-C ) :   0.1031 B( 53-C , 79-H ) :   0.9904 B( 54-C , 55-C ) :   1.2892
B( 54-C , 58-F ) :   1.1450 B( 55-C , 56-C ) :   1.3200 B( 55-C , 57-F ) :   1.1313
B( 56-C , 80-H ) :   1.0196 B( 59-C , 60-C ) :   1.6364 B( 60-C , 61-C ) :   1.1755
B( 60-C , 63-C ) :   1.1266 B( 61-C , 62-N ) :   2.9536 B( 63-C , 64-N ) :   2.9937

-----------------------------------------------------------------------------
         ABSORPTION SPECTRUM VIA TRANSITION ELECTRIC DIPOLE MOMENTS
-----------------------------------------------------------------------------
State   Energy  Wavelength   fosc         T2         TX        TY        TZ
        (cm-1)    (nm)                  (au**2)     (au)      (au)      (au)
-----------------------------------------------------------------------------
   0   11811.1    846.7   1.048284816  29.21899   2.40712  -4.81868   0.45284
   1   18221.5    548.8   0.566670693  10.23818  -0.23307  -1.77354  -2.65300
   2   20682.4    483.5   0.047873066   0.76202  -0.22211   0.04122  -0.84320
   3   20950.6    477.3   0.088787838   1.39519  -0.43661   0.11767  -1.09120
   4   22583.7    442.8   0.000121729   0.00177  -0.00959  -0.03945  -0.01125
   5   23916.3    418.1   0.144924999   1.99492  -0.91798   0.84621  -0.66043
   6   25266.5    395.8   0.098523391   1.28372   0.07274   0.26069   1.10021
   7   27774.7    360.0   0.030107118   0.35686  -0.15454   0.40128   0.41467
   8   28194.2    354.7   0.103534248   1.20893  -0.59982   0.88984   0.23943
   9   28374.0    352.4   0.455013556   5.27933  -1.33726   0.18643  -1.85911
  10   29053.3    344.2   0.003168113   0.03590   0.11524   0.10937   0.10323
  11   29463.8    339.4   0.203534993   2.27418  -0.81426   0.25430  -1.24358
  12   29794.6    335.6   0.047021024   0.51955  -0.30182  -0.28974  -0.58695
  13   29876.2    334.7   0.000055520   0.00061   0.01065   0.02204  -0.00357
  14   30112.4    332.1   0.184770152   2.02005  -0.49161   1.10235   0.75047
  15   30625.1    326.5   0.183066759   1.96792  -0.86397   0.50913  -0.98095
  16   31473.5    317.7   0.115037864   1.20329  -0.43878  -0.31721  -0.95401
  17   31718.6    315.3   0.132836845   1.37873  -0.55552   0.09341  -1.03025
  18   32739.6    305.4   0.249318997   2.50702   1.06625  -0.55567   1.03023
  19   33043.6    302.6   0.024845179   0.24753   0.02427   0.19610   0.45660
  20   33184.9    301.3   0.000070658   0.00070   0.02411   0.00498  -0.00973
  21   33482.3    298.7   0.086918059   0.85461   0.60539  -0.55217   0.42805
  22   33983.3    294.3   0.003643320   0.03529  -0.00186  -0.18757   0.01045
  23   34552.1    289.4   0.088720331   0.84533   0.45819  -0.18659   0.77496
  24   34853.2    286.9   0.032813777   0.30995  -0.38892   0.29230  -0.27064
  25   35002.4    285.7   0.241369786   2.27018  -0.82424   1.26126  -0.00514
  26   35381.7    282.6   0.025783670   0.23991  -0.08935  -0.04750  -0.47924
  27   35868.3    278.8   0.367087065   3.36925   0.83670  -1.63336  -0.03611
  28   36329.6    275.3   0.096417039   0.87371   0.47346  -0.03312   0.80527
  29   36521.7    273.8   0.201490449   1.81626   0.98792  -0.47408   0.78455
  30   36920.7    270.9   0.739032024   6.58974   1.89568  -1.21372   1.23412
  31   37098.1    269.6   0.006517302   0.05784   0.23246  -0.03613   0.04993
  32   37215.3    268.7   0.000033839   0.00030  -0.01471   0.00654   0.00634
  33   37280.3    268.2   0.226303525   1.99843  -0.22690   0.78346   1.15462
  34   37393.9    267.4   0.008493559   0.07478   0.04904  -0.13385  -0.23336
  35   37801.8    264.5   0.000475928   0.00414  -0.03250   0.01897   0.05224
  36   38198.5    261.8   0.001977833   0.01705   0.04018  -0.12402   0.00712
  37   38333.4    260.9   0.006048599   0.05195  -0.13592   0.17934  -0.03617
  38   38663.1    258.6   0.160608595   1.36756  -0.51755   0.11502  -1.04234
  39   38955.7    256.7   0.002180542   0.01843   0.08599  -0.09942   0.03389
  40   39122.5    255.6   0.156815782   1.31959  -0.35023  -0.51944  -0.96286
  41   39224.8    254.9   0.029564163   0.24813  -0.23416   0.43710   0.04733
  42   39575.0    252.7   0.155332032   1.29216  -0.26306  -0.39395  -1.03332
  43   39682.1    252.0   0.000114329   0.00095  -0.02532  -0.00307   0.01727

FINAL SINGLE POINT ENERGY     -4206.336387580782

DIPOLE MOMENT
-------------
                                X             Y             Z
Electronic contribution:     17.51973       2.39681      32.93666
Nuclear contribution   :    -17.81554      -6.08485     -39.08455
                        -----------------------------------------
Total Dipole Moment    :     -0.29581      -3.68804      -6.14789
                        -----------------------------------------
Magnitude (a.u.)       :      7.17536
Magnitude (Debye)      :     18.23830

Rotational constants in cm-1:     0.001393     0.000477     0.000358
Rotational constants in MHz :    41.755039    14.303743    10.734948

                             ****ORCA TERMINATED NORMALLY****
TOTAL RUN TIME: 0 days 0 hours 7 minutes 56 seconds 759 msec
