                         Program Version 4.2.0 -  RELEASE  -
|  1> # ORCA input file
|  2> # SCF done       -176.431064218961          0.000895768938
|  3> ! CAM-B3LYP def2-SVP def2/J RIJCOSX Grid4 TightSCF
|  4> %maxcore 5000
|  5> %tddft
|  6>     Mode sTDDFT
|  7>     Ethresh 5.0
|  8>     maxcore 5000
|  9> end
| 10>
| 11> %pal
| 12>   nprocs 6
| 13>   end
| 14> * xyz 0 1
| 15>    C       -3.97984       -14.08784         3.53935
| 16>    C       -3.80797       -15.22065         2.75786
| 17>    F       -4.86560       -16.00191         2.50840
| 18>    C       -2.56449       -15.56301         2.22680
| 19>    F       -2.44476       -16.66638         1.47717
| 20>    C       -1.45262       -14.77153         2.46614
| 21>    C       -1.62353       -13.64303         3.24254
| 22>    C       -2.87207       -13.29087         3.78332
| 23>    C       -2.72905       -12.05169         4.55079
| 24>    C       -3.73475       -11.41879         5.23536
| 25>    C       -5.06805       -11.87506         5.29087
| 26>    N       -6.16761       -12.19321         5.37648
| 27>    C       -3.57693       -10.23094         5.97897
| 28>    N       -3.51609        -9.26679         6.59972
| 29>    C       -1.34837       -11.64234         4.44838
| 30>    C       -0.61146       -12.63392         3.63590
| 31>    O        0.56424       -12.62690         3.34525
| 32>    C       -0.74740       -10.52310         4.96316
| 33>    C        0.58409       -10.24902         4.76863
| 34>    C        1.75606        -9.94392         4.61194
| 35>    C        3.08205        -9.69679         4.35782
| 36>    S        4.04803       -10.87111         3.49486
| 37>    C        5.43099        -9.81837         3.57670
| 38>    C        5.13700        -8.63474         4.24020
| 39>    C        3.82466        -8.56974         4.68127
| 40>    C        6.63655       -10.18997         3.01352
| 41>    C        7.67659       -10.54555         2.49162
| 42>    C        8.85577       -10.95677         1.89193
| 43>    C        9.89807       -10.12490         1.64412
| 44>    C       11.10624       -10.51083         1.01016
| 45>    N       12.07426        -9.57476         0.70094
| 46>    C       13.10862       -10.20573         0.08720
| 47>    C       14.35224       -10.01788        -0.50743
| 48>    C       14.78039       -11.28494        -0.92163
| 49>    N       13.82352       -12.22283        -0.58853
| 50>    C       12.78974       -11.58626         0.02031
| 51>    C       11.53704       -11.77640         0.59324
| 52>    C       15.99455       -11.59538        -1.58495
| 53>    C       16.42827       -12.84122        -1.90152
| 54>    C       17.62271       -13.08383        -2.56303
| 55>    C       18.66430       -13.29486        -3.15441
| 56>    C       19.84492       -13.58250        -3.81257
| 57>    S       20.46843       -15.20829        -3.85249
| 58>    C       21.83906       -14.68220        -4.80243
| 59>    C       21.78002       -13.32248        -5.05902
| 60>    C       20.66738       -12.70625        -4.50132
| 61>    C       22.81202       -15.57948        -5.18098
| 62>    C       23.65641       -16.40728        -5.47766
| 63>    C       24.62677       -17.33417        -5.79071
| 64>    C       24.62031       -18.60185        -5.28530
| 65>    C       25.61200       -19.54571        -5.60439
| 66>    C       25.77763       -20.79473        -5.06786
| 67>    C       26.58288       -21.80539        -5.79210
| 68>    O       27.32564       -21.61690        -6.72826
| 69>    C       26.23858       -23.10035        -5.15741
| 70>    C       25.37872       -22.87239        -4.06859
| 71>    C       24.89107       -23.94064        -3.33391
| 72>    C       25.28010       -25.21845        -3.70822
| 73>    C       26.14212       -25.43596        -4.78286
| 74>    C       26.63289       -24.37189        -5.52297
| 75>    F       26.49572       -26.68674        -5.10521
| 76>    F       24.81111       -26.26605        -3.02003
| 77>    C       25.18835       -21.42812        -3.91297
| 78>    C       24.73815       -20.81380        -2.77225
| 79>    C       24.85168       -19.43140        -2.51305
| 80>    N       24.96948       -18.32849        -2.21738
| 81>    C       24.21037       -21.50567        -1.66266
| 82>    N       23.74696       -22.01538        -0.74424
| 83>    H       -4.96145       -13.86717         3.92540
| 84>    H       -0.48950       -15.03154         2.05685
| 85>    H       -1.31394        -9.80220         5.53798
| 86>    H        5.86906        -7.86117         4.38922
| 87>    H        3.40134        -7.73804         5.21603
| 88>    H        8.90381       -11.99784         1.60325
| 89>    H        9.81059        -9.08317         1.92778
| 90>    H       11.99675        -8.59069         0.89185
| 91>    H       14.90040        -9.10599        -0.63425
| 92>    H       13.88312       -13.20487        -0.79126
| 93>    H       10.99828       -12.69476         0.70868
| 94>    H       16.61439       -10.74803        -1.84341
| 95>    H       15.85728       -13.72276        -1.63692
| 96>    H       22.53521       -12.81281        -5.63047
| 97>    H       20.44579       -11.65745        -4.58705
| 98>    H       25.43476       -17.00919        -6.43498
| 99>    H       23.81036       -18.88876        -4.63005
|100>    H       26.28318       -19.30692        -6.42333
|101>    H       24.22127       -23.82262        -2.49782
|102>    H       27.29873       -24.53829        -6.35463
|103> *
|104>
|105>                          ****END OF INPUT****

CARTESIAN COORDINATES (ANGSTROEM)
---------------------------------
  C     -3.979840  -14.087840    3.539350
  C     -3.807970  -15.220650    2.757860
  F     -4.865600  -16.001910    2.508400
  C     -2.564490  -15.563010    2.226800
  F     -2.444760  -16.666380    1.477170
  C     -1.452620  -14.771530    2.466140
  C     -1.623530  -13.643030    3.242540
  C     -2.872070  -13.290870    3.783320
  C     -2.729050  -12.051690    4.550790
  C     -3.734750  -11.418790    5.235360
  C     -5.068050  -11.875060    5.290870
  N     -6.167610  -12.193210    5.376480
  C     -3.576930  -10.230940    5.978970
  N     -3.516090   -9.266790    6.599720
  C     -1.348370  -11.642340    4.448380
  C     -0.611460  -12.633920    3.635900
  O      0.564240  -12.626900    3.345250
  C     -0.747400  -10.523100    4.963160
  C      0.584090  -10.249020    4.768630
  C      1.756060   -9.943920    4.611940
  C      3.082050   -9.696790    4.357820
  S      4.048030  -10.871110    3.494860
  C      5.430990   -9.818370    3.576700
  C      5.137000   -8.634740    4.240200
  C      3.824660   -8.569740    4.681270
  C      6.636550  -10.189970    3.013520
  C      7.676590  -10.545550    2.491620
  C      8.855770  -10.956770    1.891930
  C      9.898070  -10.124900    1.644120
  C     11.106240  -10.510830    1.010160
  N     12.074260   -9.574760    0.700940
  C     13.108620  -10.205730    0.087200
  C     14.352240  -10.017880   -0.507430
  C     14.780390  -11.284940   -0.921630
  N     13.823520  -12.222830   -0.588530
  C     12.789740  -11.586260    0.020310
  C     11.537040  -11.776400    0.593240
  C     15.994550  -11.595380   -1.584950
  C     16.428270  -12.841220   -1.901520
  C     17.622710  -13.083830   -2.563030
  C     18.664300  -13.294860   -3.154410
  C     19.844920  -13.582500   -3.812570
  S     20.468430  -15.208290   -3.852490
  C     21.839060  -14.682200   -4.802430
  C     21.780020  -13.322480   -5.059020
  C     20.667380  -12.706250   -4.501320
  C     22.812020  -15.579480   -5.180980
  C     23.656410  -16.407280   -5.477660
  C     24.626770  -17.334170   -5.790710
  C     24.620310  -18.601850   -5.285300
  C     25.612000  -19.545710   -5.604390
  C     25.777630  -20.794730   -5.067860
  C     26.582880  -21.805390   -5.792100
  O     27.325640  -21.616900   -6.728260
  C     26.238580  -23.100350   -5.157410
  C     25.378720  -22.872390   -4.068590
  C     24.891070  -23.940640   -3.333910
  C     25.280100  -25.218450   -3.708220
  C     26.142120  -25.435960   -4.782860
  C     26.632890  -24.371890   -5.522970
  F     26.495720  -26.686740   -5.105210
  F     24.811110  -26.266050   -3.020030
  C     25.188350  -21.428120   -3.912970
  C     24.738150  -20.813800   -2.772250
  C     24.851680  -19.431400   -2.513050
  N     24.969480  -18.328490   -2.217380
  C     24.210370  -21.505670   -1.662660
  N     23.746960  -22.015380   -0.744240
  H     -4.961450  -13.867170    3.925400
  H     -0.489500  -15.031540    2.056850
  H     -1.313940   -9.802200    5.537980
  H      5.869060   -7.861170    4.389220
  H      3.401340   -7.738040    5.216030
  H      8.903810  -11.997840    1.603250
  H      9.810590   -9.083170    1.927780
  H     11.996750   -8.590690    0.891850
  H     14.900400   -9.105990   -0.634250
  H     13.883120  -13.204870   -0.791260
  H     10.998280  -12.694760    0.708680
  H     16.614390  -10.748030   -1.843410
  H     15.857280  -13.722760   -1.636920
  H     22.535210  -12.812810   -5.630470
  H     20.445790  -11.657450   -4.587050
  H     25.434760  -17.009190   -6.434980
  H     23.810360  -18.888760   -4.630050
  H     26.283180  -19.306920   -6.423330
  H     24.221270  -23.822620   -2.497820
  H     27.298730  -24.538290   -6.354630

 Total Charge           Charge          ....    0
 Multiplicity           Mult            ....    1
 Number of Electrons    NEL             ....  470
 Basis Dimension        Dim             .... 1060

ORBITAL ENERGIES
----------------

  NO   OCC          E(Eh)            E(eV)
   0   2.0000     -88.971931     -2421.0493
   1   2.0000     -88.970031     -2420.9976
   2   2.0000     -24.802558      -674.9119
   3   2.0000     -24.801497      -674.8831
   4   2.0000     -24.801030      -674.8703
   5   2.0000     -24.800924      -674.8675
   6   2.0000     -19.220391      -523.0134
   7   2.0000     -19.219189      -522.9807
   8   2.0000     -14.470001      -393.7487
   9   2.0000     -14.466717      -393.6594
  10   2.0000     -14.420986      -392.4150
  11   2.0000     -14.419087      -392.3633
  12   2.0000     -14.418829      -392.3563
  13   2.0000     -14.415461      -392.2646
  14   2.0000     -10.387740      -282.6648
  15   2.0000     -10.387260      -282.6517
  16   2.0000     -10.387098      -282.6473
  17   2.0000     -10.386625      -282.6344
  18   2.0000     -10.370802      -282.2039
  19   2.0000     -10.370652      -282.1998
  20   2.0000     -10.348420      -281.5948
  21   2.0000     -10.348255      -281.5903
  22   2.0000     -10.347237      -281.5626
  23   2.0000     -10.346146      -281.5329
  24   2.0000     -10.333091      -281.1777
  25   2.0000     -10.331650      -281.1385
  26   2.0000     -10.328998      -281.0663
  27   2.0000     -10.324880      -280.9543
  28   2.0000     -10.324166      -280.9348
  29   2.0000     -10.323051      -280.9045
  30   2.0000     -10.322088      -280.8783
  31   2.0000     -10.321282      -280.8564
  32   2.0000     -10.321280      -280.8563
  33   2.0000     -10.318228      -280.7733
  34   2.0000     -10.318185      -280.7721
  35   2.0000     -10.317951      -280.7657
  36   2.0000     -10.317459      -280.7523
  37   2.0000     -10.317411      -280.7510
  38   2.0000     -10.315954      -280.7114
  39   2.0000     -10.309936      -280.5476
  40   2.0000     -10.309774      -280.5432
  41   2.0000     -10.309637      -280.5395
  42   2.0000     -10.309342      -280.5315
  43   2.0000     -10.305253      -280.4202
  44   2.0000     -10.303866      -280.3825
  45   2.0000     -10.303794      -280.3805
  46   2.0000     -10.303516      -280.3729
  47   2.0000     -10.303425      -280.3704
  48   2.0000     -10.302228      -280.3379
  49   2.0000     -10.300998      -280.3044
  50   2.0000     -10.299188      -280.2551
  51   2.0000     -10.298637      -280.2402
  52   2.0000     -10.298595      -280.2390
  53   2.0000     -10.298106      -280.2257
  54   2.0000     -10.297796      -280.2173
  55   2.0000     -10.297293      -280.2036
  56   2.0000     -10.296999      -280.1956
  57   2.0000     -10.294016      -280.1144
  58   2.0000     -10.291039      -280.0334
  59   2.0000     -10.290619      -280.0220
  60   2.0000     -10.289233      -279.9843
  61   2.0000     -10.288501      -279.9644
  62   2.0000     -10.288084      -279.9530
  63   2.0000     -10.285548      -279.8840
  64   2.0000     -10.282616      -279.8042
  65   2.0000     -10.280214      -279.7388
  66   2.0000     -10.277796      -279.6730
  67   2.0000     -10.275849      -279.6201
  68   2.0000      -8.067236      -219.5207
  69   2.0000      -8.065618      -219.4766
  70   2.0000      -6.036547      -164.2628
  71   2.0000      -6.034970      -164.2199
  72   2.0000      -6.032286      -164.1468
  73   2.0000      -6.030754      -164.1052
  74   2.0000      -6.029322      -164.0662
  75   2.0000      -6.027555      -164.0181
  76   2.0000      -1.325175       -36.0598
  77   2.0000      -1.324764       -36.0487
  78   2.0000      -1.309928       -35.6450
  79   2.0000      -1.309567       -35.6351
  80   2.0000      -1.134683       -30.8763
  81   2.0000      -1.134089       -30.8601
  82   2.0000      -1.100554       -29.9476
  83   2.0000      -1.064046       -28.9542
  84   2.0000      -1.024237       -27.8709
  85   2.0000      -1.023043       -27.8384
  86   2.0000      -1.005601       -27.3638
  87   2.0000      -1.003918       -27.3180
  88   2.0000      -0.999328       -27.1931
  89   2.0000      -0.998075       -27.1590
  90   2.0000      -0.997043       -27.1309
  91   2.0000      -0.995469       -27.0881
  92   2.0000      -0.961346       -26.1596
  93   2.0000      -0.960736       -26.1430
  94   2.0000      -0.933000       -25.3882
  95   2.0000      -0.921107       -25.0646
  96   2.0000      -0.918047       -24.9813
  97   2.0000      -0.916825       -24.9481
  98   2.0000      -0.905040       -24.6274
  99   2.0000      -0.901841       -24.5403
 100   2.0000      -0.894469       -24.3397
 101   2.0000      -0.888744       -24.1840
 102   2.0000      -0.879203       -23.9243
 103   2.0000      -0.876183       -23.8422
 104   2.0000      -0.875819       -23.8323
 105   2.0000      -0.874909       -23.8075
 106   2.0000      -0.869297       -23.6548
 107   2.0000      -0.855481       -23.2788
 108   2.0000      -0.849623       -23.1194
 109   2.0000      -0.842134       -22.9156
 110   2.0000      -0.835608       -22.7380
 111   2.0000      -0.825732       -22.4693
 112   2.0000      -0.815414       -22.1885
 113   2.0000      -0.799892       -21.7662
 114   2.0000      -0.791067       -21.5260
 115   2.0000      -0.780298       -21.2330
 116   2.0000      -0.775091       -21.0913
 117   2.0000      -0.773723       -21.0541
 118   2.0000      -0.757932       -20.6244
 119   2.0000      -0.741302       -20.1719
 120   2.0000      -0.736760       -20.0483
 121   2.0000      -0.719884       -19.5890
 122   2.0000      -0.714059       -19.4305
 123   2.0000      -0.709019       -19.2934
 124   2.0000      -0.707195       -19.2438
 125   2.0000      -0.703187       -19.1347
 126   2.0000      -0.699032       -19.0216
 127   2.0000      -0.692289       -18.8381
 128   2.0000      -0.688713       -18.7408
 129   2.0000      -0.685171       -18.6445
 130   2.0000      -0.682050       -18.5595
 131   2.0000      -0.673207       -18.3189
 132   2.0000      -0.669225       -18.2105
 133   2.0000      -0.662241       -18.0205
 134   2.0000      -0.656816       -17.8729
 135   2.0000      -0.650522       -17.7016
 136   2.0000      -0.643957       -17.5230
 137   2.0000      -0.643355       -17.5066
 138   2.0000      -0.632363       -17.2075
 139   2.0000      -0.632141       -17.2014
 140   2.0000      -0.630096       -17.1458
 141   2.0000      -0.624527       -16.9943
 142   2.0000      -0.623530       -16.9671
 143   2.0000      -0.616149       -16.7663
 144   2.0000      -0.612072       -16.6553
 145   2.0000      -0.601050       -16.3554
 146   2.0000      -0.600488       -16.3401
 147   2.0000      -0.599428       -16.3113
 148   2.0000      -0.590443       -16.0668
 149   2.0000      -0.589819       -16.0498
 150   2.0000      -0.587113       -15.9762
 151   2.0000      -0.580800       -15.8044
 152   2.0000      -0.576988       -15.7006
 153   2.0000      -0.564004       -15.3473
 154   2.0000      -0.561598       -15.2819
 155   2.0000      -0.556265       -15.1367
 156   2.0000      -0.553491       -15.0613
 157   2.0000      -0.553084       -15.0502
 158   2.0000      -0.550321       -14.9750
 159   2.0000      -0.549745       -14.9593
 160   2.0000      -0.545369       -14.8402
 161   2.0000      -0.543272       -14.7832
 162   2.0000      -0.541790       -14.7429
 163   2.0000      -0.540111       -14.6972
 164   2.0000      -0.536797       -14.6070
 165   2.0000      -0.533762       -14.5244
 166   2.0000      -0.531955       -14.4752
 167   2.0000      -0.531333       -14.4583
 168   2.0000      -0.530388       -14.4326
 169   2.0000      -0.524604       -14.2752
 170   2.0000      -0.523514       -14.2455
 171   2.0000      -0.520117       -14.1531
 172   2.0000      -0.516790       -14.0626
 173   2.0000      -0.516093       -14.0436
 174   2.0000      -0.511202       -13.9105
 175   2.0000      -0.501380       -13.6432
 176   2.0000      -0.499698       -13.5975
 177   2.0000      -0.498639       -13.5687
 178   2.0000      -0.498419       -13.5627
 179   2.0000      -0.496342       -13.5062
 180   2.0000      -0.495547       -13.4845
 181   2.0000      -0.495415       -13.4809
 182   2.0000      -0.494211       -13.4482
 183   2.0000      -0.492932       -13.4134
 184   2.0000      -0.490976       -13.3601
 185   2.0000      -0.489196       -13.3117
 186   2.0000      -0.486553       -13.2398
 187   2.0000      -0.480751       -13.0819
 188   2.0000      -0.465517       -12.6674
 189   2.0000      -0.465233       -12.6596
 190   2.0000      -0.462299       -12.5798
 191   2.0000      -0.460156       -12.5215
 192   2.0000      -0.459624       -12.5070
 193   2.0000      -0.456738       -12.4285
 194   2.0000      -0.453401       -12.3377
 195   2.0000      -0.452865       -12.3231
 196   2.0000      -0.452618       -12.3164
 197   2.0000      -0.449717       -12.2374
 198   2.0000      -0.447472       -12.1763
 199   2.0000      -0.446896       -12.1607
 200   2.0000      -0.443906       -12.0793
 201   2.0000      -0.440229       -11.9792
 202   2.0000      -0.439196       -11.9511
 203   2.0000      -0.437154       -11.8956
 204   2.0000      -0.431593       -11.7442
 205   2.0000      -0.430853       -11.7241
 206   2.0000      -0.429176       -11.6785
 207   2.0000      -0.428083       -11.6487
 208   2.0000      -0.425488       -11.5781
 209   2.0000      -0.415057       -11.2943
 210   2.0000      -0.414761       -11.2862
 211   2.0000      -0.409592       -11.1456
 212   2.0000      -0.405704       -11.0398
 213   2.0000      -0.389593       -10.6014
 214   2.0000      -0.380826       -10.3628
 215   2.0000      -0.372596       -10.1389
 216   2.0000      -0.367714       -10.0060
 217   2.0000      -0.362408        -9.8616
 218   2.0000      -0.355325        -9.6689
 219   2.0000      -0.352753        -9.5989
 220   2.0000      -0.350803        -9.5458
 221   2.0000      -0.349294        -9.5048
 222   2.0000      -0.345731        -9.4078
 223   2.0000      -0.341500        -9.2927
 224   2.0000      -0.339328        -9.2336
 225   2.0000      -0.337030        -9.1710
 226   2.0000      -0.329297        -8.9606
 227   2.0000      -0.328352        -8.9349
 228   2.0000      -0.318743        -8.6734
 229   2.0000      -0.314802        -8.5662
 230   2.0000      -0.304567        -8.2877
 231   2.0000      -0.300259        -8.1705
 232   2.0000      -0.278527        -7.5791
 233   2.0000      -0.260822        -7.0973
 234   2.0000      -0.226376        -6.1600
 235   0.0000      -0.103891        -2.8270
 236   0.0000      -0.100488        -2.7344
 237   0.0000      -0.070285        -1.9126
 238   0.0000      -0.066366        -1.8059
 239   0.0000      -0.056255        -1.5308

MULLIKEN ATOMIC CHARGES
-----------------------
   0 C :   -0.090728
   1 C :    0.235824
   2 F :   -0.165392
   3 C :    0.237371
   4 F :   -0.168965
   5 C :   -0.100058
   6 C :   -0.019574
   7 C :    0.044403
   8 C :    0.316356
   9 C :   -0.341341
  10 C :   -0.189855
  11 N :    0.158302
  12 C :   -0.192626
  13 N :    0.159907
  14 C :   -0.108325
  15 C :    0.145347
  16 O :   -0.131629
  17 C :   -0.079065
  18 C :    0.021415
  19 C :    0.095221
  20 C :   -0.192651
  21 S :    0.227207
  22 C :   -0.137152
  23 C :    0.043245
  24 C :    0.074409
  25 C :    0.046815
  26 C :    0.001998
  27 C :   -0.108341
  28 C :    0.026610
  29 C :    0.096980
  30 N :   -0.033559
  31 C :    0.117197
  32 C :   -0.161922
  33 C :    0.078863
  34 N :   -0.036948
  35 C :    0.120435
  36 C :   -0.166905
  37 C :    0.050551
  38 C :   -0.111293
  39 C :   -0.022075
  40 C :    0.054520
  41 C :   -0.137180
  42 S :    0.201181
  43 C :   -0.163259
  44 C :    0.064206
  45 C :    0.043755
  46 C :    0.085759
  47 C :   -0.001163
  48 C :   -0.064886
  49 C :    0.012716
  50 C :    0.030410
  51 C :   -0.111652
  52 C :    0.140485
  53 O :   -0.139458
  54 C :    0.000459
  55 C :    0.030807
  56 C :   -0.088170
  57 C :    0.236903
  58 C :    0.232050
  59 C :   -0.101594
  60 F :   -0.169425
  61 F :   -0.166150
  62 C :    0.272104
  63 C :   -0.328929
  64 C :   -0.219518
  65 N :    0.177310
  66 C :   -0.183258
  67 N :    0.157898
  68 H :    0.015268
  69 H :    0.008510
  70 H :    0.051348
  71 H :   -0.004825
  72 H :    0.002126
  73 H :    0.026303
  74 H :   -0.013049
  75 H :    0.122990
  76 H :   -0.031892
  77 H :    0.125226
  78 H :   -0.030234
  79 H :    0.000261
  80 H :    0.004040
  81 H :   -0.000775
  82 H :   -0.005008
  83 H :    0.041246
  84 H :    0.031272
  85 H :    0.020031
  86 H :    0.017507
  87 H :    0.013683
Sum of atomic charges:   -0.0000000

LOEWDIN ATOMIC CHARGES
----------------------
   0 C :   -0.017805
   1 C :    0.073314
   2 F :   -0.044274
   3 C :    0.071766
   4 F :   -0.046123
   5 C :   -0.006064
   6 C :   -0.043700
   7 C :   -0.015095
   8 C :    0.072757
   9 C :   -0.135022
  10 C :   -0.020359
  11 N :   -0.046642
  12 C :   -0.019291
  13 N :   -0.045957
  14 C :   -0.087505
  15 C :    0.080649
  16 O :   -0.130752
  17 C :    0.053601
  18 C :   -0.028991
  19 C :    0.000575
  20 C :   -0.200248
  21 S :    0.492782
  22 C :   -0.162152
  23 C :   -0.045926
  24 C :   -0.009630
  25 C :   -0.075313
  26 C :   -0.006574
  27 C :   -0.055817
  28 C :    0.000917
  29 C :   -0.005864
  30 N :    0.073306
  31 C :   -0.022381
  32 C :   -0.080598
  33 C :   -0.005177
  34 N :    0.068842
  35 C :   -0.011531
  36 C :   -0.085554
  37 C :    0.007512
  38 C :   -0.074994
  39 C :   -0.010270
  40 C :   -0.073691
  41 C :   -0.167092
  42 S :    0.473787
  43 C :   -0.195857
  44 C :   -0.018607
  45 C :   -0.043852
  46 C :   -0.018230
  47 C :   -0.032661
  48 C :    0.020860
  49 C :   -0.018512
  50 C :    0.067839
  51 C :   -0.097519
  52 C :    0.081994
  53 O :   -0.140397
  54 C :   -0.046410
  55 C :   -0.012179
  56 C :   -0.020823
  57 C :    0.074392
  58 C :    0.069661
  59 C :   -0.005247
  60 F :   -0.046406
  61 F :   -0.044281
  62 C :    0.068215
  63 C :   -0.134930
  64 C :   -0.026350
  65 N :   -0.041286
  66 C :   -0.020805
  67 N :   -0.047045
  68 H :    0.051451
  69 H :    0.051507
  70 H :    0.060202
  71 H :    0.036530
  72 H :    0.039936
  73 H :    0.043131
  74 H :    0.034064
  75 H :    0.090474
  76 H :    0.026832
  77 H :    0.088532
  78 H :    0.025484
  79 H :    0.042863
  80 H :    0.033280
  81 H :    0.038536
  82 H :    0.036693
  83 H :    0.050948
  84 H :    0.039050
  85 H :    0.045797
  86 H :    0.051216
  87 H :    0.052495

  Mayer bond orders larger than 0.100000
B(  0-C ,  1-C ) :   1.3372 B(  0-C ,  5-C ) :   0.1056 B(  0-C ,  7-C ) :   1.3116
B(  0-C , 68-H ) :   0.9918 B(  1-C ,  2-F ) :   1.1456 B(  1-C ,  3-C ) :   1.2910
B(  3-C ,  4-F ) :   1.1314 B(  3-C ,  5-C ) :   1.3150 B(  5-C ,  6-C ) :   1.3274
B(  5-C , 69-H ) :   1.0202 B(  6-C ,  7-C ) :   1.3421 B(  6-C , 15-C ) :   0.9391
B(  7-C ,  8-C ) :   1.0109 B(  8-C ,  9-C ) :   1.6393 B(  8-C , 14-C ) :   1.0675
B(  9-C , 10-C ) :   1.1377 B(  9-C , 12-C ) :   1.1517 B( 10-C , 11-N ) :   2.9766
B( 12-C , 13-N ) :   2.9707 B( 14-C , 15-C ) :   0.9461 B( 14-C , 17-C ) :   1.5890
B( 15-C , 16-O ) :   2.2620 B( 17-C , 18-C ) :   1.0666 B( 17-C , 70-H ) :   0.9375
B( 18-C , 19-C ) :   2.1321 B( 19-C , 20-C ) :   1.0514 B( 20-C , 21-S ) :   1.0942
B( 20-C , 22-C ) :   0.1049 B( 20-C , 24-C ) :   1.4301 B( 21-S , 22-C ) :   1.1403
B( 22-C , 23-C ) :   1.4497 B( 22-C , 25-C ) :   0.9805 B( 23-C , 24-C ) :   1.3114
B( 23-C , 71-H ) :   1.0014 B( 24-C , 72-H ) :   0.9997 B( 25-C , 26-C ) :   2.2483
B( 26-C , 27-C ) :   1.0204 B( 27-C , 28-C ) :   1.6809 B( 27-C , 73-H ) :   0.9531
B( 28-C , 29-C ) :   1.1262 B( 28-C , 74-H ) :   0.9680 B( 29-C , 30-N ) :   1.1711
B( 29-C , 36-C ) :   1.3890 B( 30-N , 31-C ) :   1.1691 B( 30-N , 75-H ) :   0.9373
B( 31-C , 32-C ) :   1.2476 B( 31-C , 35-C ) :   1.3066 B( 32-C , 33-C ) :   1.3590
B( 32-C , 76-H ) :   1.0424 B( 33-C , 34-N ) :   1.1909 B( 33-C , 37-C ) :   1.1610
B( 34-N , 35-C ) :   1.1691 B( 34-N , 77-H ) :   0.9323 B( 35-C , 36-C ) :   1.2740
B( 36-C , 78-H ) :   1.0302 B( 37-C , 38-C ) :   1.6427 B( 37-C , 79-H ) :   0.9636
B( 38-C , 39-C ) :   1.0556 B( 38-C , 80-H ) :   0.9480 B( 39-C , 40-C ) :   2.2556
B( 40-C , 41-C ) :   0.9774 B( 41-C , 42-S ) :   1.1317 B( 41-C , 43-C ) :   0.1048
B( 41-C , 45-C ) :   1.4665 B( 42-S , 43-C ) :   1.0948 B( 43-C , 44-C ) :   1.4596
B( 43-C , 46-C ) :   1.0162 B( 44-C , 45-C ) :   1.2962 B( 44-C , 81-H ) :   0.9999
B( 45-C , 82-H ) :   1.0014 B( 46-C , 47-C ) :   2.2171 B( 47-C , 48-C ) :   1.0223
B( 48-C , 49-C ) :   1.6248 B( 48-C , 83-H ) :   0.9637 B( 49-C , 50-C ) :   1.1628
B( 49-C , 84-H ) :   0.9676 B( 50-C , 51-C ) :   1.5861 B( 50-C , 85-H ) :   0.9541
B( 51-C , 52-C ) :   0.9514 B( 51-C , 62-C ) :   1.0553 B( 52-C , 53-O ) :   2.2697
B( 52-C , 54-C ) :   0.9298 B( 54-C , 55-C ) :   1.3432 B( 54-C , 59-C ) :   1.3259
B( 55-C , 56-C ) :   1.3203 B( 55-C , 62-C ) :   1.0146 B( 56-C , 57-C ) :   1.3337
B( 56-C , 59-C ) :   0.1045 B( 56-C , 86-H ) :   0.9936 B( 57-C , 58-C ) :   1.2912
B( 57-C , 61-F ) :   1.1425 B( 58-C , 59-C ) :   1.3198 B( 58-C , 60-F ) :   1.1310
B( 59-C , 87-H ) :   1.0197 B( 62-C , 63-C ) :   1.6424 B( 63-C , 64-C ) :   1.1584
B( 63-C , 66-C ) :   1.1298 B( 64-C , 65-N ) :   3.0161 B( 66-C , 67-N ) :   2.9902

-----------------------------------------------------------------------------
         ABSORPTION SPECTRUM VIA TRANSITION ELECTRIC DIPOLE MOMENTS
-----------------------------------------------------------------------------
State   Energy  Wavelength   fosc         T2         TX        TY        TZ
        (cm-1)    (nm)                  (au**2)     (au)      (au)      (au)
-----------------------------------------------------------------------------
   0   15061.6    663.9   2.927195136  63.98157  -7.30534   2.35947   2.24644
   1   17163.2    582.6   0.540596776  10.36933   1.19141   2.95073  -0.49304
   2   22379.5    446.8   0.392685527   5.77656  -1.06599  -1.29676   1.72007
   3   23090.7    433.1   0.328311101   4.68085  -0.56728   1.74433   1.14733
   4   23767.5    420.7   0.678080885   9.39234  -2.99202   0.40396   0.52631
   5   24852.1    402.4   0.177413331   2.35017   0.83136  -1.09831  -0.67284
   6   25878.4    386.4   0.025781576   0.32798  -0.46589  -0.17093   0.28584
   7   26049.0    383.9   0.070498044   0.89097   0.59954   0.00973  -0.72898
   8   28768.8    347.6   0.034632750   0.39632  -0.05303  -0.44953  -0.43752
   9   29047.8    344.3   0.121849021   1.38097  -0.85802   0.29021   0.74870
  10   29244.0    342.0   0.002356171   0.02652  -0.00906  -0.03514   0.15877
  11   30096.3    332.3   0.087733260   0.95968   0.30884  -0.45542  -0.81049
  12   30220.5    330.9   0.059267105   0.64563  -0.06144  -0.79754   0.07606
  13   30750.5    325.2   0.028938949   0.30982  -0.51927   0.03707  -0.19698
  14   31164.1    320.9   0.074813452   0.79032   0.18668   0.84759   0.19249
  15   31362.5    318.9   0.343716346   3.60798   0.24699  -1.78834  -0.59062
  16   31955.5    312.9   0.028836136   0.29708   0.20764   0.47462  -0.16941
  17   32034.6    312.2   0.004129997   0.04244  -0.03537   0.09165   0.18108
  18   32649.2    306.3   0.040985575   0.41327   0.22271  -0.47100  -0.37660
  19   33349.7    299.9   0.035808112   0.35348  -0.27948   0.07136   0.51988
  20   34147.9    292.8   0.076377724   0.73634   0.03278   0.82960  -0.21687
  21   34610.2    288.9   0.025711692   0.24457   0.10954   0.01336   0.48207
  22   34999.9    285.7   0.006332738   0.05957   0.06525   0.21208  -0.10163
  23   35294.7    283.3   0.022496062   0.20983   0.27663  -0.17887  -0.31830
  24   35519.6    281.5   0.003988431   0.03697  -0.16119   0.07520  -0.07301
  25   36400.9    274.7   0.016946464   0.15326   0.25838  -0.13822  -0.25961
  26   36695.2    272.5   0.341123257   3.06039  -0.40489   1.44747   0.89515
  27   36816.1    271.6   0.011790478   0.10543  -0.19476  -0.25898   0.02067
  28   37086.4    269.6   0.040195233   0.35681   0.06059   0.40685  -0.43314
  29   37381.0    267.5   0.143094339   1.26022  -0.89438  -0.00364   0.67845
  30   37664.7    265.5   0.452922409   3.95881  -0.87987   1.38199   1.12905
  31   37730.9    265.0   0.072741162   0.63469  -0.20484   0.70168   0.31681
  32   38012.3    263.1   0.284352922   2.46269  -0.51055   1.22041   0.84418
  33   38078.5    262.6   0.009603270   0.08303   0.14416  -0.24881   0.01840
  34   38318.5    261.0   0.102013219   0.87644  -0.83810   0.32216   0.26505
  35   38629.7    258.9   0.160812887   1.37049   0.88549  -0.06564  -0.76294
  36   38762.5    258.0   0.215703536   1.83198  -0.84206   0.56499   0.89649
  37   39428.0    253.6   0.018131368   0.15139   0.17891  -0.04933   0.34198
  38   39907.9    250.6   0.086877885   0.71668   0.33947   0.77164   0.07756
  39   40242.2    248.5   0.024182985   0.19784  -0.42073   0.11017   0.09320

FINAL SINGLE POINT ENERGY     -3740.217367376166

DIPOLE MOMENT
-------------
                                X             Y             Z
Electronic contribution:    -30.28949     -50.01857       4.80365
Nuclear contribution   :     32.42447      52.34935      -6.90490
                        -----------------------------------------
Total Dipole Moment    :      2.13498       2.33078      -2.10125
                        -----------------------------------------
Magnitude (a.u.)       :      3.79551
Magnitude (Debye)      :      9.64743

Rotational constants in cm-1:     0.001274     0.000114     0.000106
Rotational constants in MHz :    38.191117     3.412312     3.191472

                             ****ORCA TERMINATED NORMALLY****
TOTAL RUN TIME: 0 days 0 hours 6 minutes 47 seconds 380 msec
