                         Program Version 4.2.0 -  RELEASE  -
|  1> # ORCA input file
|  2> # SCF done       -191.722206646208          0.000811623178
|  3> ! CAM-B3LYP def2-SVP def2/J RIJCOSX Grid4 TightSCF
|  4> %maxcore 5000
|  5> %tddft
|  6>     Mode sTDDFT
|  7>     Ethresh 5.0
|  8>     maxcore 5000
|  9> end
| 10>
| 11> %pal
| 12>   nprocs 6
| 13>   end
| 14> * xyz 0 1
| 15>    C        4.91589        -4.06466         3.74121
| 16>    S        3.40567        -3.29822         3.55265
| 17>    C        3.87331        -2.64884         2.01033
| 18>    C        5.15778        -3.02302         1.68450
| 19>    C        5.76042        -3.83654         2.68309
| 20>    C        7.05898        -4.38712         2.62923
| 21>    N        8.09968        -4.86351         2.62404
| 22>    C        5.86265        -2.57456         0.43880
| 23>    F        5.56376        -1.30809         0.11600
| 24>    F        7.19846        -2.60604         0.58656
| 25>    F        5.58304        -3.33895        -0.62089
| 26>    C        2.92512        -1.94084         1.19675
| 27>    N        2.90155        -2.12639        -0.10559
| 28>    C        1.80568        -1.46530        -0.55204
| 29>    C        1.06726        -0.86523         0.56237
| 30>    C       -0.13181        -0.16133         0.07515
| 31>    O       -1.00272         0.38695         0.71072
| 32>    C       -0.01520        -0.32319        -1.38999
| 33>    C        1.17083        -1.14361        -1.72487
| 34>    N        1.29524        -1.27656        -3.06823
| 35>    C        0.30148        -0.59187        -3.57418
| 36>    C       -0.54760         0.04321        -2.58165
| 37>    C        1.81009        -1.10571         1.69097
| 38>    C        1.61522        -0.57930         3.00248
| 39>    C        2.62587        -0.26966         3.84340
| 40>    C        2.49421         0.40811         5.10617
| 41>    C        1.27861         0.59581         5.73391
| 42>    C        1.20500         1.38384         6.89270
| 43>    C        0.09658         1.82207         7.61779
| 44>    C       -1.31883         1.46067         7.34646
| 45>    C       -2.06804         0.99432         8.61011
| 46>    N       -3.11612         0.07782         8.21349
| 47>    C       -2.04171         2.63166         6.64924
| 48>    N       -3.35175         2.20441         6.17959
| 49>    C        0.58568         2.75884         8.59827
| 50>    C       -0.05169         3.57876         9.45725
| 51>    C        0.69595         4.56961        10.26896
| 52>    C        2.18237         4.39815        10.27321
| 53>    C        2.80751         3.59721         9.37711
| 54>    C        2.05563         2.80204         8.49297
| 55>    C        2.41304         1.97486         7.43738
| 56>    C        3.65398         1.70351         6.82507
| 57>    C        3.68290         0.94438         5.69730
| 58>    C        0.66221         5.94378         9.63918
| 59>    C        0.69589         6.17560         8.31249
| 60>    C        0.73769         7.49436         7.78297
| 61>    N        0.63576         8.57442         8.55547
| 62>    C        0.70789         9.62882         7.73034
| 63>    C        0.87113         9.20822         6.33096
| 64>    C        0.95966        10.38052         5.44226
| 65>    O        1.10390        10.39648         4.23628
| 66>    C        0.83385        11.50349         6.37923
| 67>    C        0.68485        11.00888         7.76234
| 68>    N        0.57458        12.03766         8.62925
| 69>    C        0.64229        13.12247         7.88561
| 70>    C        0.80442        12.86165         6.47695
| 71>    C        0.89117         7.83554         6.35092
| 72>    C        1.05699         6.89056         5.30048
| 73>    C        1.23087         7.22289         4.00031
| 74>    C        1.42227         6.27519         2.95381
| 75>    S        1.76594         6.82891         1.34387
| 76>    C        1.88573         5.22923         0.74510
| 77>    C        1.66687         4.30233         1.71855
| 78>    C        1.39745         4.88373         2.98964
| 79>    C        1.10265         4.10412         4.11526
| 80>    N        0.84278         3.44627         5.02007
| 81>    C        1.72930         2.82375         1.51989
| 82>    F        1.68568         2.47418         0.22658
| 83>    F        2.87243         2.29789         2.01222
| 84>    F        0.73326         2.18133         2.13655
| 85>    H        5.12595        -4.64955         4.61511
| 86>    H        0.16276        -0.54145        -4.64018
| 87>    H       -1.40357         0.65332        -2.79242
| 88>    H        0.59664        -0.30336         3.23511
| 89>    H        3.64423        -0.44098         3.51583
| 90>    H        0.37745         0.17559         5.31753
| 91>    H       -1.33361         0.61088         6.65752
| 92>    H       -2.44245         1.87127         9.16224
| 93>    H       -1.37425         0.45515         9.26421
| 94>    H       -3.75449         0.56310         7.58911
| 95>    H       -3.63301        -0.25517         9.01919
| 96>    H       -1.38892         3.00220         5.84283
| 97>    H       -2.19118         3.44839         7.36127
| 98>    H       -3.24305         1.53221         5.42575
| 99>    H       -3.86514         2.99663         5.80782
|100>    H       -1.12783         3.60648         9.53785
|101>    H        0.28451         4.62568        11.28070
|102>    H        2.73839         5.00969        10.96543
|103>    H        3.88610         3.54234         9.35026
|104>    H        4.56105         2.11837         7.23918
|105>    H        4.62329         0.75320         5.20028
|106>    H        0.69634         6.79021        10.30953
|107>    H        0.69793         5.35028         7.61374
|108>    H        0.57767        14.09506         8.34172
|109>    H        0.88110        13.60415         5.70745
|110>    H        1.05691         5.85066         5.58831
|111>    H        1.24618         8.26583         3.70979
|112>    H        2.10514         5.04387        -0.28778
|113> *
|114>
|115>                          ****END OF INPUT****

CARTESIAN COORDINATES (ANGSTROEM)
---------------------------------
  C      4.915890   -4.064660    3.741210
  S      3.405670   -3.298220    3.552650
  C      3.873310   -2.648840    2.010330
  C      5.157780   -3.023020    1.684500
  C      5.760420   -3.836540    2.683090
  C      7.058980   -4.387120    2.629230
  N      8.099680   -4.863510    2.624040
  C      5.862650   -2.574560    0.438800
  F      5.563760   -1.308090    0.116000
  F      7.198460   -2.606040    0.586560
  F      5.583040   -3.338950   -0.620890
  C      2.925120   -1.940840    1.196750
  N      2.901550   -2.126390   -0.105590
  C      1.805680   -1.465300   -0.552040
  C      1.067260   -0.865230    0.562370
  C     -0.131810   -0.161330    0.075150
  O     -1.002720    0.386950    0.710720
  C     -0.015200   -0.323190   -1.389990
  C      1.170830   -1.143610   -1.724870
  N      1.295240   -1.276560   -3.068230
  C      0.301480   -0.591870   -3.574180
  C     -0.547600    0.043210   -2.581650
  C      1.810090   -1.105710    1.690970
  C      1.615220   -0.579300    3.002480
  C      2.625870   -0.269660    3.843400
  C      2.494210    0.408110    5.106170
  C      1.278610    0.595810    5.733910
  C      1.205000    1.383840    6.892700
  C      0.096580    1.822070    7.617790
  C     -1.318830    1.460670    7.346460
  C     -2.068040    0.994320    8.610110
  N     -3.116120    0.077820    8.213490
  C     -2.041710    2.631660    6.649240
  N     -3.351750    2.204410    6.179590
  C      0.585680    2.758840    8.598270
  C     -0.051690    3.578760    9.457250
  C      0.695950    4.569610   10.268960
  C      2.182370    4.398150   10.273210
  C      2.807510    3.597210    9.377110
  C      2.055630    2.802040    8.492970
  C      2.413040    1.974860    7.437380
  C      3.653980    1.703510    6.825070
  C      3.682900    0.944380    5.697300
  C      0.662210    5.943780    9.639180
  C      0.695890    6.175600    8.312490
  C      0.737690    7.494360    7.782970
  N      0.635760    8.574420    8.555470
  C      0.707890    9.628820    7.730340
  C      0.871130    9.208220    6.330960
  C      0.959660   10.380520    5.442260
  O      1.103900   10.396480    4.236280
  C      0.833850   11.503490    6.379230
  C      0.684850   11.008880    7.762340
  N      0.574580   12.037660    8.629250
  C      0.642290   13.122470    7.885610
  C      0.804420   12.861650    6.476950
  C      0.891170    7.835540    6.350920
  C      1.056990    6.890560    5.300480
  C      1.230870    7.222890    4.000310
  C      1.422270    6.275190    2.953810
  S      1.765940    6.828910    1.343870
  C      1.885730    5.229230    0.745100
  C      1.666870    4.302330    1.718550
  C      1.397450    4.883730    2.989640
  C      1.102650    4.104120    4.115260
  N      0.842780    3.446270    5.020070
  C      1.729300    2.823750    1.519890
  F      1.685680    2.474180    0.226580
  F      2.872430    2.297890    2.012220
  F      0.733260    2.181330    2.136550
  H      5.125950   -4.649550    4.615110
  H      0.162760   -0.541450   -4.640180
  H     -1.403570    0.653320   -2.792420
  H      0.596640   -0.303360    3.235110
  H      3.644230   -0.440980    3.515830
  H      0.377450    0.175590    5.317530
  H     -1.333610    0.610880    6.657520
  H     -2.442450    1.871270    9.162240
  H     -1.374250    0.455150    9.264210
  H     -3.754490    0.563100    7.589110
  H     -3.633010   -0.255170    9.019190
  H     -1.388920    3.002200    5.842830
  H     -2.191180    3.448390    7.361270
  H     -3.243050    1.532210    5.425750
  H     -3.865140    2.996630    5.807820
  H     -1.127830    3.606480    9.537850
  H      0.284510    4.625680   11.280700
  H      2.738390    5.009690   10.965430
  H      3.886100    3.542340    9.350260
  H      4.561050    2.118370    7.239180
  H      4.623290    0.753200    5.200280
  H      0.696340    6.790210   10.309530
  H      0.697930    5.350280    7.613740
  H      0.577670   14.095060    8.341720
  H      0.881100   13.604150    5.707450
  H      1.056910    5.850660    5.588310
  H      1.246180    8.265830    3.709790
  H      2.105140    5.043870   -0.287780

 Total Charge           Charge          ....    0
 Multiplicity           Mult            ....    1
 Number of Electrons    NEL             ....  498
 Basis Dimension        Dim             .... 1128

ORBITAL ENERGIES
----------------

  NO   OCC          E(Eh)            E(eV)
   0   2.0000     -88.999159     -2421.7902
   1   2.0000     -88.993787     -2421.6441
   2   2.0000     -24.813696      -675.2150
   3   2.0000     -24.809619      -675.1040
   4   2.0000     -24.803700      -674.9430
   5   2.0000     -24.794932      -674.7044
   6   2.0000     -24.793004      -674.6519
   7   2.0000     -24.788601      -674.5321
   8   2.0000     -19.214231      -522.8458
   9   2.0000     -19.207978      -522.6756
  10   2.0000     -14.424451      -392.5093
  11   2.0000     -14.417447      -392.3187
  12   2.0000     -14.410123      -392.1194
  13   2.0000     -14.405784      -392.0013
  14   2.0000     -14.405290      -391.9879
  15   2.0000     -14.401991      -391.8981
  16   2.0000     -14.386522      -391.4772
  17   2.0000     -14.356970      -390.6730
  18   2.0000     -10.532088      -286.5927
  19   2.0000     -10.520630      -286.2809
  20   2.0000     -10.374052      -282.2923
  21   2.0000     -10.368561      -282.1429
  22   2.0000     -10.354750      -281.7671
  23   2.0000     -10.345652      -281.5195
  24   2.0000     -10.343533      -281.4618
  25   2.0000     -10.341043      -281.3941
  26   2.0000     -10.338951      -281.3372
  27   2.0000     -10.337356      -281.2938
  28   2.0000     -10.333942      -281.2009
  29   2.0000     -10.333592      -281.1913
  30   2.0000     -10.333172      -281.1799
  31   2.0000     -10.332954      -281.1740
  32   2.0000     -10.327673      -281.0303
  33   2.0000     -10.327610      -281.0286
  34   2.0000     -10.326083      -280.9870
  35   2.0000     -10.325104      -280.9604
  36   2.0000     -10.324785      -280.9517
  37   2.0000     -10.319845      -280.8173
  38   2.0000     -10.319183      -280.7992
  39   2.0000     -10.318612      -280.7837
  40   2.0000     -10.311685      -280.5952
  41   2.0000     -10.308892      -280.5192
  42   2.0000     -10.307764      -280.4885
  43   2.0000     -10.307361      -280.4775
  44   2.0000     -10.307214      -280.4735
  45   2.0000     -10.301829      -280.3270
  46   2.0000     -10.301044      -280.3057
  47   2.0000     -10.295057      -280.1427
  48   2.0000     -10.290756      -280.0257
  49   2.0000     -10.288262      -279.9578
  50   2.0000     -10.288139      -279.9545
  51   2.0000     -10.286914      -279.9212
  52   2.0000     -10.286621      -279.9132
  53   2.0000     -10.286506      -279.9101
  54   2.0000     -10.286054      -279.8978
  55   2.0000     -10.283135      -279.8183
  56   2.0000     -10.281829      -279.7828
  57   2.0000     -10.281358      -279.7700
  58   2.0000     -10.281192      -279.7655
  59   2.0000     -10.279672      -279.7241
  60   2.0000     -10.279013      -279.7062
  61   2.0000     -10.274568      -279.5852
  62   2.0000     -10.273887      -279.5667
  63   2.0000     -10.272972      -279.5418
  64   2.0000     -10.271997      -279.5153
  65   2.0000     -10.268431      -279.4182
  66   2.0000     -10.267299      -279.3874
  67   2.0000     -10.266378      -279.3623
  68   2.0000     -10.265391      -279.3355
  69   2.0000     -10.261889      -279.2402
  70   2.0000      -8.094272      -220.2563
  71   2.0000      -8.089639      -220.1303
  72   2.0000      -6.063461      -164.9952
  73   2.0000      -6.058835      -164.8693
  74   2.0000      -6.058806      -164.8685
  75   2.0000      -6.056988      -164.8190
  76   2.0000      -6.054419      -164.7491
  77   2.0000      -6.052096      -164.6859
  78   2.0000      -1.399351       -38.0783
  79   2.0000      -1.384353       -37.6702
  80   2.0000      -1.305002       -35.5109
  81   2.0000      -1.295996       -35.2658
  82   2.0000      -1.286169       -34.9984
  83   2.0000      -1.284196       -34.9448
  84   2.0000      -1.127908       -30.6919
  85   2.0000      -1.122711       -30.5505
  86   2.0000      -1.083848       -29.4930
  87   2.0000      -1.076553       -29.2945
  88   2.0000      -1.062347       -28.9079
  89   2.0000      -1.055990       -28.7349
  90   2.0000      -1.031879       -28.0789
  91   2.0000      -1.028744       -27.9935
  92   2.0000      -1.005161       -27.3518
  93   2.0000      -0.991309       -26.9749
  94   2.0000      -0.989864       -26.9356
  95   2.0000      -0.970313       -26.4036
  96   2.0000      -0.958750       -26.0889
  97   2.0000      -0.938557       -25.5394
  98   2.0000      -0.937497       -25.5106
  99   2.0000      -0.937138       -25.5008
 100   2.0000      -0.932499       -25.3746
 101   2.0000      -0.927851       -25.2481
 102   2.0000      -0.908843       -24.7309
 103   2.0000      -0.900492       -24.5036
 104   2.0000      -0.895078       -24.3563
 105   2.0000      -0.888878       -24.1876
 106   2.0000      -0.885360       -24.0919
 107   2.0000      -0.880889       -23.9702
 108   2.0000      -0.871708       -23.7204
 109   2.0000      -0.857731       -23.3400
 110   2.0000      -0.855173       -23.2704
 111   2.0000      -0.845533       -23.0081
 112   2.0000      -0.840741       -22.8777
 113   2.0000      -0.834867       -22.7179
 114   2.0000      -0.828285       -22.5388
 115   2.0000      -0.809247       -22.0207
 116   2.0000      -0.799875       -21.7657
 117   2.0000      -0.792523       -21.5656
 118   2.0000      -0.773125       -21.0378
 119   2.0000      -0.766253       -20.8508
 120   2.0000      -0.762729       -20.7549
 121   2.0000      -0.757731       -20.6189
 122   2.0000      -0.751752       -20.4562
 123   2.0000      -0.740023       -20.1371
 124   2.0000      -0.735940       -20.0259
 125   2.0000      -0.727640       -19.8001
 126   2.0000      -0.719529       -19.5794
 127   2.0000      -0.717243       -19.5172
 128   2.0000      -0.715519       -19.4703
 129   2.0000      -0.709261       -19.3000
 130   2.0000      -0.705930       -19.2093
 131   2.0000      -0.697516       -18.9804
 132   2.0000      -0.688091       -18.7239
 133   2.0000      -0.685075       -18.6418
 134   2.0000      -0.682094       -18.5607
 135   2.0000      -0.680445       -18.5159
 136   2.0000      -0.673785       -18.3346
 137   2.0000      -0.670675       -18.2500
 138   2.0000      -0.666575       -18.1384
 139   2.0000      -0.661529       -18.0011
 140   2.0000      -0.655984       -17.8502
 141   2.0000      -0.653668       -17.7872
 142   2.0000      -0.646458       -17.5910
 143   2.0000      -0.641340       -17.4517
 144   2.0000      -0.639127       -17.3915
 145   2.0000      -0.635387       -17.2898
 146   2.0000      -0.624807       -17.0019
 147   2.0000      -0.622869       -16.9491
 148   2.0000      -0.610453       -16.6113
 149   2.0000      -0.603207       -16.4141
 150   2.0000      -0.599363       -16.3095
 151   2.0000      -0.594633       -16.1808
 152   2.0000      -0.592658       -16.1270
 153   2.0000      -0.587603       -15.9895
 154   2.0000      -0.579794       -15.7770
 155   2.0000      -0.574346       -15.6288
 156   2.0000      -0.571888       -15.5619
 157   2.0000      -0.566151       -15.4058
 158   2.0000      -0.561912       -15.2904
 159   2.0000      -0.561669       -15.2838
 160   2.0000      -0.559931       -15.2365
 161   2.0000      -0.558021       -15.1845
 162   2.0000      -0.554569       -15.0906
 163   2.0000      -0.551669       -15.0117
 164   2.0000      -0.546598       -14.8737
 165   2.0000      -0.546198       -14.8628
 166   2.0000      -0.545008       -14.8304
 167   2.0000      -0.540994       -14.7212
 168   2.0000      -0.540386       -14.7047
 169   2.0000      -0.539907       -14.6916
 170   2.0000      -0.533083       -14.5059
 171   2.0000      -0.531536       -14.4638
 172   2.0000      -0.530828       -14.4446
 173   2.0000      -0.527514       -14.3544
 174   2.0000      -0.525834       -14.3087
 175   2.0000      -0.522775       -14.2254
 176   2.0000      -0.522171       -14.2090
 177   2.0000      -0.520280       -14.1575
 178   2.0000      -0.518151       -14.0996
 179   2.0000      -0.515290       -14.0218
 180   2.0000      -0.513590       -13.9755
 181   2.0000      -0.511320       -13.9137
 182   2.0000      -0.509744       -13.8709
 183   2.0000      -0.507988       -13.8231
 184   2.0000      -0.506723       -13.7886
 185   2.0000      -0.504702       -13.7336
 186   2.0000      -0.503698       -13.7063
 187   2.0000      -0.499253       -13.5854
 188   2.0000      -0.498141       -13.5551
 189   2.0000      -0.496171       -13.5015
 190   2.0000      -0.495516       -13.4837
 191   2.0000      -0.493450       -13.4275
 192   2.0000      -0.491803       -13.3826
 193   2.0000      -0.489796       -13.3280
 194   2.0000      -0.487760       -13.2726
 195   2.0000      -0.484295       -13.1783
 196   2.0000      -0.481136       -13.0924
 197   2.0000      -0.478307       -13.0154
 198   2.0000      -0.476997       -12.9797
 199   2.0000      -0.475771       -12.9464
 200   2.0000      -0.473658       -12.8889
 201   2.0000      -0.472623       -12.8607
 202   2.0000      -0.469941       -12.7878
 203   2.0000      -0.468004       -12.7350
 204   2.0000      -0.466150       -12.6846
 205   2.0000      -0.464877       -12.6499
 206   2.0000      -0.460357       -12.5269
 207   2.0000      -0.455703       -12.4003
 208   2.0000      -0.454848       -12.3770
 209   2.0000      -0.452982       -12.3263
 210   2.0000      -0.452519       -12.3137
 211   2.0000      -0.450282       -12.2528
 212   2.0000      -0.445807       -12.1310
 213   2.0000      -0.441018       -12.0007
 214   2.0000      -0.438229       -11.9248
 215   2.0000      -0.437651       -11.9091
 216   2.0000      -0.431821       -11.7505
 217   2.0000      -0.428318       -11.6551
 218   2.0000      -0.422612       -11.4999
 219   2.0000      -0.415113       -11.2958
 220   2.0000      -0.413925       -11.2635
 221   2.0000      -0.412631       -11.2283
 222   2.0000      -0.411131       -11.1874
 223   2.0000      -0.401497       -10.9253
 224   2.0000      -0.394641       -10.7387
 225   2.0000      -0.388414       -10.5693
 226   2.0000      -0.384520       -10.4633
 227   2.0000      -0.368557       -10.0289
 228   2.0000      -0.363625        -9.8947
 229   2.0000      -0.361441        -9.8353
 230   2.0000      -0.360931        -9.8214
 231   2.0000      -0.359694        -9.7878
 232   2.0000      -0.353628        -9.6227
 233   2.0000      -0.351328        -9.5601
 234   2.0000      -0.351032        -9.5521
 235   2.0000      -0.349793        -9.5183
 236   2.0000      -0.338921        -9.2225
 237   2.0000      -0.333661        -9.0794
 238   2.0000      -0.331471        -9.0198
 239   2.0000      -0.330987        -9.0066
 240   2.0000      -0.327441        -8.9101
 241   2.0000      -0.323719        -8.8088
 242   2.0000      -0.312612        -8.5066
 243   2.0000      -0.307698        -8.3729
 244   2.0000      -0.302139        -8.2216
 245   2.0000      -0.284864        -7.7516
 246   2.0000      -0.283181        -7.7057
 247   2.0000      -0.275913        -7.5080
 248   2.0000      -0.220695        -6.0054
 249   0.0000      -0.116826        -3.1790
 250   0.0000      -0.113652        -3.0926
 251   0.0000      -0.079323        -2.1585
 252   0.0000      -0.069295        -1.8856
 253   0.0000      -0.047051        -1.2803

MULLIKEN ATOMIC CHARGES
-----------------------
   0 C :   -0.058808
   1 S :    0.227270
   2 C :   -0.216683
   3 C :    0.027063
   4 C :   -0.108658
   5 C :   -0.171168
   6 N :    0.152168
   7 C :    0.539060
   8 F :   -0.156968
   9 F :   -0.152787
  10 F :   -0.137930
  11 C :    0.014967
  12 N :   -0.031290
  13 C :    0.074793
  14 C :   -0.127613
  15 C :    0.196303
  16 O :   -0.129980
  17 C :   -0.036586
  18 C :   -0.013909
  19 N :   -0.048505
  20 C :    0.088551
  21 C :   -0.095317
  22 C :    0.025767
  23 C :   -0.031083
  24 C :   -0.008061
  25 C :    0.088792
  26 C :   -0.066797
  27 C :    0.095848
  28 C :   -0.005061
  29 C :   -0.068157
  30 C :    0.154635
  31 N :   -0.220591
  32 C :    0.135364
  33 N :   -0.216472
  34 C :    0.089574
  35 C :   -0.116846
  36 C :    0.149150
  37 C :   -0.044203
  38 C :    0.016531
  39 C :   -0.000899
  40 C :    0.049571
  41 C :   -0.009585
  42 C :   -0.007829
  43 C :   -0.029060
  44 C :   -0.024884
  45 C :    0.046595
  46 N :   -0.044642
  47 C :    0.070967
  48 C :   -0.163959
  49 C :    0.221078
  50 O :   -0.152052
  51 C :   -0.015211
  52 C :   -0.049774
  53 N :   -0.055635
  54 C :    0.087923
  55 C :   -0.096224
  56 C :    0.048913
  57 C :   -0.037464
  58 C :    0.070021
  59 C :   -0.087396
  60 S :    0.192541
  61 C :   -0.111524
  62 C :   -0.013538
  63 C :   -0.066459
  64 C :   -0.184630
  65 N :    0.138965
  66 C :    0.544664
  67 F :   -0.156352
  68 F :   -0.164902
  69 F :   -0.146621
  70 H :    0.049293
  71 H :    0.011551
  72 H :   -0.006243
  73 H :    0.011387
  74 H :   -0.001367
  75 H :   -0.035802
  76 H :   -0.021898
  77 H :   -0.030645
  78 H :   -0.003970
  79 H :    0.081174
  80 H :    0.080712
  81 H :    0.005393
  82 H :   -0.022328
  83 H :    0.104349
  84 H :    0.095990
  85 H :    0.001541
  86 H :    0.023011
  87 H :   -0.002702
  88 H :   -0.028707
  89 H :   -0.037855
  90 H :   -0.027750
  91 H :    0.042440
  92 H :    0.025877
  93 H :    0.005282
  94 H :   -0.007884
  95 H :   -0.022170
  96 H :   -0.003218
  97 H :    0.049580
Sum of atomic charges:   -0.0000000

LOEWDIN ATOMIC CHARGES
----------------------
   0 C :   -0.135259
   1 S :    0.536497
   2 C :   -0.169341
   3 C :   -0.069273
   4 C :   -0.093483
   5 C :   -0.040833
   6 N :   -0.035608
   7 C :    0.167650
   8 F :   -0.053139
   9 F :   -0.049519
  10 F :   -0.042167
  11 C :    0.042299
  12 N :   -0.080197
  13 C :    0.047000
  14 C :   -0.055396
  15 C :    0.061913
  16 O :   -0.140699
  17 C :   -0.037936
  18 C :    0.028870
  19 N :   -0.093182
  20 C :    0.075931
  21 C :   -0.035653
  22 C :   -0.028914
  23 C :   -0.037657
  24 C :   -0.002767
  25 C :   -0.039182
  26 C :    0.019819
  27 C :   -0.012215
  28 C :   -0.004357
  29 C :   -0.040003
  30 C :    0.030350
  31 N :   -0.126078
  32 C :    0.023650
  33 N :   -0.105304
  34 C :   -0.012431
  35 C :    0.065159
  36 C :   -0.030318
  37 C :   -0.031550
  38 C :   -0.011235
  39 C :   -0.046220
  40 C :   -0.014620
  41 C :   -0.013321
  42 C :   -0.017570
  43 C :    0.097063
  44 C :   -0.066716
  45 C :    0.079028
  46 N :   -0.116976
  47 C :    0.048271
  48 C :   -0.033827
  49 C :    0.068091
  50 O :   -0.151242
  51 C :   -0.044899
  52 C :    0.012469
  53 N :   -0.098356
  54 C :    0.067202
  55 C :   -0.040729
  56 C :   -0.033888
  57 C :   -0.007155
  58 C :   -0.022649
  59 C :   -0.130022
  60 S :    0.504343
  61 C :   -0.156315
  62 C :   -0.097633
  63 C :   -0.103819
  64 C :   -0.018555
  65 N :   -0.037977
  66 C :    0.172352
  67 F :   -0.051774
  68 F :   -0.065209
  69 F :   -0.031233
  70 H :    0.041064
  71 H :    0.024064
  72 H :    0.033611
  73 H :    0.036198
  74 H :    0.023319
  75 H :    0.025747
  76 H :    0.026174
  77 H :   -0.006505
  78 H :    0.016092
  79 H :    0.036128
  80 H :    0.049113
  81 H :    0.005130
  82 H :    0.009991
  83 H :    0.058522
  84 H :    0.057221
  85 H :    0.029057
  86 H :    0.050346
  87 H :    0.027781
  88 H :    0.032169
  89 H :    0.027107
  90 H :    0.025986
  91 H :    0.041778
  92 H :    0.035839
  93 H :    0.022254
  94 H :    0.033174
  95 H :    0.033639
  96 H :    0.033893
  97 H :    0.037548

  Mayer bond orders larger than 0.100000
B(  0-C ,  1-S ) :   1.2062 B(  0-C ,  4-C ) :   1.5384 B(  0-C , 70-H ) :   0.9742
B(  1-S ,  2-C ) :   1.1921 B(  2-C ,  3-C ) :   1.5340 B(  2-C , 11-C ) :   1.0306
B(  3-C ,  4-C ) :   1.2923 B(  3-C ,  7-C ) :   0.9320 B(  4-C ,  5-C ) :   1.0925
B(  5-C ,  6-N ) :   3.0472 B(  7-C ,  8-F ) :   1.1623 B(  7-C ,  9-F ) :   1.1571
B(  7-C , 10-F ) :   1.2093 B( 11-C , 12-N ) :   1.6603 B( 11-C , 13-C ) :   0.1166
B( 11-C , 22-C ) :   1.0192 B( 12-N , 13-C ) :   1.3046 B( 13-C , 14-C ) :   1.0550
B( 13-C , 18-C ) :   1.4436 B( 14-C , 15-C ) :   0.8894 B( 14-C , 22-C ) :   1.5571
B( 15-C , 16-O ) :   2.2832 B( 15-C , 17-C ) :   0.8948 B( 17-C , 18-C ) :   1.0492
B( 17-C , 21-C ) :   1.6299 B( 18-C , 19-N ) :   1.3039 B( 19-N , 20-C ) :   1.6715
B( 20-C , 21-C ) :   1.0584 B( 20-C , 71-H ) :   0.9893 B( 21-C , 72-H ) :   1.0103
B( 22-C , 23-C ) :   1.1165 B( 23-C , 24-C ) :   1.6523 B( 23-C , 73-H ) :   0.9570
B( 24-C , 25-C ) :   1.0876 B( 24-C , 74-H ) :   0.9771 B( 25-C , 26-C ) :   1.5141
B( 25-C , 42-C ) :   1.1210 B( 26-C , 27-C ) :   1.1477 B( 26-C , 75-H ) :   0.9888
B( 27-C , 28-C ) :   1.4740 B( 27-C , 40-C ) :   1.1261 B( 28-C , 29-C ) :   1.0397
B( 28-C , 34-C ) :   1.0932 B( 29-C , 30-C ) :   1.0200 B( 29-C , 32-C ) :   1.0505
B( 29-C , 76-H ) :   0.8727 B( 30-C , 31-N ) :   1.1166 B( 30-C , 77-H ) :   0.9200
B( 30-C , 78-H ) :   0.9488 B( 31-N , 79-H ) :   0.9433 B( 31-N , 80-H ) :   0.9671
B( 32-C , 33-N ) :   1.0815 B( 32-C , 81-H ) :   0.9407 B( 32-C , 82-H ) :   0.9288
B( 33-N , 83-H ) :   0.9634 B( 33-N , 84-H ) :   0.9674 B( 34-C , 35-C ) :   1.6544
B( 34-C , 39-C ) :   1.0351 B( 35-C , 36-C ) :   0.9862 B( 35-C , 85-H ) :   0.9771
B( 36-C , 37-C ) :   0.9737 B( 36-C , 43-C ) :   0.9421 B( 36-C , 86-H ) :   0.8883
B( 37-C , 38-C ) :   1.6748 B( 37-C , 87-H ) :   0.9634 B( 38-C , 39-C ) :   1.1710
B( 38-C , 88-H ) :   0.9869 B( 39-C , 40-C ) :   1.4057 B( 40-C , 41-C ) :   1.1530
B( 41-C , 42-C ) :   1.5928 B( 41-C , 89-H ) :   0.9918 B( 42-C , 90-H ) :   0.9885
B( 43-C , 44-C ) :   1.6991 B( 43-C , 91-H ) :   0.9689 B( 44-C , 45-C ) :   1.1751
B( 44-C , 92-H ) :   0.9450 B( 45-C , 46-N ) :   1.5582 B( 45-C , 47-C ) :   0.1101
B( 45-C , 56-C ) :   1.0009 B( 46-N , 47-C ) :   1.3931 B( 47-C , 48-C ) :   1.0494
B( 47-C , 52-C ) :   1.3738 B( 48-C , 49-C ) :   0.8961 B( 48-C , 56-C ) :   1.5541
B( 49-C , 50-O ) :   2.1709 B( 49-C , 51-C ) :   0.9399 B( 50-O , 96-H ) :   0.1079
B( 51-C , 52-C ) :   1.0794 B( 51-C , 55-C ) :   1.5706 B( 52-C , 53-N ) :   1.3424
B( 53-N , 54-C ) :   1.6241 B( 54-C , 55-C ) :   1.0968 B( 54-C , 93-H ) :   0.9905
B( 55-C , 94-H ) :   1.0120 B( 56-C , 57-C ) :   1.1373 B( 57-C , 58-C ) :   1.6860
B( 57-C , 95-H ) :   0.9457 B( 58-C , 59-C ) :   1.1271 B( 58-C , 96-H ) :   0.9290
B( 59-C , 60-S ) :   1.1623 B( 59-C , 63-C ) :   1.4743 B( 60-S , 61-C ) :   1.1758
B( 61-C , 62-C ) :   1.5734 B( 61-C , 97-H ) :   0.9678 B( 62-C , 63-C ) :   1.2698
B( 62-C , 66-C ) :   0.9359 B( 63-C , 64-C ) :   1.1523 B( 64-C , 65-N ) :   2.8741
B( 66-C , 67-F ) :   1.1629 B( 66-C , 68-F ) :   1.1652 B( 66-C , 69-F ) :   1.1352

-----------------------------------------------------------------------------
         ABSORPTION SPECTRUM VIA TRANSITION ELECTRIC DIPOLE MOMENTS
-----------------------------------------------------------------------------
State   Energy  Wavelength   fosc         T2         TX        TY        TZ
        (cm-1)    (nm)                  (au**2)     (au)      (au)      (au)
-----------------------------------------------------------------------------
   0    8730.5   1145.4   0.196318641   7.40284  -0.24702   2.67856   0.40885
   1   10517.4    950.8   0.058441579   1.82931  -0.17700  -0.14681   1.33283
   2   12603.9    793.4   0.053693035   1.40246   0.80999   0.54114   0.67346
   3   17325.8    577.2   0.082067951   1.55939  -0.06161   1.24641  -0.04534
   4   18668.2    535.7   0.051041798   0.90012   0.27191   0.03479   0.90828
   5   18765.6    532.9   0.117417522   2.05990   0.10564  -1.26880  -0.66248
   6   21653.7    461.8   0.003543611   0.05388   0.20494  -0.06371   0.08842
   7   21980.7    454.9   0.028505958   0.42694   0.20992  -0.60926  -0.10809
   8   22473.0    445.0   0.218130328   3.19543  -0.21946   1.55313   0.85735
   9   22654.5    441.4   0.146633352   2.13085  -0.32096  -0.35512  -1.37903
  10   23811.3    420.0   0.335840660   4.64329  -0.14079   2.12264   0.34332
  11   24540.6    407.5   0.034132634   0.45789  -0.36380   0.13002   0.55555
  12   25049.5    399.2   0.166541247   2.18876  -0.23749   1.10936   0.94956
  13   25239.5    396.2   0.068907911   0.89880  -0.10279  -0.94229   0.01806
  14   25310.7    395.1   0.151758128   1.97389   0.72300  -0.48520   1.10261
  15   25464.6    392.7   0.013886042   0.17952   0.10128  -0.21059  -0.35343
  16   25599.7    390.6   0.117348919   1.50910  -0.17546  -0.06849   1.21393
  17   25955.9    385.3   0.013124446   0.16646  -0.02099   0.01180  -0.40729
  18   26039.4    384.0   0.014602269   0.18461  -0.31602   0.27570  -0.09346
  19   26693.1    374.6   0.383849928   4.73410  -1.26608   0.78532  -1.58569
  20   27602.6    362.3   0.085881691   1.02430   0.49282  -0.79902   0.37815
  21   27652.0    361.6   0.015067199   0.17938   0.28053  -0.14867   0.28033
  22   27813.6    359.5   0.182410659   2.15908   0.04002  -0.29822  -1.43824
  23   27828.7    359.3   0.072034782   0.85217   0.21164   0.17261   0.88181
  24   28269.7    353.7   0.003919881   0.04565  -0.04918  -0.12971  -0.16250
  25   28332.9    352.9   0.138616933   1.61065   0.17299  -0.83247  -0.94219
  26   28581.0    349.9   0.342850046   3.94914   0.03898   1.16989   1.60592
  27   29372.7    340.5   0.006354481   0.07122  -0.23653  -0.00004  -0.12360
  28   29560.9    338.3   0.052424470   0.58384  -0.05899   0.37462   0.66334
  29   30211.9    331.0   0.367185735   4.00113  -0.26223   1.50337   1.29316
  30   30653.1    326.2   0.001298491   0.01395   0.03538  -0.11034   0.02277
  31   30693.1    325.8   0.006538702   0.07013   0.08163  -0.22243  -0.11830
  32   30775.5    324.9   0.000811920   0.00869   0.00591   0.03651  -0.08554
  33   30952.8    323.1   0.038655015   0.41113   0.24018   0.30844   0.50824
  34   31145.8    321.1   0.005401845   0.05710   0.00719   0.07197   0.22774
  35   31622.2    316.2   0.187035891   1.94719  -0.24982   0.04418  -1.37216
  36   32018.4    312.3   0.025073001   0.25780  -0.01380  -0.14703  -0.48579
  37   32507.2    307.6   0.051903538   0.52565   0.56289  -0.45596   0.03006
  38   32717.6    305.6   0.138133914   1.38994  -0.16382   1.16579  -0.06352
  39   33149.0    301.7   0.079808139   0.79260  -0.59500   0.50124   0.43281
  40   33755.8    296.2   0.061263920   0.59749   0.35413  -0.30650   0.61493
  41   33949.7    294.6   0.044912332   0.43552  -0.09946   0.59617  -0.26497
  42   34289.3    291.6   0.136067481   1.30638   0.04750  -1.13887  -0.08427
  43   34427.6    290.5   0.011276120   0.10783   0.08578   0.24857   0.19668
  44   34524.1    289.7   0.009592277   0.09147   0.14619  -0.25801   0.05940
  45   34593.7    289.1   0.030303632   0.28839   0.09186  -0.35127  -0.39567
  46   34766.5    287.6   0.028628705   0.27109  -0.46052   0.00878  -0.24276
  47   35290.1    283.4   0.013063961   0.12187   0.17428  -0.30233   0.00949
  48   35724.5    279.9   0.020343757   0.18747   0.12025  -0.13252  -0.39427
  49   36071.1    277.2   0.018057755   0.16481   0.23022  -0.01770   0.33391
  50   36376.7    274.9   0.003731685   0.03377   0.11180  -0.04633   0.13830
  51   36605.5    273.2   0.256061940   2.30290  -0.96887   0.47895  -1.06527
  52   36703.3    272.5   0.013667476   0.12259   0.18685   0.18221  -0.23341
  53   37237.6    268.5   0.262534989   2.32103   0.14757  -0.99375   1.14530
  54   37527.1    266.5   0.225720464   1.98017   0.72462  -0.07551   1.20391
  55   37578.9    266.1   0.034809852   0.30495  -0.32990   0.44242  -0.01968
  56   37749.9    264.9   0.067786149   0.59115  -0.50357   0.08434   0.57485
  57   38201.1    261.8   0.007391152   0.06370   0.14933   0.01126  -0.20315
  58   38509.4    259.7   0.009337063   0.07982  -0.27885  -0.04529  -0.00390
  59   38580.3    259.2   0.015121172   0.12903  -0.30282   0.08092  -0.17545
  60   38676.9    258.6   0.046069914   0.39214  -0.41866   0.26353  -0.38395
  61   38894.5    257.1   0.043165415   0.36536   0.33179   0.13040   0.48814
  62   38985.3    256.5   0.001192889   0.01007  -0.08504   0.05201  -0.01166
  63   39076.5    255.9   0.014755200   0.12431  -0.27507  -0.04793  -0.21528
  64   39189.1    255.2   0.007045722   0.05919   0.13523   0.07515   0.18776
  65   39558.4    252.8   0.005492059   0.04571  -0.07244  -0.18967   0.06695
  66   39842.2    251.0   0.002903080   0.02399   0.02923   0.15207  -0.00277
  67   39882.4    250.7   0.095465126   0.78802  -0.14327   0.84910  -0.21572

FINAL SINGLE POINT ENERGY     -3977.919166162859

DIPOLE MOMENT
-------------
                                X             Y             Z
Electronic contribution:     49.84140     -28.32737     -71.38693
Nuclear contribution   :    -51.74647      30.35320      72.56115
                        -----------------------------------------
Total Dipole Moment    :     -1.90506       2.02584       1.17422
                        -----------------------------------------
Magnitude (a.u.)       :      3.01862
Magnitude (Debye)      :      7.67273

Rotational constants in cm-1:     0.001537     0.000556     0.000497
Rotational constants in MHz :    46.072600    16.658045    14.887226

                             ****ORCA TERMINATED NORMALLY****
TOTAL RUN TIME: 0 days 0 hours 11 minutes 20 seconds 108 msec
