                         Program Version 4.2.0 -  RELEASE  -
|  1> # ORCA input file
|  2> # SCF done       -219.190007128865          0.000407696549
|  3> ! CAM-B3LYP def2-SVP def2/J RIJCOSX Grid4 TightSCF
|  4> %maxcore 5000
|  5> %tddft
|  6>     Mode sTDDFT
|  7>     Ethresh 5.0
|  8>     maxcore 5000
|  9> end
| 10>
| 11> %pal
| 12>   nprocs 6
| 13>   end
| 14> * xyz 0 1
| 15>    C        1.71325         4.04254        -7.18447
| 16>    O        2.10661         3.16537        -6.25025
| 17>    C        2.39164         3.83504        -5.10982
| 18>    C        2.16939         5.18071        -5.32964
| 19>    C        1.73346         5.30616        -6.66839
| 20>    F        1.40515         6.43064        -7.30220
| 21>    F        2.33166         6.17309        -4.45093
| 22>    C        2.83098         3.09196        -3.96445
| 23>    C        3.14428         3.64742        -2.78247
| 24>    C        3.59114         2.94669        -1.59426
| 25>    C        3.40559         1.57472        -1.37258
| 26>    C        2.62988         0.65205        -2.25022
| 27>    O        3.13046        -0.18827        -2.95965
| 28>    C        1.15837         0.72936        -2.06275
| 29>    C        0.37345         1.84219        -2.06102
| 30>    S       -1.29175         1.46407        -1.89049
| 31>    C       -0.94000        -0.21624        -1.80536
| 32>    C        0.39296        -0.46987        -1.91003
| 33>    C        1.03839        -1.79212        -1.69372
| 34>    O        1.92337        -1.90648        -0.87161
| 35>    C        0.52028        -2.92774        -2.48373
| 36>    C        0.81307        -4.22265        -2.05558
| 37>    C        0.35537        -5.31304        -2.76816
| 38>    C       -0.38695        -5.12127        -3.92321
| 39>    C       -0.66615        -3.83753        -4.36526
| 40>    C       -0.21845        -2.74215        -3.65081
| 41>    C        3.91077         0.98269        -0.22037
| 42>    C        4.57698         1.73252         0.72780
| 43>    C        4.75867         3.10263         0.54088
| 44>    C        4.26201         3.68557        -0.61678
| 45>    C        5.46155         3.90856         1.54889
| 46>    C        6.37965         4.84575         1.17989
| 47>    C        7.07541         5.60354         2.16554
| 48>    C        8.03444         6.58784         2.04628
| 49>    C        8.32588         7.12091         0.67249
| 50>    C        7.65907         8.50101         0.45970
| 51>    N        6.24127         8.53810         0.75388
| 52>    C        9.77520         7.11877         0.16706
| 53>    N        9.77053         6.77240        -1.24658
| 54>    C        8.45699         6.99383         3.43962
| 55>    C        9.69453         7.95051         4.93840
| 56>    C        9.36609         7.71661         6.41432
| 57>    C        8.26720         6.74979         6.67553
| 58>    C        7.51584         6.12275         5.76352
| 59>    C        7.56041         6.16761         4.33985
| 60>    C        6.78207         5.34663         3.55838
| 61>    C        5.80915         4.37330         3.90751
| 62>    C        5.17421         3.68176         2.93312
| 63>    C        9.02941         9.10333         6.89703
| 64>    C        7.78022         9.55209         6.92815
| 65>    C        7.45279        10.97383         6.89878
| 66>    C        6.57443        11.40710         5.89194
| 67>    C        5.81331        10.44189         5.04835
| 68>    O        5.13439         9.54682         5.50494
| 69>    C        5.87079        10.73107         3.59793
| 70>    C        4.72732        10.87778         2.86254
| 71>    S        5.03015        11.41597         1.27170
| 72>    C        6.71652        11.42295         1.56830
| 73>    C        7.03820        11.01825         2.82987
| 74>    C        8.47991        10.91218         3.20737
| 75>    O        9.14758        11.90825         3.38486
| 76>    C        9.12035         9.56314         3.20601
| 77>    C        8.55187         8.44939         4.01852
| 78>    C        9.92005         6.76737         3.97899
| 79>    C       11.00794         7.11799         3.03706
| 80>    C       11.20077         8.33977         2.51335
| 81>    C       10.34380         9.49253         2.63079
| 82>    C        6.38070        12.77025         5.69079
| 83>    C        7.00067        13.70039         6.49894
| 84>    C        7.85593        13.27735         7.51982
| 85>    C        8.09035        11.91294         7.69159
| 86>    C        8.51010        14.22534         8.39627
| 87>    O        9.33668        13.77105         9.36544
| 88>    C        9.82691        14.81701        10.06508
| 89>    C        9.30587        15.97989         9.53704
| 90>    C        8.46485        15.60359         8.47173
| 91>    F        7.76169        16.43146         7.69714
| 92>    F        9.55625        17.21875         9.96369
| 93>    C       10.73468        14.62989        11.16516
| 94>    C       11.15479        13.44184        11.59106
| 95>    H        1.45021         3.67178        -8.15365
| 96>    H        2.90297         2.02871        -4.13202
| 97>    H        3.10603         4.72436        -2.68512
| 98>    H        0.67478         2.86287        -2.18558
| 99>    H       -1.73333        -0.92004        -1.64773
|100>    H        1.39835        -4.34743        -1.15675
|101>    H        0.57912        -6.31343        -2.42882
|102>    H       -0.74277        -5.97306        -4.48390
|103>    H       -1.23327        -3.69167        -5.27277
|104>    H       -0.42133        -1.74397        -4.00882
|105>    H        3.75876        -0.07671        -0.07295
|106>    H        4.97271         1.25193         1.60960
|107>    H        4.39086         4.74768        -0.76925
|108>    H        6.60449         4.97054         0.13073
|109>    H        7.82003         6.43413        -0.01295
|110>    H        7.78326         8.79723        -0.58609
|111>    H        8.15279         9.24523         1.08462
|112>    H        5.74634         7.87313         0.16831
|113>    H        6.07899         8.26434         1.71852
|114>    H       10.34232         6.34258         0.68589
|115>    H       10.25029         8.08997         0.36791
|116>    H       10.71929         6.70915        -1.59858
|117>    H        9.29039         7.48541        -1.78568
|118>    H       10.54812         8.63354         4.92934
|119>    H       10.27852         7.36088         6.91270
|120>    H        8.07342         6.56905         7.72403
|121>    H        6.75530         5.45376         6.14440
|122>    H        5.57752         4.18944         4.94555
|123>    H        4.42012         2.95037         3.18319
|124>    H        9.86307         9.78468         7.00341
|125>    H        6.95753         8.86396         6.79688
|126>    H        3.72370        10.73691         3.21223
|127>    H        7.39115        11.70337         0.78436
|128>    H        7.62920         8.75582         4.50835
|129>    H       10.07404         5.78497         4.42356
|130>    H       11.72441         6.33868         2.81733
|131>    H       12.08591         8.49433         1.90975
|132>    H       10.71144        10.39261         2.15360
|133>    H        5.71919        13.10205         4.90397
|134>    H        6.82463        14.75033         6.33517
|135>    H        8.76718        11.58397         8.46446
|136>    H       11.05764        15.54764        11.63532
|137>    H       10.82693        12.53166        11.11942
|138>    H       11.83312        13.34986        12.41964
|139> *
|140>
|141>                          ****END OF INPUT****

CARTESIAN COORDINATES (ANGSTROEM)
---------------------------------
  C      1.713250    4.042540   -7.184470
  O      2.106610    3.165370   -6.250250
  C      2.391640    3.835040   -5.109820
  C      2.169390    5.180710   -5.329640
  C      1.733460    5.306160   -6.668390
  F      1.405150    6.430640   -7.302200
  F      2.331660    6.173090   -4.450930
  C      2.830980    3.091960   -3.964450
  C      3.144280    3.647420   -2.782470
  C      3.591140    2.946690   -1.594260
  C      3.405590    1.574720   -1.372580
  C      2.629880    0.652050   -2.250220
  O      3.130460   -0.188270   -2.959650
  C      1.158370    0.729360   -2.062750
  C      0.373450    1.842190   -2.061020
  S     -1.291750    1.464070   -1.890490
  C     -0.940000   -0.216240   -1.805360
  C      0.392960   -0.469870   -1.910030
  C      1.038390   -1.792120   -1.693720
  O      1.923370   -1.906480   -0.871610
  C      0.520280   -2.927740   -2.483730
  C      0.813070   -4.222650   -2.055580
  C      0.355370   -5.313040   -2.768160
  C     -0.386950   -5.121270   -3.923210
  C     -0.666150   -3.837530   -4.365260
  C     -0.218450   -2.742150   -3.650810
  C      3.910770    0.982690   -0.220370
  C      4.576980    1.732520    0.727800
  C      4.758670    3.102630    0.540880
  C      4.262010    3.685570   -0.616780
  C      5.461550    3.908560    1.548890
  C      6.379650    4.845750    1.179890
  C      7.075410    5.603540    2.165540
  C      8.034440    6.587840    2.046280
  C      8.325880    7.120910    0.672490
  C      7.659070    8.501010    0.459700
  N      6.241270    8.538100    0.753880
  C      9.775200    7.118770    0.167060
  N      9.770530    6.772400   -1.246580
  C      8.456990    6.993830    3.439620
  C      9.694530    7.950510    4.938400
  C      9.366090    7.716610    6.414320
  C      8.267200    6.749790    6.675530
  C      7.515840    6.122750    5.763520
  C      7.560410    6.167610    4.339850
  C      6.782070    5.346630    3.558380
  C      5.809150    4.373300    3.907510
  C      5.174210    3.681760    2.933120
  C      9.029410    9.103330    6.897030
  C      7.780220    9.552090    6.928150
  C      7.452790   10.973830    6.898780
  C      6.574430   11.407100    5.891940
  C      5.813310   10.441890    5.048350
  O      5.134390    9.546820    5.504940
  C      5.870790   10.731070    3.597930
  C      4.727320   10.877780    2.862540
  S      5.030150   11.415970    1.271700
  C      6.716520   11.422950    1.568300
  C      7.038200   11.018250    2.829870
  C      8.479910   10.912180    3.207370
  O      9.147580   11.908250    3.384860
  C      9.120350    9.563140    3.206010
  C      8.551870    8.449390    4.018520
  C      9.920050    6.767370    3.978990
  C     11.007940    7.117990    3.037060
  C     11.200770    8.339770    2.513350
  C     10.343800    9.492530    2.630790
  C      6.380700   12.770250    5.690790
  C      7.000670   13.700390    6.498940
  C      7.855930   13.277350    7.519820
  C      8.090350   11.912940    7.691590
  C      8.510100   14.225340    8.396270
  O      9.336680   13.771050    9.365440
  C      9.826910   14.817010   10.065080
  C      9.305870   15.979890    9.537040
  C      8.464850   15.603590    8.471730
  F      7.761690   16.431460    7.697140
  F      9.556250   17.218750    9.963690
  C     10.734680   14.629890   11.165160
  C     11.154790   13.441840   11.591060
  H      1.450210    3.671780   -8.153650
  H      2.902970    2.028710   -4.132020
  H      3.106030    4.724360   -2.685120
  H      0.674780    2.862870   -2.185580
  H     -1.733330   -0.920040   -1.647730
  H      1.398350   -4.347430   -1.156750
  H      0.579120   -6.313430   -2.428820
  H     -0.742770   -5.973060   -4.483900
  H     -1.233270   -3.691670   -5.272770
  H     -0.421330   -1.743970   -4.008820
  H      3.758760   -0.076710   -0.072950
  H      4.972710    1.251930    1.609600
  H      4.390860    4.747680   -0.769250
  H      6.604490    4.970540    0.130730
  H      7.820030    6.434130   -0.012950
  H      7.783260    8.797230   -0.586090
  H      8.152790    9.245230    1.084620
  H      5.746340    7.873130    0.168310
  H      6.078990    8.264340    1.718520
  H     10.342320    6.342580    0.685890
  H     10.250290    8.089970    0.367910
  H     10.719290    6.709150   -1.598580
  H      9.290390    7.485410   -1.785680
  H     10.548120    8.633540    4.929340
  H     10.278520    7.360880    6.912700
  H      8.073420    6.569050    7.724030
  H      6.755300    5.453760    6.144400
  H      5.577520    4.189440    4.945550
  H      4.420120    2.950370    3.183190
  H      9.863070    9.784680    7.003410
  H      6.957530    8.863960    6.796880
  H      3.723700   10.736910    3.212230
  H      7.391150   11.703370    0.784360
  H      7.629200    8.755820    4.508350
  H     10.074040    5.784970    4.423560
  H     11.724410    6.338680    2.817330
  H     12.085910    8.494330    1.909750
  H     10.711440   10.392610    2.153600
  H      5.719190   13.102050    4.903970
  H      6.824630   14.750330    6.335170
  H      8.767180   11.583970    8.464460
  H     11.057640   15.547640   11.635320
  H     10.826930   12.531660   11.119420
  H     11.833120   13.349860   12.419640

 Total Charge           Charge          ....    0
 Multiplicity           Mult            ....    1
 Number of Electrons    NEL             ....  570
 Basis Dimension        Dim             .... 1348

ORBITAL ENERGIES
----------------

  NO   OCC          E(Eh)            E(eV)
   0   2.0000     -88.964654     -2420.8513
   1   2.0000     -88.954081     -2420.5636
   2   2.0000     -24.800539      -674.8570
   3   2.0000     -24.797698      -674.7797
   4   2.0000     -24.795000      -674.7062
   5   2.0000     -24.793874      -674.6756
   6   2.0000     -19.301558      -525.2221
   7   2.0000     -19.299172      -525.1572
   8   2.0000     -19.207276      -522.6565
   9   2.0000     -19.204195      -522.5727
  10   2.0000     -19.203401      -522.5511
  11   2.0000     -19.202003      -522.5131
  12   2.0000     -14.374262      -391.1436
  13   2.0000     -14.368821      -390.9955
  14   2.0000     -10.361741      -281.9573
  15   2.0000     -10.361019      -281.9377
  16   2.0000     -10.360852      -281.9331
  17   2.0000     -10.360848      -281.9330
  18   2.0000     -10.359445      -281.8948
  19   2.0000     -10.358557      -281.8707
  20   2.0000     -10.357761      -281.8490
  21   2.0000     -10.356542      -281.8158
  22   2.0000     -10.338497      -281.3248
  23   2.0000     -10.338473      -281.3241
  24   2.0000     -10.335521      -281.2438
  25   2.0000     -10.332022      -281.1486
  26   2.0000     -10.302943      -280.3573
  27   2.0000     -10.302053      -280.3331
  28   2.0000     -10.294973      -280.1405
  29   2.0000     -10.291976      -280.0589
  30   2.0000     -10.291140      -280.0362
  31   2.0000     -10.290310      -280.0136
  32   2.0000     -10.285321      -279.8778
  33   2.0000     -10.284601      -279.8582
  34   2.0000     -10.284040      -279.8429
  35   2.0000     -10.283389      -279.8252
  36   2.0000     -10.283153      -279.8188
  37   2.0000     -10.282390      -279.7981
  38   2.0000     -10.281812      -279.7823
  39   2.0000     -10.281026      -279.7609
  40   2.0000     -10.280486      -279.7463
  41   2.0000     -10.279681      -279.7244
  42   2.0000     -10.278800      -279.7004
  43   2.0000     -10.277302      -279.6596
  44   2.0000     -10.276549      -279.6391
  45   2.0000     -10.276385      -279.6346
  46   2.0000     -10.275962      -279.6231
  47   2.0000     -10.275828      -279.6195
  48   2.0000     -10.275817      -279.6192
  49   2.0000     -10.274735      -279.5898
  50   2.0000     -10.274652      -279.5875
  51   2.0000     -10.274428      -279.5814
  52   2.0000     -10.273759      -279.5632
  53   2.0000     -10.273401      -279.5534
  54   2.0000     -10.273028      -279.5433
  55   2.0000     -10.272867      -279.5389
  56   2.0000     -10.272621      -279.5322
  57   2.0000     -10.272244      -279.5220
  58   2.0000     -10.271738      -279.5082
  59   2.0000     -10.271512      -279.5021
  60   2.0000     -10.270756      -279.4815
  61   2.0000     -10.270705      -279.4801
  62   2.0000     -10.269400      -279.4446
  63   2.0000     -10.269071      -279.4356
  64   2.0000     -10.268566      -279.4219
  65   2.0000     -10.268402      -279.4174
  66   2.0000     -10.267485      -279.3925
  67   2.0000     -10.266487      -279.3653
  68   2.0000     -10.266407      -279.3631
  69   2.0000     -10.266263      -279.3592
  70   2.0000     -10.264863      -279.3211
  71   2.0000     -10.263141      -279.2743
  72   2.0000     -10.262630      -279.2604
  73   2.0000     -10.262294      -279.2512
  74   2.0000     -10.261656      -279.2339
  75   2.0000     -10.259426      -279.1732
  76   2.0000     -10.259205      -279.1672
  77   2.0000     -10.258736      -279.1544
  78   2.0000     -10.258341      -279.1437
  79   2.0000     -10.254733      -279.0455
  80   2.0000      -8.060898      -219.3482
  81   2.0000      -8.050038      -219.0527
  82   2.0000      -6.030130      -164.0882
  83   2.0000      -6.025626      -163.9656
  84   2.0000      -6.023396      -163.9049
  85   2.0000      -6.019276      -163.7928
  86   2.0000      -6.014769      -163.6702
  87   2.0000      -6.012572      -163.6104
  88   2.0000      -1.315290       -35.7909
  89   2.0000      -1.313935       -35.7540
  90   2.0000      -1.305386       -35.5214
  91   2.0000      -1.304410       -35.4948
  92   2.0000      -1.221704       -33.2443
  93   2.0000      -1.219266       -33.1779
  94   2.0000      -1.127688       -30.6859
  95   2.0000      -1.121004       -30.5041
  96   2.0000      -1.119396       -30.4603
  97   2.0000      -1.116347       -30.3773
  98   2.0000      -0.997907       -27.1544
  99   2.0000      -0.988591       -26.9009
 100   2.0000      -0.981868       -26.7180
 101   2.0000      -0.966685       -26.3048
 102   2.0000      -0.962787       -26.1988
 103   2.0000      -0.961417       -26.1615
 104   2.0000      -0.951951       -25.9039
 105   2.0000      -0.950955       -25.8768
 106   2.0000      -0.945414       -25.7260
 107   2.0000      -0.917845       -24.9758
 108   2.0000      -0.916279       -24.9332
 109   2.0000      -0.907700       -24.6998
 110   2.0000      -0.906135       -24.6572
 111   2.0000      -0.904263       -24.6062
 112   2.0000      -0.899550       -24.4780
 113   2.0000      -0.880553       -23.9611
 114   2.0000      -0.873155       -23.7598
 115   2.0000      -0.870535       -23.6885
 116   2.0000      -0.866668       -23.5832
 117   2.0000      -0.863508       -23.4972
 118   2.0000      -0.860856       -23.4251
 119   2.0000      -0.856587       -23.3089
 120   2.0000      -0.853851       -23.2345
 121   2.0000      -0.841251       -22.8916
 122   2.0000      -0.839888       -22.8545
 123   2.0000      -0.834910       -22.7190
 124   2.0000      -0.827824       -22.5262
 125   2.0000      -0.825882       -22.4734
 126   2.0000      -0.821407       -22.3516
 127   2.0000      -0.815360       -22.1871
 128   2.0000      -0.808470       -21.9996
 129   2.0000      -0.806771       -21.9534
 130   2.0000      -0.787997       -21.4425
 131   2.0000      -0.765463       -20.8293
 132   2.0000      -0.758802       -20.6481
 133   2.0000      -0.746351       -20.3092
 134   2.0000      -0.742200       -20.1963
 135   2.0000      -0.737763       -20.0756
 136   2.0000      -0.730684       -19.8829
 137   2.0000      -0.727299       -19.7908
 138   2.0000      -0.719414       -19.5762
 139   2.0000      -0.715359       -19.4659
 140   2.0000      -0.713528       -19.4161
 141   2.0000      -0.710953       -19.3460
 142   2.0000      -0.704959       -19.1829
 143   2.0000      -0.699574       -19.0364
 144   2.0000      -0.692936       -18.8557
 145   2.0000      -0.691869       -18.8267
 146   2.0000      -0.688727       -18.7412
 147   2.0000      -0.685735       -18.6598
 148   2.0000      -0.679609       -18.4931
 149   2.0000      -0.675803       -18.3895
 150   2.0000      -0.673923       -18.3384
 151   2.0000      -0.669272       -18.2118
 152   2.0000      -0.666227       -18.1289
 153   2.0000      -0.661316       -17.9953
 154   2.0000      -0.652742       -17.7620
 155   2.0000      -0.650081       -17.6896
 156   2.0000      -0.646479       -17.5916
 157   2.0000      -0.639538       -17.4027
 158   2.0000      -0.633311       -17.2333
 159   2.0000      -0.632458       -17.2101
 160   2.0000      -0.627115       -17.0647
 161   2.0000      -0.618879       -16.8406
 162   2.0000      -0.615852       -16.7582
 163   2.0000      -0.612631       -16.6705
 164   2.0000      -0.608657       -16.5624
 165   2.0000      -0.606425       -16.5017
 166   2.0000      -0.603521       -16.4226
 167   2.0000      -0.600583       -16.3427
 168   2.0000      -0.594971       -16.1900
 169   2.0000      -0.591919       -16.1069
 170   2.0000      -0.591836       -16.1047
 171   2.0000      -0.589347       -16.0369
 172   2.0000      -0.584451       -15.9037
 173   2.0000      -0.581235       -15.8162
 174   2.0000      -0.574613       -15.6360
 175   2.0000      -0.570802       -15.5323
 176   2.0000      -0.569299       -15.4914
 177   2.0000      -0.564710       -15.3665
 178   2.0000      -0.560907       -15.2630
 179   2.0000      -0.560368       -15.2484
 180   2.0000      -0.554424       -15.0867
 181   2.0000      -0.548019       -14.9124
 182   2.0000      -0.545999       -14.8574
 183   2.0000      -0.545901       -14.8547
 184   2.0000      -0.544577       -14.8187
 185   2.0000      -0.544321       -14.8117
 186   2.0000      -0.538293       -14.6477
 187   2.0000      -0.537485       -14.6257
 188   2.0000      -0.536637       -14.6026
 189   2.0000      -0.536095       -14.5879
 190   2.0000      -0.535167       -14.5626
 191   2.0000      -0.534515       -14.5449
 192   2.0000      -0.531397       -14.4600
 193   2.0000      -0.529589       -14.4109
 194   2.0000      -0.527257       -14.3474
 195   2.0000      -0.523176       -14.2363
 196   2.0000      -0.522638       -14.2217
 197   2.0000      -0.520544       -14.1647
 198   2.0000      -0.519808       -14.1447
 199   2.0000      -0.517471       -14.0811
 200   2.0000      -0.515404       -14.0249
 201   2.0000      -0.513023       -13.9601
 202   2.0000      -0.512657       -13.9501
 203   2.0000      -0.511389       -13.9156
 204   2.0000      -0.510494       -13.8913
 205   2.0000      -0.508677       -13.8418
 206   2.0000      -0.508362       -13.8332
 207   2.0000      -0.507520       -13.8103
 208   2.0000      -0.504695       -13.7334
 209   2.0000      -0.504032       -13.7154
 210   2.0000      -0.502559       -13.6753
 211   2.0000      -0.502354       -13.6697
 212   2.0000      -0.500284       -13.6134
 213   2.0000      -0.496694       -13.5157
 214   2.0000      -0.495935       -13.4951
 215   2.0000      -0.490889       -13.3578
 216   2.0000      -0.487045       -13.2532
 217   2.0000      -0.484457       -13.1827
 218   2.0000      -0.483907       -13.1678
 219   2.0000      -0.478985       -13.0338
 220   2.0000      -0.477176       -12.9846
 221   2.0000      -0.474272       -12.9056
 222   2.0000      -0.470454       -12.8017
 223   2.0000      -0.468009       -12.7352
 224   2.0000      -0.466302       -12.6887
 225   2.0000      -0.465495       -12.6668
 226   2.0000      -0.461858       -12.5678
 227   2.0000      -0.460160       -12.5216
 228   2.0000      -0.458446       -12.4750
 229   2.0000      -0.453747       -12.3471
 230   2.0000      -0.453538       -12.3414
 231   2.0000      -0.447870       -12.1872
 232   2.0000      -0.445461       -12.1216
 233   2.0000      -0.445111       -12.1121
 234   2.0000      -0.442205       -12.0330
 235   2.0000      -0.440784       -11.9944
 236   2.0000      -0.438345       -11.9280
 237   2.0000      -0.436630       -11.8813
 238   2.0000      -0.435265       -11.8442
 239   2.0000      -0.434418       -11.8211
 240   2.0000      -0.431871       -11.7518
 241   2.0000      -0.429826       -11.6962
 242   2.0000      -0.428722       -11.6661
 243   2.0000      -0.427774       -11.6403
 244   2.0000      -0.426424       -11.6036
 245   2.0000      -0.423629       -11.5275
 246   2.0000      -0.420276       -11.4363
 247   2.0000      -0.417280       -11.3548
 248   2.0000      -0.416333       -11.3290
 249   2.0000      -0.408732       -11.1222
 250   2.0000      -0.406517       -11.0619
 251   2.0000      -0.399651       -10.8751
 252   2.0000      -0.398329       -10.8391
 253   2.0000      -0.392650       -10.6846
 254   2.0000      -0.389976       -10.6118
 255   2.0000      -0.386712       -10.5230
 256   2.0000      -0.382770       -10.4157
 257   2.0000      -0.375473       -10.2171
 258   2.0000      -0.370690       -10.0870
 259   2.0000      -0.366341        -9.9686
 260   2.0000      -0.358263        -9.7488
 261   2.0000      -0.346936        -9.4406
 262   2.0000      -0.346231        -9.4214
 263   2.0000      -0.341776        -9.3002
 264   2.0000      -0.335622        -9.1327
 265   2.0000      -0.334684        -9.1072
 266   2.0000      -0.332491        -9.0475
 267   2.0000      -0.329222        -8.9586
 268   2.0000      -0.327323        -8.9069
 269   2.0000      -0.326584        -8.8868
 270   2.0000      -0.324830        -8.8391
 271   2.0000      -0.324234        -8.8228
 272   2.0000      -0.321496        -8.7484
 273   2.0000      -0.317353        -8.6356
 274   2.0000      -0.316617        -8.6156
 275   2.0000      -0.313731        -8.5370
 276   2.0000      -0.305652        -8.3172
 277   2.0000      -0.298028        -8.1098
 278   2.0000      -0.296638        -8.0719
 279   2.0000      -0.291947        -7.9443
 280   2.0000      -0.284971        -7.7545
 281   2.0000      -0.275741        -7.5033
 282   2.0000      -0.263189        -7.1617
 283   2.0000      -0.259236        -7.0542
 284   2.0000      -0.221539        -6.0284
 285   0.0000      -0.048343        -1.3155
 286   0.0000      -0.038071        -1.0360
 287   0.0000      -0.029703        -0.8083
 288   0.0000      -0.028034        -0.7629
 289   0.0000      -0.022303        -0.6069

MULLIKEN ATOMIC CHARGES
-----------------------
   0 C :    0.057696
   1 O :   -0.179938
   2 C :    0.092755
   3 C :    0.114928
   4 C :    0.216103
   5 F :   -0.171673
   6 F :   -0.171108
   7 C :    0.015552
   8 C :   -0.064139
   9 C :    0.150148
  10 C :   -0.032321
  11 C :    0.060457
  12 O :   -0.170132
  13 C :    0.081564
  14 C :   -0.115857
  15 S :    0.129645
  16 C :   -0.120468
  17 C :   -0.018882
  18 C :    0.161925
  19 O :   -0.181432
  20 C :   -0.008177
  21 C :    0.005321
  22 C :    0.025191
  23 C :    0.037201
  24 C :    0.020171
  25 C :    0.013412
  26 C :    0.013638
  27 C :   -0.013323
  28 C :    0.104300
  29 C :   -0.092851
  30 C :    0.077539
  31 C :   -0.090643
  32 C :    0.042845
  33 C :   -0.078725
  34 C :   -0.030977
  35 C :    0.141940
  36 N :   -0.217925
  37 C :    0.139882
  38 N :   -0.201214
  39 C :   -0.082182
  40 C :   -0.083669
  41 C :    0.232895
  42 C :   -0.086666
  43 C :    0.026728
  44 C :    0.011209
  45 C :    0.064827
  46 C :   -0.000377
  47 C :   -0.007207
  48 C :   -0.057042
  49 C :   -0.026437
  50 C :    0.116305
  51 C :   -0.013847
  52 C :    0.073720
  53 O :   -0.174986
  54 C :    0.023509
  55 C :   -0.121257
  56 S :    0.165360
  57 C :   -0.079503
  58 C :    0.023793
  59 C :    0.077925
  60 O :   -0.164941
  61 C :    0.013555
  62 C :    0.039185
  63 C :    0.115537
  64 C :    0.036363
  65 C :   -0.004654
  66 C :   -0.014114
  67 C :    0.028179
  68 C :   -0.037199
  69 C :    0.114094
  70 C :   -0.111130
  71 C :    0.097615
  72 O :   -0.202225
  73 C :    0.068907
  74 C :    0.168154
  75 C :    0.145966
  76 F :   -0.166894
  77 F :   -0.168158
  78 C :   -0.014133
  79 C :   -0.000867
  80 H :    0.019385
  81 H :    0.024497
  82 H :   -0.004176
  83 H :    0.037787
  84 H :    0.033470
  85 H :   -0.001130
  86 H :   -0.010389
  87 H :   -0.008704
  88 H :   -0.013268
  89 H :    0.001670
  90 H :    0.002948
  91 H :   -0.018070
  92 H :   -0.037783
  93 H :   -0.021381
  94 H :   -0.027652
  95 H :   -0.021958
  96 H :   -0.023085
  97 H :    0.084976
  98 H :    0.110322
  99 H :   -0.010350
 100 H :   -0.009973
 101 H :    0.087477
 102 H :    0.082949
 103 H :    0.006081
 104 H :   -0.005960
 105 H :   -0.014278
 106 H :   -0.037894
 107 H :   -0.032063
 108 H :   -0.021731
 109 H :   -0.003074
 110 H :    0.039018
 111 H :    0.031835
 112 H :    0.027021
 113 H :   -0.019786
 114 H :   -0.011609
 115 H :   -0.005317
 116 H :   -0.008856
 117 H :   -0.003854
 118 H :   -0.011529
 119 H :   -0.012558
 120 H :   -0.020642
 121 H :    0.004668
 122 H :    0.027331
 123 H :    0.026870
Sum of atomic charges:   -0.0000000

LOEWDIN ATOMIC CHARGES
----------------------
   0 C :    0.005991
   1 O :    0.030182
   2 C :   -0.006932
   3 C :    0.012660
   4 C :    0.010457
   5 F :   -0.048136
   6 F :   -0.045704
   7 C :   -0.034027
   8 C :   -0.020090
   9 C :   -0.023801
  10 C :   -0.041812
  11 C :    0.091635
  12 O :   -0.123914
  13 C :   -0.081869
  14 C :   -0.164763
  15 S :    0.459267
  16 C :   -0.172286
  17 C :   -0.078624
  18 C :    0.096837
  19 O :   -0.144144
  20 C :   -0.068360
  21 C :    0.017175
  22 C :   -0.023635
  23 C :   -0.004809
  24 C :   -0.026701
  25 C :   -0.000608
  26 C :    0.005528
  27 C :   -0.013169
  28 C :   -0.011761
  29 C :   -0.009559
  30 C :   -0.019752
  31 C :   -0.018350
  32 C :   -0.029436
  33 C :   -0.021748
  34 C :   -0.052491
  35 C :    0.015713
  36 N :   -0.106339
  37 C :    0.024600
  38 N :   -0.116173
  39 C :    0.000071
  40 C :    0.012999
  41 C :   -0.026851
  42 C :   -0.030389
  43 C :   -0.035560
  44 C :   -0.019771
  45 C :   -0.021973
  46 C :   -0.007349
  47 C :   -0.021031
  48 C :   -0.006185
  49 C :   -0.033210
  50 C :    0.005939
  51 C :   -0.061156
  52 C :    0.083125
  53 O :   -0.137338
  54 C :   -0.104663
  55 C :   -0.162721
  56 S :    0.487918
  57 C :   -0.154414
  58 C :   -0.088329
  59 C :    0.085113
  60 O :   -0.126419
  61 C :   -0.050055
  62 C :    0.005880
  63 C :    0.011376
  64 C :    0.002430
  65 C :   -0.047447
  66 C :   -0.006790
  67 C :    0.007504
  68 C :   -0.016843
  69 C :   -0.022374
  70 C :   -0.012711
  71 C :    0.010353
  72 O :    0.025876
  73 C :   -0.002325
  74 C :    0.018610
  75 C :    0.018056
  76 F :   -0.041406
  77 F :   -0.046839
  78 C :   -0.037741
  79 C :   -0.032889
  80 H :    0.029466
  81 H :    0.042889
  82 H :    0.028191
  83 H :    0.027687
  84 H :    0.027489
  85 H :    0.034749
  86 H :    0.029873
  87 H :    0.029896
  88 H :    0.029183
  89 H :    0.032083
  90 H :    0.038245
  91 H :    0.030406
  92 H :    0.025167
  93 H :    0.025893
  94 H :    0.025809
  95 H :    0.010298
  96 H :    0.009151
  97 H :    0.049621
  98 H :    0.052690
  99 H :    0.018101
 100 H :    0.003006
 101 H :    0.053352
 102 H :    0.047076
 103 H :    0.028823
 104 H :    0.035532
 105 H :    0.026411
 106 H :    0.032512
 107 H :    0.027482
 108 H :    0.028070
 109 H :    0.022693
 110 H :    0.032848
 111 H :    0.029102
 112 H :    0.025146
 113 H :    0.024643
 114 H :    0.026191
 115 H :    0.028734
 116 H :    0.029796
 117 H :    0.033091
 118 H :    0.034286
 119 H :    0.028947
 120 H :    0.029141
 121 H :    0.040663
 122 H :    0.026020
 123 H :    0.028026

  Mayer bond orders larger than 0.100000
B(  0-C ,  1-O ) :   1.1285 B(  0-C ,  2-C ) :   0.1193 B(  0-C ,  4-C ) :   1.4920
B(  0-C , 80-H ) :   1.0096 B(  1-O ,  2-C ) :   1.1517 B(  2-C ,  3-C ) :   1.4141
B(  2-C ,  7-C ) :   1.0962 B(  3-C ,  4-C ) :   1.2037 B(  3-C ,  6-F ) :   1.1340
B(  4-C ,  5-F ) :   1.1396 B(  7-C ,  8-C ) :   1.6922 B(  7-C , 81-H ) :   0.9483
B(  8-C ,  9-C ) :   1.0648 B(  8-C , 82-H ) :   0.9759 B(  9-C , 10-C ) :   1.3835
B(  9-C , 29-C ) :   1.3095 B( 10-C , 11-C ) :   0.8890 B( 10-C , 26-C ) :   1.4244
B( 11-C , 12-O ) :   2.1943 B( 11-C , 13-C ) :   0.9101 B( 13-C , 14-C ) :   1.5612
B( 13-C , 17-C ) :   1.2876 B( 14-C , 15-S ) :   1.1840 B( 14-C , 83-H ) :   0.9572
B( 15-S , 16-C ) :   1.1742 B( 16-C , 17-C ) :   1.5735 B( 16-C , 84-H ) :   0.9682
B( 17-C , 18-C ) :   0.9060 B( 18-C , 19-O ) :   2.1622 B( 18-C , 20-C ) :   0.9473
B( 20-C , 21-C ) :   1.3744 B( 20-C , 25-C ) :   1.3794 B( 21-C , 22-C ) :   1.3795
B( 21-C , 85-H ) :   0.9981 B( 22-C , 23-C ) :   1.3741 B( 22-C , 86-H ) :   0.9934
B( 23-C , 24-C ) :   1.3921 B( 23-C , 87-H ) :   0.9919 B( 24-C , 25-C ) :   1.3876
B( 24-C , 88-H ) :   0.9886 B( 25-C , 89-H ) :   0.9816 B( 26-C , 27-C ) :   1.3589
B( 26-C , 90-H ) :   0.9876 B( 27-C , 28-C ) :   1.3649 B( 27-C , 91-H ) :   0.9954
B( 28-C , 29-C ) :   1.3746 B( 28-C , 30-C ) :   0.9409 B( 29-C , 92-H ) :   0.9987
B( 30-C , 31-C ) :   1.6243 B( 30-C , 47-C ) :   1.1293 B( 31-C , 32-C ) :   1.0718
B( 31-C , 93-H ) :   0.9879 B( 32-C , 33-C ) :   1.6104 B( 32-C , 45-C ) :   1.1058
B( 33-C , 34-C ) :   1.0472 B( 33-C , 39-C ) :   0.9833 B( 34-C , 35-C ) :   1.0043
B( 34-C , 37-C ) :   1.0302 B( 34-C , 94-H ) :   0.8612 B( 35-C , 36-N ) :   1.1206
B( 35-C , 95-H ) :   0.9310 B( 35-C , 96-H ) :   0.9262 B( 36-N , 97-H ) :   0.9748
B( 36-N , 98-H ) :   0.9689 B( 37-C , 38-N ) :   1.0986 B( 37-C , 99-H ) :   0.9280
B( 37-C ,100-H ) :   0.9236 B( 38-N ,101-H ) :   0.9666 B( 38-N ,102-H ) :   0.9710
B( 39-C , 44-C ) :   0.9621 B( 39-C , 62-C ) :   0.9278 B( 39-C , 63-C ) :   0.9362
B( 40-C , 41-C ) :   1.0027 B( 40-C , 62-C ) :   0.9774 B( 40-C , 63-C ) :   0.9643
B( 40-C ,103-H ) :   0.9015 B( 41-C , 42-C ) :   0.9828 B( 41-C , 48-C ) :   1.0046
B( 41-C ,104-H ) :   0.8773 B( 42-C , 43-C ) :   1.7719 B( 42-C ,105-H ) :   0.9505
B( 43-C , 44-C ) :   1.1251 B( 43-C ,106-H ) :   0.9592 B( 44-C , 45-C ) :   1.5392
B( 45-C , 46-C ) :   1.1087 B( 46-C , 47-C ) :   1.6247 B( 46-C ,107-H ) :   0.9911
B( 47-C ,108-H ) :   0.9842 B( 48-C , 49-C ) :   1.8944 B( 48-C ,109-H ) :   0.9648
B( 49-C , 50-C ) :   1.0111 B( 49-C ,110-H ) :   0.9233 B( 50-C , 51-C ) :   1.3726
B( 50-C , 70-C ) :   1.3629 B( 51-C , 52-C ) :   0.9037 B( 51-C , 67-C ) :   1.3904
B( 52-C , 53-O ) :   2.1912 B( 52-C , 54-C ) :   0.9275 B( 54-C , 55-C ) :   1.5336
B( 54-C , 58-C ) :   1.2971 B( 55-C , 56-S ) :   1.2214 B( 55-C ,111-H ) :   0.9686
B( 56-S , 57-C ) :   1.1906 B( 57-C , 58-C ) :   1.5991 B( 57-C ,112-H ) :   0.9586
B( 58-C , 59-C ) :   0.8755 B( 59-C , 60-O ) :   2.2413 B( 59-C , 61-C ) :   0.9507
B( 61-C , 62-C ) :   0.9852 B( 61-C , 66-C ) :   1.7431 B( 62-C ,113-H ) :   0.9036
B( 63-C , 64-C ) :   1.0202 B( 63-C ,114-H ) :   0.9187 B( 64-C , 65-C ) :   1.7684
B( 64-C ,115-H ) :   0.9713 B( 65-C , 66-C ) :   1.0797 B( 65-C ,116-H ) :   0.9646
B( 66-C ,117-H ) :   0.9653 B( 67-C , 68-C ) :   1.3858 B( 67-C ,118-H ) :   0.9886
B( 68-C , 69-C ) :   1.3569 B( 68-C ,119-H ) :   0.9922 B( 69-C , 70-C ) :   1.3019
B( 69-C , 71-C ) :   1.0454 B( 70-C ,120-H ) :   1.0095 B( 71-C , 72-O ) :   1.1512
B( 71-C , 73-C ) :   0.1332 B( 71-C , 75-C ) :   1.4103 B( 72-O , 73-C ) :   1.1216
B( 73-C , 74-C ) :   1.4085 B( 73-C , 78-C ) :   1.1161 B( 74-C , 75-C ) :   1.1917
B( 74-C , 77-F ) :   1.1729 B( 75-C , 76-F ) :   1.1407 B( 78-C , 79-C ) :   1.9182
B( 78-C ,121-H ) :   0.9582 B( 79-C ,122-H ) :   0.9598 B( 79-C ,123-H ) :   0.9472

-----------------------------------------------------------------------------
         ABSORPTION SPECTRUM VIA TRANSITION ELECTRIC DIPOLE MOMENTS
-----------------------------------------------------------------------------
State   Energy  Wavelength   fosc         T2         TX        TY        TZ
        (cm-1)    (nm)                  (au**2)     (au)      (au)      (au)
-----------------------------------------------------------------------------
   0   21022.7    475.7   0.049364100   0.77303  -0.01449  -0.00951   0.87905
   1   21276.2    470.0   0.129606596   2.00544  -0.17896  -0.04672   1.40400
   2   27459.3    364.2   0.006665143   0.07991  -0.04511  -0.27843   0.01873
   3   28079.9    356.1   0.043138443   0.50576   0.27067   0.38926   0.53007
   4   29869.5    334.8   0.099708597   1.09896  -0.72513  -0.74215  -0.14953
   5   31696.3    315.5   0.060695048   0.63041  -0.75234  -0.12502   0.22083
   6   31732.3    315.1   0.207308365   2.15076   0.15455   1.38574   0.45453
   7   32439.5    308.3   0.218287453   2.21529   0.43580  -0.45809   1.34741
   8   32746.8    305.4   0.623590974   6.26913  -1.64081  -0.85444  -1.68725
   9   33447.4    299.0   0.038145327   0.37545  -0.13601  -0.49975  -0.32741
  10   33529.7    298.2   0.015715264   0.15430   0.00918   0.18311  -0.34740
  11   33643.8    297.2   0.086808994   0.84944   0.24714   0.07385   0.88482
  12   33856.7    295.4   0.011418655   0.11103  -0.05751  -0.25767   0.20330
  13   34105.7    293.2   0.454107327   4.38336   0.84014   0.18204   1.90903
  14   34355.1    291.1   0.002926414   0.02804  -0.04930   0.09462  -0.12907
  15   34764.8    287.6   0.537911369   5.09386   1.09076   1.18545   1.58076
  16   35299.9    283.3   0.046160943   0.43050  -0.17551  -0.34157  -0.53200
  17   35572.0    281.1   0.149348612   1.38219   0.68867   0.28435   0.90943
  18   35661.9    280.4   0.073883921   0.68206  -0.52476   0.11181  -0.62784
  19   35926.7    278.3   0.015290178   0.14011  -0.04831   0.03581  -0.36945
  20   36590.6    273.3   0.072314518   0.65063  -0.11277   0.68045   0.41821
  21   36783.0    271.9   0.061061265   0.54650   0.14901   0.63034   0.35632
  22   36922.1    270.8   0.359770721   3.20786   0.68363  -0.61223   1.53808
  23   37463.5    266.9   0.149321729   1.31217  -0.60905  -0.97015  -0.00576
  24   37728.2    265.1   0.092180245   0.80435   0.46204   0.40347   0.65428
  25   37907.0    263.8   0.037939802   0.32950   0.57288   0.03538  -0.00763
  26   38010.7    263.1   0.046777100   0.40514  -0.28442   0.28378  -0.49367
  27   38390.4    260.5   0.218487259   1.87361   0.44939   0.94925   0.87783
  28   38600.8    259.1   0.085528455   0.72944  -0.66928  -0.21879  -0.48336
  29   39007.6    256.4   0.089614584   0.75632  -0.66530   0.56005  -0.00568
  30   39073.7    255.9   0.086953552   0.73262   0.72401   0.20112   0.40986
  31   39325.6    254.3   0.032452498   0.27167   0.02632  -0.01715  -0.52028
  32   39379.9    253.9   0.018074030   0.15110   0.04903  -0.04790   0.38262
  33   39519.5    253.0   0.001286624   0.01072   0.04873   0.01006   0.09079
  34   39755.2    251.5   0.005866018   0.04858   0.00915   0.07665   0.20644
  35   39862.1    250.9   0.056021601   0.46267  -0.21831   0.14700  -0.62722
  36   39984.9    250.1   0.078862599   0.64931   0.45984  -0.58570   0.30791
  37   40318.0    248.0   0.018115171   0.14792   0.10401   0.23838   0.28333

FINAL SINGLE POINT ENERGY     -4293.280991153179

DIPOLE MOMENT
-------------
                                X             Y             Z
Electronic contribution:    -37.71260      40.07449     -10.33007
Nuclear contribution   :     37.54176     -40.94710       9.65043
                        -----------------------------------------
Total Dipole Moment    :     -0.17084      -0.87261      -0.67964
                        -----------------------------------------
Magnitude (a.u.)       :      1.11917
Magnitude (Debye)      :      2.84470

Rotational constants in cm-1:     0.001636     0.000263     0.000250
Rotational constants in MHz :    49.054885     7.870545     7.502489

                             ****ORCA TERMINATED NORMALLY****
TOTAL RUN TIME: 0 days 0 hours 13 minutes 54 seconds 317 msec
