                         Program Version 4.2.0 -  RELEASE  -
|  1> # ORCA input file
|  2> # SCF done       -177.062199886701          0.000704333960
|  3> ! CAM-B3LYP def2-SVP def2/J RIJCOSX Grid4 TightSCF
|  4> %maxcore 5000
|  5> %tddft
|  6>     Mode sTDDFT
|  7>     Ethresh 5.0
|  8>     maxcore 5000
|  9> end
| 10>
| 11> %pal
| 12>   nprocs 6
| 13>   end
| 14> * xyz 0 1
| 15>    C        7.65857        -0.56054         9.55547
| 16>    C        7.87917        -0.44296        10.95509
| 17>    C        8.81210         0.32142        11.60504
| 18>    S        8.73750         0.11579        13.30364
| 19>    C        7.46026        -1.00912        13.17404
| 20>    C        7.08758        -1.22357        11.86637
| 21>    C        6.06937        -2.10392        11.37090
| 22>    N        5.38757        -2.89976        12.19253
| 23>    C        5.79071        -2.08368         9.98025
| 24>    C        6.65107        -1.34543         9.10760
| 25>    C        4.69155        -2.82510         9.46758
| 26>    N        4.13335        -3.83298        10.15836
| 27>    C        3.22138        -4.38993         9.34943
| 28>    C        3.15810        -3.69299         8.06200
| 29>    C        2.14392        -4.31247         7.19204
| 30>    O        1.84899        -4.01982         6.05104
| 31>    C        1.59977        -5.38123         8.04487
| 32>    C        2.28243        -5.39995         9.34587
| 33>    N        1.76959        -6.36076        10.14762
| 34>    C        0.81862        -6.92721         9.43260
| 35>    C        0.65422        -6.36105         8.12041
| 36>    C        4.04202        -2.64827         8.14814
| 37>    C        4.21900        -1.52833         7.28112
| 38>    C        3.90031        -1.50823         5.97095
| 39>    C        4.14423        -0.36742         5.12058
| 40>    C        4.27130         0.90225         5.63514
| 41>    C        4.64733         1.97855         4.80589
| 42>    C        4.91693         3.31279         5.08577
| 43>    C        4.90010         4.06000         6.38293
| 44>    C        3.46803         4.48233         6.77327
| 45>    N        2.63273         3.32576         7.04069
| 46>    C        5.55749         3.29419         7.54192
| 47>    N        6.87450         2.79928         7.15981
| 48>    C        5.34611         3.91357         3.84411
| 49>    C        5.74750         5.16547         3.55877
| 50>    C        6.31449         5.51369         2.23106
| 51>    C        6.18693         4.43866         1.19261
| 52>    C        5.73103         3.20524         1.48181
| 53>    C        5.32186         2.88299         2.79690
| 54>    C        4.88009         1.71721         3.38805
| 55>    C        4.66229         0.41703         2.87188
| 56>    C        4.30276        -0.58536         3.71158
| 57>    C        7.79735         5.76599         2.35769
| 58>    C        8.54009         5.37800         3.40348
| 59>    C        9.94330         5.64562         3.48228
| 60>    N       10.62129         6.14108         2.46156
| 61>    C       11.88905         6.29632         2.90325
| 62>    C       12.02400         5.88597         4.30411
| 63>    C       13.40233         6.08332         4.75727
| 64>    O       13.88615         5.87800         5.85677
| 65>    C       14.07437         6.61056         3.55379
| 66>    C       13.11315         6.72852         2.44659
| 67>    N       13.71812         7.21687         1.33470
| 68>    C       14.97002         7.40144         1.68178
| 69>    C       15.26148         7.04380         3.05240
| 70>    C       10.77310         5.45431         4.69630
| 71>    C       10.30476         4.97576         5.94684
| 72>    C       11.12111         4.91611         7.03145
| 73>    C       10.78121         4.50658         8.35459
| 74>    C       11.78477         4.56476         9.38301
| 75>    C       13.09944         4.94667         9.26636
| 76>    S       13.93297         4.86170        10.75374
| 77>    C       12.54371         4.31518        11.57844
| 78>    C       11.46004         4.19615        10.73658
| 79>    C       10.13535         3.77645        11.06136
| 80>    N        9.82617         3.38619        12.33883
| 81>    C        9.20755         3.70904        10.03965
| 82>    C        9.52095         4.06527         8.72796
| 83>    H        8.31684        -0.04089         8.87672
| 84>    H        9.53461         0.98777        11.17978
| 85>    H        7.05502        -1.43616        14.07011
| 86>    H        5.54410        -2.88510        13.18374
| 87>    H        4.70927        -3.52795        11.73540
| 88>    H        6.52202        -1.47960         8.04577
| 89>    H        0.24536        -7.73986         9.84415
| 90>    H       -0.06628        -6.67165         7.38951
| 91>    H        4.63134        -0.64263         7.74449
| 92>    H        3.52009        -2.40510         5.50163
| 93>    H        4.06543         1.08447         6.67678
| 94>    H        5.47398         4.98076         6.23576
| 95>    H        3.07169         5.12995         5.97206
| 96>    H        3.51940         5.07453         7.69179
| 97>    H        2.47605         2.80538         6.18349
| 98>    H        1.72850         3.61856         7.39308
| 99>    H        4.87254         2.50777         7.88291
|100>    H        5.69966         3.98807         8.37739
|101>    H        6.79588         2.24878         6.30911
|102>    H        7.22764         2.18178         7.88455
|103>    H        5.75031         5.95378         4.29990
|104>    H        5.84966         6.43829         1.86126
|105>    H        6.52258         4.69604         0.20043
|106>    H        5.66975         2.44846         0.71318
|107>    H        4.79204         0.23901         1.81451
|108>    H        4.14218        -1.58540         3.33687
|109>    H        8.28020         6.26164         1.52809
|110>    H        8.08867         4.87157         4.24464
|111>    H       15.67884         7.78965         0.97086
|112>    H       16.21983         7.12029         3.52761
|113>    H        9.27013         4.67149         6.01458
|114>    H       12.14352         5.23086         6.88889
|115>    H       13.63302         5.26977         8.39484
|116>    H       12.60861         4.10326        12.62723
|117>    H       10.42421         3.70032        13.08324
|118>    H        8.84851         3.31442        12.56929
|119>    H        8.20253         3.38219        10.26902
|120>    H        8.73908         3.99052         7.98795
|121> *
|122>
|123>                          ****END OF INPUT****

CARTESIAN COORDINATES (ANGSTROEM)
---------------------------------
  C      7.658570   -0.560540    9.555470
  C      7.879170   -0.442960   10.955090
  C      8.812100    0.321420   11.605040
  S      8.737500    0.115790   13.303640
  C      7.460260   -1.009120   13.174040
  C      7.087580   -1.223570   11.866370
  C      6.069370   -2.103920   11.370900
  N      5.387570   -2.899760   12.192530
  C      5.790710   -2.083680    9.980250
  C      6.651070   -1.345430    9.107600
  C      4.691550   -2.825100    9.467580
  N      4.133350   -3.832980   10.158360
  C      3.221380   -4.389930    9.349430
  C      3.158100   -3.692990    8.062000
  C      2.143920   -4.312470    7.192040
  O      1.848990   -4.019820    6.051040
  C      1.599770   -5.381230    8.044870
  C      2.282430   -5.399950    9.345870
  N      1.769590   -6.360760   10.147620
  C      0.818620   -6.927210    9.432600
  C      0.654220   -6.361050    8.120410
  C      4.042020   -2.648270    8.148140
  C      4.219000   -1.528330    7.281120
  C      3.900310   -1.508230    5.970950
  C      4.144230   -0.367420    5.120580
  C      4.271300    0.902250    5.635140
  C      4.647330    1.978550    4.805890
  C      4.916930    3.312790    5.085770
  C      4.900100    4.060000    6.382930
  C      3.468030    4.482330    6.773270
  N      2.632730    3.325760    7.040690
  C      5.557490    3.294190    7.541920
  N      6.874500    2.799280    7.159810
  C      5.346110    3.913570    3.844110
  C      5.747500    5.165470    3.558770
  C      6.314490    5.513690    2.231060
  C      6.186930    4.438660    1.192610
  C      5.731030    3.205240    1.481810
  C      5.321860    2.882990    2.796900
  C      4.880090    1.717210    3.388050
  C      4.662290    0.417030    2.871880
  C      4.302760   -0.585360    3.711580
  C      7.797350    5.765990    2.357690
  C      8.540090    5.378000    3.403480
  C      9.943300    5.645620    3.482280
  N     10.621290    6.141080    2.461560
  C     11.889050    6.296320    2.903250
  C     12.024000    5.885970    4.304110
  C     13.402330    6.083320    4.757270
  O     13.886150    5.878000    5.856770
  C     14.074370    6.610560    3.553790
  C     13.113150    6.728520    2.446590
  N     13.718120    7.216870    1.334700
  C     14.970020    7.401440    1.681780
  C     15.261480    7.043800    3.052400
  C     10.773100    5.454310    4.696300
  C     10.304760    4.975760    5.946840
  C     11.121110    4.916110    7.031450
  C     10.781210    4.506580    8.354590
  C     11.784770    4.564760    9.383010
  C     13.099440    4.946670    9.266360
  S     13.932970    4.861700   10.753740
  C     12.543710    4.315180   11.578440
  C     11.460040    4.196150   10.736580
  C     10.135350    3.776450   11.061360
  N      9.826170    3.386190   12.338830
  C      9.207550    3.709040   10.039650
  C      9.520950    4.065270    8.727960
  H      8.316840   -0.040890    8.876720
  H      9.534610    0.987770   11.179780
  H      7.055020   -1.436160   14.070110
  H      5.544100   -2.885100   13.183740
  H      4.709270   -3.527950   11.735400
  H      6.522020   -1.479600    8.045770
  H      0.245360   -7.739860    9.844150
  H     -0.066280   -6.671650    7.389510
  H      4.631340   -0.642630    7.744490
  H      3.520090   -2.405100    5.501630
  H      4.065430    1.084470    6.676780
  H      5.473980    4.980760    6.235760
  H      3.071690    5.129950    5.972060
  H      3.519400    5.074530    7.691790
  H      2.476050    2.805380    6.183490
  H      1.728500    3.618560    7.393080
  H      4.872540    2.507770    7.882910
  H      5.699660    3.988070    8.377390
  H      6.795880    2.248780    6.309110
  H      7.227640    2.181780    7.884550
  H      5.750310    5.953780    4.299900
  H      5.849660    6.438290    1.861260
  H      6.522580    4.696040    0.200430
  H      5.669750    2.448460    0.713180
  H      4.792040    0.239010    1.814510
  H      4.142180   -1.585400    3.336870
  H      8.280200    6.261640    1.528090
  H      8.088670    4.871570    4.244640
  H     15.678840    7.789650    0.970860
  H     16.219830    7.120290    3.527610
  H      9.270130    4.671490    6.014580
  H     12.143520    5.230860    6.888890
  H     13.633020    5.269770    8.394840
  H     12.608610    4.103260   12.627230
  H     10.424210    3.700320   13.083240
  H      8.848510    3.314420   12.569290
  H      8.202530    3.382190   10.269020
  H      8.739080    3.990520    7.987950

 Total Charge           Charge          ....    0
 Multiplicity           Mult            ....    1
 Number of Electrons    NEL             ....  478
 Basis Dimension        Dim             .... 1150

ORBITAL ENERGIES
----------------

  NO   OCC          E(Eh)            E(eV)
   0   2.0000     -88.978467     -2421.2272
   1   2.0000     -88.959098     -2420.7001
   2   2.0000     -19.196477      -522.3627
   3   2.0000     -19.194203      -522.3008
   4   2.0000     -14.436244      -392.8302
   5   2.0000     -14.432824      -392.7371
   6   2.0000     -14.400362      -391.8538
   7   2.0000     -14.393301      -391.6616
   8   2.0000     -14.385662      -391.4538
   9   2.0000     -14.385539      -391.4504
  10   2.0000     -14.382822      -391.3765
  11   2.0000     -14.380540      -391.3144
  12   2.0000     -10.356447      -281.8133
  13   2.0000     -10.353157      -281.7237
  14   2.0000     -10.351209      -281.6707
  15   2.0000     -10.334775      -281.2235
  16   2.0000     -10.327408      -281.0231
  17   2.0000     -10.322085      -280.8782
  18   2.0000     -10.321810      -280.8707
  19   2.0000     -10.315565      -280.7008
  20   2.0000     -10.314563      -280.6735
  21   2.0000     -10.303651      -280.3766
  22   2.0000     -10.302029      -280.3325
  23   2.0000     -10.301804      -280.3263
  24   2.0000     -10.301346      -280.3139
  25   2.0000     -10.299458      -280.2625
  26   2.0000     -10.297812      -280.2177
  27   2.0000     -10.297693      -280.2145
  28   2.0000     -10.297478      -280.2086
  29   2.0000     -10.294337      -280.1232
  30   2.0000     -10.294307      -280.1223
  31   2.0000     -10.291293      -280.0403
  32   2.0000     -10.288508      -279.9645
  33   2.0000     -10.286815      -279.9185
  34   2.0000     -10.285734      -279.8890
  35   2.0000     -10.280984      -279.7598
  36   2.0000     -10.279175      -279.7106
  37   2.0000     -10.278432      -279.6903
  38   2.0000     -10.278124      -279.6820
  39   2.0000     -10.278119      -279.6819
  40   2.0000     -10.277106      -279.6543
  41   2.0000     -10.276771      -279.6452
  42   2.0000     -10.276657      -279.6420
  43   2.0000     -10.276232      -279.6305
  44   2.0000     -10.275403      -279.6079
  45   2.0000     -10.274880      -279.5937
  46   2.0000     -10.273701      -279.5616
  47   2.0000     -10.272699      -279.5344
  48   2.0000     -10.270172      -279.4656
  49   2.0000     -10.269966      -279.4600
  50   2.0000     -10.269889      -279.4579
  51   2.0000     -10.269653      -279.4515
  52   2.0000     -10.269460      -279.4462
  53   2.0000     -10.268937      -279.4320
  54   2.0000     -10.267980      -279.4059
  55   2.0000     -10.266965      -279.3783
  56   2.0000     -10.266897      -279.3765
  57   2.0000     -10.266287      -279.3599
  58   2.0000     -10.266259      -279.3591
  59   2.0000     -10.265317      -279.3335
  60   2.0000     -10.264366      -279.3076
  61   2.0000     -10.263747      -279.2908
  62   2.0000     -10.262713      -279.2626
  63   2.0000     -10.261251      -279.2228
  64   2.0000     -10.261143      -279.2199
  65   2.0000     -10.258224      -279.1405
  66   2.0000     -10.258073      -279.1364
  67   2.0000     -10.257628      -279.1242
  68   2.0000      -8.073955      -219.7035
  69   2.0000      -8.054787      -219.1819
  70   2.0000      -6.042924      -164.4363
  71   2.0000      -6.038480      -164.3154
  72   2.0000      -6.037153      -164.2793
  73   2.0000      -6.023643      -163.9117
  74   2.0000      -6.019276      -163.7928
  75   2.0000      -6.018090      -163.7606
  76   2.0000      -1.109756       -30.1980
  77   2.0000      -1.106228       -30.1020
  78   2.0000      -1.069457       -29.1014
  79   2.0000      -1.059194       -28.8221
  80   2.0000      -1.043185       -28.3865
  81   2.0000      -1.038554       -28.2605
  82   2.0000      -1.033663       -28.1274
  83   2.0000      -1.022970       -27.8364
  84   2.0000      -0.994811       -27.0702
  85   2.0000      -0.988478       -26.8979
  86   2.0000      -0.976819       -26.5806
  87   2.0000      -0.968087       -26.3430
  88   2.0000      -0.953304       -25.9407
  89   2.0000      -0.950328       -25.8597
  90   2.0000      -0.931628       -25.3509
  91   2.0000      -0.924843       -25.1662
  92   2.0000      -0.919129       -25.0108
  93   2.0000      -0.917537       -24.9675
  94   2.0000      -0.913702       -24.8631
  95   2.0000      -0.894942       -24.3526
  96   2.0000      -0.890043       -24.2193
  97   2.0000      -0.878603       -23.9080
  98   2.0000      -0.865527       -23.5522
  99   2.0000      -0.856293       -23.3009
 100   2.0000      -0.849327       -23.1114
 101   2.0000      -0.848330       -23.0842
 102   2.0000      -0.841827       -22.9073
 103   2.0000      -0.836833       -22.7714
 104   2.0000      -0.835223       -22.7276
 105   2.0000      -0.833613       -22.6838
 106   2.0000      -0.825488       -22.4627
 107   2.0000      -0.821109       -22.3435
 108   2.0000      -0.807068       -21.9614
 109   2.0000      -0.803000       -21.8508
 110   2.0000      -0.797906       -21.7121
 111   2.0000      -0.773177       -21.0392
 112   2.0000      -0.764070       -20.7914
 113   2.0000      -0.761332       -20.7169
 114   2.0000      -0.755739       -20.5647
 115   2.0000      -0.744491       -20.2586
 116   2.0000      -0.735346       -20.0098
 117   2.0000      -0.728505       -19.8236
 118   2.0000      -0.721025       -19.6201
 119   2.0000      -0.714561       -19.4442
 120   2.0000      -0.708180       -19.2706
 121   2.0000      -0.696535       -18.9537
 122   2.0000      -0.694475       -18.8976
 123   2.0000      -0.687273       -18.7016
 124   2.0000      -0.681817       -18.5532
 125   2.0000      -0.676486       -18.4081
 126   2.0000      -0.675005       -18.3678
 127   2.0000      -0.671577       -18.2745
 128   2.0000      -0.665118       -18.0988
 129   2.0000      -0.661185       -17.9918
 130   2.0000      -0.651404       -17.7256
 131   2.0000      -0.642438       -17.4816
 132   2.0000      -0.641665       -17.4606
 133   2.0000      -0.636253       -17.3133
 134   2.0000      -0.629283       -17.1237
 135   2.0000      -0.627680       -17.0800
 136   2.0000      -0.621495       -16.9117
 137   2.0000      -0.620195       -16.8764
 138   2.0000      -0.612951       -16.6792
 139   2.0000      -0.602812       -16.4034
 140   2.0000      -0.601049       -16.3554
 141   2.0000      -0.592916       -16.1341
 142   2.0000      -0.589956       -16.0535
 143   2.0000      -0.588555       -16.0154
 144   2.0000      -0.585004       -15.9188
 145   2.0000      -0.579872       -15.7791
 146   2.0000      -0.576728       -15.6936
 147   2.0000      -0.572532       -15.5794
 148   2.0000      -0.569688       -15.5020
 149   2.0000      -0.566162       -15.4061
 150   2.0000      -0.564843       -15.3702
 151   2.0000      -0.556797       -15.1512
 152   2.0000      -0.552910       -15.0455
 153   2.0000      -0.543964       -14.8020
 154   2.0000      -0.542175       -14.7533
 155   2.0000      -0.541449       -14.7336
 156   2.0000      -0.537376       -14.6227
 157   2.0000      -0.536590       -14.6014
 158   2.0000      -0.534058       -14.5324
 159   2.0000      -0.530345       -14.4314
 160   2.0000      -0.528751       -14.3881
 161   2.0000      -0.526227       -14.3194
 162   2.0000      -0.524749       -14.2791
 163   2.0000      -0.521313       -14.1856
 164   2.0000      -0.516616       -14.0578
 165   2.0000      -0.516418       -14.0525
 166   2.0000      -0.512837       -13.9550
 167   2.0000      -0.512191       -13.9374
 168   2.0000      -0.511098       -13.9077
 169   2.0000      -0.505682       -13.7603
 170   2.0000      -0.502211       -13.6659
 171   2.0000      -0.500746       -13.6260
 172   2.0000      -0.499522       -13.5927
 173   2.0000      -0.497261       -13.5312
 174   2.0000      -0.496998       -13.5240
 175   2.0000      -0.495146       -13.4736
 176   2.0000      -0.488962       -13.3053
 177   2.0000      -0.487146       -13.2559
 178   2.0000      -0.484783       -13.1916
 179   2.0000      -0.482320       -13.1246
 180   2.0000      -0.478949       -13.0329
 181   2.0000      -0.476590       -12.9687
 182   2.0000      -0.473209       -12.8767
 183   2.0000      -0.472397       -12.8546
 184   2.0000      -0.470066       -12.7912
 185   2.0000      -0.466479       -12.6935
 186   2.0000      -0.458996       -12.4899
 187   2.0000      -0.456502       -12.4220
 188   2.0000      -0.455371       -12.3913
 189   2.0000      -0.454466       -12.3666
 190   2.0000      -0.453592       -12.3429
 191   2.0000      -0.450273       -12.2525
 192   2.0000      -0.448803       -12.2125
 193   2.0000      -0.447116       -12.1666
 194   2.0000      -0.443471       -12.0675
 195   2.0000      -0.442631       -12.0446
 196   2.0000      -0.442041       -12.0285
 197   2.0000      -0.438195       -11.9239
 198   2.0000      -0.436694       -11.8831
 199   2.0000      -0.434062       -11.8114
 200   2.0000      -0.431709       -11.7474
 201   2.0000      -0.428697       -11.6654
 202   2.0000      -0.428173       -11.6512
 203   2.0000      -0.427182       -11.6242
 204   2.0000      -0.417585       -11.3631
 205   2.0000      -0.415343       -11.3021
 206   2.0000      -0.414883       -11.2895
 207   2.0000      -0.412427       -11.2227
 208   2.0000      -0.408740       -11.1224
 209   2.0000      -0.403502       -10.9798
 210   2.0000      -0.392442       -10.6789
 211   2.0000      -0.390922       -10.6375
 212   2.0000      -0.380549       -10.3553
 213   2.0000      -0.376804       -10.2534
 214   2.0000      -0.366741        -9.9795
 215   2.0000      -0.363921        -9.9028
 216   2.0000      -0.354886        -9.6569
 217   2.0000      -0.347780        -9.4636
 218   2.0000      -0.343304        -9.3418
 219   2.0000      -0.337061        -9.1719
 220   2.0000      -0.335265        -9.1230
 221   2.0000      -0.334190        -9.0938
 222   2.0000      -0.329744        -8.9728
 223   2.0000      -0.324324        -8.8253
 224   2.0000      -0.321106        -8.7377
 225   2.0000      -0.316868        -8.6224
 226   2.0000      -0.315081        -8.5738
 227   2.0000      -0.314459        -8.5569
 228   2.0000      -0.312612        -8.5066
 229   2.0000      -0.311984        -8.4895
 230   2.0000      -0.308853        -8.4043
 231   2.0000      -0.304158        -8.2766
 232   2.0000      -0.294672        -8.0184
 233   2.0000      -0.294492        -8.0135
 234   2.0000      -0.282931        -7.6989
 235   2.0000      -0.273026        -7.4294
 236   2.0000      -0.248271        -6.7558
 237   2.0000      -0.224597        -6.1116
 238   2.0000      -0.222513        -6.0549
 239   0.0000      -0.097046        -2.6408
 240   0.0000      -0.095668        -2.6033
 241   0.0000      -0.072651        -1.9769
 242   0.0000      -0.039695        -1.0801
 243   0.0000      -0.033606        -0.9145

MULLIKEN ATOMIC CHARGES
-----------------------
   0 C :   -0.035482
   1 C :    0.125979
   2 C :   -0.158965
   3 S :    0.145183
   4 C :   -0.197453
   5 C :    0.075802
   6 C :   -0.000974
   7 N :    0.050382
   8 C :   -0.008273
   9 C :   -0.018772
  10 C :    0.046438
  11 N :   -0.134877
  12 C :    0.081520
  13 C :   -0.155034
  14 C :    0.198074
  15 O :   -0.145476
  16 C :   -0.027810
  17 C :   -0.053772
  18 N :   -0.069498
  19 C :    0.076119
  20 C :   -0.098818
  21 C :    0.048392
  22 C :   -0.061774
  23 C :    0.012602
  24 C :    0.107901
  25 C :   -0.121535
  26 C :    0.026357
  27 C :   -0.102950
  28 C :   -0.004078
  29 C :    0.151857
  30 N :   -0.231416
  31 C :    0.113542
  32 N :   -0.205037
  33 C :    0.111942
  34 C :   -0.154307
  35 C :    0.153691
  36 C :   -0.030924
  37 C :    0.020295
  38 C :    0.020583
  39 C :    0.034215
  40 C :   -0.003477
  41 C :   -0.003973
  42 C :   -0.041340
  43 C :   -0.018726
  44 C :    0.042416
  45 N :   -0.043225
  46 C :    0.070562
  47 C :   -0.178158
  48 C :    0.215938
  49 O :   -0.168992
  50 C :   -0.002022
  51 C :   -0.049835
  52 N :   -0.058984
  53 C :    0.077924
  54 C :   -0.108766
  55 C :    0.068719
  56 C :   -0.046592
  57 C :   -0.006201
  58 C :    0.142474
  59 C :    0.073279
  60 C :   -0.180404
  61 S :    0.156542
  62 C :   -0.212088
  63 C :    0.096195
  64 C :    0.046769
  65 N :   -0.062634
  66 C :   -0.073628
  67 C :   -0.061115
  68 H :   -0.020317
  69 H :    0.035712
  70 H :    0.019266
  71 H :    0.110909
  72 H :    0.139658
  73 H :   -0.002533
  74 H :   -0.004901
  75 H :   -0.016677
  76 H :   -0.000530
  77 H :    0.008257
  78 H :   -0.023671
  79 H :   -0.023471
  80 H :   -0.017048
  81 H :   -0.007442
  82 H :    0.104771
  83 H :    0.096095
  84 H :    0.013483
  85 H :   -0.012782
  86 H :    0.106831
  87 H :    0.098865
  88 H :    0.004834
  89 H :    0.034643
  90 H :   -0.001795
  91 H :   -0.030332
  92 H :   -0.033504
  93 H :   -0.019757
  94 H :    0.033618
  95 H :    0.015881
  96 H :   -0.001337
  97 H :   -0.015657
  98 H :   -0.030978
  99 H :   -0.018471
 100 H :    0.047430
 101 H :    0.007269
 102 H :    0.113670
 103 H :    0.118314
 104 H :   -0.055068
 105 H :   -0.027538
Sum of atomic charges:   -0.0000000

LOEWDIN ATOMIC CHARGES
----------------------
   0 C :   -0.057177
   1 C :   -0.044769
   2 C :   -0.194839
   3 S :    0.485775
   4 C :   -0.188694
   5 C :   -0.077902
   6 C :    0.099959
   7 N :    0.060107
   8 C :   -0.117235
   9 C :   -0.007695
  10 C :    0.090672
  11 N :   -0.131988
  12 C :    0.055328
  13 C :   -0.045526
  14 C :    0.067638
  15 O :   -0.150531
  16 C :   -0.050539
  17 C :   -0.011155
  18 N :   -0.107993
  19 C :    0.048495
  20 C :   -0.048427
  21 C :   -0.021824
  22 C :   -0.035945
  23 C :    0.018846
  24 C :   -0.024963
  25 C :   -0.023873
  26 C :   -0.026192
  27 C :   -0.053014
  28 C :   -0.038357
  29 C :    0.029771
  30 N :   -0.116651
  31 C :    0.024624
  32 N :   -0.108422
  33 C :   -0.015886
  34 C :    0.062827
  35 C :   -0.031916
  36 C :   -0.021530
  37 C :   -0.014691
  38 C :   -0.032430
  39 C :   -0.028370
  40 C :   -0.009318
  41 C :   -0.020867
  42 C :    0.076368
  43 C :   -0.060716
  44 C :    0.075974
  45 N :   -0.108346
  46 C :    0.056488
  47 C :   -0.084312
  48 C :    0.073771
  49 O :   -0.166598
  50 C :   -0.042968
  51 C :    0.002029
  52 N :   -0.100265
  53 C :    0.054803
  54 C :   -0.043149
  55 C :   -0.011749
  56 C :   -0.063238
  57 C :    0.041105
  58 C :   -0.065478
  59 C :   -0.038573
  60 C :   -0.198258
  61 S :    0.494026
  62 C :   -0.218653
  63 C :   -0.073406
  64 C :    0.043841
  65 N :   -0.012135
  66 C :   -0.103395
  67 C :    0.011244
  68 H :    0.028295
  69 H :    0.029116
  70 H :    0.019554
  71 H :    0.076624
  72 H :    0.055621
  73 H :    0.036998
  74 H :    0.017586
  75 H :    0.029720
  76 H :    0.029228
  77 H :    0.033036
  78 H :    0.025379
  79 H :    0.025652
  80 H :    0.000043
  81 H :    0.015525
  82 H :    0.055997
  83 H :    0.057838
  84 H :    0.002202
  85 H :    0.014891
  86 H :    0.055292
  87 H :    0.055054
  88 H :    0.031273
  89 H :    0.057349
  90 H :    0.027864
  91 H :    0.032153
  92 H :    0.028408
  93 H :    0.029893
  94 H :    0.038971
  95 H :    0.032559
  96 H :    0.018752
  97 H :    0.029875
  98 H :    0.023363
  99 H :    0.030519
 100 H :    0.029208
 101 H :    0.014302
 102 H :    0.072343
 103 H :    0.072925
 104 H :    0.018623
 105 H :    0.024236

  Mayer bond orders larger than 0.100000
B(  0-C ,  1-C ) :   1.1125 B(  0-C ,  9-C ) :   1.6097 B(  0-C , 68-H ) :   0.9941
B(  1-C ,  2-C ) :   1.4676 B(  1-C ,  5-C ) :   1.2169 B(  2-C ,  3-S ) :   1.1808
B(  2-C , 69-H ) :   0.9703 B(  3-S ,  4-C ) :   1.2242 B(  4-C ,  5-C ) :   1.4344
B(  4-C , 70-H ) :   0.9731 B(  5-C ,  6-C ) :   1.0843 B(  6-C ,  7-N ) :   1.5640
B(  6-C ,  8-C ) :   1.2509 B(  7-N , 71-H ) :   0.9249 B(  7-N , 72-H ) :   0.8219
B(  8-C ,  9-C ) :   1.1455 B(  8-C , 10-C ) :   1.1918 B(  9-C , 73-H ) :   0.9856
B( 10-C , 11-N ) :   1.4283 B( 10-C , 12-C ) :   0.1050 B( 10-C , 21-C ) :   1.0291
B( 11-N , 12-C ) :   1.3828 B( 11-N , 72-H ) :   0.1760 B( 12-C , 13-C ) :   1.0584
B( 12-C , 17-C ) :   1.3755 B( 13-C , 14-C ) :   0.8900 B( 13-C , 21-C ) :   1.5772
B( 14-C , 15-O ) :   2.2211 B( 14-C , 16-C ) :   0.9337 B( 16-C , 17-C ) :   1.0887
B( 16-C , 20-C ) :   1.5558 B( 17-C , 18-N ) :   1.3397 B( 18-N , 19-C ) :   1.6205
B( 19-C , 20-C ) :   1.1173 B( 19-C , 74-H ) :   0.9903 B( 20-C , 75-H ) :   1.0110
B( 21-C , 22-C ) :   1.0890 B( 22-C , 23-C ) :   1.7041 B( 22-C , 76-H ) :   0.9565
B( 23-C , 24-C ) :   1.0415 B( 23-C , 77-H ) :   0.9729 B( 24-C , 25-C ) :   1.5178
B( 24-C , 41-C ) :   1.1197 B( 25-C , 26-C ) :   1.1180 B( 25-C , 78-H ) :   0.9901
B( 26-C , 27-C ) :   1.4565 B( 26-C , 39-C ) :   1.1258 B( 27-C , 28-C ) :   1.0393
B( 27-C , 33-C ) :   1.1187 B( 28-C , 29-C ) :   1.0521 B( 28-C , 31-C ) :   1.0360
B( 28-C , 79-H ) :   0.8789 B( 29-C , 30-N ) :   1.0900 B( 29-C , 80-H ) :   0.9372
B( 29-C , 81-H ) :   0.9380 B( 30-N , 82-H ) :   0.9569 B( 30-N , 83-H ) :   0.9674
B( 31-C , 32-N ) :   1.0803 B( 31-C , 84-H ) :   0.9341 B( 31-C , 85-H ) :   0.9340
B( 32-N , 86-H ) :   0.9620 B( 32-N , 87-H ) :   0.9489 B( 32-N ,105-H ) :   0.1125
B( 33-C , 34-C ) :   1.6545 B( 33-C , 38-C ) :   1.0570 B( 34-C , 35-C ) :   0.9905
B( 34-C , 88-H ) :   0.9692 B( 35-C , 36-C ) :   0.9779 B( 35-C , 42-C ) :   0.9366
B( 35-C , 89-H ) :   0.8684 B( 36-C , 37-C ) :   1.7317 B( 36-C , 90-H ) :   0.9653
B( 37-C , 38-C ) :   1.1299 B( 37-C , 91-H ) :   0.9890 B( 38-C , 39-C ) :   1.4342
B( 39-C , 40-C ) :   1.1411 B( 40-C , 41-C ) :   1.6036 B( 40-C , 92-H ) :   0.9918
B( 41-C , 93-H ) :   0.9908 B( 42-C , 43-C ) :   1.8031 B( 42-C , 94-H ) :   0.9675
B( 43-C , 44-C ) :   1.0934 B( 43-C , 95-H ) :   0.9389 B( 44-C , 45-N ) :   1.6280
B( 44-C , 46-C ) :   0.1128 B( 44-C , 55-C ) :   0.9913 B( 45-N , 46-C ) :   1.3274
B( 46-C , 47-C ) :   1.0649 B( 46-C , 51-C ) :   1.4226 B( 47-C , 48-C ) :   0.9228
B( 47-C , 55-C ) :   1.5003 B( 48-C , 49-O ) :   2.1302 B( 48-C , 50-C ) :   0.9405
B( 49-O , 99-H ) :   0.1021 B( 50-C , 51-C ) :   1.0830 B( 50-C , 54-C ) :   1.5874
B( 51-C , 52-N ) :   1.3105 B( 52-N , 53-C ) :   1.6607 B( 53-C , 54-C ) :   1.0786
B( 53-C , 96-H ) :   0.9891 B( 54-C , 97-H ) :   1.0119 B( 55-C , 56-C ) :   1.1523
B( 56-C , 57-C ) :   1.6113 B( 56-C , 98-H ) :   0.9639 B( 57-C , 58-C ) :   1.1284
B( 57-C , 99-H ) :   0.9650 B( 58-C , 59-C ) :   1.1001 B( 58-C , 67-C ) :   1.4405
B( 59-C , 60-C ) :   1.4863 B( 59-C , 63-C ) :   1.2182 B( 60-C , 61-S ) :   1.2073
B( 60-C , 62-C ) :   0.1035 B( 60-C ,100-H ) :   0.9432 B( 61-S , 62-C ) :   1.2248
B( 62-C , 63-C ) :   1.4079 B( 62-C ,101-H ) :   0.9707 B( 63-C , 64-C ) :   1.1476
B( 64-C , 65-N ) :   1.2692 B( 64-C , 66-C ) :   1.4245 B( 65-N ,102-H ) :   0.9431
B( 65-N ,103-H ) :   0.9376 B( 66-C , 67-C ) :   1.2382 B( 66-C ,104-H ) :   0.9908
B( 67-C ,105-H ) :   0.9681

-----------------------------------------------------------------------------
         ABSORPTION SPECTRUM VIA TRANSITION ELECTRIC DIPOLE MOMENTS
-----------------------------------------------------------------------------
State   Energy  Wavelength   fosc         T2         TX        TY        TZ
        (cm-1)    (nm)                  (au**2)     (au)      (au)      (au)
-----------------------------------------------------------------------------
   0   11881.3    841.7   0.174543090   4.83633  -0.85728  -0.75326   1.87989
   1   13470.0    742.4   0.043211509   1.05611  -0.05519  -1.00632  -0.20093
   2   14446.9    692.2   0.124921110   2.84667  -1.38538  -0.80991   0.52100
   3   15754.2    634.8   0.088664588   1.85280  -0.34092  -0.69226   1.12132
   4   17138.6    583.5   0.007277961   0.13980   0.28184   0.24139   0.04584
   5   17615.6    567.7   0.571212942  10.67522  -2.36851  -1.87992  -1.23745
   6   20242.2    494.0   0.001992040   0.03240  -0.02181  -0.02952  -0.17621
   7   21324.5    468.9   0.108392908   1.67339  -0.62737  -1.12316   0.13531
   8   21628.4    462.4   0.397875318   6.05616   0.37094   0.56483  -2.36633
   9   22615.6    442.2   0.000900098   0.01310  -0.10472   0.04419  -0.01355
  10   23543.5    424.7   0.001164820   0.01629   0.03882   0.11883   0.02571
  11   23556.7    424.5   0.017695360   0.24730   0.35839   0.30982   0.15122
  12   24045.2    415.9   0.181180792   2.48062   0.02059   0.76195  -1.37827
  13   24311.5    411.3   0.091471233   1.23865  -0.14963   0.48111  -0.99237
  14   25552.7    391.3   0.101402915   1.30644   0.61314   0.86974  -0.41719
  15   25971.2    385.0   0.201019566   2.54813  -1.04848  -0.73277   0.95492
  16   26338.9    379.7   0.078219029   0.97767   0.67309   0.70485   0.16671
  17   26472.3    377.8   0.783116923   9.73890  -1.83713  -2.27246   1.09535
  18   26526.6    377.0   0.002276175   0.02825  -0.02725  -0.16232  -0.03404
  19   26729.3    374.1   0.270041150   3.32596  -1.32422  -1.09641   0.60851
  20   27246.6    367.0   0.069916551   0.84478  -0.59783   0.69807   0.00918
  21   27515.3    363.4   0.097724386   1.16924  -0.87241   0.42245   0.47926
  22   27783.2    359.9   0.139311755   1.65075   0.95513   0.84728  -0.14348
  23   27880.8    358.7   0.016242469   0.19179   0.29231   0.28245  -0.16299
  24   28077.7    356.2   0.019707012   0.23107   0.31377   0.30930   0.19221
  25   28113.1    355.7   0.031381906   0.36749   0.46880   0.30038   0.23977
  26   28239.9    354.1   0.003935427   0.04588  -0.01817   0.13129   0.16826
  27   28796.8    347.3   0.164761254   1.88359   1.21775  -0.01146   0.63288
  28   29693.7    336.8   0.018933341   0.20991   0.17815   0.42047   0.03717
  29   29866.6    334.8   0.006104300   0.06729  -0.23852  -0.10187  -0.00417
  30   30345.1    329.5   0.008771738   0.09516  -0.17911  -0.00089  -0.25116
  31   30421.5    328.7   0.024941020   0.26990   0.30181   0.42283   0.00562
  32   30439.0    328.5   0.118170438   1.27807  -0.53981  -0.73059   0.67299
  33   31098.7    321.6   0.001828686   0.01936   0.07032   0.05383  -0.10731
  34   31279.7    319.7   0.089857483   0.94573   0.74336   0.61984  -0.09460
  35   31444.7    318.0   0.055912771   0.58538   0.51083   0.55755  -0.11648
  36   31507.4    317.4   0.019450278   0.20323  -0.27251  -0.28960   0.21236
  37   31825.6    314.2   0.007696221   0.07961  -0.05453  -0.25273   0.11298
  38   32222.3    310.3   0.005888284   0.06016   0.24204   0.03634   0.01598
  39   32299.6    309.6   0.015827025   0.16132  -0.33754  -0.05644  -0.21024
  40   32868.5    304.2   0.004399303   0.04406  -0.06723  -0.13551   0.14554
  41   33234.9    300.9   0.002724980   0.02699   0.12891   0.09801   0.02776
  42   33656.0    297.1   0.119482314   1.16874   0.17369   0.83005  -0.67051
  43   34121.4    293.1   0.000310979   0.00300   0.02755  -0.01895  -0.04339
  44   34346.4    291.2   0.010007890   0.09593  -0.20537  -0.14858   0.17797
  45   34582.6    289.2   0.253214565   2.41050  -0.37917  -0.68405   1.34119
  46   34731.2    287.9   0.091350642   0.86590   0.02166   0.65774  -0.65788
  47   34929.3    286.3   0.004951664   0.04667   0.09005  -0.04544   0.19104
  48   35188.0    284.2   0.060607730   0.56703  -0.58059  -0.44822   0.17042
  49   35418.9    282.3   0.011945148   0.11103   0.13992  -0.17947   0.24340
  50   35552.1    281.3   0.002808147   0.02600  -0.06166  -0.14410  -0.03792
  51   35798.0    279.3   0.047788846   0.43948  -0.46739  -0.42518  -0.20063
  52   35927.1    278.3   0.004103922   0.03761  -0.02437   0.18512   0.05235
  53   35981.6    277.9   0.031226376   0.28570  -0.04106  -0.20052   0.49377
  54   36100.7    277.0   0.048328151   0.44072  -0.27353  -0.00339  -0.60489
  55   36212.6    276.1   0.010510961   0.09556  -0.04976  -0.15234   0.26433
  56   36391.7    274.8   0.001814476   0.01641   0.09992   0.06537   0.04645
  57   36694.2    272.5   0.367379333   3.29604  -1.34897  -1.01592  -0.66651
  58   37049.9    269.9   0.013740170   0.12209  -0.04687   0.31678  -0.13981
  59   37326.8    267.9   0.004779590   0.04215  -0.18410   0.08843   0.02100
  60   37792.6    264.6   0.313718238   2.73280   1.50044   0.63989   0.26839
  61   38154.0    262.1   0.065340708   0.56379   0.50674   0.52522   0.17648
  62   38392.6    260.5   0.043298852   0.37128   0.34801  -0.36004   0.34719
  63   38440.4    260.1   0.026824537   0.22973   0.36839  -0.05272   0.30206
  64   38472.0    259.9   0.044881323   0.38406  -0.28999  -0.06273   0.54408
  65   38854.3    257.4   0.000805491   0.00682   0.01745   0.02604  -0.07644
  66   39253.9    254.8   0.011498154   0.09643  -0.14723  -0.27314  -0.01234
  67   39438.1    253.6   0.058595275   0.48913   0.12492  -0.34241   0.59689
  68   39482.1    253.3   0.011379350   0.09488   0.10812   0.20821  -0.19961
  69   39659.3    252.1   0.018255072   0.15154   0.32749   0.13539   0.16112
  70   39807.6    251.2   0.002733017   0.02260  -0.06635   0.05566  -0.12289
  71   40037.6    249.8   0.002350900   0.01933  -0.12750   0.05543  -0.00025
  72   40158.9    249.0   0.001176003   0.00964   0.09083   0.03086   0.02095
  73   40212.6    248.7   0.003588829   0.02938   0.13239   0.04414  -0.09953
  74   40269.4    248.3   0.000655469   0.00536   0.04381   0.04375   0.03905

FINAL SINGLE POINT ENERGY     -3537.750619227555

DIPOLE MOMENT
-------------
                                X             Y             Z
Electronic contribution:     24.77778     -15.27409       7.05375
Nuclear contribution   :    -25.62300      16.21470      -4.20101
                        -----------------------------------------
Total Dipole Moment    :     -0.84521       0.94061       2.85275
                        -----------------------------------------
Magnitude (a.u.)       :      3.12046
Magnitude (Debye)      :      7.93159

Rotational constants in cm-1:     0.001330     0.000586     0.000443
Rotational constants in MHz :    39.864013    17.565645    13.269455

                             ****ORCA TERMINATED NORMALLY****
TOTAL RUN TIME: 0 days 0 hours 11 minutes 19 seconds 405 msec
