                         Program Version 4.2.0 -  RELEASE  -
|  1> # ORCA input file
|  2> # SCF done       -192.656200713174          0.000925163784
|  3> ! CAM-B3LYP def2-SVP def2/J RIJCOSX Grid4 TightSCF
|  4> %maxcore 5000
|  5> %tddft
|  6>     Mode sTDDFT
|  7>     Ethresh 5.0
|  8>     maxcore 5000
|  9> end
| 10>
| 11> %pal
| 12>   nprocs 6
| 13>   end
| 14> * xyz 0 1
| 15>    C       -2.06176         3.21342         0.05974
| 16>    C       -1.78817         2.34652         1.03236
| 17>    C       -0.93166         2.63251         2.14832
| 18>    S       -0.15068         4.17719         2.30093
| 19>    C        0.63555         3.69432         3.76569
| 20>    C        1.52179         4.60890         4.42615
| 21>    S        1.07655         6.25708         4.68236
| 22>    C        2.57071         6.60747         5.51408
| 23>    C        2.71584         7.95745         5.94536
| 24>    C        3.85744         8.53668         6.38391
| 25>    C        4.00900         9.90163         6.74892
| 26>    S        5.64062        10.40725         7.13084
| 27>    C        5.16516        12.05710         7.39138
| 28>    C        6.11214        13.07967         7.71548
| 29>    S        7.35273        12.81148         8.89643
| 30>    C        7.96858        14.42973         8.70367
| 31>    C        9.13518        14.78805         9.44644
| 32>    C       10.09062        15.62764         9.00002
| 33>    C       11.26981        15.94796         9.72833
| 34>    S       11.43051        15.59711        11.43235
| 35>    C       12.98876        16.29342        11.47379
| 36>    C       13.39140        16.77046        10.25774
| 37>    C       12.40777        16.57035         9.24295
| 38>    C       12.62187        16.95361         7.83515
| 39>    O       11.83750        16.71961         6.93182
| 40>    C       13.90007        17.62315         7.63466
| 41>    C       14.43112        18.13763         6.47235
| 42>    N       15.65848        18.64279         6.74120
| 43>    C       16.49797        19.32966         5.79242
| 44>    C       16.17415        20.82168         5.75322
| 45>    C       15.93678        18.47748         8.05594
| 46>    C       14.87168        17.84189         8.65608
| 47>    C       14.69737        17.42577        10.03843
| 48>    O       15.51658        17.59216        10.92340
| 49>    C        7.19927        15.14825         7.80179
| 50>    C        6.16824        14.36166         7.21067
| 51>    C        5.40287        14.82750         6.04117
| 52>    O        4.78484        14.08406         5.31315
| 53>    C        5.55273        16.30206         5.75765
| 54>    C        5.93192        17.11014         6.99204
| 55>    C        7.21452        16.60793         7.62143
| 56>    O        8.09195        17.35039         7.99484
| 57>    C        3.80518        12.18600         7.22695
| 58>    C        3.14698        10.98515         6.85879
| 59>    C        1.71001        11.12701         6.68832
| 60>    O        0.88112        10.32531         6.36250
| 61>    S        1.26413        12.84145         7.06871
| 62>    C        2.95366        13.34807         7.43161
| 63>    O        3.23958        14.45145         7.79967
| 64>    C        3.34947         5.45874         5.62106
| 65>    C        2.76340         4.34024         4.96507
| 66>    C        3.48675         3.07552         4.74759
| 67>    O        3.20212         2.28965         3.87263
| 68>    C        4.68863         2.87938         5.64301
| 69>    C        4.67668         3.79859         6.85845
| 70>    C        4.56585         5.24106         6.41898
| 71>    O        5.38632         6.07792         6.72036
| 72>    C        0.28917         2.41129         4.13772
| 73>    C       -0.60120         1.79969         3.20311
| 74>    C       -1.09707         0.41673         3.35044
| 75>    O       -1.85040        -0.13295         2.56469
| 76>    C       -0.58460        -0.23374         4.54648
| 77>    C       -0.79898        -1.51684         4.99875
| 78>    N       -0.13679        -1.68044         6.16922
| 79>    C       -0.05595        -2.91165         6.91381
| 80>    C        1.14374        -3.74503         6.46725
| 81>    C        0.50976        -0.53448         6.48595
| 82>    C        0.25851         0.39959         5.50351
| 83>    C        0.72773         1.76761         5.39245
| 84>    O        1.39581         2.32011         6.25280
| 85>    H       -2.70844         2.95326        -0.75901
| 86>    H       -1.64644         4.20927         0.05408
| 87>    H       -2.20802         1.35023         1.03137
| 88>    H        1.82016         8.55627         5.84855
| 89>    H        4.76160         7.94764         6.45353
| 90>    H        9.27712        14.26569        10.38584
| 91>    H       10.02094        16.08183         8.02188
| 92>    H       13.54783        16.32576        12.38859
| 93>    H       14.00736        18.16300         5.48805
| 94>    H       16.34048        18.88720         4.80531
| 95>    H       17.54188        19.18051         6.07998
| 96>    H       15.13465        20.97545         5.47381
| 97>    H       16.80893        21.32105         5.02679
| 98>    H       16.33946        21.27072         6.72962
| 99>    H       16.86157        18.80467         8.48816
|100>    H        6.32856        16.40221         4.99121
|101>    H        4.61930        16.66461         5.32377
|102>    H        5.13816        17.01645         7.73907
|103>    H        6.05028        18.16602         6.74513
|104>    H        4.71996         1.83146         5.94577
|105>    H        5.57855         3.06852         5.03401
|106>    H        5.58374         3.67195         7.45092
|107>    H        3.80636         3.55902         7.47465
|108>    H       -1.38034        -2.30249         4.55852
|109>    H       -0.98035        -3.47316         6.75693
|110>    H        0.03077        -2.67076         7.97663
|111>    H        1.06309        -3.98833         5.41063
|112>    H        1.18726        -4.66915         7.03652
|113>    H        2.06742        -3.19337         6.62443
|114>    H        1.09980        -0.44072         7.37606
|115> *
|116>
|117>                          ****END OF INPUT****

CARTESIAN COORDINATES (ANGSTROEM)
---------------------------------
  C     -2.061760    3.213420    0.059740
  C     -1.788170    2.346520    1.032360
  C     -0.931660    2.632510    2.148320
  S     -0.150680    4.177190    2.300930
  C      0.635550    3.694320    3.765690
  C      1.521790    4.608900    4.426150
  S      1.076550    6.257080    4.682360
  C      2.570710    6.607470    5.514080
  C      2.715840    7.957450    5.945360
  C      3.857440    8.536680    6.383910
  C      4.009000    9.901630    6.748920
  S      5.640620   10.407250    7.130840
  C      5.165160   12.057100    7.391380
  C      6.112140   13.079670    7.715480
  S      7.352730   12.811480    8.896430
  C      7.968580   14.429730    8.703670
  C      9.135180   14.788050    9.446440
  C     10.090620   15.627640    9.000020
  C     11.269810   15.947960    9.728330
  S     11.430510   15.597110   11.432350
  C     12.988760   16.293420   11.473790
  C     13.391400   16.770460   10.257740
  C     12.407770   16.570350    9.242950
  C     12.621870   16.953610    7.835150
  O     11.837500   16.719610    6.931820
  C     13.900070   17.623150    7.634660
  C     14.431120   18.137630    6.472350
  N     15.658480   18.642790    6.741200
  C     16.497970   19.329660    5.792420
  C     16.174150   20.821680    5.753220
  C     15.936780   18.477480    8.055940
  C     14.871680   17.841890    8.656080
  C     14.697370   17.425770   10.038430
  O     15.516580   17.592160   10.923400
  C      7.199270   15.148250    7.801790
  C      6.168240   14.361660    7.210670
  C      5.402870   14.827500    6.041170
  O      4.784840   14.084060    5.313150
  C      5.552730   16.302060    5.757650
  C      5.931920   17.110140    6.992040
  C      7.214520   16.607930    7.621430
  O      8.091950   17.350390    7.994840
  C      3.805180   12.186000    7.226950
  C      3.146980   10.985150    6.858790
  C      1.710010   11.127010    6.688320
  O      0.881120   10.325310    6.362500
  S      1.264130   12.841450    7.068710
  C      2.953660   13.348070    7.431610
  O      3.239580   14.451450    7.799670
  C      3.349470    5.458740    5.621060
  C      2.763400    4.340240    4.965070
  C      3.486750    3.075520    4.747590
  O      3.202120    2.289650    3.872630
  C      4.688630    2.879380    5.643010
  C      4.676680    3.798590    6.858450
  C      4.565850    5.241060    6.418980
  O      5.386320    6.077920    6.720360
  C      0.289170    2.411290    4.137720
  C     -0.601200    1.799690    3.203110
  C     -1.097070    0.416730    3.350440
  O     -1.850400   -0.132950    2.564690
  C     -0.584600   -0.233740    4.546480
  C     -0.798980   -1.516840    4.998750
  N     -0.136790   -1.680440    6.169220
  C     -0.055950   -2.911650    6.913810
  C      1.143740   -3.745030    6.467250
  C      0.509760   -0.534480    6.485950
  C      0.258510    0.399590    5.503510
  C      0.727730    1.767610    5.392450
  O      1.395810    2.320110    6.252800
  H     -2.708440    2.953260   -0.759010
  H     -1.646440    4.209270    0.054080
  H     -2.208020    1.350230    1.031370
  H      1.820160    8.556270    5.848550
  H      4.761600    7.947640    6.453530
  H      9.277120   14.265690   10.385840
  H     10.020940   16.081830    8.021880
  H     13.547830   16.325760   12.388590
  H     14.007360   18.163000    5.488050
  H     16.340480   18.887200    4.805310
  H     17.541880   19.180510    6.079980
  H     15.134650   20.975450    5.473810
  H     16.808930   21.321050    5.026790
  H     16.339460   21.270720    6.729620
  H     16.861570   18.804670    8.488160
  H      6.328560   16.402210    4.991210
  H      4.619300   16.664610    5.323770
  H      5.138160   17.016450    7.739070
  H      6.050280   18.166020    6.745130
  H      4.719960    1.831460    5.945770
  H      5.578550    3.068520    5.034010
  H      5.583740    3.671950    7.450920
  H      3.806360    3.559020    7.474650
  H     -1.380340   -2.302490    4.558520
  H     -0.980350   -3.473160    6.756930
  H      0.030770   -2.670760    7.976630
  H      1.063090   -3.988330    5.410630
  H      1.187260   -4.669150    7.036520
  H      2.067420   -3.193370    6.624430
  H      1.099800   -0.440720    7.376060

 Total Charge           Charge          ....    0
 Multiplicity           Mult            ....    1
 Number of Electrons    NEL             ....  532
 Basis Dimension        Dim             .... 1154

ORBITAL ENERGIES
----------------

  NO   OCC          E(Eh)            E(eV)
   0   2.0000     -88.976691     -2421.1789
   1   2.0000     -88.972987     -2421.0781
   2   2.0000     -88.970477     -2421.0098
   3   2.0000     -88.964950     -2420.8594
   4   2.0000     -88.964183     -2420.8385
   5   2.0000     -88.932113     -2419.9658
   6   2.0000     -19.225731      -523.1587
   7   2.0000     -19.221979      -523.0566
   8   2.0000     -19.211860      -522.7813
   9   2.0000     -19.199020      -522.4319
  10   2.0000     -19.198599      -522.4204
  11   2.0000     -19.196365      -522.3596
  12   2.0000     -19.195242      -522.3291
  13   2.0000     -19.193771      -522.2891
  14   2.0000     -19.192804      -522.2627
  15   2.0000     -19.190034      -522.1874
  16   2.0000     -14.484511      -394.1436
  17   2.0000     -14.481904      -394.0726
  18   2.0000     -10.390188      -282.7314
  19   2.0000     -10.386749      -282.6378
  20   2.0000     -10.362874      -281.9881
  21   2.0000     -10.356281      -281.8087
  22   2.0000     -10.356191      -281.8063
  23   2.0000     -10.354785      -281.7680
  24   2.0000     -10.354057      -281.7482
  25   2.0000     -10.353519      -281.7336
  26   2.0000     -10.352813      -281.7144
  27   2.0000     -10.349909      -281.6353
  28   2.0000     -10.331590      -281.1369
  29   2.0000     -10.330416      -281.1049
  30   2.0000     -10.329896      -281.0908
  31   2.0000     -10.329291      -281.0743
  32   2.0000     -10.322417      -280.8873
  33   2.0000     -10.322024      -280.8766
  34   2.0000     -10.320122      -280.8248
  35   2.0000     -10.318007      -280.7673
  36   2.0000     -10.317336      -280.7490
  37   2.0000     -10.310569      -280.5648
  38   2.0000     -10.309735      -280.5422
  39   2.0000     -10.309025      -280.5228
  40   2.0000     -10.307803      -280.4896
  41   2.0000     -10.305909      -280.4381
  42   2.0000     -10.305285      -280.4210
  43   2.0000     -10.302795      -280.3533
  44   2.0000     -10.295587      -280.1572
  45   2.0000     -10.294855      -280.1373
  46   2.0000     -10.288982      -279.9774
  47   2.0000     -10.287597      -279.9397
  48   2.0000     -10.286927      -279.9215
  49   2.0000     -10.284178      -279.8467
  50   2.0000     -10.283936      -279.8401
  51   2.0000     -10.283509      -279.8285
  52   2.0000     -10.282410      -279.7986
  53   2.0000     -10.281163      -279.7647
  54   2.0000     -10.280401      -279.7439
  55   2.0000     -10.280216      -279.7389
  56   2.0000     -10.280065      -279.7348
  57   2.0000     -10.279790      -279.7273
  58   2.0000     -10.278167      -279.6831
  59   2.0000     -10.276598      -279.6404
  60   2.0000     -10.274778      -279.5909
  61   2.0000     -10.271857      -279.5114
  62   2.0000     -10.271353      -279.4977
  63   2.0000     -10.270236      -279.4673
  64   2.0000     -10.267652      -279.3970
  65   2.0000     -10.266514      -279.3661
  66   2.0000     -10.264449      -279.3099
  67   2.0000     -10.263980      -279.2971
  68   2.0000     -10.262475      -279.2561
  69   2.0000     -10.262131      -279.2468
  70   2.0000      -8.072249      -219.6571
  71   2.0000      -8.068952      -219.5674
  72   2.0000      -8.066244      -219.4937
  73   2.0000      -8.060884      -219.3478
  74   2.0000      -8.060150      -219.3278
  75   2.0000      -8.031028      -218.5354
  76   2.0000      -6.041412      -164.3952
  77   2.0000      -6.037993      -164.3022
  78   2.0000      -6.037106      -164.2780
  79   2.0000      -6.035228      -164.2269
  80   2.0000      -6.034665      -164.2116
  81   2.0000      -6.033900      -164.1908
  82   2.0000      -6.031379      -164.1222
  83   2.0000      -6.031108      -164.1148
  84   2.0000      -6.029903      -164.0820
  85   2.0000      -6.029164      -164.0619
  86   2.0000      -6.028801      -164.0520
  87   2.0000      -6.025696      -163.9675
  88   2.0000      -6.025129      -163.9521
  89   2.0000      -6.023519      -163.9083
  90   2.0000      -6.022556      -163.8821
  91   2.0000      -6.000038      -163.2693
  92   2.0000      -5.996541      -163.1742
  93   2.0000      -5.992126      -163.0540
  94   2.0000      -1.148739       -31.2588
  95   2.0000      -1.143682       -31.1212
  96   2.0000      -1.128963       -30.7206
  97   2.0000      -1.119587       -30.4655
  98   2.0000      -1.118810       -30.4444
  99   2.0000      -1.116354       -30.3775
 100   2.0000      -1.112849       -30.2822
 101   2.0000      -1.111434       -30.2437
 102   2.0000      -1.108248       -30.1570
 103   2.0000      -1.105639       -30.0860
 104   2.0000      -1.103144       -30.0181
 105   2.0000      -1.100363       -29.9424
 106   2.0000      -1.014369       -27.6024
 107   2.0000      -1.005136       -27.3511
 108   2.0000      -0.994882       -27.0721
 109   2.0000      -0.989284       -26.9198
 110   2.0000      -0.985455       -26.8156
 111   2.0000      -0.933442       -25.4002
 112   2.0000      -0.930983       -25.3333
 113   2.0000      -0.926628       -25.2148
 114   2.0000      -0.915943       -24.9241
 115   2.0000      -0.911480       -24.8026
 116   2.0000      -0.910567       -24.7778
 117   2.0000      -0.898508       -24.4497
 118   2.0000      -0.886954       -24.1352
 119   2.0000      -0.880077       -23.9481
 120   2.0000      -0.873452       -23.7678
 121   2.0000      -0.863219       -23.4894
 122   2.0000      -0.844829       -22.9890
 123   2.0000      -0.842399       -22.9228
 124   2.0000      -0.841103       -22.8876
 125   2.0000      -0.836647       -22.7663
 126   2.0000      -0.834001       -22.6943
 127   2.0000      -0.830156       -22.5897
 128   2.0000      -0.829359       -22.5680
 129   2.0000      -0.828278       -22.5386
 130   2.0000      -0.821681       -22.3591
 131   2.0000      -0.804969       -21.9043
 132   2.0000      -0.796703       -21.6794
 133   2.0000      -0.771351       -20.9895
 134   2.0000      -0.767629       -20.8882
 135   2.0000      -0.762451       -20.7473
 136   2.0000      -0.759827       -20.6759
 137   2.0000      -0.751783       -20.4571
 138   2.0000      -0.748986       -20.3809
 139   2.0000      -0.738828       -20.1045
 140   2.0000      -0.723291       -19.6817
 141   2.0000      -0.714674       -19.4473
 142   2.0000      -0.711259       -19.3543
 143   2.0000      -0.697705       -18.9855
 144   2.0000      -0.695197       -18.9173
 145   2.0000      -0.693674       -18.8758
 146   2.0000      -0.692315       -18.8388
 147   2.0000      -0.687937       -18.7197
 148   2.0000      -0.683143       -18.5893
 149   2.0000      -0.670984       -18.2584
 150   2.0000      -0.670047       -18.2329
 151   2.0000      -0.649480       -17.6732
 152   2.0000      -0.646471       -17.5914
 153   2.0000      -0.644000       -17.5241
 154   2.0000      -0.638440       -17.3728
 155   2.0000      -0.623885       -16.9768
 156   2.0000      -0.615789       -16.7565
 157   2.0000      -0.613638       -16.6979
 158   2.0000      -0.612125       -16.6568
 159   2.0000      -0.608446       -16.5567
 160   2.0000      -0.599227       -16.3058
 161   2.0000      -0.596461       -16.2305
 162   2.0000      -0.585721       -15.9383
 163   2.0000      -0.581673       -15.8281
 164   2.0000      -0.577905       -15.7256
 165   2.0000      -0.576788       -15.6952
 166   2.0000      -0.571634       -15.5550
 167   2.0000      -0.565962       -15.4006
 168   2.0000      -0.564182       -15.3522
 169   2.0000      -0.563430       -15.3317
 170   2.0000      -0.561786       -15.2870
 171   2.0000      -0.556924       -15.1547
 172   2.0000      -0.553079       -15.0500
 173   2.0000      -0.551825       -15.0159
 174   2.0000      -0.549085       -14.9414
 175   2.0000      -0.548876       -14.9357
 176   2.0000      -0.545962       -14.8564
 177   2.0000      -0.545014       -14.8306
 178   2.0000      -0.540508       -14.7080
 179   2.0000      -0.537277       -14.6200
 180   2.0000      -0.534126       -14.5343
 181   2.0000      -0.530206       -14.4276
 182   2.0000      -0.524832       -14.2814
 183   2.0000      -0.522967       -14.2307
 184   2.0000      -0.520202       -14.1554
 185   2.0000      -0.517497       -14.0818
 186   2.0000      -0.516651       -14.0588
 187   2.0000      -0.515125       -14.0173
 188   2.0000      -0.513990       -13.9864
 189   2.0000      -0.512978       -13.9588
 190   2.0000      -0.512519       -13.9464
 191   2.0000      -0.510028       -13.8786
 192   2.0000      -0.506167       -13.7735
 193   2.0000      -0.505183       -13.7467
 194   2.0000      -0.503175       -13.6921
 195   2.0000      -0.500985       -13.6325
 196   2.0000      -0.499882       -13.6025
 197   2.0000      -0.498796       -13.5729
 198   2.0000      -0.496993       -13.5239
 199   2.0000      -0.496233       -13.5032
 200   2.0000      -0.495495       -13.4831
 201   2.0000      -0.494003       -13.4425
 202   2.0000      -0.493072       -13.4172
 203   2.0000      -0.491266       -13.3680
 204   2.0000      -0.484689       -13.1891
 205   2.0000      -0.481988       -13.1155
 206   2.0000      -0.480490       -13.0748
 207   2.0000      -0.479698       -13.0532
 208   2.0000      -0.473728       -12.8908
 209   2.0000      -0.472560       -12.8590
 210   2.0000      -0.471080       -12.8187
 211   2.0000      -0.470770       -12.8103
 212   2.0000      -0.468478       -12.7479
 213   2.0000      -0.466898       -12.7050
 214   2.0000      -0.465220       -12.6593
 215   2.0000      -0.464576       -12.6418
 216   2.0000      -0.461929       -12.5697
 217   2.0000      -0.457283       -12.4433
 218   2.0000      -0.457022       -12.4362
 219   2.0000      -0.455233       -12.3875
 220   2.0000      -0.453049       -12.3281
 221   2.0000      -0.450780       -12.2663
 222   2.0000      -0.449299       -12.2261
 223   2.0000      -0.448600       -12.2070
 224   2.0000      -0.446935       -12.1617
 225   2.0000      -0.444274       -12.0893
 226   2.0000      -0.443199       -12.0601
 227   2.0000      -0.440057       -11.9746
 228   2.0000      -0.437836       -11.9141
 229   2.0000      -0.436172       -11.8688
 230   2.0000      -0.432800       -11.7771
 231   2.0000      -0.431257       -11.7351
 232   2.0000      -0.428710       -11.6658
 233   2.0000      -0.423604       -11.5268
 234   2.0000      -0.420766       -11.4496
 235   2.0000      -0.418338       -11.3836
 236   2.0000      -0.417406       -11.3582
 237   2.0000      -0.415198       -11.2981
 238   2.0000      -0.400107       -10.8875
 239   2.0000      -0.387153       -10.5350
 240   2.0000      -0.376184       -10.2365
 241   2.0000      -0.351419        -9.5626
 242   2.0000      -0.349355        -9.5064
 243   2.0000      -0.347686        -9.4610
 244   2.0000      -0.337393        -9.1809
 245   2.0000      -0.335410        -9.1270
 246   2.0000      -0.332832        -9.0568
 247   2.0000      -0.330974        -9.0063
 248   2.0000      -0.329716        -8.9720
 249   2.0000      -0.327150        -8.9022
 250   2.0000      -0.326616        -8.8877
 251   2.0000      -0.324599        -8.8328
 252   2.0000      -0.322920        -8.7871
 253   2.0000      -0.321618        -8.7517
 254   2.0000      -0.320608        -8.7242
 255   2.0000      -0.319889        -8.7046
 256   2.0000      -0.319657        -8.6983
 257   2.0000      -0.317298        -8.6341
 258   2.0000      -0.316075        -8.6008
 259   2.0000      -0.316008        -8.5990
 260   2.0000      -0.309026        -8.4090
 261   2.0000      -0.299869        -8.1599
 262   2.0000      -0.297450        -8.0940
 263   2.0000      -0.283407        -7.7119
 264   2.0000      -0.265333        -7.2201
 265   2.0000      -0.250619        -6.8197
 266   0.0000      -0.074036        -2.0146
 267   0.0000      -0.064004        -1.7416
 268   0.0000      -0.052040        -1.4161
 269   0.0000      -0.051079        -1.3899
 270   0.0000      -0.040703        -1.1076

MULLIKEN ATOMIC CHARGES
-----------------------
   0 C :   -0.015200
   1 C :    0.015089
   2 C :   -0.151380
   3 S :    0.164438
   4 C :   -0.186100
   5 C :   -0.155839
   6 S :    0.194583
   7 C :   -0.132158
   8 C :    0.047779
   9 C :    0.046279
  10 C :   -0.128481
  11 S :    0.198266
  12 C :   -0.161160
  13 C :   -0.159952
  14 S :    0.178687
  15 C :   -0.120102
  16 C :   -0.000873
  17 C :    0.082179
  18 C :   -0.184205
  19 S :    0.148350
  20 C :   -0.102809
  21 C :   -0.032592
  22 C :    0.060196
  23 C :    0.142874
  24 O :   -0.167092
  25 C :   -0.024429
  26 C :    0.009618
  27 N :   -0.135211
  28 C :    0.092450
  29 C :    0.002724
  30 C :    0.007448
  31 C :   -0.030361
  32 C :    0.147170
  33 O :   -0.157733
  34 C :    0.014890
  35 C :    0.086268
  36 C :    0.025595
  37 O :   -0.179806
  38 C :    0.038993
  39 C :    0.057989
  40 C :   -0.003968
  41 O :   -0.157826
  42 C :    0.143083
  43 C :    0.045483
  44 C :    0.051412
  45 O :   -0.147466
  46 S :   -0.007818
  47 C :    0.050929
  48 O :   -0.154213
  49 C :    0.014467
  50 C :    0.116541
  51 C :    0.022186
  52 O :   -0.179077
  53 C :    0.034395
  54 C :    0.068989
  55 C :    0.002131
  56 O :   -0.167837
  57 C :    0.108206
  58 C :   -0.010674
  59 C :    0.137580
  60 O :   -0.170904
  61 C :   -0.016121
  62 C :    0.006730
  63 N :   -0.135128
  64 C :    0.090866
  65 C :    0.003381
  66 C :    0.009287
  67 C :   -0.016708
  68 C :    0.141316
  69 O :   -0.188472
  70 H :    0.030656
  71 H :    0.021308
  72 H :    0.026238
  73 H :    0.003121
  74 H :    0.002950
  75 H :   -0.005866
  76 H :    0.038851
  77 H :    0.036793
  78 H :    0.006037
  79 H :    0.031727
  80 H :    0.033012
  81 H :    0.030392
  82 H :    0.029584
  83 H :    0.029921
  84 H :    0.004987
  85 H :    0.044490
  86 H :    0.031309
  87 H :    0.056800
  88 H :    0.016094
  89 H :    0.029928
  90 H :    0.040455
  91 H :    0.011664
  92 H :    0.057455
  93 H :    0.005719
  94 H :    0.033622
  95 H :    0.032970
  96 H :    0.031737
  97 H :    0.029512
  98 H :    0.029002
  99 H :    0.002380
Sum of atomic charges:   -0.0000000

LOEWDIN ATOMIC CHARGES
----------------------
   0 C :   -0.032794
   1 C :   -0.038352
   2 C :   -0.127015
   3 S :    0.472795
   4 C :   -0.156407
   5 C :   -0.164747
   6 S :    0.492618
   7 C :   -0.134465
   8 C :   -0.024752
   9 C :   -0.041097
  10 C :   -0.116667
  11 S :    0.489772
  12 C :   -0.156159
  13 C :   -0.172880
  14 S :    0.471029
  15 C :   -0.119938
  16 C :   -0.067464
  17 C :    0.017709
  18 C :   -0.137688
  19 S :    0.468002
  20 C :   -0.135530
  21 C :   -0.094875
  22 C :   -0.080278
  23 C :    0.081690
  24 O :   -0.161406
  25 C :   -0.101255
  26 C :    0.028908
  27 N :    0.088368
  28 C :    0.044079
  29 C :   -0.057273
  30 C :    0.028478
  31 C :   -0.104200
  32 C :    0.075700
  33 O :   -0.167041
  34 C :   -0.099032
  35 C :   -0.075572
  36 C :    0.087172
  37 O :   -0.145517
  38 C :   -0.047850
  39 C :   -0.049055
  40 C :    0.078033
  41 O :   -0.132174
  42 C :   -0.096792
  43 C :   -0.117134
  44 C :   -0.034780
  45 O :   -0.132084
  46 S :    0.290186
  47 C :   -0.038057
  48 O :   -0.138212
  49 C :   -0.088203
  50 C :   -0.075000
  51 C :    0.086646
  52 O :   -0.145951
  53 C :   -0.045540
  54 C :   -0.046537
  55 C :    0.087803
  56 O :   -0.136542
  57 C :   -0.072757
  58 C :   -0.085196
  59 C :    0.083452
  60 O :   -0.164693
  61 C :   -0.098828
  62 C :    0.029925
  63 N :    0.089047
  64 C :    0.044009
  65 C :   -0.057093
  66 C :    0.029917
  67 C :   -0.098805
  68 C :    0.090395
  69 O :   -0.177195
  70 H :    0.029541
  71 H :    0.015308
  72 H :    0.040878
  73 H :    0.027588
  74 H :    0.026665
  75 H :    0.020165
  76 H :    0.043294
  77 H :    0.033813
  78 H :    0.028975
  79 H :    0.033202
  80 H :    0.033343
  81 H :    0.030684
  82 H :    0.032533
  83 H :    0.030501
  84 H :    0.028767
  85 H :    0.050167
  86 H :    0.046826
  87 H :    0.049542
  88 H :    0.037802
  89 H :    0.046216
  90 H :    0.048778
  91 H :    0.035020
  92 H :    0.047769
  93 H :    0.029142
  94 H :    0.033773
  95 H :    0.033279
  96 H :    0.031286
  97 H :    0.032666
  98 H :    0.030062
  99 H :    0.027564

  Mayer bond orders larger than 0.100000
B(  0-C ,  1-C ) :   1.8927 B(  0-C , 70-H ) :   0.9500 B(  0-C , 71-H ) :   0.9540
B(  1-C ,  2-C ) :   1.1355 B(  1-C , 72-H ) :   0.9426 B(  2-C ,  3-S ) :   1.1188
B(  2-C , 58-C ) :   1.5182 B(  3-S ,  4-C ) :   1.1655 B(  4-C ,  5-C ) :   1.0394
B(  4-C , 57-C ) :   1.5634 B(  5-C ,  6-S ) :   1.1658 B(  5-C , 50-C ) :   1.5443
B(  6-S ,  7-C ) :   1.1525 B(  7-C ,  8-C ) :   1.1399 B(  7-C , 49-C ) :   1.4732
B(  8-C ,  9-C ) :   1.6983 B(  8-C , 73-H ) :   0.9201 B(  9-C , 10-C ) :   1.1468
B(  9-C , 74-H ) :   0.9162 B( 10-C , 11-S ) :   1.1519 B( 10-C , 43-C ) :   1.4657
B( 11-S , 12-C ) :   1.1528 B( 12-C , 13-C ) :   1.0593 B( 12-C , 42-C ) :   1.5631
B( 13-C , 14-S ) :   1.1473 B( 13-C , 35-C ) :   1.5584 B( 14-S , 15-C ) :   1.1448
B( 15-C , 16-C ) :   1.0965 B( 15-C , 34-C ) :   1.5152 B( 16-C , 17-C ) :   1.6801
B( 16-C , 75-H ) :   0.9516 B( 17-C , 18-C ) :   1.1723 B( 17-C , 76-H ) :   0.9380
B( 18-C , 19-S ) :   1.1374 B( 18-C , 22-C ) :   1.4899 B( 19-S , 20-C ) :   1.1806
B( 20-C , 21-C ) :   1.5635 B( 20-C , 77-H ) :   0.9633 B( 21-C , 22-C ) :   1.1954
B( 21-C , 32-C ) :   0.9282 B( 22-C , 23-C ) :   0.9456 B( 23-C , 24-O ) :   2.1997
B( 23-C , 25-C ) :   0.9899 B( 25-C , 26-C ) :   1.4313 B( 25-C , 31-C ) :   1.2881
B( 26-C , 27-N ) :   1.2315 B( 26-C , 78-H ) :   0.9930 B( 27-N , 28-C ) :   0.9526
B( 27-N , 30-C ) :   1.2342 B( 28-C , 29-C ) :   1.1109 B( 28-C , 79-H ) :   0.9510
B( 28-C , 80-H ) :   0.9514 B( 29-C , 81-H ) :   0.9679 B( 29-C , 82-H ) :   0.9680
B( 29-C , 83-H ) :   0.9676 B( 30-C , 31-C ) :   1.4340 B( 30-C , 84-H ) :   0.9925
B( 31-C , 32-C ) :   0.9667 B( 32-C , 33-O ) :   2.2939 B( 34-C , 35-C ) :   1.1987
B( 34-C , 40-C ) :   0.9186 B( 35-C , 36-C ) :   0.9337 B( 36-C , 37-O ) :   2.1732
B( 36-C , 38-C ) :   1.0117 B( 38-C , 39-C ) :   1.0758 B( 38-C , 85-H ) :   0.9093
B( 38-C , 86-H ) :   0.9122 B( 39-C , 40-C ) :   1.0348 B( 39-C , 87-H ) :   0.9217
B( 39-C , 88-H ) :   0.9116 B( 40-C , 41-O ) :   2.1827 B( 42-C , 43-C ) :   1.2273
B( 42-C , 47-C ) :   0.8725 B( 43-C , 44-C ) :   0.8848 B( 44-C , 45-O ) :   2.1098
B( 44-C , 46-S ) :   1.0263 B( 45-O , 46-S ) :   0.1001 B( 45-O , 73-H ) :   0.1010
B( 46-S , 47-C ) :   1.0234 B( 46-S , 48-O ) :   0.1090 B( 47-C , 48-O ) :   2.1511
B( 49-C , 50-C ) :   1.2332 B( 49-C , 55-C ) :   0.9138 B( 50-C , 51-C ) :   0.9336
B( 51-C , 52-O ) :   2.1836 B( 51-C , 53-C ) :   1.0027 B( 53-C , 54-C ) :   1.0771
B( 53-C , 89-H ) :   0.9119 B( 53-C , 90-H ) :   0.9083 B( 54-C , 55-C ) :   1.0337
B( 54-C , 91-H ) :   0.9113 B( 54-C , 92-H ) :   0.9257 B( 55-C , 56-O ) :   2.1290
B( 56-O , 74-H ) :   0.1165 B( 57-C , 58-C ) :   1.1735 B( 57-C , 68-C ) :   0.9373
B( 58-C , 59-C ) :   0.9391 B( 59-C , 60-O ) :   2.1967 B( 59-C , 61-C ) :   0.9941
B( 61-C , 62-C ) :   1.4321 B( 61-C , 67-C ) :   1.2895 B( 62-C , 63-N ) :   1.2305
B( 62-C , 93-H ) :   0.9928 B( 63-N , 64-C ) :   0.9519 B( 63-N , 66-C ) :   1.2360
B( 64-C , 65-C ) :   1.1118 B( 64-C , 94-H ) :   0.9511 B( 64-C , 95-H ) :   0.9511
B( 65-C , 96-H ) :   0.9675 B( 65-C , 97-H ) :   0.9678 B( 65-C , 98-H ) :   0.9676
B( 66-C , 67-C ) :   1.4201 B( 66-C , 99-H ) :   0.9924 B( 67-C , 68-C ) :   0.9972
B( 68-C , 69-O ) :   2.1797

-----------------------------------------------------------------------------
         ABSORPTION SPECTRUM VIA TRANSITION ELECTRIC DIPOLE MOMENTS
-----------------------------------------------------------------------------
State   Energy  Wavelength   fosc         T2         TX        TY        TZ
        (cm-1)    (nm)                  (au**2)     (au)      (au)      (au)
-----------------------------------------------------------------------------
   0   21724.0    460.3   1.561665433  23.66591  -2.56198  -3.93605  -1.26873
   1   23865.4    419.0   0.176004897   2.42790  -1.51468  -0.33929  -0.13617
   2   25251.8    396.0   0.161875065   2.11039   0.77541  -1.11283  -0.52034
   3   26834.5    372.7   0.234627252   2.87846  -1.65768  -0.25509  -0.25593
   4   27736.3    360.5   0.030959715   0.36747  -0.57747  -0.05492  -0.17601
   5   28192.8    354.7   0.011854538   0.13843  -0.19097   0.14876  -0.28254
   6   29185.0    342.6   0.004973786   0.05611   0.03683   0.05257   0.22800
   7   29930.5    334.1   0.004788454   0.05267  -0.22031  -0.03935  -0.05085
   8   30158.9    331.6   0.066696665   0.72806  -0.64469  -0.25716  -0.49629
   9   30303.4    330.0   0.018889581   0.20521   0.37869   0.24861   0.00087
  10   30391.3    329.0   0.098601780   1.06810  -0.38687   0.43828  -0.85226
  11   31106.7    321.5   0.037252541   0.39426  -0.33394  -0.10201  -0.52186
  12   31198.3    320.5   0.082411712   0.86963  -0.09443   0.90379  -0.20946
  13   31385.9    318.6   0.014499319   0.15209   0.37294  -0.11194   0.02166
  14   32042.8    312.1   0.085684997   0.88034   0.30241  -0.88718  -0.04247
  15   32615.0    306.6   0.098558773   0.99484  -0.75572  -0.65040   0.02662
  16   32771.8    305.1   0.005099244   0.05122   0.10608   0.09978  -0.17325
  17   32952.6    303.5   0.040427220   0.40389   0.49845   0.30292  -0.25233
  18   33635.0    297.3   0.019754817   0.19336   0.28468   0.11632   0.31429
  19   33886.4    295.1   0.003099991   0.03012   0.09148  -0.02622   0.14513
  20   33999.3    294.1   0.052843457   0.51168   0.08127   0.62292  -0.34211
  21   34328.0    291.3   0.136685974   1.31084   0.71075  -0.06165   0.89548
  22   34749.8    287.8   0.012819818   0.12145  -0.06757   0.26328   0.21810
  23   34845.7    287.0   0.048519250   0.45840   0.55488   0.32221  -0.21607
  24   35454.6    282.1   0.000535916   0.00498   0.00893   0.04678  -0.05204
  25   35490.6    281.8   0.005463282   0.05068   0.10388   0.17884  -0.08889
  26   35682.4    280.3   0.004005731   0.03696  -0.12234  -0.13045   0.07051
  27   36195.4    276.3   0.001085396   0.00987   0.02214  -0.05602  -0.07902
  28   36549.9    273.6   0.034182479   0.30789  -0.49963  -0.24084   0.01601
  29   36577.0    273.4   0.105049039   0.94550   0.28614  -0.41114   0.83342
  30   36951.3    270.6   0.008804790   0.07844  -0.23258   0.15465  -0.02085
  31   37113.5    269.4   0.004350391   0.03859  -0.05041  -0.15835  -0.10476
  32   37529.4    266.5   0.012335259   0.10821  -0.12138  -0.24041  -0.18888
  33   37682.8    265.4   0.039836680   0.34803  -0.22795  -0.49178   0.23286
  34   37917.5    263.7   0.032258471   0.28008  -0.45530   0.01414  -0.26941
  35   38056.7    262.8   0.059700592   0.51644  -0.59402   0.36133  -0.18174
  36   38318.2    261.0   0.071035469   0.61030   0.66525  -0.39214  -0.11822
  37   38337.0    260.8   0.009267917   0.07959  -0.08308   0.22717   0.14518
  38   38649.3    258.7   0.000841511   0.00717  -0.06849   0.04971  -0.00261
  39   38726.0    258.2   0.006085756   0.05174   0.08593  -0.10844   0.18053
  40   38854.9    257.4   0.018289572   0.15496   0.31376  -0.08827   0.22075
  41   39037.5    256.2   0.015420962   0.13005  -0.08253  -0.29550  -0.18951
  42   39162.8    255.3   0.013753971   0.11562  -0.28746   0.03367   0.17847
  43   39306.1    254.4   0.008057982   0.06749  -0.02852   0.14564  -0.21323
  44   39557.5    252.8   0.006906350   0.05748   0.02510  -0.04600  -0.23395
  45   39872.1    250.8   0.121980633   1.00716   0.43804  -0.12561   0.89415
  46   40151.2    249.1   0.073258302   0.60067  -0.72058  -0.26248   0.11197
  47   40294.0    248.2   0.049954469   0.40814  -0.56563  -0.14155   0.26108

FINAL SINGLE POINT ENERGY     -5246.288186077696

DIPOLE MOMENT
-------------
                                X             Y             Z
Electronic contribution:    -25.31856      19.07686      12.94835
Nuclear contribution   :     27.11704     -20.85126     -12.72147
                        -----------------------------------------
Total Dipole Moment    :      1.79847      -1.77439       0.22688
                        -----------------------------------------
Magnitude (a.u.)       :      2.53662
Magnitude (Debye)      :      6.44758

Rotational constants in cm-1:     0.001932     0.000225     0.000215
Rotational constants in MHz :    57.907586     6.737847     6.445901

                             ****ORCA TERMINATED NORMALLY****
TOTAL RUN TIME: 0 days 0 hours 9 minutes 2 seconds 955 msec
