                         Program Version 4.2.0 -  RELEASE  -
|  1> # ORCA input file
|  2> # SCF done       -157.503356366583          0.000579331659
|  3> ! CAM-B3LYP def2-SVP def2/J RIJCOSX Grid4 TightSCF
|  4> %maxcore 5000
|  5> %tddft
|  6>     Mode sTDDFT
|  7>     Ethresh 5.0
|  8>     maxcore 5000
|  9> end
| 10>
| 11> %pal
| 12>   nprocs 6
| 13>   end
| 14> * xyz 0 1
| 15>    C        6.50740         3.70629        -0.46706
| 16>    O        6.69739         5.03148         0.00226
| 17>    C        5.65262         5.59946         0.68963
| 18>    C        5.19088         6.85343         0.26620
| 19>    C        5.78249         7.53216        -0.89578
| 20>    C        5.96455         6.87757        -2.11373
| 21>    C        6.50183         7.55610        -3.18225
| 22>    C        6.87883         8.89322        -3.05966
| 23>    N        7.43353         9.50939        -4.23049
| 24>    O        7.21183         8.98473        -5.30096
| 25>    O        8.10051        10.52045        -4.09823
| 26>    C        6.69855         9.57978        -1.85091
| 27>    C        7.07254        11.03233        -1.63921
| 28>    O        8.45398        11.21546        -1.48352
| 29>    C        6.14552         8.87265        -0.79327
| 30>    C        4.15470         7.46332         0.96848
| 31>    C        3.55543         6.84007         2.03801
| 32>    C        4.02004         5.60621         2.50221
| 33>    C        3.41047         4.95695         3.64015
| 34>    C        2.33937         5.40147         4.38805
| 35>    C        1.98138         4.53040         5.41598
| 36>    C        2.76362         3.39838         5.46269
| 37>    C        2.63072         2.33098         6.45039
| 38>    O        1.86760         2.43539         7.39401
| 39>    C        3.46183         1.13218         6.24170
| 40>    C        3.74204         0.49134         5.06415
| 41>    O        4.43405        -0.62973         5.28540
| 42>    C        4.61235        -0.73690         6.61293
| 43>    C        4.03359         0.30915         7.27083
| 44>    C        4.01561         0.59673         8.70172
| 45>    C        4.26927         1.88299         9.14982
| 46>    C        4.23581         2.17783        10.49591
| 47>    C        3.93525         1.18683        11.42204
| 48>    C        3.95319         1.52072        12.85319
| 49>    C        3.33854         2.68838        13.31270
| 50>    C        3.38280         3.00575        14.64918
| 51>    C        4.02835         2.16624        15.55876
| 52>    N        4.01872         2.58607        16.92809
| 53>    O        3.77749         3.75278        17.15879
| 54>    O        4.24690         1.76141        17.79707
| 55>    C        4.65876         0.99072        15.12437
| 56>    C        5.37907         0.02746        16.04429
| 57>    O        4.49496        -0.75648        16.80093
| 58>    C        4.61053         0.70160        13.76871
| 59>    C        3.64982        -0.11705        10.98542
| 60>    O        3.31719        -1.08958        11.91760
| 61>    C        2.04448        -0.93741        12.51159
| 62>    C        3.71059        -0.42781         9.62107
| 63>    O        3.50833        -1.64209         9.05161
| 64>    C        3.16706        -2.78371         9.80769
| 65>    S        3.97581         3.42755         4.22610
| 66>    C        5.10790         5.01333         1.83747
| 67>    O        5.60342         3.82540         2.33230
| 68>    C        6.91830         3.90434         2.86222
| 69>    H        5.66238         3.65870        -1.16211
| 70>    H        6.33492         2.99298         0.34045
| 71>    H        7.42534         3.45139        -0.99339
| 72>    H        5.67115         5.84741        -2.22745
| 73>    H        6.64727         7.06799        -4.13428
| 74>    H        6.61625        11.38328        -0.71009
| 75>    H        6.68780        11.64208        -2.46913
| 76>    H        8.85962        11.12295        -2.35927
| 77>    H        6.01146         9.37873         0.15099
| 78>    H        3.79041         8.42254         0.63369
| 79>    H        2.72868         7.32030         2.53396
| 80>    H        1.82535         6.32675         4.20325
| 81>    H        1.17568         4.69984         6.10746
| 82>    H        3.46926         0.70882         4.05036
| 83>    H        5.16395        -1.58038         6.97425
| 84>    H        4.50843         2.65436         8.43428
| 85>    H        4.47119         3.17261        10.84078
| 86>    H        2.81266         3.32655        12.61966
| 87>    H        2.90992         3.90081        15.02470
| 88>    H        6.06970         0.57907        16.69808
| 89>    H        5.95839        -0.67291        15.43765
| 90>    H        4.13314        -0.18958        17.49953
| 91>    H        5.09497        -0.19352        13.41132
| 92>    H        1.94077         0.02815        13.01488
| 93>    H        1.96038        -1.73740        13.24474
| 94>    H        1.24606        -1.03324        11.76624
| 95>    H        2.16986        -2.69923        10.24622
| 96>    H        3.89460        -2.98343        10.59604
| 97>    H        3.16904        -3.60337         9.08853
| 98>    H        7.63226         4.26630         2.11911
| 99>    H        7.17799         2.89214         3.16567
|100>    H        6.94255         4.56411         3.73454
|101> *
|102>
|103>                          ****END OF INPUT****

CARTESIAN COORDINATES (ANGSTROEM)
---------------------------------
  C      6.507400    3.706290   -0.467060
  O      6.697390    5.031480    0.002260
  C      5.652620    5.599460    0.689630
  C      5.190880    6.853430    0.266200
  C      5.782490    7.532160   -0.895780
  C      5.964550    6.877570   -2.113730
  C      6.501830    7.556100   -3.182250
  C      6.878830    8.893220   -3.059660
  N      7.433530    9.509390   -4.230490
  O      7.211830    8.984730   -5.300960
  O      8.100510   10.520450   -4.098230
  C      6.698550    9.579780   -1.850910
  C      7.072540   11.032330   -1.639210
  O      8.453980   11.215460   -1.483520
  C      6.145520    8.872650   -0.793270
  C      4.154700    7.463320    0.968480
  C      3.555430    6.840070    2.038010
  C      4.020040    5.606210    2.502210
  C      3.410470    4.956950    3.640150
  C      2.339370    5.401470    4.388050
  C      1.981380    4.530400    5.415980
  C      2.763620    3.398380    5.462690
  C      2.630720    2.330980    6.450390
  O      1.867600    2.435390    7.394010
  C      3.461830    1.132180    6.241700
  C      3.742040    0.491340    5.064150
  O      4.434050   -0.629730    5.285400
  C      4.612350   -0.736900    6.612930
  C      4.033590    0.309150    7.270830
  C      4.015610    0.596730    8.701720
  C      4.269270    1.882990    9.149820
  C      4.235810    2.177830   10.495910
  C      3.935250    1.186830   11.422040
  C      3.953190    1.520720   12.853190
  C      3.338540    2.688380   13.312700
  C      3.382800    3.005750   14.649180
  C      4.028350    2.166240   15.558760
  N      4.018720    2.586070   16.928090
  O      3.777490    3.752780   17.158790
  O      4.246900    1.761410   17.797070
  C      4.658760    0.990720   15.124370
  C      5.379070    0.027460   16.044290
  O      4.494960   -0.756480   16.800930
  C      4.610530    0.701600   13.768710
  C      3.649820   -0.117050   10.985420
  O      3.317190   -1.089580   11.917600
  C      2.044480   -0.937410   12.511590
  C      3.710590   -0.427810    9.621070
  O      3.508330   -1.642090    9.051610
  C      3.167060   -2.783710    9.807690
  S      3.975810    3.427550    4.226100
  C      5.107900    5.013330    1.837470
  O      5.603420    3.825400    2.332300
  C      6.918300    3.904340    2.862220
  H      5.662380    3.658700   -1.162110
  H      6.334920    2.992980    0.340450
  H      7.425340    3.451390   -0.993390
  H      5.671150    5.847410   -2.227450
  H      6.647270    7.067990   -4.134280
  H      6.616250   11.383280   -0.710090
  H      6.687800   11.642080   -2.469130
  H      8.859620   11.122950   -2.359270
  H      6.011460    9.378730    0.150990
  H      3.790410    8.422540    0.633690
  H      2.728680    7.320300    2.533960
  H      1.825350    6.326750    4.203250
  H      1.175680    4.699840    6.107460
  H      3.469260    0.708820    4.050360
  H      5.163950   -1.580380    6.974250
  H      4.508430    2.654360    8.434280
  H      4.471190    3.172610   10.840780
  H      2.812660    3.326550   12.619660
  H      2.909920    3.900810   15.024700
  H      6.069700    0.579070   16.698080
  H      5.958390   -0.672910   15.437650
  H      4.133140   -0.189580   17.499530
  H      5.094970   -0.193520   13.411320
  H      1.940770    0.028150   13.014880
  H      1.960380   -1.737400   13.244740
  H      1.246060   -1.033240   11.766240
  H      2.169860   -2.699230   10.246220
  H      3.894600   -2.983430   10.596040
  H      3.169040   -3.603370    9.088530
  H      7.632260    4.266300    2.119110
  H      7.177990    2.892140    3.165670
  H      6.942550    4.564110    3.734540

 Total Charge           Charge          ....    0
 Multiplicity           Mult            ....    1
 Number of Electrons    NEL             ....  392
 Basis Dimension        Dim             ....  920

ORBITAL ENERGIES
----------------

  NO   OCC          E(Eh)            E(eV)
   0   2.0000     -88.962357     -2420.7888
   1   2.0000     -19.293260      -524.9963
   2   2.0000     -19.259380      -524.0744
   3   2.0000     -19.253913      -523.9256
   4   2.0000     -19.251183      -523.8513
   5   2.0000     -19.248975      -523.7912
   6   2.0000     -19.246564      -523.7256
   7   2.0000     -19.244479      -523.6689
   8   2.0000     -19.243083      -523.6309
   9   2.0000     -19.235827      -523.4335
  10   2.0000     -19.194588      -522.3113
  11   2.0000     -19.191830      -522.2362
  12   2.0000     -19.188055      -522.1335
  13   2.0000     -14.654783      -398.7769
  14   2.0000     -14.650249      -398.6535
  15   2.0000     -10.358425      -281.8671
  16   2.0000     -10.346933      -281.5544
  17   2.0000     -10.345003      -281.5018
  18   2.0000     -10.334660      -281.2204
  19   2.0000     -10.329929      -281.0917
  20   2.0000     -10.329568      -281.0818
  21   2.0000     -10.329120      -281.0697
  22   2.0000     -10.328096      -281.0418
  23   2.0000     -10.327043      -281.0131
  24   2.0000     -10.324923      -280.9554
  25   2.0000     -10.317294      -280.7478
  26   2.0000     -10.315841      -280.7083
  27   2.0000     -10.315535      -280.7000
  28   2.0000     -10.314492      -280.6716
  29   2.0000     -10.312621      -280.6207
  30   2.0000     -10.310232      -280.5557
  31   2.0000     -10.304760      -280.4068
  32   2.0000     -10.303677      -280.3773
  33   2.0000     -10.302591      -280.3478
  34   2.0000     -10.297872      -280.2193
  35   2.0000     -10.296752      -280.1889
  36   2.0000     -10.296538      -280.1831
  37   2.0000     -10.295697      -280.1602
  38   2.0000     -10.292331      -280.0686
  39   2.0000     -10.289861      -280.0013
  40   2.0000     -10.288484      -279.9639
  41   2.0000     -10.287940      -279.9491
  42   2.0000     -10.287729      -279.9433
  43   2.0000     -10.286616      -279.9131
  44   2.0000     -10.284135      -279.8456
  45   2.0000     -10.280980      -279.7597
  46   2.0000     -10.279691      -279.7246
  47   2.0000     -10.278913      -279.7034
  48   2.0000     -10.278083      -279.6809
  49   2.0000     -10.277915      -279.6763
  50   2.0000     -10.274409      -279.5809
  51   2.0000     -10.272899      -279.5398
  52   2.0000     -10.267472      -279.3921
  53   2.0000     -10.266257      -279.3591
  54   2.0000      -8.055836      -219.2104
  55   2.0000      -6.025104      -163.9514
  56   2.0000      -6.020592      -163.8286
  57   2.0000      -6.018573      -163.7737
  58   2.0000      -1.329551       -36.1789
  59   2.0000      -1.324565       -36.0432
  60   2.0000      -1.213168       -33.0120
  61   2.0000      -1.170408       -31.8484
  62   2.0000      -1.152832       -31.3702
  63   2.0000      -1.147955       -31.2374
  64   2.0000      -1.145510       -31.1709
  65   2.0000      -1.142684       -31.0940
  66   2.0000      -1.130698       -30.7678
  67   2.0000      -1.111831       -30.2545
  68   2.0000      -1.084716       -29.5166
  69   2.0000      -1.080420       -29.3997
  70   2.0000      -0.991438       -26.9784
  71   2.0000      -0.986789       -26.8519
  72   2.0000      -0.981959       -26.7205
  73   2.0000      -0.963809       -26.2266
  74   2.0000      -0.953843       -25.9554
  75   2.0000      -0.918233       -24.9864
  76   2.0000      -0.916121       -24.9289
  77   2.0000      -0.898100       -24.4386
  78   2.0000      -0.878093       -23.8941
  79   2.0000      -0.869920       -23.6717
  80   2.0000      -0.865104       -23.5407
  81   2.0000      -0.861131       -23.4326
  82   2.0000      -0.857626       -23.3372
  83   2.0000      -0.843516       -22.9532
  84   2.0000      -0.835629       -22.7386
  85   2.0000      -0.830446       -22.5976
  86   2.0000      -0.825921       -22.4745
  87   2.0000      -0.807783       -21.9809
  88   2.0000      -0.801616       -21.8131
  89   2.0000      -0.784778       -21.3549
  90   2.0000      -0.777384       -21.1537
  91   2.0000      -0.774960       -21.0877
  92   2.0000      -0.760472       -20.6935
  93   2.0000      -0.758636       -20.6435
  94   2.0000      -0.751343       -20.4451
  95   2.0000      -0.738870       -20.1057
  96   2.0000      -0.718352       -19.5474
  97   2.0000      -0.711188       -19.3524
  98   2.0000      -0.709263       -19.3000
  99   2.0000      -0.703052       -19.1310
 100   2.0000      -0.690477       -18.7888
 101   2.0000      -0.679347       -18.4860
 102   2.0000      -0.668024       -18.1779
 103   2.0000      -0.665399       -18.1064
 104   2.0000      -0.660454       -17.9719
 105   2.0000      -0.657579       -17.8936
 106   2.0000      -0.646867       -17.6021
 107   2.0000      -0.642026       -17.4704
 108   2.0000      -0.641017       -17.4430
 109   2.0000      -0.636964       -17.3327
 110   2.0000      -0.632825       -17.2200
 111   2.0000      -0.631676       -17.1888
 112   2.0000      -0.619932       -16.8692
 113   2.0000      -0.613177       -16.6854
 114   2.0000      -0.608362       -16.5544
 115   2.0000      -0.607472       -16.5301
 116   2.0000      -0.599298       -16.3077
 117   2.0000      -0.597639       -16.2626
 118   2.0000      -0.592207       -16.1148
 119   2.0000      -0.587792       -15.9946
 120   2.0000      -0.584193       -15.8967
 121   2.0000      -0.580112       -15.7856
 122   2.0000      -0.574387       -15.6299
 123   2.0000      -0.571578       -15.5534
 124   2.0000      -0.567503       -15.4426
 125   2.0000      -0.563633       -15.3372
 126   2.0000      -0.559896       -15.2355
 127   2.0000      -0.558580       -15.1997
 128   2.0000      -0.554803       -15.0970
 129   2.0000      -0.552968       -15.0470
 130   2.0000      -0.550531       -14.9807
 131   2.0000      -0.547765       -14.9054
 132   2.0000      -0.542433       -14.7604
 133   2.0000      -0.536485       -14.5985
 134   2.0000      -0.533166       -14.5082
 135   2.0000      -0.530812       -14.4441
 136   2.0000      -0.527710       -14.3597
 137   2.0000      -0.524645       -14.2763
 138   2.0000      -0.522641       -14.2218
 139   2.0000      -0.519306       -14.1310
 140   2.0000      -0.518359       -14.1053
 141   2.0000      -0.514839       -14.0095
 142   2.0000      -0.512867       -13.9558
 143   2.0000      -0.508527       -13.8377
 144   2.0000      -0.503187       -13.6924
 145   2.0000      -0.499537       -13.5931
 146   2.0000      -0.497001       -13.5241
 147   2.0000      -0.491099       -13.3635
 148   2.0000      -0.488622       -13.2961
 149   2.0000      -0.483983       -13.1698
 150   2.0000      -0.480515       -13.0755
 151   2.0000      -0.477970       -13.0062
 152   2.0000      -0.471501       -12.8302
 153   2.0000      -0.470021       -12.7899
 154   2.0000      -0.466953       -12.7064
 155   2.0000      -0.463719       -12.6184
 156   2.0000      -0.461317       -12.5531
 157   2.0000      -0.459459       -12.5025
 158   2.0000      -0.456737       -12.4285
 159   2.0000      -0.450707       -12.2644
 160   2.0000      -0.446637       -12.1536
 161   2.0000      -0.442012       -12.0278
 162   2.0000      -0.441345       -12.0096
 163   2.0000      -0.440032       -11.9739
 164   2.0000      -0.435599       -11.8533
 165   2.0000      -0.432495       -11.7688
 166   2.0000      -0.417735       -11.3671
 167   2.0000      -0.414813       -11.2876
 168   2.0000      -0.410276       -11.1642
 169   2.0000      -0.407930       -11.1003
 170   2.0000      -0.404052       -10.9948
 171   2.0000      -0.399056       -10.8589
 172   2.0000      -0.395473       -10.7614
 173   2.0000      -0.393324       -10.7029
 174   2.0000      -0.389417       -10.5966
 175   2.0000      -0.386706       -10.5228
 176   2.0000      -0.381249       -10.3743
 177   2.0000      -0.377131       -10.2623
 178   2.0000      -0.371881       -10.1194
 179   2.0000      -0.368980       -10.0404
 180   2.0000      -0.368288       -10.0216
 181   2.0000      -0.356962        -9.7134
 182   2.0000      -0.351881        -9.5752
 183   2.0000      -0.342651        -9.3240
 184   2.0000      -0.338630        -9.2146
 185   2.0000      -0.337410        -9.1814
 186   2.0000      -0.334579        -9.1043
 187   2.0000      -0.330484        -8.9929
 188   2.0000      -0.327956        -8.9241
 189   2.0000      -0.327568        -8.9136
 190   2.0000      -0.324924        -8.8416
 191   2.0000      -0.315066        -8.5734
 192   2.0000      -0.309044        -8.4095
 193   2.0000      -0.290412        -7.9025
 194   2.0000      -0.277320        -7.5463
 195   2.0000      -0.272704        -7.4207
 196   0.0000      -0.062128        -1.6906
 197   0.0000      -0.054733        -1.4894
 198   0.0000      -0.040249        -1.0952
 199   0.0000       0.004346         0.1183
 200   0.0000       0.009244         0.2516

MULLIKEN ATOMIC CHARGES
-----------------------
   0 C :    0.176239
   1 O :   -0.331173
   2 C :    0.123647
   3 C :    0.019260
   4 C :    0.109506
   5 C :    0.028803
   6 C :   -0.011773
   7 C :    0.113658
   8 N :    0.262178
   9 O :   -0.226663
  10 O :   -0.265582
  11 C :   -0.086494
  12 C :    0.327603
  13 O :   -0.323512
  14 C :   -0.087726
  15 C :   -0.006619
  16 C :   -0.056960
  17 C :    0.167002
  18 C :   -0.091722
  19 C :    0.008563
  20 C :    0.040615
  21 C :   -0.132542
  22 C :    0.144155
  23 O :   -0.179317
  24 C :   -0.071199
  25 C :    0.078914
  26 O :   -0.169866
  27 C :    0.081739
  28 C :    0.074285
  29 C :    0.005001
  30 C :    0.010684
  31 C :   -0.048977
  32 C :    0.079828
  33 C :    0.029126
  34 C :   -0.005794
  35 C :   -0.007002
  36 C :    0.114349
  37 N :    0.262822
  38 O :   -0.227870
  39 O :   -0.268800
  40 C :   -0.096713
  41 C :    0.326265
  42 O :   -0.326267
  43 C :   -0.046874
  44 C :    0.036802
  45 O :   -0.363550
  46 C :    0.200914
  47 C :    0.170399
  48 O :   -0.310540
  49 C :    0.201618
  50 S :    0.149642
  51 C :    0.042094
  52 O :   -0.366512
  53 C :    0.187575
  54 H :    0.020681
  55 H :    0.039185
  56 H :    0.037695
  57 H :   -0.031788
  58 H :    0.005484
  59 H :   -0.009269
  60 H :    0.003960
  61 H :    0.171035
  62 H :   -0.017821
  63 H :   -0.019227
  64 H :   -0.025248
  65 H :   -0.018459
  66 H :   -0.001982
  67 H :    0.016091
  68 H :    0.001600
  69 H :   -0.025119
  70 H :   -0.029320
  71 H :   -0.005145
  72 H :    0.006239
  73 H :    0.003864
  74 H :   -0.007086
  75 H :    0.169845
  76 H :   -0.009164
  77 H :    0.029046
  78 H :    0.038699
  79 H :    0.016830
  80 H :    0.008660
  81 H :    0.034095
  82 H :    0.024408
  83 H :    0.044009
  84 H :    0.040338
  85 H :    0.024624
Sum of atomic charges:    0.0000000

LOEWDIN ATOMIC CHARGES
----------------------
   0 C :    0.077392
   1 O :   -0.120213
   2 C :    0.036639
   3 C :   -0.037177
   4 C :    0.016591
   5 C :   -0.007599
   6 C :    0.004908
   7 C :   -0.040288
   8 N :    0.292200
   9 O :   -0.191546
  10 O :   -0.206679
  11 C :   -0.014167
  12 C :    0.073715
  13 O :   -0.140160
  14 C :   -0.011664
  15 C :   -0.013021
  16 C :   -0.016942
  17 C :   -0.043034
  18 C :   -0.158807
  19 C :   -0.058359
  20 C :   -0.013391
  21 C :   -0.234618
  22 C :    0.060669
  23 O :   -0.157223
  24 C :   -0.110476
  25 C :    0.036161
  26 O :    0.032142
  27 C :    0.044641
  28 C :   -0.046466
  29 C :   -0.031505
  30 C :   -0.003266
  31 C :   -0.029338
  32 C :   -0.037944
  33 C :    0.010361
  34 C :   -0.019833
  35 C :    0.005196
  36 C :   -0.043552
  37 N :    0.292778
  38 O :   -0.193231
  39 O :   -0.209029
  40 C :   -0.016655
  41 C :    0.073772
  42 O :   -0.142371
  43 C :   -0.004699
  44 C :    0.010858
  45 O :   -0.133362
  46 C :    0.077544
  47 C :    0.051838
  48 O :   -0.096228
  49 C :    0.078301
  50 S :    0.492654
  51 C :    0.020743
  52 O :   -0.133291
  53 C :    0.076727
  54 H :    0.011699
  55 H :    0.014779
  56 H :    0.027543
  57 H :    0.031196
  58 H :    0.040316
  59 H :    0.021588
  60 H :    0.012932
  61 H :    0.059157
  62 H :    0.032883
  63 H :    0.032483
  64 H :    0.030633
  65 H :    0.027646
  66 H :    0.036667
  67 H :    0.018417
  68 H :    0.022263
  69 H :    0.030154
  70 H :    0.027946
  71 H :    0.035536
  72 H :    0.040242
  73 H :    0.012574
  74 H :    0.022482
  75 H :    0.057538
  76 H :    0.034659
  77 H :    0.015464
  78 H :    0.028257
  79 H :    0.009858
  80 H :    0.013271
  81 H :    0.018098
  82 H :    0.021422
  83 H :    0.018640
  84 H :    0.027164
  85 H :    0.016797

  Mayer bond orders larger than 0.100000
B(  0-C ,  1-O ) :   0.9309 B(  0-C , 54-H ) :   0.9626 B(  0-C , 55-H ) :   0.9643
B(  0-C , 56-H ) :   0.9837 B(  1-O ,  2-C ) :   1.1504 B(  2-C ,  3-C ) :   1.3961
B(  2-C , 51-C ) :   1.3183 B(  3-C ,  4-C ) :   0.9410 B(  3-C , 15-C ) :   1.3624
B(  4-C ,  5-C ) :   1.3602 B(  4-C , 14-C ) :   1.3641 B(  5-C ,  6-C ) :   1.3767
B(  5-C , 57-H ) :   0.9936 B(  6-C ,  7-C ) :   1.3646 B(  6-C , 58-H ) :   0.9874
B(  7-C ,  8-N ) :   0.9004 B(  7-C , 11-C ) :   1.3886 B(  8-N ,  9-O ) :   1.5789
B(  8-N , 10-O ) :   1.4834 B(  9-O , 10-O ) :   0.2543 B( 11-C , 12-C ) :   1.0043
B( 11-C , 14-C ) :   1.3970 B( 12-C , 13-O ) :   1.0888 B( 12-C , 59-H ) :   0.9248
B( 12-C , 60-H ) :   0.9307 B( 13-O , 61-H ) :   0.9649 B( 14-C , 62-H ) :   0.9953
B( 15-C , 16-C ) :   1.3755 B( 15-C , 63-H ) :   0.9955 B( 16-C , 17-C ) :   1.3216
B( 16-C , 64-H ) :   1.0024 B( 17-C , 18-C ) :   1.0637 B( 17-C , 51-C ) :   1.3368
B( 18-C , 19-C ) :   1.4811 B( 18-C , 50-S ) :   1.1497 B( 19-C , 20-C ) :   1.2708
B( 19-C , 65-H ) :   0.9935 B( 20-C , 21-C ) :   1.4866 B( 20-C , 66-H ) :   1.0047
B( 21-C , 22-C ) :   1.0025 B( 21-C , 50-S ) :   1.0894 B( 22-C , 23-O ) :   2.1957
B( 22-C , 24-C ) :   0.9233 B( 24-C , 25-C ) :   1.5101 B( 24-C , 28-C ) :   1.2769
B( 25-C , 26-O ) :   1.1842 B( 25-C , 67-H ) :   1.0005 B( 26-O , 27-C ) :   1.1417
B( 27-C , 28-C ) :   1.5548 B( 27-C , 68-H ) :   1.0060 B( 28-C , 29-C ) :   0.9567
B( 29-C , 30-C ) :   1.4062 B( 29-C , 32-C ) :   0.1161 B( 29-C , 47-C ) :   1.3620
B( 30-C , 31-C ) :   1.3336 B( 30-C , 69-H ) :   0.9948 B( 31-C , 32-C ) :   1.3715
B( 31-C , 70-H ) :   0.9999 B( 32-C , 33-C ) :   0.9460 B( 32-C , 44-C ) :   1.3616
B( 33-C , 34-C ) :   1.3517 B( 33-C , 43-C ) :   1.3576 B( 34-C , 35-C ) :   1.3580
B( 34-C , 71-H ) :   0.9996 B( 35-C , 36-C ) :   1.3664 B( 35-C , 72-H ) :   0.9895
B( 36-C , 37-N ) :   0.9044 B( 36-C , 40-C ) :   1.3718 B( 37-N , 38-O ) :   1.5784
B( 37-N , 39-O ) :   1.4807 B( 38-O , 39-O ) :   0.2525 B( 40-C , 41-C ) :   1.0058
B( 40-C , 43-C ) :   1.4074 B( 41-C , 42-O ) :   1.0875 B( 41-C , 73-H ) :   0.9305
B( 41-C , 74-H ) :   0.9250 B( 42-O , 75-H ) :   0.9644 B( 43-C , 76-H ) :   0.9970
B( 44-C , 45-O ) :   1.0864 B( 44-C , 47-C ) :   1.3173 B( 45-O , 46-C ) :   0.9375
B( 46-C , 77-H ) :   0.9644 B( 46-C , 78-H ) :   0.9825 B( 46-C , 79-H ) :   0.9605
B( 47-C , 48-O ) :   1.2077 B( 48-O , 49-C ) :   0.9384 B( 49-C , 80-H ) :   0.9747
B( 49-C , 81-H ) :   0.9725 B( 49-C , 82-H ) :   0.9760 B( 51-C , 52-O ) :   1.0957
B( 52-O , 53-C ) :   0.9017 B( 53-C , 83-H ) :   0.9699 B( 53-C , 84-H ) :   0.9823
B( 53-C , 85-H ) :   0.9673

-----------------------------------------------------------------------------
         ABSORPTION SPECTRUM VIA TRANSITION ELECTRIC DIPOLE MOMENTS
-----------------------------------------------------------------------------
State   Energy  Wavelength   fosc         T2         TX        TY        TZ
        (cm-1)    (nm)                  (au**2)     (au)      (au)      (au)
-----------------------------------------------------------------------------
   0   31192.4    320.6   1.457223500  15.37990   1.21434   1.79445  -3.26883
   1   31640.2    316.1   0.215521713   2.24247   0.00472   0.45719   1.42598
   2   32168.4    310.9   0.063338759   0.64821   0.41794   0.68724   0.03519
   3   33719.7    296.6   0.189949850   1.85452   0.18869   0.66261   1.17468
   4   35155.9    284.4   0.146154026   1.36864  -0.31518  -0.73477   0.85406
   5   35754.0    279.7   0.036925703   0.34000  -0.11554  -0.33075  -0.46611
   6   36178.6    276.4   0.028641806   0.26063   0.19514  -0.45571   0.12197
   7   36368.1    275.0   0.037067413   0.33554   0.18168  -0.54876   0.03731
   8   37465.2    266.9   0.078980963   0.69402   0.43655   0.16350  -0.69044
   9   38986.6    256.5   0.093555528   0.79001  -0.49771   0.69888   0.23207
  10   39223.9    254.9   0.022533239   0.18912  -0.06647   0.37962   0.20149
  11   39583.8    252.6   0.000892925   0.00743   0.06670   0.01144   0.05336
  12   40098.9    249.4   0.046701046   0.38342   0.30872   0.00154  -0.53675

FINAL SINGLE POINT ENERGY     -2912.373563464179

DIPOLE MOMENT
-------------
                                X             Y             Z
Electronic contribution:     -1.58942      10.67600      -6.83981
Nuclear contribution   :      0.98297     -11.76238       5.27918
                        -----------------------------------------
Total Dipole Moment    :     -0.60645      -1.08638      -1.56063
                        -----------------------------------------
Magnitude (a.u.)       :      1.99589
Magnitude (Debye)      :      5.07315

Rotational constants in cm-1:     0.003761     0.000411     0.000387
Rotational constants in MHz :   112.750413    12.334357    11.612921

                             ****ORCA TERMINATED NORMALLY****
TOTAL RUN TIME: 0 days 0 hours 12 minutes 5 seconds 607 msec
