                         Program Version 4.2.0 -  RELEASE  -
|  1> # ORCA input file
|  2> # SCF done       -197.645553443663          0.000280388655
|  3> ! CAM-B3LYP def2-SVP def2/J RIJCOSX Grid4 TightSCF
|  4> %maxcore 5000
|  5> %tddft
|  6>     Mode sTDDFT
|  7>     Ethresh 5.0
|  8>     maxcore 5000
|  9> end
| 10>
| 11> %pal
| 12>   nprocs 6
| 13>   end
| 14> * xyz 0 1
| 15>    C       -6.84818        -1.98591       -10.90737
| 16>    S       -5.23411        -2.50774       -10.96258
| 17>    C       -5.45928        -3.62955        -9.65207
| 18>    C       -6.78441        -3.57520        -9.18971
| 19>    C       -7.57288        -2.62539        -9.92029
| 20>    C       -8.93415        -2.44916        -9.57523
| 21>    F       -9.65619        -1.55280       -10.27518
| 22>    C       -9.50307        -3.15511        -8.55951
| 23>    C       -8.72803        -4.07491        -7.82900
| 24>    C       -7.41405        -4.27746        -8.13937
| 25>    F       -6.71025        -5.17764        -7.42584
| 26>    C       -4.40676        -4.42733        -9.15435
| 27>    C       -3.11697        -4.36569        -9.57968
| 28>    C       -2.04643        -5.14313        -9.07051
| 29>    N       -0.95977        -5.30679        -9.81954
| 30>    C       -0.18667        -6.19643        -9.17356
| 31>    C       -0.81699        -6.62966        -7.91967
| 32>    C        0.03415        -7.60013        -7.21269
| 33>    O       -0.17669        -8.16087        -6.15877
| 34>    C        1.19843        -7.71070        -8.11132
| 35>    C        1.02387        -6.84257        -9.29204
| 36>    N        2.10358        -6.91843       -10.10606
| 37>    C        2.92242        -7.75486        -9.51121
| 38>    C        2.42546        -8.27792        -8.25862
| 39>    C       -1.98131        -5.92051        -7.80328
| 40>    C       -2.86800        -5.91762        -6.68035
| 41>    C       -3.57115        -4.84345        -6.26616
| 42>    C       -4.51361        -4.78963        -5.17985
| 43>    C       -5.20347        -3.61305        -4.96984
| 44>    C       -6.17316        -3.52429        -3.95655
| 45>    C       -6.98195        -2.46800        -3.54901
| 46>    C       -6.99296        -1.09360        -4.12425
| 47>    C       -8.34921        -0.73600        -4.75818
| 48>    N       -8.51803        -1.45585        -6.01195
| 49>    C       -6.58916        -0.03519        -3.08039
| 50>    N       -6.38488         1.24573        -3.73606
| 51>    C       -7.77759        -2.95230        -2.44895
| 52>    C       -8.69339        -2.35558        -1.66089
| 53>    C       -9.39266        -3.09452        -0.57517
| 54>    C       -8.91702        -4.49438        -0.35272
| 55>    C       -8.00487        -5.08302        -1.15379
| 56>    C       -7.40872        -4.36028        -2.20840
| 57>    C       -6.43645        -4.69310        -3.13279
| 58>    C       -5.71604        -5.88639        -3.36477
| 59>    C       -4.78644        -5.92710        -4.35274
| 60>    C      -10.84125        -3.24410        -0.95424
| 61>    C      -11.86313        -2.88675        -0.16169
| 62>    C      -13.22514        -3.08500        -0.54046
| 63>    N      -13.55868        -3.64526        -1.69422
| 64>    C      -14.90532        -3.65417        -1.72396
| 65>    C      -15.47441        -3.05255        -0.51041
| 66>    C      -16.94194        -3.08106        -0.56520
| 67>    O      -17.73951        -2.67311         0.25649
| 68>    C      -17.20713        -3.72737        -1.86226
| 69>    C      -15.93968        -4.05769        -2.53807
| 70>    N      -16.17375        -4.65372        -3.73194
| 71>    C      -17.48194        -4.71335        -3.83270
| 72>    C      -18.18766        -4.15531        -2.70174
| 73>    C      -14.40143        -2.68330         0.26774
| 74>    C      -14.33791        -2.05801         1.54150
| 75>    C      -15.44787        -1.64609         2.20341
| 76>    C      -15.54518        -1.02373         3.47489
| 77>    S      -17.11070        -1.13242         4.21234
| 78>    C      -16.61557        -0.35181         5.66369
| 79>    C      -15.27015         0.02799         5.57424
| 80>    C      -14.65710        -0.33725         4.32313
| 81>    C      -13.32779         0.09145         4.11008
| 82>    F      -12.71275        -0.13297         2.92892
| 83>    C      -12.61565         0.76630         5.05955
| 84>    C      -13.19948         1.07309         6.29689
| 85>    C      -14.49394         0.71705         6.53424
| 86>    F      -15.03942         1.04995         7.72173
| 87>    C      -17.52790        -0.16368         6.75293
| 88>    C      -18.80271        -0.55638         6.73711
| 89>    H       -7.20488        -1.24072       -11.59042
| 90>    H      -10.54223        -3.01025        -8.31479
| 91>    H       -9.16903        -4.62348        -7.01404
| 92>    H       -4.67698        -5.13339        -8.38408
| 93>    H       -2.85484        -3.73073       -10.41742
| 94>    H        3.86909        -7.99917        -9.96133
| 95>    H        2.94288        -8.96567        -7.61916
| 96>    H       -2.87693        -6.84032        -6.11655
| 97>    H       -3.44360        -3.91021        -6.80224
| 98>    H       -5.00505        -2.75808        -5.60122
| 99>    H       -6.24616        -1.05499        -4.92508
|100>    H       -8.37941         0.35808        -4.87531
|101>    H       -9.16342        -1.03873        -4.09731
|102>    H       -7.84450        -1.12566        -6.69602
|103>    H       -9.44382        -1.28347        -6.38744
|104>    H       -5.69765        -0.39958        -2.54226
|105>    H       -7.39051         0.09485        -2.35082
|106>    H       -5.58557         1.19872        -4.35981
|107>    H       -6.19920         1.97001        -3.05160
|108>    H       -8.99764        -1.32828        -1.79898
|109>    H       -9.33221        -2.51746         0.35645
|110>    H       -9.38274        -5.02910         0.46020
|111>    H       -7.69850        -6.10419        -0.97918
|112>    H       -5.91159        -6.75440        -2.75273
|113>    H       -4.23298        -6.83568        -4.52668
|114>    H      -11.04531        -3.71101        -1.90628
|115>    H      -11.67613        -2.41712         0.79412
|116>    H      -17.93908        -5.15037        -4.70365
|117>    H      -19.25307        -4.10911        -2.59053
|118>    H      -13.35909        -1.93608         1.97172
|119>    H      -16.40857        -1.86210         1.74902
|120>    H      -11.60452         1.07094         4.84391
|121>    H      -12.64062         1.60140         7.05139
|122>    H      -17.13256         0.32971         7.62761
|123>    H      -19.23375        -1.05124         5.88213
|124>    H      -19.44909        -0.39035         7.57974
|125> *
|126>
|127>                          ****END OF INPUT****

CARTESIAN COORDINATES (ANGSTROEM)
---------------------------------
  C     -6.848180   -1.985910  -10.907370
  S     -5.234110   -2.507740  -10.962580
  C     -5.459280   -3.629550   -9.652070
  C     -6.784410   -3.575200   -9.189710
  C     -7.572880   -2.625390   -9.920290
  C     -8.934150   -2.449160   -9.575230
  F     -9.656190   -1.552800  -10.275180
  C     -9.503070   -3.155110   -8.559510
  C     -8.728030   -4.074910   -7.829000
  C     -7.414050   -4.277460   -8.139370
  F     -6.710250   -5.177640   -7.425840
  C     -4.406760   -4.427330   -9.154350
  C     -3.116970   -4.365690   -9.579680
  C     -2.046430   -5.143130   -9.070510
  N     -0.959770   -5.306790   -9.819540
  C     -0.186670   -6.196430   -9.173560
  C     -0.816990   -6.629660   -7.919670
  C      0.034150   -7.600130   -7.212690
  O     -0.176690   -8.160870   -6.158770
  C      1.198430   -7.710700   -8.111320
  C      1.023870   -6.842570   -9.292040
  N      2.103580   -6.918430  -10.106060
  C      2.922420   -7.754860   -9.511210
  C      2.425460   -8.277920   -8.258620
  C     -1.981310   -5.920510   -7.803280
  C     -2.868000   -5.917620   -6.680350
  C     -3.571150   -4.843450   -6.266160
  C     -4.513610   -4.789630   -5.179850
  C     -5.203470   -3.613050   -4.969840
  C     -6.173160   -3.524290   -3.956550
  C     -6.981950   -2.468000   -3.549010
  C     -6.992960   -1.093600   -4.124250
  C     -8.349210   -0.736000   -4.758180
  N     -8.518030   -1.455850   -6.011950
  C     -6.589160   -0.035190   -3.080390
  N     -6.384880    1.245730   -3.736060
  C     -7.777590   -2.952300   -2.448950
  C     -8.693390   -2.355580   -1.660890
  C     -9.392660   -3.094520   -0.575170
  C     -8.917020   -4.494380   -0.352720
  C     -8.004870   -5.083020   -1.153790
  C     -7.408720   -4.360280   -2.208400
  C     -6.436450   -4.693100   -3.132790
  C     -5.716040   -5.886390   -3.364770
  C     -4.786440   -5.927100   -4.352740
  C    -10.841250   -3.244100   -0.954240
  C    -11.863130   -2.886750   -0.161690
  C    -13.225140   -3.085000   -0.540460
  N    -13.558680   -3.645260   -1.694220
  C    -14.905320   -3.654170   -1.723960
  C    -15.474410   -3.052550   -0.510410
  C    -16.941940   -3.081060   -0.565200
  O    -17.739510   -2.673110    0.256490
  C    -17.207130   -3.727370   -1.862260
  C    -15.939680   -4.057690   -2.538070
  N    -16.173750   -4.653720   -3.731940
  C    -17.481940   -4.713350   -3.832700
  C    -18.187660   -4.155310   -2.701740
  C    -14.401430   -2.683300    0.267740
  C    -14.337910   -2.058010    1.541500
  C    -15.447870   -1.646090    2.203410
  C    -15.545180   -1.023730    3.474890
  S    -17.110700   -1.132420    4.212340
  C    -16.615570   -0.351810    5.663690
  C    -15.270150    0.027990    5.574240
  C    -14.657100   -0.337250    4.323130
  C    -13.327790    0.091450    4.110080
  F    -12.712750   -0.132970    2.928920
  C    -12.615650    0.766300    5.059550
  C    -13.199480    1.073090    6.296890
  C    -14.493940    0.717050    6.534240
  F    -15.039420    1.049950    7.721730
  C    -17.527900   -0.163680    6.752930
  C    -18.802710   -0.556380    6.737110
  H     -7.204880   -1.240720  -11.590420
  H    -10.542230   -3.010250   -8.314790
  H     -9.169030   -4.623480   -7.014040
  H     -4.676980   -5.133390   -8.384080
  H     -2.854840   -3.730730  -10.417420
  H      3.869090   -7.999170   -9.961330
  H      2.942880   -8.965670   -7.619160
  H     -2.876930   -6.840320   -6.116550
  H     -3.443600   -3.910210   -6.802240
  H     -5.005050   -2.758080   -5.601220
  H     -6.246160   -1.054990   -4.925080
  H     -8.379410    0.358080   -4.875310
  H     -9.163420   -1.038730   -4.097310
  H     -7.844500   -1.125660   -6.696020
  H     -9.443820   -1.283470   -6.387440
  H     -5.697650   -0.399580   -2.542260
  H     -7.390510    0.094850   -2.350820
  H     -5.585570    1.198720   -4.359810
  H     -6.199200    1.970010   -3.051600
  H     -8.997640   -1.328280   -1.798980
  H     -9.332210   -2.517460    0.356450
  H     -9.382740   -5.029100    0.460200
  H     -7.698500   -6.104190   -0.979180
  H     -5.911590   -6.754400   -2.752730
  H     -4.232980   -6.835680   -4.526680
  H    -11.045310   -3.711010   -1.906280
  H    -11.676130   -2.417120    0.794120
  H    -17.939080   -5.150370   -4.703650
  H    -19.253070   -4.109110   -2.590530
  H    -13.359090   -1.936080    1.971720
  H    -16.408570   -1.862100    1.749020
  H    -11.604520    1.070940    4.843910
  H    -12.640620    1.601400    7.051390
  H    -17.132560    0.329710    7.627610
  H    -19.233750   -1.051240    5.882130
  H    -19.449090   -0.390350    7.579740

 Total Charge           Charge          ....    0
 Multiplicity           Mult            ....    1
 Number of Electrons    NEL             ....  522
 Basis Dimension        Dim             .... 1224

ORBITAL ENERGIES
----------------

  NO   OCC          E(Eh)            E(eV)
   0   2.0000     -88.988796     -2421.5082
   1   2.0000     -88.974541     -2421.1203
   2   2.0000     -24.792036      -674.6256
   3   2.0000     -24.790338      -674.5794
   4   2.0000     -24.790268      -674.5775
   5   2.0000     -24.787786      -674.5099
   6   2.0000     -19.204965      -522.5937
   7   2.0000     -19.193216      -522.2740
   8   2.0000     -14.401917      -391.8961
   9   2.0000     -14.396421      -391.7465
  10   2.0000     -14.393183      -391.6584
  11   2.0000     -14.386964      -391.4892
  12   2.0000     -14.386151      -391.4671
  13   2.0000     -14.377394      -391.2288
  14   2.0000     -10.368067      -282.1295
  15   2.0000     -10.366405      -282.0842
  16   2.0000     -10.366191      -282.0784
  17   2.0000     -10.364479      -282.0318
  18   2.0000     -10.363054      -281.9930
  19   2.0000     -10.353743      -281.7397
  20   2.0000     -10.337897      -281.3085
  21   2.0000     -10.331514      -281.1348
  22   2.0000     -10.325923      -280.9827
  23   2.0000     -10.324111      -280.9333
  24   2.0000     -10.322037      -280.8769
  25   2.0000     -10.318120      -280.7703
  26   2.0000     -10.317723      -280.7595
  27   2.0000     -10.316018      -280.7131
  28   2.0000     -10.313926      -280.6562
  29   2.0000     -10.311405      -280.5876
  30   2.0000     -10.309623      -280.5391
  31   2.0000     -10.307900      -280.4922
  32   2.0000     -10.306405      -280.4515
  33   2.0000     -10.305699      -280.4323
  34   2.0000     -10.305580      -280.4291
  35   2.0000     -10.304364      -280.3960
  36   2.0000     -10.304111      -280.3891
  37   2.0000     -10.303210      -280.3646
  38   2.0000     -10.302310      -280.3401
  39   2.0000     -10.302291      -280.3396
  40   2.0000     -10.298595      -280.2390
  41   2.0000     -10.292413      -280.0708
  42   2.0000     -10.288493      -279.9641
  43   2.0000     -10.288328      -279.9596
  44   2.0000     -10.288299      -279.9588
  45   2.0000     -10.288297      -279.9588
  46   2.0000     -10.288148      -279.9547
  47   2.0000     -10.286929      -279.9216
  48   2.0000     -10.286679      -279.9148
  49   2.0000     -10.284958      -279.8679
  50   2.0000     -10.283806      -279.8366
  51   2.0000     -10.280777      -279.7542
  52   2.0000     -10.279785      -279.7272
  53   2.0000     -10.279709      -279.7251
  54   2.0000     -10.279195      -279.7111
  55   2.0000     -10.278907      -279.7033
  56   2.0000     -10.278034      -279.6795
  57   2.0000     -10.277762      -279.6721
  58   2.0000     -10.277442      -279.6634
  59   2.0000     -10.276465      -279.6368
  60   2.0000     -10.275623      -279.6139
  61   2.0000     -10.275571      -279.6125
  62   2.0000     -10.273518      -279.5566
  63   2.0000     -10.272281      -279.5230
  64   2.0000     -10.271026      -279.4888
  65   2.0000     -10.269725      -279.4534
  66   2.0000     -10.269187      -279.4388
  67   2.0000     -10.269026      -279.4344
  68   2.0000     -10.268582      -279.4223
  69   2.0000     -10.266104      -279.3549
  70   2.0000     -10.265826      -279.3473
  71   2.0000     -10.265102      -279.3276
  72   2.0000     -10.263925      -279.2956
  73   2.0000     -10.262814      -279.2654
  74   2.0000      -8.083903      -219.9742
  75   2.0000      -8.070005      -219.5960
  76   2.0000      -6.052723      -164.7030
  77   2.0000      -6.048467      -164.5871
  78   2.0000      -6.047162      -164.5516
  79   2.0000      -6.038818      -164.3246
  80   2.0000      -6.034678      -164.2119
  81   2.0000      -6.033026      -164.1670
  82   2.0000      -1.305072       -35.5128
  83   2.0000      -1.303737       -35.4765
  84   2.0000      -1.303568       -35.4719
  85   2.0000      -1.300851       -35.3980
  86   2.0000      -1.118322       -30.4311
  87   2.0000      -1.107097       -30.1257
  88   2.0000      -1.070237       -29.1226
  89   2.0000      -1.061336       -28.8804
  90   2.0000      -1.049890       -28.5690
  91   2.0000      -1.040626       -28.3169
  92   2.0000      -1.016596       -27.6630
  93   2.0000      -1.009493       -27.4697
  94   2.0000      -0.986868       -26.8540
  95   2.0000      -0.970273       -26.4025
  96   2.0000      -0.953259       -25.9395
  97   2.0000      -0.952249       -25.9120
  98   2.0000      -0.949073       -25.8256
  99   2.0000      -0.948438       -25.8083
 100   2.0000      -0.931292       -25.3417
 101   2.0000      -0.923778       -25.1373
 102   2.0000      -0.921846       -25.0847
 103   2.0000      -0.917342       -24.9621
 104   2.0000      -0.907508       -24.6945
 105   2.0000      -0.894382       -24.3374
 106   2.0000      -0.890298       -24.2263
 107   2.0000      -0.882761       -24.0212
 108   2.0000      -0.869226       -23.6528
 109   2.0000      -0.862073       -23.4582
 110   2.0000      -0.858013       -23.3477
 111   2.0000      -0.853033       -23.2122
 112   2.0000      -0.849066       -23.1043
 113   2.0000      -0.845908       -23.0183
 114   2.0000      -0.841445       -22.8969
 115   2.0000      -0.839986       -22.8572
 116   2.0000      -0.836803       -22.7706
 117   2.0000      -0.834072       -22.6962
 118   2.0000      -0.827810       -22.5259
 119   2.0000      -0.813583       -22.1387
 120   2.0000      -0.801498       -21.8099
 121   2.0000      -0.790664       -21.5151
 122   2.0000      -0.765399       -20.8276
 123   2.0000      -0.763303       -20.7705
 124   2.0000      -0.758314       -20.6348
 125   2.0000      -0.751976       -20.4623
 126   2.0000      -0.740440       -20.1484
 127   2.0000      -0.727704       -19.8018
 128   2.0000      -0.726219       -19.7614
 129   2.0000      -0.725278       -19.7358
 130   2.0000      -0.722904       -19.6712
 131   2.0000      -0.721680       -19.6379
 132   2.0000      -0.713557       -19.4169
 133   2.0000      -0.708023       -19.2663
 134   2.0000      -0.703585       -19.1455
 135   2.0000      -0.703209       -19.1353
 136   2.0000      -0.691698       -18.8221
 137   2.0000      -0.685158       -18.6441
 138   2.0000      -0.673893       -18.3376
 139   2.0000      -0.667792       -18.1715
 140   2.0000      -0.664970       -18.0948
 141   2.0000      -0.657533       -17.8924
 142   2.0000      -0.656952       -17.8766
 143   2.0000      -0.652310       -17.7503
 144   2.0000      -0.645304       -17.5596
 145   2.0000      -0.640251       -17.4221
 146   2.0000      -0.638535       -17.3754
 147   2.0000      -0.633205       -17.2304
 148   2.0000      -0.629925       -17.1411
 149   2.0000      -0.626835       -17.0570
 150   2.0000      -0.617747       -16.8098
 151   2.0000      -0.613528       -16.6949
 152   2.0000      -0.613457       -16.6930
 153   2.0000      -0.611181       -16.6311
 154   2.0000      -0.601021       -16.3546
 155   2.0000      -0.600422       -16.3383
 156   2.0000      -0.599171       -16.3043
 157   2.0000      -0.591383       -16.0923
 158   2.0000      -0.587294       -15.9811
 159   2.0000      -0.584676       -15.9098
 160   2.0000      -0.581157       -15.8141
 161   2.0000      -0.576541       -15.6885
 162   2.0000      -0.573151       -15.5962
 163   2.0000      -0.569443       -15.4953
 164   2.0000      -0.568206       -15.4617
 165   2.0000      -0.567976       -15.4554
 166   2.0000      -0.566233       -15.4080
 167   2.0000      -0.558808       -15.2059
 168   2.0000      -0.555428       -15.1140
 169   2.0000      -0.554543       -15.0899
 170   2.0000      -0.553440       -15.0599
 171   2.0000      -0.549768       -14.9600
 172   2.0000      -0.546988       -14.8843
 173   2.0000      -0.545310       -14.8386
 174   2.0000      -0.538268       -14.6470
 175   2.0000      -0.537904       -14.6371
 176   2.0000      -0.537469       -14.6253
 177   2.0000      -0.533718       -14.5232
 178   2.0000      -0.530501       -14.4357
 179   2.0000      -0.529472       -14.4077
 180   2.0000      -0.528699       -14.3866
 181   2.0000      -0.524376       -14.2690
 182   2.0000      -0.523665       -14.2497
 183   2.0000      -0.522918       -14.2293
 184   2.0000      -0.517885       -14.0924
 185   2.0000      -0.516684       -14.0597
 186   2.0000      -0.514586       -14.0026
 187   2.0000      -0.513756       -13.9800
 188   2.0000      -0.511252       -13.9119
 189   2.0000      -0.508912       -13.8482
 190   2.0000      -0.506994       -13.7960
 191   2.0000      -0.505614       -13.7584
 192   2.0000      -0.504065       -13.7163
 193   2.0000      -0.500810       -13.6277
 194   2.0000      -0.498055       -13.5528
 195   2.0000      -0.496352       -13.5064
 196   2.0000      -0.493982       -13.4419
 197   2.0000      -0.487670       -13.2702
 198   2.0000      -0.487027       -13.2527
 199   2.0000      -0.485314       -13.2061
 200   2.0000      -0.483063       -13.1448
 201   2.0000      -0.482380       -13.1262
 202   2.0000      -0.479367       -13.0442
 203   2.0000      -0.476145       -12.9566
 204   2.0000      -0.472380       -12.8541
 205   2.0000      -0.471721       -12.8362
 206   2.0000      -0.471233       -12.8229
 207   2.0000      -0.470224       -12.7954
 208   2.0000      -0.467118       -12.7109
 209   2.0000      -0.465665       -12.6714
 210   2.0000      -0.465348       -12.6628
 211   2.0000      -0.461399       -12.5553
 212   2.0000      -0.456064       -12.4101
 213   2.0000      -0.455204       -12.3867
 214   2.0000      -0.454712       -12.3733
 215   2.0000      -0.451879       -12.2963
 216   2.0000      -0.447701       -12.1826
 217   2.0000      -0.445120       -12.1123
 218   2.0000      -0.441601       -12.0166
 219   2.0000      -0.440345       -11.9824
 220   2.0000      -0.439319       -11.9545
 221   2.0000      -0.437242       -11.8980
 222   2.0000      -0.435033       -11.8379
 223   2.0000      -0.430164       -11.7054
 224   2.0000      -0.428070       -11.6484
 225   2.0000      -0.425687       -11.5835
 226   2.0000      -0.421067       -11.4578
 227   2.0000      -0.419259       -11.4086
 228   2.0000      -0.418018       -11.3749
 229   2.0000      -0.417366       -11.3571
 230   2.0000      -0.413160       -11.2426
 231   2.0000      -0.400881       -10.9085
 232   2.0000      -0.397165       -10.8074
 233   2.0000      -0.394231       -10.7276
 234   2.0000      -0.381709       -10.3868
 235   2.0000      -0.376358       -10.2412
 236   2.0000      -0.375596       -10.2205
 237   2.0000      -0.367053        -9.9880
 238   2.0000      -0.353349        -9.6151
 239   2.0000      -0.352127        -9.5819
 240   2.0000      -0.345686        -9.4066
 241   2.0000      -0.343207        -9.3391
 242   2.0000      -0.338527        -9.2118
 243   2.0000      -0.335881        -9.1398
 244   2.0000      -0.335812        -9.1379
 245   2.0000      -0.333884        -9.0854
 246   2.0000      -0.332056        -9.0357
 247   2.0000      -0.325938        -8.8692
 248   2.0000      -0.323611        -8.8059
 249   2.0000      -0.322912        -8.7869
 250   2.0000      -0.316447        -8.6109
 251   2.0000      -0.314192        -8.5496
 252   2.0000      -0.311986        -8.4896
 253   2.0000      -0.307246        -8.3606
 254   2.0000      -0.306792        -8.3482
 255   2.0000      -0.297075        -8.0838
 256   2.0000      -0.290406        -7.9024
 257   2.0000      -0.272138        -7.4053
 258   2.0000      -0.252863        -6.8808
 259   2.0000      -0.240334        -6.5398
 260   2.0000      -0.222408        -6.0520
 261   0.0000      -0.108582        -2.9547
 262   0.0000      -0.103357        -2.8125
 263   0.0000      -0.073715        -2.0059
 264   0.0000      -0.066109        -1.7989
 265   0.0000      -0.050355        -1.3702

MULLIKEN ATOMIC CHARGES
-----------------------
   0 C :   -0.112563
   1 S :    0.191804
   2 C :   -0.173863
   3 C :    0.114451
   4 C :    0.015750
   5 C :    0.260376
   6 F :   -0.189067
   7 C :   -0.086555
   8 C :   -0.003409
   9 C :    0.224884
  10 F :   -0.181956
  11 C :    0.010464
  12 C :   -0.034163
  13 C :    0.033271
  14 N :   -0.044419
  15 C :    0.056914
  16 C :   -0.128099
  17 C :    0.197431
  18 O :   -0.138347
  19 C :   -0.041724
  20 C :   -0.029619
  21 N :   -0.056409
  22 C :    0.081114
  23 C :   -0.097026
  24 C :    0.019809
  25 C :   -0.032638
  26 C :   -0.022476
  27 C :    0.115651
  28 C :   -0.106425
  29 C :    0.062838
  30 C :    0.026299
  31 C :   -0.076847
  32 C :    0.154527
  33 N :   -0.225629
  34 C :    0.142386
  35 N :   -0.214876
  36 C :    0.110192
  37 C :   -0.152044
  38 C :    0.131222
  39 C :   -0.042741
  40 C :    0.031690
  41 C :   -0.001877
  42 C :    0.041063
  43 C :    0.002246
  44 C :    0.001646
  45 C :    0.017162
  46 C :   -0.036617
  47 C :    0.036866
  48 N :   -0.042642
  49 C :    0.069589
  50 C :   -0.167519
  51 C :    0.221787
  52 O :   -0.156373
  53 C :   -0.009898
  54 C :   -0.041203
  55 N :   -0.059014
  56 C :    0.082261
  57 C :   -0.101655
  58 C :    0.042063
  59 C :   -0.045818
  60 C :    0.056778
  61 C :   -0.157364
  62 S :    0.187956
  63 C :   -0.144393
  64 C :    0.065323
  65 C :    0.100984
  66 C :    0.211191
  67 F :   -0.194210
  68 C :   -0.052434
  69 C :   -0.058272
  70 C :    0.225549
  71 F :   -0.189876
  72 C :    0.001047
  73 C :   -0.022273
  74 H :    0.039530
  75 H :    0.005009
  76 H :    0.009552
  77 H :    0.043944
  78 H :    0.002243
  79 H :   -0.000922
  80 H :   -0.012916
  81 H :    0.012870
  82 H :   -0.004824
  83 H :   -0.048042
  84 H :   -0.040822
  85 H :   -0.001199
  86 H :   -0.021433
  87 H :    0.086365
  88 H :    0.094780
  89 H :   -0.000641
  90 H :   -0.020993
  91 H :    0.089823
  92 H :    0.092897
  93 H :    0.007391
  94 H :    0.023814
  95 H :   -0.006931
  96 H :   -0.029592
  97 H :   -0.036111
  98 H :   -0.021777
  99 H :    0.041322
 100 H :   -0.012313
 101 H :    0.003098
 102 H :   -0.009371
 103 H :   -0.025381
 104 H :    0.003553
 105 H :   -0.002929
 106 H :   -0.000485
 107 H :    0.009837
 108 H :    0.027263
 109 H :    0.031141
Sum of atomic charges:   -0.0000000

LOEWDIN ATOMIC CHARGES
----------------------
   0 C :   -0.164280
   1 S :    0.519506
   2 C :   -0.190408
   3 C :   -0.050764
   4 C :   -0.077670
   5 C :    0.081738
   6 F :   -0.067620
   7 C :   -0.051565
   8 C :   -0.019090
   9 C :    0.077614
  10 F :   -0.054916
  11 C :    0.011329
  12 C :   -0.055358
  13 C :    0.070131
  14 N :   -0.108492
  15 C :    0.045565
  16 C :   -0.048915
  17 C :    0.063962
  18 O :   -0.149821
  19 C :   -0.046678
  20 C :    0.008076
  21 N :   -0.100674
  22 C :    0.059616
  23 C :   -0.044767
  24 C :   -0.026163
  25 C :   -0.030383
  26 C :   -0.000947
  27 C :   -0.024586
  28 C :   -0.008887
  29 C :   -0.012784
  30 C :   -0.022920
  31 C :   -0.039261
  32 C :    0.024051
  33 N :   -0.115860
  34 C :    0.026049
  35 N :   -0.115723
  36 C :   -0.008214
  37 C :    0.054690
  38 C :   -0.029545
  39 C :   -0.032983
  40 C :   -0.007941
  41 C :   -0.033720
  42 C :   -0.025494
  43 C :   -0.005825
  44 C :   -0.017364
  45 C :    0.085631
  46 C :   -0.072525
  47 C :    0.077709
  48 N :   -0.109714
  49 C :    0.052369
  50 C :   -0.061205
  51 C :    0.069271
  52 O :   -0.153435
  53 C :   -0.042064
  54 C :    0.009864
  55 N :   -0.099890
  56 C :    0.063006
  57 C :   -0.040754
  58 C :   -0.022775
  59 C :   -0.042237
  60 C :   -0.012937
  61 C :   -0.170900
  62 S :    0.526564
  63 C :   -0.167991
  64 C :   -0.065330
  65 C :   -0.062941
  66 C :    0.080720
  67 F :   -0.063802
  68 C :   -0.050184
  69 C :   -0.054493
  70 C :    0.087266
  71 F :   -0.062133
  72 C :   -0.044383
  73 C :   -0.037119
  74 H :    0.034143
  75 H :    0.041967
  76 H :    0.046766
  77 H :    0.042886
  78 H :    0.032176
  79 H :    0.019351
  80 H :    0.030897
  81 H :    0.037597
  82 H :    0.028329
  83 H :    0.020727
  84 H :    0.019472
  85 H :    0.001335
  86 H :    0.011572
  87 H :    0.049254
  88 H :    0.052840
  89 H :    0.005003
  90 H :    0.013243
  91 H :    0.051961
  92 H :    0.056001
  93 H :    0.028208
  94 H :    0.050916
  95 H :    0.026759
  96 H :    0.032736
  97 H :    0.028070
  98 H :    0.028930
  99 H :    0.043107
 100 H :    0.029925
 101 H :    0.020891
 102 H :    0.032328
 103 H :    0.018956
 104 H :    0.031815
 105 H :    0.040115
 106 H :    0.041142
 107 H :    0.034972
 108 H :    0.017742
 109 H :    0.029572

  Mayer bond orders larger than 0.100000
B(  0-C ,  1-S ) :   1.2384 B(  0-C ,  2-C ) :   0.1020 B(  0-C ,  4-C ) :   1.3982
B(  0-C , 74-H ) :   0.9749 B(  1-S ,  2-C ) :   1.1491 B(  2-C ,  3-C ) :   1.3156
B(  2-C , 11-C ) :   1.2212 B(  3-C ,  4-C ) :   1.2068 B(  3-C ,  9-C ) :   1.1489
B(  4-C ,  5-C ) :   1.1211 B(  5-C ,  6-F ) :   1.1457 B(  5-C ,  7-C ) :   1.5352
B(  7-C ,  8-C ) :   1.1501 B(  7-C , 75-H ) :   0.9941 B(  8-C ,  9-C ) :   1.5523
B(  8-C , 76-H ) :   0.9831 B(  9-C , 10-F ) :   1.0837 B( 11-C , 12-C ) :   1.5642
B( 11-C , 77-H ) :   0.9543 B( 12-C , 13-C ) :   1.1752 B( 12-C , 78-H ) :   0.9563
B( 13-C , 14-N ) :   1.5629 B( 13-C , 15-C ) :   0.1029 B( 13-C , 24-C ) :   0.9955
B( 14-N , 15-C ) :   1.3586 B( 15-C , 16-C ) :   1.0480 B( 15-C , 20-C ) :   1.4031
B( 16-C , 17-C ) :   0.8920 B( 16-C , 24-C ) :   1.5965 B( 17-C , 18-O ) :   2.2803
B( 17-C , 19-C ) :   0.9058 B( 19-C , 20-C ) :   1.0693 B( 19-C , 23-C ) :   1.5925
B( 20-C , 21-N ) :   1.3237 B( 21-N , 22-C ) :   1.6455 B( 22-C , 23-C ) :   1.0903
B( 22-C , 79-H ) :   0.9895 B( 23-C , 80-H ) :   1.0102 B( 24-C , 25-C ) :   1.0888
B( 25-C , 26-C ) :   1.6721 B( 25-C , 81-H ) :   0.9561 B( 26-C , 27-C ) :   1.0909
B( 26-C , 82-H ) :   0.9794 B( 27-C , 28-C ) :   1.4987 B( 27-C , 44-C ) :   1.1300
B( 28-C , 29-C ) :   1.1256 B( 28-C , 83-H ) :   0.9996 B( 29-C , 30-C ) :   1.4839
B( 29-C , 42-C ) :   1.1208 B( 30-C , 31-C ) :   1.0151 B( 30-C , 36-C ) :   1.0996
B( 31-C , 32-C ) :   1.0349 B( 31-C , 34-C ) :   1.0368 B( 31-C , 84-H ) :   0.8923
B( 32-C , 33-N ) :   1.0663 B( 32-C , 85-H ) :   0.9319 B( 32-C , 86-H ) :   0.9367
B( 33-N , 87-H ) :   0.9684 B( 33-N , 88-H ) :   0.9584 B( 34-C , 35-N ) :   1.0736
B( 34-C , 89-H ) :   0.9459 B( 34-C , 90-H ) :   0.9305 B( 35-N , 91-H ) :   0.9718
B( 35-N , 92-H ) :   0.9677 B( 36-C , 37-C ) :   1.6464 B( 36-C , 41-C ) :   1.0354
B( 37-C , 38-C ) :   0.9728 B( 37-C , 93-H ) :   0.9682 B( 38-C , 39-C ) :   0.9839
B( 38-C , 45-C ) :   0.9308 B( 38-C , 94-H ) :   0.8835 B( 39-C , 40-C ) :   1.6889
B( 39-C , 95-H ) :   0.9711 B( 40-C , 41-C ) :   1.1502 B( 40-C , 96-H ) :   0.9877
B( 41-C , 42-C ) :   1.4361 B( 42-C , 43-C ) :   1.1378 B( 43-C , 44-C ) :   1.6185
B( 43-C , 97-H ) :   0.9890 B( 44-C , 98-H ) :   0.9811 B( 45-C , 46-C ) :   1.7375
B( 45-C , 99-H ) :   0.9596 B( 46-C , 47-C ) :   1.1161 B( 46-C ,100-H ) :   0.9621
B( 47-C , 48-N ) :   1.6109 B( 47-C , 49-C ) :   0.1112 B( 47-C , 58-C ) :   0.9934
B( 48-N , 49-C ) :   1.3489 B( 49-C , 50-C ) :   1.0605 B( 49-C , 54-C ) :   1.4073
B( 50-C , 51-C ) :   0.9056 B( 50-C , 58-C ) :   1.5227 B( 51-C , 52-O ) :   2.1580
B( 51-C , 53-C ) :   0.9392 B( 52-O ,104-H ) :   0.1169 B( 53-C , 54-C ) :   1.0787
B( 53-C , 57-C ) :   1.5860 B( 54-C , 55-N ) :   1.3183 B( 55-N , 56-C ) :   1.6498
B( 56-C , 57-C ) :   1.0824 B( 56-C ,101-H ) :   0.9895 B( 57-C ,102-H ) :   1.0124
B( 58-C , 59-C ) :   1.1634 B( 59-C , 60-C ) :   1.6571 B( 59-C ,103-H ) :   0.9542
B( 60-C , 61-C ) :   1.1520 B( 60-C ,104-H ) :   0.9163 B( 61-C , 62-S ) :   1.1850
B( 61-C , 63-C ) :   0.1074 B( 61-C , 65-C ) :   1.3099 B( 62-S , 63-C ) :   1.1724
B( 63-C , 64-C ) :   1.3503 B( 63-C , 72-C ) :   1.1391 B( 64-C , 65-C ) :   1.2055
B( 64-C , 70-C ) :   1.1392 B( 65-C , 66-C ) :   1.1472 B( 66-C , 67-F ) :   1.0899
B( 66-C , 68-C ) :   1.5372 B( 68-C , 69-C ) :   1.1584 B( 68-C ,105-H ) :   0.9888
B( 69-C , 70-C ) :   1.5449 B( 69-C ,106-H ) :   0.9889 B( 70-C , 71-F ) :   1.0914
B( 72-C , 73-C ) :   1.8972 B( 72-C ,107-H ) :   0.9579 B( 73-C ,108-H ) :   0.9566
B( 73-C ,109-H ) :   0.9500

-----------------------------------------------------------------------------
         ABSORPTION SPECTRUM VIA TRANSITION ELECTRIC DIPOLE MOMENTS
-----------------------------------------------------------------------------
State   Energy  Wavelength   fosc         T2         TX        TY        TZ
        (cm-1)    (nm)                  (au**2)     (au)      (au)      (au)
-----------------------------------------------------------------------------
   0   11619.4    860.6   0.209801737   5.94431   2.13978  -0.80032  -0.85155
   1   12552.6    796.6   0.002795394   0.07331   0.10079   0.24964  -0.02887
   2   13512.3    740.1   0.219752390   5.35403  -0.27476  -0.93833  -2.09716
   3   14646.5    682.8   0.108299472   2.43427   1.33642   0.70751  -0.38431
   4   17944.3    557.3   0.923933984  16.95082   3.62091  -1.86871   0.58972
   5   19551.8    511.5   0.055771633   0.93908   0.75023  -0.48430  -0.37640
   6   21407.6    467.1   0.743423412  11.43258  -0.94463   1.26199   2.99126
   7   22147.7    451.5   0.001424366   0.02117  -0.08809   0.00253  -0.11579
   8   22255.0    449.3   0.002130329   0.03151   0.00072  -0.13143  -0.11933
   9   22517.7    444.1   0.012995009   0.18999  -0.37223   0.04282  -0.22271
  10   22564.0    443.2   0.191530969   2.79447   1.44162  -0.29762  -0.79223
  11   23592.5    423.9   0.030275422   0.42247  -0.53017  -0.32108  -0.19570
  12   23759.1    420.9   0.004662787   0.06461  -0.25414  -0.00269  -0.00358
  13   24016.8    416.4   0.149186008   2.04498   1.38664  -0.06565  -0.34337
  14   24288.0    411.7   0.048976168   0.66385  -0.28062  -0.05349  -0.76305
  15   25135.1    397.9   0.163691250   2.14398   1.36296  -0.33592  -0.41652
  16   25375.3    394.1   0.003872899   0.05025   0.20152  -0.05426   0.08181
  17   25832.8    387.1   0.070449247   0.89780   0.52004   0.14977   0.77777
  18   26035.6    384.1   0.095522453   1.20785   1.06912  -0.25427   0.01301
  19   26107.5    383.0   0.279136868   3.51988  -1.84774   0.18363  -0.26833
  20   26114.6    382.9   0.054599646   0.68831  -0.80023   0.02962  -0.21692
  21   26409.9    378.6   0.016025073   0.19976   0.27806  -0.31372  -0.15499
  22   26491.5    377.5   0.060554656   0.75252  -0.19588  -0.61626  -0.57825
  23   26754.4    373.8   0.002287755   0.02815   0.10532  -0.09710  -0.08734
  24   27341.1    365.7   0.129932478   1.56450  -0.86776   0.61715   0.65622
  25   27611.2    362.2   0.055595018   0.66287   0.37092  -0.28334  -0.66709
  26   27778.3    360.0   0.491413218   5.82394   1.81962  -0.82538  -1.35340
  27   27882.6    358.6   0.008949485   0.10567   0.20029  -0.21834  -0.13372
  28   28541.0    350.4   0.263833220   3.04324  -1.56160   0.77491   0.06440
  29   28785.6    347.4   0.150442718   1.72057  -1.19070  -0.53307  -0.13653
  30   28882.0    346.2   0.077989894   0.88897   0.66967   0.24304   0.61761
  31   29399.7    340.1   0.128911488   1.44352   0.93565  -0.59210  -0.46636
  32   30578.5    327.0   0.001661469   0.01789   0.09820  -0.07992  -0.04310
  33   31159.7    320.9   0.214702845   2.26840   1.05844  -0.70762  -0.80460
  34   31381.5    318.7   0.075465487   0.79168  -0.76939   0.32354  -0.30829
  35   31477.5    317.7   0.000485145   0.00507  -0.00960  -0.00855  -0.07006
  36   32033.9    312.2   0.239814422   2.46457   1.22309  -0.55781  -0.81085
  37   32249.3    310.1   0.045581542   0.46531   0.45364   0.07175  -0.50436
  38   32637.1    306.4   0.013600770   0.13719  -0.22090   0.28690   0.07799
  39   32770.6    305.2   0.053503825   0.53750   0.32597   0.06739  -0.65322
  40   33309.5    300.2   0.010059292   0.09942  -0.25903   0.00694   0.17965
  41   33422.6    299.2   0.114438045   1.12721  -0.86370   0.14387   0.60046
  42   33634.6    297.3   0.103960587   1.01755  -0.69259   0.16119   0.71546
  43   33906.1    294.9   0.016620300   0.16137   0.34307  -0.10184  -0.18251
  44   34183.5    292.5   0.005506903   0.05304   0.00116  -0.07898   0.21633
  45   34247.0    292.0   0.039055165   0.37543   0.16271   0.29562   0.51143
  46   34466.9    290.1   0.023978447   0.22903   0.39144  -0.21121   0.17662
  47   34555.7    289.4   0.002927042   0.02789   0.14010   0.01782   0.08911
  48   34695.1    288.2   0.038558971   0.36588   0.58700   0.14443  -0.02097
  49   34847.8    287.0   0.037254339   0.35195   0.05833  -0.04101  -0.58895
  50   35132.6    284.6   0.009182106   0.08604  -0.24643  -0.12120   0.10307
  51   35245.1    283.7   0.016300594   0.15226   0.35949  -0.06607   0.13659
  52   35473.5    281.9   0.078253917   0.72624   0.78987  -0.31022  -0.07817
  53   35771.0    279.6   0.017261066   0.15886   0.36326   0.10055  -0.12957
  54   36178.0    276.4   0.165439299   1.50546   1.04935  -0.61397  -0.16542
  55   36316.9    275.4   0.001882601   0.01707  -0.08132   0.00811  -0.10192
  56   36489.7    274.0   0.119616066   1.07918  -0.29609  -0.65100  -0.75347
  57   36608.9    273.2   0.310250477   2.78998  -1.44314  -0.61869  -0.56969
  58   36831.6    271.5   0.056468524   0.50473  -0.66313   0.24862  -0.05646
  59   37041.9    270.0   0.106150790   0.94342  -0.93406   0.22523   0.14218
  60   37222.3    268.7   0.001942469   0.01718  -0.11783   0.04107  -0.04011
  61   37476.8    266.8   0.076328285   0.67050   0.44389  -0.24693  -0.64225
  62   37676.6    265.4   0.007901426   0.06904   0.03185   0.17975   0.18899
  63   37768.7    264.8   0.001616432   0.01409   0.01245  -0.07498  -0.09117
  64   37998.6    263.2   0.018607924   0.16122   0.30750  -0.15946  -0.20305
  65   38191.1    261.8   0.002583004   0.02227  -0.13555   0.03047   0.05443
  66   38293.3    261.1   0.110055813   0.94616  -0.82188   0.11378   0.50766
  67   39223.6    254.9   0.001108309   0.00930   0.08528   0.01672  -0.04184
  68   39284.9    254.6   0.010989150   0.09209  -0.27395   0.05172   0.11987
  69   39328.5    254.3   0.010832131   0.09067   0.18197   0.06109  -0.23201
  70   39504.4    253.1   0.003230774   0.02692  -0.08499   0.09578   0.10260
  71   39711.5    251.8   0.011491986   0.09527  -0.11950   0.17238   0.22644
  72   39769.6    251.4   0.008818488   0.07300  -0.09228   0.13776   0.21332
  73   40015.3    249.9   0.031120038   0.25603  -0.01904   0.50417   0.03849
  74   40266.3    248.3   0.019863581   0.16240   0.36689   0.13075  -0.10343

FINAL SINGLE POINT ENERGY     -3978.293081504733

DIPOLE MOMENT
-------------
                                X             Y             Z
Electronic contribution:    -14.40307      -9.32524      -6.71029
Nuclear contribution   :     12.91599      11.66191       8.41761
                        -----------------------------------------
Total Dipole Moment    :     -1.48708       2.33667       1.70733
                        -----------------------------------------
Magnitude (a.u.)       :      3.25368
Magnitude (Debye)      :      8.27019

Rotational constants in cm-1:     0.001600     0.000269     0.000250
Rotational constants in MHz :    47.956387     8.076912     7.505472

                             ****ORCA TERMINATED NORMALLY****
TOTAL RUN TIME: 0 days 0 hours 17 minutes 29 seconds 740 msec
