                         Program Version 4.2.0 -  RELEASE  -
|  1> # ORCA input file
|  2> # SCF done       -154.903709625463          0.000704408670
|  3> ! CAM-B3LYP def2-SVP def2/J RIJCOSX Grid4 TightSCF
|  4> %maxcore 5000
|  5> %tddft
|  6>     Mode sTDDFT
|  7>     Ethresh 5.0
|  8>     maxcore 5000
|  9> end
| 10>
| 11> %pal
| 12>   nprocs 6
| 13>   end
| 14> * xyz 0 1
| 15>    C       16.11026        -4.76304         3.33305
| 16>    C       17.41379        -4.55064         3.15055
| 17>    C       15.12135        -4.17684         2.53163
| 18>    C       14.26392        -3.67467         1.83419
| 19>    C       13.28909        -3.11426         1.02157
| 20>    C       11.96462        -3.38714         1.13926
| 21>    C       11.01165        -2.82274         0.25185
| 22>    N       11.37284        -1.99359        -0.72152
| 23>    C       10.24704        -1.70339        -1.39583
| 24>    C        9.08375        -2.40285        -0.82973
| 25>    C        7.87212        -2.07734        -1.59488
| 26>    O        6.73968        -2.49050        -1.43916
| 27>    C        8.37148        -1.13546        -2.61202
| 28>    C        9.82390        -0.93988        -2.46047
| 29>    N       10.29091        -0.07102        -3.38914
| 30>    C        9.23657         0.27946        -4.08876
| 31>    C        8.00646        -0.34417        -3.65585
| 32>    C        9.55591        -3.11034         0.25010
| 33>    C        8.87584        -3.93357         1.19144
| 34>    C        7.57800        -4.28448         1.04408
| 35>    C        6.80088        -5.10333         1.93347
| 36>    C        5.61211        -5.62664         1.46640
| 37>    C        4.82360        -6.44805         2.29019
| 38>    C        3.62438        -7.10563         2.04191
| 39>    C        2.87406        -7.11201         0.75490
| 40>    C        2.71365        -8.53839         0.19225
| 41>    N        2.57428        -8.46758        -1.24728
| 42>    C        1.51805        -6.39785         0.90419
| 43>    N        0.89672        -6.20990        -0.39812
| 44>    C        3.26300        -7.78307         3.26379
| 45>    C        2.22148        -8.57739         3.57237
| 46>    C        2.06450        -9.17055         4.93428
| 47>    C        3.13621        -8.80412         5.90503
| 48>    C        4.18938        -8.03371         5.57163
| 49>    C        4.30384        -7.49990         4.26672
| 50>    C        5.24990        -6.69765         3.66011
| 51>    C        6.46355        -6.13486         4.12045
| 52>    C        7.21381        -5.37874         3.27966
| 53>    C        0.67235        -8.83209         5.38708
| 54>    C        0.36203        -7.97916         6.37242
| 55>    C       -1.00305        -7.70029         6.69944
| 56>    N       -2.00087        -8.23573         6.01151
| 57>    C       -3.13096        -7.76453         6.57353
| 58>    C       -2.83435        -6.87028         7.70482
| 59>    C       -4.08221        -6.37250         8.30162
| 60>    O       -4.22745        -5.62482         9.24710
| 61>    C       -5.11841        -7.00782         7.46677
| 62>    C       -4.49423        -7.84781         6.42641
| 63>    N       -5.44047        -8.43549         5.65312
| 64>    C       -6.58509        -8.01973         6.14053
| 65>    C       -6.45771        -7.12669         7.27226
| 66>    C       -1.46544        -6.81850         7.79660
| 67>    C       -0.61627        -6.12317         8.70676
| 68>    C       -1.07949        -5.34802         9.70783
| 69>    C       -0.22700        -4.64765        10.64493
| 70>    C       -0.74659        -3.89291        11.63057
| 71>    C        1.17644        -4.77798        10.50045
| 72>    C        2.36923        -4.90640        10.35893
| 73>    C        3.75871        -5.05246        10.19467
| 74>    C        4.64955        -4.62220        11.08318
| 75>    H       15.75422        -5.41488         4.12200
| 76>    H       17.77380        -3.90507         2.36707
| 77>    H       18.15288        -5.01715         3.77851
| 78>    H       13.60923        -2.43156         0.24467
| 79>    H       11.61839        -4.06623         1.90551
| 80>    H        9.33426         0.97321        -4.90587
| 81>    H        7.03953        -0.18873        -4.09245
| 82>    H        9.45116        -4.28907         2.03516
| 83>    H        7.05833        -3.94486         0.15746
| 84>    H        5.29976        -5.41378         0.45472
| 85>    H        3.45822        -6.55997         0.01233
| 86>    H        1.86433        -9.03463         0.68981
| 87>    H        3.61763        -9.11524         0.41736
| 88>    H        1.75788        -7.90396        -1.46828
| 89>    H        2.44970        -9.39259        -1.64299
| 90>    H        1.68628        -5.44981         1.44376
| 91>    H        0.83995        -7.00485         1.51002
| 92>    H        1.45933        -5.57830        -0.96034
| 93>    H       -0.02183        -5.79252        -0.29185
| 94>    H        1.44324        -8.81060         2.86135
| 95>    H        2.08727       -10.26691         4.81004
| 96>    H        3.03332        -9.21423         6.89846
| 97>    H        4.95895        -7.80973         6.29647
| 98>    H        6.78194        -6.31466         5.13715
| 99>    H        8.13516        -4.94188         3.63324
|100>    H       -0.13852        -9.29667         4.84307
|101>    H        1.13308        -7.48118         6.94190
|102>    H       -7.51201        -8.34473         5.70033
|103>    H       -7.27099        -6.67994         7.80936
|104>    H        0.45238        -6.23692         8.57834
|105>    H       -2.14425        -5.22389         9.84940
|106>    H       -1.81196        -3.78949        11.74294
|107>    H       -0.11991        -3.37027        12.33250
|108>    H        4.07216        -5.54471         9.28167
|109>    H        4.34514        -4.13083        11.99141
|110>    H        5.70718        -4.74879        10.92878
|111> *
|112>
|113>                          ****END OF INPUT****

CARTESIAN COORDINATES (ANGSTROEM)
---------------------------------
  C     16.110260   -4.763040    3.333050
  C     17.413790   -4.550640    3.150550
  C     15.121350   -4.176840    2.531630
  C     14.263920   -3.674670    1.834190
  C     13.289090   -3.114260    1.021570
  C     11.964620   -3.387140    1.139260
  C     11.011650   -2.822740    0.251850
  N     11.372840   -1.993590   -0.721520
  C     10.247040   -1.703390   -1.395830
  C      9.083750   -2.402850   -0.829730
  C      7.872120   -2.077340   -1.594880
  O      6.739680   -2.490500   -1.439160
  C      8.371480   -1.135460   -2.612020
  C      9.823900   -0.939880   -2.460470
  N     10.290910   -0.071020   -3.389140
  C      9.236570    0.279460   -4.088760
  C      8.006460   -0.344170   -3.655850
  C      9.555910   -3.110340    0.250100
  C      8.875840   -3.933570    1.191440
  C      7.578000   -4.284480    1.044080
  C      6.800880   -5.103330    1.933470
  C      5.612110   -5.626640    1.466400
  C      4.823600   -6.448050    2.290190
  C      3.624380   -7.105630    2.041910
  C      2.874060   -7.112010    0.754900
  C      2.713650   -8.538390    0.192250
  N      2.574280   -8.467580   -1.247280
  C      1.518050   -6.397850    0.904190
  N      0.896720   -6.209900   -0.398120
  C      3.263000   -7.783070    3.263790
  C      2.221480   -8.577390    3.572370
  C      2.064500   -9.170550    4.934280
  C      3.136210   -8.804120    5.905030
  C      4.189380   -8.033710    5.571630
  C      4.303840   -7.499900    4.266720
  C      5.249900   -6.697650    3.660110
  C      6.463550   -6.134860    4.120450
  C      7.213810   -5.378740    3.279660
  C      0.672350   -8.832090    5.387080
  C      0.362030   -7.979160    6.372420
  C     -1.003050   -7.700290    6.699440
  N     -2.000870   -8.235730    6.011510
  C     -3.130960   -7.764530    6.573530
  C     -2.834350   -6.870280    7.704820
  C     -4.082210   -6.372500    8.301620
  O     -4.227450   -5.624820    9.247100
  C     -5.118410   -7.007820    7.466770
  C     -4.494230   -7.847810    6.426410
  N     -5.440470   -8.435490    5.653120
  C     -6.585090   -8.019730    6.140530
  C     -6.457710   -7.126690    7.272260
  C     -1.465440   -6.818500    7.796600
  C     -0.616270   -6.123170    8.706760
  C     -1.079490   -5.348020    9.707830
  C     -0.227000   -4.647650   10.644930
  C     -0.746590   -3.892910   11.630570
  C      1.176440   -4.777980   10.500450
  C      2.369230   -4.906400   10.358930
  C      3.758710   -5.052460   10.194670
  C      4.649550   -4.622200   11.083180
  H     15.754220   -5.414880    4.122000
  H     17.773800   -3.905070    2.367070
  H     18.152880   -5.017150    3.778510
  H     13.609230   -2.431560    0.244670
  H     11.618390   -4.066230    1.905510
  H      9.334260    0.973210   -4.905870
  H      7.039530   -0.188730   -4.092450
  H      9.451160   -4.289070    2.035160
  H      7.058330   -3.944860    0.157460
  H      5.299760   -5.413780    0.454720
  H      3.458220   -6.559970    0.012330
  H      1.864330   -9.034630    0.689810
  H      3.617630   -9.115240    0.417360
  H      1.757880   -7.903960   -1.468280
  H      2.449700   -9.392590   -1.642990
  H      1.686280   -5.449810    1.443760
  H      0.839950   -7.004850    1.510020
  H      1.459330   -5.578300   -0.960340
  H     -0.021830   -5.792520   -0.291850
  H      1.443240   -8.810600    2.861350
  H      2.087270  -10.266910    4.810040
  H      3.033320   -9.214230    6.898460
  H      4.958950   -7.809730    6.296470
  H      6.781940   -6.314660    5.137150
  H      8.135160   -4.941880    3.633240
  H     -0.138520   -9.296670    4.843070
  H      1.133080   -7.481180    6.941900
  H     -7.512010   -8.344730    5.700330
  H     -7.270990   -6.679940    7.809360
  H      0.452380   -6.236920    8.578340
  H     -2.144250   -5.223890    9.849400
  H     -1.811960   -3.789490   11.742940
  H     -0.119910   -3.370270   12.332500
  H      4.072160   -5.544710    9.281670
  H      4.345140   -4.130830   11.991410
  H      5.707180   -4.748790   10.928780

 Total Charge           Charge          ....    0
 Multiplicity           Mult            ....    1
 Number of Electrons    NEL             ....  406
 Basis Dimension        Dim             .... 1020

ORBITAL ENERGIES
----------------

  NO   OCC          E(Eh)            E(eV)
   0   2.0000     -19.207297      -522.6571
   1   2.0000     -19.198933      -522.4295
   2   2.0000     -14.404626      -391.9698
   3   2.0000     -14.400010      -391.8442
   4   2.0000     -14.398325      -391.7983
   5   2.0000     -14.391603      -391.6154
   6   2.0000     -14.386560      -391.4782
   7   2.0000     -14.354007      -390.5924
   8   2.0000     -10.367097      -282.1030
   9   2.0000     -10.358921      -281.8806
  10   2.0000     -10.339979      -281.3651
  11   2.0000     -10.333288      -281.1831
  12   2.0000     -10.328262      -281.0463
  13   2.0000     -10.320733      -280.8414
  14   2.0000     -10.318247      -280.7738
  15   2.0000     -10.316018      -280.7131
  16   2.0000     -10.311540      -280.5913
  17   2.0000     -10.309484      -280.5353
  18   2.0000     -10.307941      -280.4933
  19   2.0000     -10.307327      -280.4766
  20   2.0000     -10.306891      -280.4648
  21   2.0000     -10.304419      -280.3975
  22   2.0000     -10.301589      -280.3205
  23   2.0000     -10.300579      -280.2930
  24   2.0000     -10.297710      -280.2149
  25   2.0000     -10.294461      -280.1265
  26   2.0000     -10.292283      -280.0673
  27   2.0000     -10.290942      -280.0308
  28   2.0000     -10.290031      -280.0060
  29   2.0000     -10.287515      -279.9375
  30   2.0000     -10.287296      -279.9316
  31   2.0000     -10.284293      -279.8499
  32   2.0000     -10.284055      -279.8434
  33   2.0000     -10.283526      -279.8290
  34   2.0000     -10.282600      -279.8038
  35   2.0000     -10.280537      -279.7476
  36   2.0000     -10.279417      -279.7172
  37   2.0000     -10.278427      -279.6902
  38   2.0000     -10.278015      -279.6790
  39   2.0000     -10.277948      -279.6772
  40   2.0000     -10.277694      -279.6703
  41   2.0000     -10.276792      -279.6457
  42   2.0000     -10.276055      -279.6257
  43   2.0000     -10.274106      -279.5726
  44   2.0000     -10.273945      -279.5683
  45   2.0000     -10.273868      -279.5662
  46   2.0000     -10.273834      -279.5652
  47   2.0000     -10.272804      -279.5372
  48   2.0000     -10.272470      -279.5281
  49   2.0000     -10.271783      -279.5094
  50   2.0000     -10.269893      -279.4580
  51   2.0000     -10.269643      -279.4512
  52   2.0000     -10.269154      -279.4379
  53   2.0000     -10.267931      -279.4046
  54   2.0000     -10.266813      -279.3742
  55   2.0000     -10.264327      -279.3065
  56   2.0000     -10.264123      -279.3010
  57   2.0000     -10.263551      -279.2854
  58   2.0000     -10.263307      -279.2788
  59   2.0000     -10.261500      -279.2296
  60   2.0000      -1.120953       -30.5027
  61   2.0000      -1.112370       -30.2691
  62   2.0000      -1.073186       -29.2029
  63   2.0000      -1.065769       -29.0011
  64   2.0000      -1.053501       -28.6672
  65   2.0000      -1.045406       -28.4469
  66   2.0000      -0.985681       -26.8217
  67   2.0000      -0.969637       -26.3852
  68   2.0000      -0.951627       -25.8951
  69   2.0000      -0.935842       -25.4656
  70   2.0000      -0.933621       -25.4051
  71   2.0000      -0.930731       -25.3265
  72   2.0000      -0.930330       -25.3156
  73   2.0000      -0.920793       -25.0561
  74   2.0000      -0.911997       -24.8167
  75   2.0000      -0.899551       -24.4780
  76   2.0000      -0.895803       -24.3760
  77   2.0000      -0.891614       -24.2621
  78   2.0000      -0.885883       -24.1061
  79   2.0000      -0.880946       -23.9718
  80   2.0000      -0.868677       -23.6379
  81   2.0000      -0.851702       -23.1760
  82   2.0000      -0.847522       -23.0622
  83   2.0000      -0.842141       -22.9158
  84   2.0000      -0.833578       -22.6828
  85   2.0000      -0.827441       -22.5158
  86   2.0000      -0.824780       -22.4434
  87   2.0000      -0.819095       -22.2887
  88   2.0000      -0.806093       -21.9349
  89   2.0000      -0.800989       -21.7960
  90   2.0000      -0.774048       -21.0629
  91   2.0000      -0.765209       -20.8224
  92   2.0000      -0.756631       -20.5890
  93   2.0000      -0.752291       -20.4709
  94   2.0000      -0.743611       -20.2347
  95   2.0000      -0.728356       -19.8196
  96   2.0000      -0.721237       -19.6258
  97   2.0000      -0.719221       -19.5710
  98   2.0000      -0.713458       -19.4142
  99   2.0000      -0.706154       -19.2154
 100   2.0000      -0.698779       -19.0147
 101   2.0000      -0.698224       -18.9997
 102   2.0000      -0.689337       -18.7578
 103   2.0000      -0.683769       -18.6063
 104   2.0000      -0.666543       -18.1376
 105   2.0000      -0.663532       -18.0556
 106   2.0000      -0.654989       -17.8231
 107   2.0000      -0.649742       -17.6804
 108   2.0000      -0.647975       -17.6323
 109   2.0000      -0.641878       -17.4664
 110   2.0000      -0.635863       -17.3027
 111   2.0000      -0.627930       -17.0868
 112   2.0000      -0.615917       -16.7599
 113   2.0000      -0.610152       -16.6031
 114   2.0000      -0.600389       -16.3374
 115   2.0000      -0.600056       -16.3284
 116   2.0000      -0.598049       -16.2737
 117   2.0000      -0.596726       -16.2377
 118   2.0000      -0.585673       -15.9370
 119   2.0000      -0.584631       -15.9086
 120   2.0000      -0.580463       -15.7952
 121   2.0000      -0.576280       -15.6814
 122   2.0000      -0.571838       -15.5605
 123   2.0000      -0.568566       -15.4715
 124   2.0000      -0.563187       -15.3251
 125   2.0000      -0.558943       -15.2096
 126   2.0000      -0.554709       -15.0944
 127   2.0000      -0.551215       -14.9993
 128   2.0000      -0.546034       -14.8583
 129   2.0000      -0.542520       -14.7627
 130   2.0000      -0.540637       -14.7115
 131   2.0000      -0.539450       -14.6792
 132   2.0000      -0.534576       -14.5466
 133   2.0000      -0.532689       -14.4952
 134   2.0000      -0.529503       -14.4085
 135   2.0000      -0.526907       -14.3379
 136   2.0000      -0.526325       -14.3220
 137   2.0000      -0.522513       -14.2183
 138   2.0000      -0.519320       -14.1314
 139   2.0000      -0.514076       -13.9887
 140   2.0000      -0.512397       -13.9430
 141   2.0000      -0.511306       -13.9133
 142   2.0000      -0.509779       -13.8718
 143   2.0000      -0.505791       -13.7633
 144   2.0000      -0.497965       -13.5503
 145   2.0000      -0.497590       -13.5401
 146   2.0000      -0.495970       -13.4960
 147   2.0000      -0.488872       -13.3029
 148   2.0000      -0.485937       -13.2230
 149   2.0000      -0.485753       -13.2180
 150   2.0000      -0.482348       -13.1253
 151   2.0000      -0.479616       -13.0510
 152   2.0000      -0.474065       -12.9000
 153   2.0000      -0.471150       -12.8206
 154   2.0000      -0.468752       -12.7554
 155   2.0000      -0.467034       -12.7087
 156   2.0000      -0.466056       -12.6820
 157   2.0000      -0.464758       -12.6467
 158   2.0000      -0.464614       -12.6428
 159   2.0000      -0.461254       -12.5514
 160   2.0000      -0.460287       -12.5250
 161   2.0000      -0.455700       -12.4002
 162   2.0000      -0.454694       -12.3729
 163   2.0000      -0.451818       -12.2946
 164   2.0000      -0.450060       -12.2467
 165   2.0000      -0.447918       -12.1885
 166   2.0000      -0.444842       -12.1048
 167   2.0000      -0.441833       -12.0229
 168   2.0000      -0.436284       -11.8719
 169   2.0000      -0.434077       -11.8118
 170   2.0000      -0.432149       -11.7594
 171   2.0000      -0.423260       -11.5175
 172   2.0000      -0.410049       -11.1580
 173   2.0000      -0.407411       -11.0862
 174   2.0000      -0.405882       -11.0446
 175   2.0000      -0.396151       -10.7798
 176   2.0000      -0.393405       -10.7051
 177   2.0000      -0.389533       -10.5997
 178   2.0000      -0.382822       -10.4171
 179   2.0000      -0.381422       -10.3790
 180   2.0000      -0.369748       -10.0613
 181   2.0000      -0.368263       -10.0209
 182   2.0000      -0.358366        -9.7516
 183   2.0000      -0.357040        -9.7156
 184   2.0000      -0.348902        -9.4941
 185   2.0000      -0.343015        -9.3339
 186   2.0000      -0.341361        -9.2889
 187   2.0000      -0.340476        -9.2648
 188   2.0000      -0.335711        -9.1351
 189   2.0000      -0.333864        -9.0849
 190   2.0000      -0.329173        -8.9572
 191   2.0000      -0.325385        -8.8542
 192   2.0000      -0.323317        -8.7979
 193   2.0000      -0.318175        -8.6580
 194   2.0000      -0.317330        -8.6350
 195   2.0000      -0.309240        -8.4149
 196   2.0000      -0.305502        -8.3131
 197   2.0000      -0.298194        -8.1143
 198   2.0000      -0.282343        -7.6830
 199   2.0000      -0.280229        -7.6254
 200   2.0000      -0.271581        -7.3901
 201   2.0000      -0.266902        -7.2628
 202   2.0000      -0.222417        -6.0523
 203   0.0000      -0.109367        -2.9760
 204   0.0000      -0.107523        -2.9259
 205   0.0000      -0.071683        -1.9506
 206   0.0000      -0.047559        -1.2941
 207   0.0000      -0.037124        -1.0102

MULLIKEN ATOMIC CHARGES
-----------------------
   0 C :   -0.094405
   1 C :    0.017669
   2 C :   -0.017353
   3 C :    0.076682
   4 C :   -0.018647
   5 C :   -0.037483
   6 C :    0.030403
   7 N :   -0.053033
   8 C :    0.065013
   9 C :   -0.173736
  10 C :    0.215855
  11 O :   -0.152701
  12 C :   -0.011051
  13 C :   -0.032663
  14 N :   -0.058216
  15 C :    0.082919
  16 C :   -0.101452
  17 C :    0.069516
  18 C :   -0.038255
  19 C :    0.009215
  20 C :    0.108336
  21 C :   -0.094432
  22 C :    0.059989
  23 C :   -0.018820
  24 C :   -0.065542
  25 C :    0.156177
  26 N :   -0.221557
  27 C :    0.139750
  28 N :   -0.218090
  29 C :    0.097017
  30 C :   -0.131290
  31 C :    0.184134
  32 C :   -0.058253
  33 C :    0.017094
  34 C :    0.001105
  35 C :    0.041848
  36 C :   -0.001060
  37 C :   -0.004998
  38 C :   -0.051447
  39 C :   -0.013727
  40 C :    0.040639
  41 N :   -0.042533
  42 C :    0.061828
  43 C :   -0.163891
  44 C :    0.217716
  45 O :   -0.146687
  46 C :   -0.013206
  47 C :   -0.037174
  48 N :   -0.055494
  49 C :    0.085544
  50 C :   -0.096408
  51 C :    0.069526
  52 C :   -0.017464
  53 C :    0.015591
  54 C :   -0.022626
  55 C :    0.000478
  56 C :    0.052044
  57 C :   -0.075527
  58 C :   -0.090570
  59 C :    0.007684
  60 H :    0.036714
  61 H :    0.041533
  62 H :    0.038911
  63 H :    0.059642
  64 H :    0.001174
  65 H :    0.003479
  66 H :   -0.012400
  67 H :   -0.034044
  68 H :    0.004103
  69 H :   -0.020520
  70 H :   -0.020973
  71 H :   -0.032720
  72 H :   -0.002069
  73 H :    0.080247
  74 H :    0.081366
  75 H :   -0.000310
  76 H :   -0.013963
  77 H :    0.105181
  78 H :    0.098693
  79 H :    0.000848
  80 H :    0.051134
  81 H :   -0.007843
  82 H :   -0.037200
  83 H :   -0.041768
  84 H :   -0.031805
  85 H :    0.034767
  86 H :    0.003301
  87 H :    0.005473
  88 H :   -0.008659
  89 H :   -0.019934
  90 H :   -0.006708
  91 H :    0.035229
  92 H :    0.028538
  93 H :    0.024711
  94 H :    0.031503
  95 H :    0.030392
Sum of atomic charges:   -0.0000000

LOEWDIN ATOMIC CHARGES
----------------------
   0 C :   -0.045948
   1 C :    0.011579
   2 C :   -0.006103
   3 C :   -0.040593
   4 C :    0.041625
   5 C :   -0.033187
   6 C :    0.069706
   7 N :   -0.108531
   8 C :    0.050226
   9 C :   -0.061014
  10 C :    0.068873
  11 O :   -0.152148
  12 C :   -0.042154
  13 C :    0.011486
  14 N :   -0.100054
  15 C :    0.062915
  16 C :   -0.041711
  17 C :   -0.017187
  18 C :   -0.056378
  19 C :    0.032138
  20 C :   -0.033453
  21 C :    0.008659
  22 C :   -0.023024
  23 C :   -0.018024
  24 C :   -0.040738
  25 C :    0.031117
  26 N :   -0.127189
  27 C :    0.026950
  28 N :   -0.103768
  29 C :   -0.013410
  30 C :    0.067268
  31 C :   -0.032387
  32 C :   -0.043920
  33 C :   -0.012544
  34 C :   -0.042118
  35 C :   -0.025054
  36 C :   -0.011991
  37 C :   -0.020669
  38 C :    0.073951
  39 C :   -0.058108
  40 C :    0.079087
  41 N :   -0.109533
  42 C :    0.050024
  43 C :   -0.051414
  44 C :    0.069144
  45 O :   -0.146521
  46 C :   -0.039990
  47 C :    0.014994
  48 N :   -0.098784
  49 C :    0.067904
  50 C :   -0.038979
  51 C :   -0.020436
  52 C :   -0.041273
  53 C :    0.032172
  54 C :   -0.047697
  55 C :    0.008252
  56 C :   -0.025820
  57 C :   -0.039039
  58 C :   -0.043837
  59 C :   -0.010441
  60 H :    0.045046
  61 H :    0.033662
  62 H :    0.030961
  63 H :    0.056262
  64 H :    0.034701
  65 H :    0.020694
  66 H :    0.031412
  67 H :    0.020891
  68 H :    0.034176
  69 H :    0.032119
  70 H :    0.027232
  71 H :   -0.006870
  72 H :    0.017084
  73 H :    0.035557
  74 H :    0.049571
  75 H :    0.005157
  76 H :    0.012956
  77 H :    0.058581
  78 H :    0.058566
  79 H :    0.027622
  80 H :    0.068494
  81 H :    0.024940
  82 H :    0.029533
  83 H :    0.025512
  84 H :    0.024025
  85 H :    0.038044
  86 H :    0.032684
  87 H :    0.021968
  88 H :    0.032973
  89 H :    0.029903
  90 H :    0.033606
  91 H :    0.031478
  92 H :    0.030750
  93 H :    0.040601
  94 H :    0.029885
  95 H :    0.027323

  Mayer bond orders larger than 0.100000
B(  0-C ,  1-C ) :   1.9241 B(  0-C ,  2-C ) :   1.0176 B(  0-C , 60-H ) :   0.9613
B(  1-C , 61-H ) :   0.9633 B(  1-C , 62-H ) :   0.9558 B(  2-C ,  3-C ) :   2.2917
B(  3-C ,  4-C ) :   0.9525 B(  4-C ,  5-C ) :   1.6792 B(  4-C , 63-H ) :   0.9579
B(  5-C ,  6-C ) :   1.1494 B(  5-C , 64-H ) :   0.9655 B(  6-C ,  7-N ) :   1.5839
B(  6-C ,  8-C ) :   0.1067 B(  6-C , 17-C ) :   0.9930 B(  7-N ,  8-C ) :   1.3613
B(  8-C ,  9-C ) :   1.0567 B(  8-C , 13-C ) :   1.4021 B(  9-C , 10-C ) :   0.9045
B(  9-C , 17-C ) :   1.5424 B( 10-C , 11-O ) :   2.1742 B( 10-C , 12-C ) :   0.9351
B( 11-O , 68-H ) :   0.1065 B( 12-C , 13-C ) :   1.0783 B( 12-C , 16-C ) :   1.5882
B( 13-C , 14-N ) :   1.3187 B( 14-N , 15-C ) :   1.6485 B( 15-C , 16-C ) :   1.0807
B( 15-C , 65-H ) :   0.9896 B( 16-C , 66-H ) :   1.0113 B( 17-C , 18-C ) :   1.1322
B( 18-C , 19-C ) :   1.6405 B( 18-C , 67-H ) :   0.9591 B( 19-C , 20-C ) :   1.0751
B( 19-C , 68-H ) :   0.9657 B( 20-C , 21-C ) :   1.4954 B( 20-C , 37-C ) :   1.1199
B( 21-C , 22-C ) :   1.1201 B( 21-C , 69-H ) :   1.0077 B( 22-C , 23-C ) :   1.4967
B( 22-C , 35-C ) :   1.1097 B( 23-C , 24-C ) :   1.0324 B( 23-C , 29-C ) :   1.0853
B( 24-C , 25-C ) :   1.0226 B( 24-C , 27-C ) :   1.0439 B( 24-C , 70-H ) :   0.8796
B( 25-C , 26-N ) :   1.1124 B( 25-C , 71-H ) :   0.9221 B( 25-C , 72-H ) :   0.9472
B( 26-N , 73-H ) :   0.9434 B( 26-N , 74-H ) :   0.9668 B( 27-C , 28-N ) :   1.0832
B( 27-C , 75-H ) :   0.9470 B( 27-C , 76-H ) :   0.9324 B( 28-N , 73-H ) :   0.1005
B( 28-N , 77-H ) :   0.9623 B( 28-N , 78-H ) :   0.9669 B( 29-C , 30-C ) :   1.6902
B( 29-C , 34-C ) :   1.0423 B( 30-C , 31-C ) :   0.9558 B( 30-C , 79-H ) :   0.9558
B( 31-C , 32-C ) :   1.0043 B( 31-C , 38-C ) :   0.9335 B( 31-C , 80-H ) :   0.8430
B( 32-C , 33-C ) :   1.7142 B( 32-C , 81-H ) :   0.9666 B( 33-C , 34-C ) :   1.1312
B( 33-C , 82-H ) :   0.9909 B( 34-C , 35-C ) :   1.4483 B( 35-C , 36-C ) :   1.1364
B( 36-C , 37-C ) :   1.6229 B( 36-C , 83-H ) :   0.9893 B( 37-C , 84-H ) :   0.9819
B( 38-C , 39-C ) :   1.8090 B( 38-C , 85-H ) :   0.9646 B( 39-C , 40-C ) :   1.0993
B( 39-C , 86-H ) :   0.9469 B( 40-C , 41-N ) :   1.6064 B( 40-C , 42-C ) :   0.1110
B( 40-C , 51-C ) :   1.0010 B( 41-N , 42-C ) :   1.3508 B( 42-C , 43-C ) :   1.0542
B( 42-C , 47-C ) :   1.4229 B( 43-C , 44-C ) :   0.8977 B( 43-C , 51-C ) :   1.5592
B( 44-C , 45-O ) :   2.1816 B( 44-C , 46-C ) :   0.9335 B( 45-O , 90-H ) :   0.1024
B( 46-C , 47-C ) :   1.0717 B( 46-C , 50-C ) :   1.5972 B( 47-C , 48-N ) :   1.3125
B( 48-N , 49-C ) :   1.6549 B( 49-C , 50-C ) :   1.0766 B( 49-C , 87-H ) :   0.9896
B( 50-C , 88-H ) :   1.0110 B( 51-C , 52-C ) :   1.1068 B( 52-C , 53-C ) :   1.6891
B( 52-C , 89-H ) :   0.9534 B( 53-C , 54-C ) :   1.0711 B( 53-C , 90-H ) :   0.9716
B( 54-C , 55-C ) :   1.8744 B( 54-C , 56-C ) :   0.8537 B( 55-C , 91-H ) :   0.9457
B( 55-C , 92-H ) :   0.9485 B( 56-C , 57-C ) :   2.4195 B( 57-C , 58-C ) :   1.0025
B( 58-C , 59-C ) :   1.9489 B( 58-C , 93-H ) :   0.9605 B( 59-C , 94-H ) :   0.9627
B( 59-C , 95-H ) :   0.9548

-----------------------------------------------------------------------------
         ABSORPTION SPECTRUM VIA TRANSITION ELECTRIC DIPOLE MOMENTS
-----------------------------------------------------------------------------
State   Energy  Wavelength   fosc         T2         TX        TY        TZ
        (cm-1)    (nm)                  (au**2)     (au)      (au)      (au)
-----------------------------------------------------------------------------
   0   11216.2    891.6   0.079725530   2.34006   1.32198   0.60385  -0.47729
   1   12197.7    819.8   0.046442742   1.25348   0.32313   0.85289  -0.64934
   2   15065.8    663.8   0.067633387   1.47790   0.10256   0.24961  -1.18536
   3   17915.2    558.2   0.077500184   1.42415  -0.96805  -0.42507  -0.55348
   4   18727.2    534.0   0.004364179   0.07672  -0.16676  -0.20727   0.07714
   5   21635.3    462.2   0.017814674   0.27108   0.37163  -0.25149   0.26404
   6   21881.7    457.0   0.929248760  13.98064   2.84047  -1.26844   2.07448
   7   22279.0    448.9   0.000571582   0.00845   0.03402   0.06442  -0.05603
   8   24024.5    416.2   0.334279098   4.58068   1.92983   0.75566  -0.53425
   9   24584.5    406.8   0.644254344   8.62722   1.31022   1.72304  -1.98537
  10   25044.6    399.3   0.179089032   2.35413  -1.47184   0.14371  -0.40888
  11   25109.9    398.2   0.023870792   0.31297  -0.01436   0.39669  -0.39420
  12   25304.3    395.2   0.012063127   0.15694   0.12475   0.05516   0.37194
  13   25469.5    392.6   0.001664515   0.02152  -0.00051  -0.07897   0.12361
  14   26204.3    381.6   0.344479351   4.32779   1.72762   0.85327  -0.78425
  15   26219.9    381.4   0.252928768   3.17572  -1.42442  -0.59981   0.88712
  16   26300.7    380.2   0.048608610   0.60845  -0.65655  -0.41308  -0.08218
  17   26660.5    375.1   0.030827987   0.38067   0.48737  -0.20221  -0.31978
  18   26978.8    370.7   0.103426567   1.26207  -1.06992   0.31652   0.13099
  19   27093.6    369.1   0.052216853   0.63448  -0.62291   0.42943  -0.24913
  20   27189.1    367.8   0.090059690   1.09046   0.53630  -0.81556   0.37109
  21   27897.7    358.5   0.001477786   0.01744  -0.01527  -0.11864   0.05594
  22   28398.9    352.1   0.004920987   0.05705   0.19816   0.07192   0.11228
  23   29138.2    343.2   0.003576677   0.04041   0.00415  -0.05325  -0.19380
  24   29762.2    336.0   0.148655025   1.64434  -1.04130  -0.62471   0.41203
  25   30255.8    330.5   0.019386805   0.21095  -0.00238  -0.41976   0.18639
  26   30430.0    328.6   0.554582820   5.99984  -1.95774  -0.90013  -1.16485
  27   30603.2    326.8   0.012964270   0.13946  -0.31476  -0.01142  -0.20064
  28   30988.8    322.7   0.049106400   0.52169  -0.68705  -0.16152   0.15347
  29   31076.8    321.8   0.015544656   0.16467  -0.39213  -0.05584   0.08826
  30   31231.3    320.2   0.000458932   0.00484  -0.04422  -0.02310  -0.04846
  31   31695.9    315.5   0.009885203   0.10267  -0.14045  -0.15291  -0.24406
  32   32197.3    310.6   0.105284502   1.07652   1.01113  -0.00142  -0.23265
  33   32323.8    309.4   0.012923917   0.13163  -0.32464   0.03160  -0.15887
  34   32659.9    306.2   0.144681298   1.45839   0.68634  -0.40032   0.90943
  35   32994.4    303.1   0.005195105   0.05184   0.19129   0.12320  -0.00814
  36   33195.7    301.2   0.026990795   0.26768  -0.46584   0.01357  -0.22469
  37   33531.2    298.2   0.017361753   0.17046  -0.33526   0.23898  -0.03087
  38   33800.6    295.9   0.020391655   0.19861   0.05026  -0.32616   0.29950
  39   34363.1    291.0   0.385078880   3.68921  -0.09005  -1.03367   1.61637
  40   34475.9    290.1   0.037149118   0.35474  -0.38708  -0.22218   0.39439
  41   34822.2    287.2   0.018279866   0.17282   0.22707   0.09020  -0.33634
  42   35087.7    285.0   0.035676021   0.33473  -0.57164   0.06926   0.05627
  43   35415.0    282.4   0.040440860   0.37593   0.04458  -0.51506   0.32963
  44   35428.0    282.3   0.007700953   0.07156   0.18541   0.18356  -0.05907
  45   35840.3    279.0   0.075425364   0.69282  -0.64226  -0.23998   0.47194
  46   36211.5    276.2   0.039169757   0.35611  -0.59556   0.02410   0.02884
  47   36515.9    273.9   0.144668791   1.30427  -1.13488   0.04101  -0.12100
  48   36796.5    271.8   0.151201925   1.35278   1.05258   0.47707  -0.13137
  49   37031.1    270.0   0.013914634   0.12370   0.13701  -0.15690  -0.28340
  50   37540.0    266.4   0.167057495   1.46503  -1.04912   0.37756  -0.47099
  51   37594.8    266.0   0.132896879   1.16376   1.03623  -0.05823   0.29426
  52   37895.9    263.9   0.021670400   0.18826  -0.40624  -0.14192   0.05557
  53   37987.8    263.2   0.043716744   0.37886  -0.58118  -0.20198   0.01717
  54   38104.6    262.4   0.002455156   0.02121   0.05876   0.11293   0.07075
  55   38944.5    256.8   0.029966139   0.25331   0.48167   0.12392   0.07714
  56   39087.6    255.8   0.183853688   1.54849  -1.11693  -0.37591  -0.39956
  57   39347.4    254.1   0.043251344   0.36188  -0.43155  -0.08881   0.40958
  58   39581.0    252.6   0.057139735   0.47526  -0.38351   0.29577   0.49061
  59   40317.4    248.0   0.043180675   0.35259   0.42431   0.03106  -0.41423

FINAL SINGLE POINT ENERGY     -2478.563896483151

DIPOLE MOMENT
-------------
                                X             Y             Z
Electronic contribution:     -5.92883      14.99567      -2.73864
Nuclear contribution   :      6.70065     -15.95549       4.31169
                        -----------------------------------------
Total Dipole Moment    :      0.77182      -0.95983       1.57305
                        -----------------------------------------
Magnitude (a.u.)       :      1.99787
Magnitude (Debye)      :      5.07817

Rotational constants in cm-1:     0.001804     0.000438     0.000395
Rotational constants in MHz :    54.081720    13.137485    11.838719

                             ****ORCA TERMINATED NORMALLY****
TOTAL RUN TIME: 0 days 0 hours 7 minutes 15 seconds 912 msec
