                         Program Version 4.2.0 -  RELEASE  -
|  1> # ORCA input file
|  2> # SCF done       -212.579364765182          0.000463895035
|  3> ! CAM-B3LYP def2-SVP def2/J RIJCOSX Grid4 TightSCF
|  4> %maxcore 5000
|  5> %tddft
|  6>     Mode sTDDFT
|  7>     Ethresh 5.0
|  8>     maxcore 5000
|  9> end
| 10>
| 11> %pal
| 12>   nprocs 6
| 13>   end
| 14> * xyz 0 1
| 15>    C       -4.87051         3.44272        -0.83560
| 16>    C       -4.15309         4.56978        -1.19669
| 17>    O       -3.54213         5.42943        -0.32948
| 18>    C       -3.82110         5.29524         1.04410
| 19>    C       -3.99686         4.85998        -2.56385
| 20>    C       -4.53817         4.02324        -3.51948
| 21>    C       -5.26669         2.89344        -3.14877
| 22>    C       -5.42789         2.61436        -1.79897
| 23>    O       -5.77395         2.15164        -4.17150
| 24>    C       -6.53204         1.00917        -3.85652
| 25>    C       -3.26045         6.07028        -2.94474
| 26>    C       -2.09986         6.03478        -3.71352
| 27>    C       -1.37365         4.86963        -4.27676
| 28>    O       -1.62956         3.69748        -4.18074
| 29>    N       -0.26962         5.40848        -4.94970
| 30>    C       -0.20683         6.80347        -4.84048
| 31>    O        0.65472         7.49209        -5.32190
| 32>    C       -1.38232         7.19421        -4.03407
| 33>    C       -1.76695         8.44492        -3.59366
| 34>    C       -2.92758         8.49328        -2.82835
| 35>    C       -3.66664         7.34782        -2.52523
| 36>    C       -4.90432         7.61343        -1.77178
| 37>    O       -5.78854         6.86638        -1.48107
| 38>    S       -4.96132         9.37080        -1.35672
| 39>    C       -3.46300         9.74693        -2.26816
| 40>    O       -3.00845        10.84682        -2.37184
| 41>    C        0.71584         4.72286        -5.65654
| 42>    C        0.74608         3.40344        -5.87154
| 43>    C        1.77436         2.69349        -6.60151
| 44>    C        1.65316         1.32631        -6.74181
| 45>    C        2.63637         0.58760        -7.42432
| 46>    C        2.75302        -0.77837        -7.67672
| 47>    C        1.77695        -1.83522        -7.29049
| 48>    C        1.45241        -2.80568        -8.45578
| 49>    N        2.33478        -3.95605        -8.48577
| 50>    C        2.27392        -2.59394        -6.04493
| 51>    N        1.32910        -3.63817        -5.68008
| 52>    C        3.98945        -0.96207        -8.39719
| 53>    C        4.58782        -2.08266        -8.84886
| 54>    C        5.86527        -2.01343        -9.61317
| 55>    C        6.41743        -0.63927        -9.80030
| 56>    C        5.82257         0.46244        -9.30190
| 57>    C        4.60628         0.35198        -8.58971
| 58>    C        3.77878         1.28735        -7.98491
| 59>    C        3.87556         2.68606        -7.84058
| 60>    C        2.90360         3.36137        -7.16907
| 61>    C        5.61772        -2.73979       -10.91477
| 62>    C        5.41337        -2.11176       -12.06716
| 63>    C        5.23465        -2.77288       -13.35051
| 64>    C        5.93092        -2.29278       -14.46201
| 65>    C        6.83786        -1.12447       -14.56179
| 66>    O        7.15870        -0.35357       -13.68758
| 67>    N        7.26331        -1.08702       -15.88697
| 68>    C        6.73404        -2.14053       -16.64438
| 69>    O        6.96105        -2.33718       -17.80986
| 70>    C        5.87449        -2.90784       -15.71724
| 71>    C        5.11436        -4.03870       -15.93898
| 72>    C        4.37766        -4.50483       -14.85544
| 73>    C        4.41355        -3.89252       -13.59300
| 74>    C        3.46410        -4.47097       -12.63507
| 75>    O        3.18297        -4.11038       -11.52618
| 76>    S        2.64443        -5.88634       -13.39340
| 77>    C        3.48814        -5.66861       -14.96328
| 78>    O        3.31526        -6.37891       -15.90899
| 79>    C        8.11590        -0.15712       -16.49104
| 80>    C        8.60891         0.92899       -15.88955
| 81>    C        9.48105         1.93232       -16.46806
| 82>    C       10.03877         1.87170       -17.76144
| 83>    O        9.74593         0.78490       -18.53014
| 84>    C       10.29661         0.68744       -19.82153
| 85>    C       10.86087         2.90879       -18.19189
| 86>    C       11.13537         3.99116       -17.38214
| 87>    C       10.59347         4.06786       -16.10098
| 88>    C        9.77896         3.03744       -15.66290
| 89>    O       10.92107         5.17604       -15.37477
| 90>    C       10.39366         5.30566       -14.07768
| 91>    H       -5.01522         3.19247         0.20305
| 92>    H       -3.31245         6.12679         1.52980
| 93>    H       -3.43279         4.35308         1.44380
| 94>    H       -4.89568         5.36363         1.23712
| 95>    H       -4.42558         4.24381        -4.56854
| 96>    H       -5.98761         1.75325        -1.47044
| 97>    H       -6.83558         0.58479        -4.81224
| 98>    H       -7.42420         1.26583        -3.27612
| 99>    H       -5.93917         0.27131        -3.30616
|100>    H       -1.20571         9.33706        -3.82126
|101>    H        1.46834         5.40615        -6.02572
|102>    H       -0.04882         2.79004        -5.47371
|103>    H        0.79818         0.82072        -6.31619
|104>    H        0.84042        -1.33609        -7.01794
|105>    H        1.56287        -2.26567        -9.39970
|106>    H        0.39711        -3.09938        -8.35544
|107>    H        2.26096        -4.42773        -9.37962
|108>    H        2.07845        -4.59647        -7.74217
|109>    H        2.44234        -1.85595        -5.24217
|110>    H        3.22964        -3.06911        -6.27390
|111>    H        0.43453        -3.22895        -5.42862
|112>    H        1.66887        -4.15203        -4.87431
|113>    H        4.11897        -3.05153        -8.71717
|114>    H        6.61219        -2.60659        -9.06131
|115>    H        7.33415        -0.57098       -10.36603
|116>    H        6.26047         1.43913        -9.44801
|117>    H        4.72197         3.20940        -8.26039
|118>    H        2.98418         4.43064        -7.05828
|119>    H        5.59072        -3.81740       -10.84892
|120>    H        5.49433        -1.03442       -12.11591
|121>    H        5.07247        -4.53154       -16.89692
|122>    H        8.31948        -0.41283       -17.51811
|123>    H        8.34020         1.11380       -14.85942
|124>    H        9.97098         1.51225       -20.46315
|125>    H        9.91954        -0.25116       -20.22562
|126>    H       11.39041         0.65484       -19.79336
|127>    H       11.29950         2.88270       -19.17623
|128>    H       11.77146         4.79019       -17.72689
|129>    H        9.34459         3.06509       -14.67595
|130>    H       10.77752         6.25108       -13.69742
|131>    H       10.72591         4.49211       -13.42442
|132>    H        9.29926         5.33887       -14.08929
|133> *
|134>
|135>                          ****END OF INPUT****

CARTESIAN COORDINATES (ANGSTROEM)
---------------------------------
  C     -4.870510    3.442720   -0.835600
  C     -4.153090    4.569780   -1.196690
  O     -3.542130    5.429430   -0.329480
  C     -3.821100    5.295240    1.044100
  C     -3.996860    4.859980   -2.563850
  C     -4.538170    4.023240   -3.519480
  C     -5.266690    2.893440   -3.148770
  C     -5.427890    2.614360   -1.798970
  O     -5.773950    2.151640   -4.171500
  C     -6.532040    1.009170   -3.856520
  C     -3.260450    6.070280   -2.944740
  C     -2.099860    6.034780   -3.713520
  C     -1.373650    4.869630   -4.276760
  O     -1.629560    3.697480   -4.180740
  N     -0.269620    5.408480   -4.949700
  C     -0.206830    6.803470   -4.840480
  O      0.654720    7.492090   -5.321900
  C     -1.382320    7.194210   -4.034070
  C     -1.766950    8.444920   -3.593660
  C     -2.927580    8.493280   -2.828350
  C     -3.666640    7.347820   -2.525230
  C     -4.904320    7.613430   -1.771780
  O     -5.788540    6.866380   -1.481070
  S     -4.961320    9.370800   -1.356720
  C     -3.463000    9.746930   -2.268160
  O     -3.008450   10.846820   -2.371840
  C      0.715840    4.722860   -5.656540
  C      0.746080    3.403440   -5.871540
  C      1.774360    2.693490   -6.601510
  C      1.653160    1.326310   -6.741810
  C      2.636370    0.587600   -7.424320
  C      2.753020   -0.778370   -7.676720
  C      1.776950   -1.835220   -7.290490
  C      1.452410   -2.805680   -8.455780
  N      2.334780   -3.956050   -8.485770
  C      2.273920   -2.593940   -6.044930
  N      1.329100   -3.638170   -5.680080
  C      3.989450   -0.962070   -8.397190
  C      4.587820   -2.082660   -8.848860
  C      5.865270   -2.013430   -9.613170
  C      6.417430   -0.639270   -9.800300
  C      5.822570    0.462440   -9.301900
  C      4.606280    0.351980   -8.589710
  C      3.778780    1.287350   -7.984910
  C      3.875560    2.686060   -7.840580
  C      2.903600    3.361370   -7.169070
  C      5.617720   -2.739790  -10.914770
  C      5.413370   -2.111760  -12.067160
  C      5.234650   -2.772880  -13.350510
  C      5.930920   -2.292780  -14.462010
  C      6.837860   -1.124470  -14.561790
  O      7.158700   -0.353570  -13.687580
  N      7.263310   -1.087020  -15.886970
  C      6.734040   -2.140530  -16.644380
  O      6.961050   -2.337180  -17.809860
  C      5.874490   -2.907840  -15.717240
  C      5.114360   -4.038700  -15.938980
  C      4.377660   -4.504830  -14.855440
  C      4.413550   -3.892520  -13.593000
  C      3.464100   -4.470970  -12.635070
  O      3.182970   -4.110380  -11.526180
  S      2.644430   -5.886340  -13.393400
  C      3.488140   -5.668610  -14.963280
  O      3.315260   -6.378910  -15.908990
  C      8.115900   -0.157120  -16.491040
  C      8.608910    0.928990  -15.889550
  C      9.481050    1.932320  -16.468060
  C     10.038770    1.871700  -17.761440
  O      9.745930    0.784900  -18.530140
  C     10.296610    0.687440  -19.821530
  C     10.860870    2.908790  -18.191890
  C     11.135370    3.991160  -17.382140
  C     10.593470    4.067860  -16.100980
  C      9.778960    3.037440  -15.662900
  O     10.921070    5.176040  -15.374770
  C     10.393660    5.305660  -14.077680
  H     -5.015220    3.192470    0.203050
  H     -3.312450    6.126790    1.529800
  H     -3.432790    4.353080    1.443800
  H     -4.895680    5.363630    1.237120
  H     -4.425580    4.243810   -4.568540
  H     -5.987610    1.753250   -1.470440
  H     -6.835580    0.584790   -4.812240
  H     -7.424200    1.265830   -3.276120
  H     -5.939170    0.271310   -3.306160
  H     -1.205710    9.337060   -3.821260
  H      1.468340    5.406150   -6.025720
  H     -0.048820    2.790040   -5.473710
  H      0.798180    0.820720   -6.316190
  H      0.840420   -1.336090   -7.017940
  H      1.562870   -2.265670   -9.399700
  H      0.397110   -3.099380   -8.355440
  H      2.260960   -4.427730   -9.379620
  H      2.078450   -4.596470   -7.742170
  H      2.442340   -1.855950   -5.242170
  H      3.229640   -3.069110   -6.273900
  H      0.434530   -3.228950   -5.428620
  H      1.668870   -4.152030   -4.874310
  H      4.118970   -3.051530   -8.717170
  H      6.612190   -2.606590   -9.061310
  H      7.334150   -0.570980  -10.366030
  H      6.260470    1.439130   -9.448010
  H      4.721970    3.209400   -8.260390
  H      2.984180    4.430640   -7.058280
  H      5.590720   -3.817400  -10.848920
  H      5.494330   -1.034420  -12.115910
  H      5.072470   -4.531540  -16.896920
  H      8.319480   -0.412830  -17.518110
  H      8.340200    1.113800  -14.859420
  H      9.970980    1.512250  -20.463150
  H      9.919540   -0.251160  -20.225620
  H     11.390410    0.654840  -19.793360
  H     11.299500    2.882700  -19.176230
  H     11.771460    4.790190  -17.726890
  H      9.344590    3.065090  -14.675950
  H     10.777520    6.251080  -13.697420
  H     10.725910    4.492110  -13.424420
  H      9.299260    5.338870  -14.089290

 Total Charge           Charge          ....    0
 Multiplicity           Mult            ....    1
 Number of Electrons    NEL             ....  546
 Basis Dimension        Dim             .... 1282

ORBITAL ENERGIES
----------------

  NO   OCC          E(Eh)            E(eV)
   0   2.0000     -88.953707     -2420.5534
   1   2.0000     -88.943166     -2420.2666
   2   2.0000     -19.248338      -523.7739
   3   2.0000     -19.246282      -523.7179
   4   2.0000     -19.243897      -523.6531
   5   2.0000     -19.241041      -523.5754
   6   2.0000     -19.236890      -523.4624
   7   2.0000     -19.235415      -523.4223
   8   2.0000     -19.233794      -523.3782
   9   2.0000     -19.231346      -523.3115
  10   2.0000     -19.230490      -523.2882
  11   2.0000     -19.229787      -523.2691
  12   2.0000     -19.224443      -523.1237
  13   2.0000     -19.221775      -523.0511
  14   2.0000     -14.478093      -393.9689
  15   2.0000     -14.472149      -393.8072
  16   2.0000     -14.379968      -391.2988
  17   2.0000     -14.363190      -390.8423
  18   2.0000     -10.411860      -283.3211
  19   2.0000     -10.410402      -283.2814
  20   2.0000     -10.409383      -283.2537
  21   2.0000     -10.407241      -283.1954
  22   2.0000     -10.403375      -283.0902
  23   2.0000     -10.402419      -283.0642
  24   2.0000     -10.398579      -282.9597
  25   2.0000     -10.398304      -282.9522
  26   2.0000     -10.334241      -281.2090
  27   2.0000     -10.328567      -281.0546
  28   2.0000     -10.328223      -281.0452
  29   2.0000     -10.324744      -280.9506
  30   2.0000     -10.324694      -280.9492
  31   2.0000     -10.323739      -280.9232
  32   2.0000     -10.321801      -280.8705
  33   2.0000     -10.320917      -280.8464
  34   2.0000     -10.320785      -280.8428
  35   2.0000     -10.319757      -280.8149
  36   2.0000     -10.319741      -280.8144
  37   2.0000     -10.319733      -280.8142
  38   2.0000     -10.318278      -280.7746
  39   2.0000     -10.317747      -280.7602
  40   2.0000     -10.316528      -280.7270
  41   2.0000     -10.315449      -280.6976
  42   2.0000     -10.315017      -280.6859
  43   2.0000     -10.314285      -280.6660
  44   2.0000     -10.313810      -280.6530
  45   2.0000     -10.313215      -280.6368
  46   2.0000     -10.300112      -280.2803
  47   2.0000     -10.299599      -280.2663
  48   2.0000     -10.290095      -280.0077
  49   2.0000     -10.283268      -279.8219
  50   2.0000     -10.279514      -279.7198
  51   2.0000     -10.276123      -279.6275
  52   2.0000     -10.273944      -279.5682
  53   2.0000     -10.272440      -279.5273
  54   2.0000     -10.272344      -279.5247
  55   2.0000     -10.267419      -279.3907
  56   2.0000     -10.267085      -279.3816
  57   2.0000     -10.266845      -279.3751
  58   2.0000     -10.266745      -279.3723
  59   2.0000     -10.264152      -279.3018
  60   2.0000     -10.263807      -279.2924
  61   2.0000     -10.262152      -279.2474
  62   2.0000     -10.261089      -279.2184
  63   2.0000     -10.259331      -279.1706
  64   2.0000     -10.259289      -279.1694
  65   2.0000     -10.258193      -279.1396
  66   2.0000     -10.254778      -279.0467
  67   2.0000     -10.253881      -279.0223
  68   2.0000     -10.253585      -279.0142
  69   2.0000     -10.252398      -278.9819
  70   2.0000     -10.251603      -278.9603
  71   2.0000     -10.251520      -278.9580
  72   2.0000     -10.245174      -278.7854
  73   2.0000     -10.244767      -278.7743
  74   2.0000     -10.244330      -278.7624
  75   2.0000     -10.242735      -278.7190
  76   2.0000      -8.053031      -219.1341
  77   2.0000      -8.042397      -218.8448
  78   2.0000      -6.021883      -163.8638
  79   2.0000      -6.018644      -163.7756
  80   2.0000      -6.014057      -163.6508
  81   2.0000      -6.011219      -163.5736
  82   2.0000      -6.008018      -163.4865
  83   2.0000      -6.003496      -163.3634
  84   2.0000      -1.175418       -31.9848
  85   2.0000      -1.170536       -31.8519
  86   2.0000      -1.169297       -31.8182
  87   2.0000      -1.166185       -31.7335
  88   2.0000      -1.161095       -31.5950
  89   2.0000      -1.157213       -31.4894
  90   2.0000      -1.151630       -31.3374
  91   2.0000      -1.145912       -31.1818
  92   2.0000      -1.145439       -31.1690
  93   2.0000      -1.144225       -31.1359
  94   2.0000      -1.138533       -30.9811
  95   2.0000      -1.134386       -30.8682
  96   2.0000      -1.068219       -29.0677
  97   2.0000      -1.061369       -28.8813
  98   2.0000      -1.012439       -27.5499
  99   2.0000      -1.004640       -27.3377
 100   2.0000      -0.970557       -26.4102
 101   2.0000      -0.959462       -26.1083
 102   2.0000      -0.954541       -25.9744
 103   2.0000      -0.950150       -25.8549
 104   2.0000      -0.943100       -25.6631
 105   2.0000      -0.940772       -25.5997
 106   2.0000      -0.936882       -25.4938
 107   2.0000      -0.934455       -25.4278
 108   2.0000      -0.916109       -24.9286
 109   2.0000      -0.899741       -24.4832
 110   2.0000      -0.896177       -24.3862
 111   2.0000      -0.895566       -24.3696
 112   2.0000      -0.881952       -23.9991
 113   2.0000      -0.866542       -23.5798
 114   2.0000      -0.859853       -23.3978
 115   2.0000      -0.849606       -23.1189
 116   2.0000      -0.843138       -22.9430
 117   2.0000      -0.834654       -22.7121
 118   2.0000      -0.834150       -22.6984
 119   2.0000      -0.827234       -22.5102
 120   2.0000      -0.822529       -22.3821
 121   2.0000      -0.820716       -22.3328
 122   2.0000      -0.814453       -22.1624
 123   2.0000      -0.797332       -21.6965
 124   2.0000      -0.797059       -21.6891
 125   2.0000      -0.795442       -21.6451
 126   2.0000      -0.791164       -21.5287
 127   2.0000      -0.784934       -21.3591
 128   2.0000      -0.774815       -21.0838
 129   2.0000      -0.760893       -20.7049
 130   2.0000      -0.756948       -20.5976
 131   2.0000      -0.748331       -20.3631
 132   2.0000      -0.744960       -20.2714
 133   2.0000      -0.739973       -20.1357
 134   2.0000      -0.738408       -20.0931
 135   2.0000      -0.724456       -19.7134
 136   2.0000      -0.719379       -19.5753
 137   2.0000      -0.712950       -19.4004
 138   2.0000      -0.704107       -19.1597
 139   2.0000      -0.694603       -18.9011
 140   2.0000      -0.689091       -18.7511
 141   2.0000      -0.684357       -18.6223
 142   2.0000      -0.678616       -18.4661
 143   2.0000      -0.674982       -18.3672
 144   2.0000      -0.669431       -18.2161
 145   2.0000      -0.667764       -18.1708
 146   2.0000      -0.653149       -17.7731
 147   2.0000      -0.649793       -17.6818
 148   2.0000      -0.647623       -17.6227
 149   2.0000      -0.641537       -17.4571
 150   2.0000      -0.632726       -17.2173
 151   2.0000      -0.627092       -17.0641
 152   2.0000      -0.623087       -16.9551
 153   2.0000      -0.620523       -16.8853
 154   2.0000      -0.617478       -16.8024
 155   2.0000      -0.615523       -16.7492
 156   2.0000      -0.605701       -16.4820
 157   2.0000      -0.603611       -16.4251
 158   2.0000      -0.600872       -16.3506
 159   2.0000      -0.595726       -16.2105
 160   2.0000      -0.592236       -16.1156
 161   2.0000      -0.588950       -16.0262
 162   2.0000      -0.586768       -15.9668
 163   2.0000      -0.585233       -15.9250
 164   2.0000      -0.581938       -15.8353
 165   2.0000      -0.579948       -15.7812
 166   2.0000      -0.576506       -15.6875
 167   2.0000      -0.575520       -15.6607
 168   2.0000      -0.573854       -15.6154
 169   2.0000      -0.566672       -15.4199
 170   2.0000      -0.562274       -15.3003
 171   2.0000      -0.559856       -15.2344
 172   2.0000      -0.557828       -15.1793
 173   2.0000      -0.556091       -15.1320
 174   2.0000      -0.554962       -15.1013
 175   2.0000      -0.553930       -15.0732
 176   2.0000      -0.552739       -15.0408
 177   2.0000      -0.550056       -14.9678
 178   2.0000      -0.545643       -14.8477
 179   2.0000      -0.543249       -14.7826
 180   2.0000      -0.542418       -14.7599
 181   2.0000      -0.542249       -14.7554
 182   2.0000      -0.541474       -14.7342
 183   2.0000      -0.540884       -14.7182
 184   2.0000      -0.536742       -14.6055
 185   2.0000      -0.534967       -14.5572
 186   2.0000      -0.532903       -14.5010
 187   2.0000      -0.530239       -14.4285
 188   2.0000      -0.528875       -14.3914
 189   2.0000      -0.526158       -14.3175
 190   2.0000      -0.523136       -14.2352
 191   2.0000      -0.521921       -14.2022
 192   2.0000      -0.516934       -14.0665
 193   2.0000      -0.515792       -14.0354
 194   2.0000      -0.514918       -14.0116
 195   2.0000      -0.514110       -13.9897
 196   2.0000      -0.513452       -13.9717
 197   2.0000      -0.512026       -13.9329
 198   2.0000      -0.509272       -13.8580
 199   2.0000      -0.504696       -13.7335
 200   2.0000      -0.504137       -13.7183
 201   2.0000      -0.500072       -13.6077
 202   2.0000      -0.499934       -13.6039
 203   2.0000      -0.498721       -13.5709
 204   2.0000      -0.493599       -13.4315
 205   2.0000      -0.493173       -13.4199
 206   2.0000      -0.490343       -13.3429
 207   2.0000      -0.488756       -13.2997
 208   2.0000      -0.485675       -13.2159
 209   2.0000      -0.485271       -13.2049
 210   2.0000      -0.483285       -13.1509
 211   2.0000      -0.483128       -13.1466
 212   2.0000      -0.479191       -13.0394
 213   2.0000      -0.477169       -12.9844
 214   2.0000      -0.476266       -12.9599
 215   2.0000      -0.474838       -12.9210
 216   2.0000      -0.468781       -12.7562
 217   2.0000      -0.466540       -12.6952
 218   2.0000      -0.465321       -12.6620
 219   2.0000      -0.464279       -12.6337
 220   2.0000      -0.463609       -12.6154
 221   2.0000      -0.460049       -12.5186
 222   2.0000      -0.458571       -12.4783
 223   2.0000      -0.455673       -12.3995
 224   2.0000      -0.451406       -12.2834
 225   2.0000      -0.448995       -12.2178
 226   2.0000      -0.444532       -12.0963
 227   2.0000      -0.437345       -11.9008
 228   2.0000      -0.432940       -11.7809
 229   2.0000      -0.423944       -11.5361
 230   2.0000      -0.422928       -11.5085
 231   2.0000      -0.420956       -11.4548
 232   2.0000      -0.420438       -11.4407
 233   2.0000      -0.418691       -11.3932
 234   2.0000      -0.413574       -11.2539
 235   2.0000      -0.410025       -11.1574
 236   2.0000      -0.403186       -10.9712
 237   2.0000      -0.401736       -10.9318
 238   2.0000      -0.396733       -10.7956
 239   2.0000      -0.394316       -10.7299
 240   2.0000      -0.393971       -10.7205
 241   2.0000      -0.391897       -10.6641
 242   2.0000      -0.389756       -10.6058
 243   2.0000      -0.380598       -10.3566
 244   2.0000      -0.375682       -10.2228
 245   2.0000      -0.374830       -10.1996
 246   2.0000      -0.372696       -10.1416
 247   2.0000      -0.370738       -10.0883
 248   2.0000      -0.370326       -10.0771
 249   2.0000      -0.370203       -10.0737
 250   2.0000      -0.368037       -10.0148
 251   2.0000      -0.364759        -9.9256
 252   2.0000      -0.360523        -9.8103
 253   2.0000      -0.357864        -9.7380
 254   2.0000      -0.357756        -9.7350
 255   2.0000      -0.352706        -9.5976
 256   2.0000      -0.351630        -9.5683
 257   2.0000      -0.350541        -9.5387
 258   2.0000      -0.350005        -9.5241
 259   2.0000      -0.343678        -9.3519
 260   2.0000      -0.342112        -9.3093
 261   2.0000      -0.339680        -9.2432
 262   2.0000      -0.330450        -8.9920
 263   2.0000      -0.319637        -8.6978
 264   2.0000      -0.308519        -8.3952
 265   2.0000      -0.305163        -8.3039
 266   2.0000      -0.301865        -8.2142
 267   2.0000      -0.287038        -7.8107
 268   2.0000      -0.285548        -7.7702
 269   2.0000      -0.263768        -7.1775
 270   2.0000      -0.261615        -7.1189
 271   2.0000      -0.251091        -6.8325
 272   2.0000      -0.204918        -5.5761
 273   0.0000      -0.096717        -2.6318
 274   0.0000      -0.084907        -2.3104
 275   0.0000      -0.060105        -1.6355
 276   0.0000      -0.048778        -1.3273
 277   0.0000      -0.039270        -1.0686

MULLIKEN ATOMIC CHARGES
-----------------------
   0 C :   -0.106018
   1 C :    0.266025
   2 O :   -0.328555
   3 C :    0.180677
   4 C :   -0.048550
   5 C :   -0.015120
   6 C :    0.245304
   7 C :   -0.079076
   8 O :   -0.314360
   9 C :    0.179530
  10 C :    0.041142
  11 C :   -0.023748
  12 C :    0.205468
  13 O :   -0.134651
  14 N :   -0.228463
  15 C :    0.189695
  16 O :   -0.141269
  17 C :    0.019523
  18 C :   -0.073713
  19 C :    0.043665
  20 C :    0.070324
  21 C :    0.031464
  22 O :   -0.118646
  23 S :   -0.002935
  24 C :    0.046499
  25 O :   -0.124179
  26 C :    0.069710
  27 C :   -0.015894
  28 C :    0.124112
  29 C :   -0.117094
  30 C :    0.062844
  31 C :   -0.038243
  32 C :   -0.044538
  33 C :    0.150637
  34 N :   -0.225325
  35 C :    0.135731
  36 N :   -0.224785
  37 C :    0.056428
  38 C :   -0.078063
  39 C :    0.150059
  40 C :   -0.057245
  41 C :    0.008668
  42 C :    0.015096
  43 C :    0.035989
  44 C :   -0.005498
  45 C :   -0.013916
  46 C :   -0.035309
  47 C :   -0.009489
  48 C :    0.035285
  49 C :   -0.023500
  50 C :    0.216985
  51 O :   -0.156885
  52 N :   -0.225071
  53 C :    0.193179
  54 O :   -0.134565
  55 C :    0.016292
  56 C :   -0.071743
  57 C :    0.050078
  58 C :    0.035990
  59 C :    0.029984
  60 O :   -0.124314
  61 S :    0.005138
  62 C :    0.047991
  63 O :   -0.119628
  64 C :    0.085738
  65 C :   -0.044849
  66 C :    0.102755
  67 C :    0.197467
  68 O :   -0.325961
  69 C :    0.182414
  70 C :   -0.079185
  71 C :   -0.022633
  72 C :    0.259327
  73 C :   -0.167948
  74 O :   -0.316820
  75 C :    0.178250
  76 H :   -0.033130
  77 H :    0.034862
  78 H :    0.023273
  79 H :    0.028759
  80 H :   -0.030692
  81 H :   -0.030865
  82 H :    0.035060
  83 H :    0.019539
  84 H :    0.018834
  85 H :    0.015488
  86 H :    0.023564
  87 H :    0.006950
  88 H :   -0.047403
  89 H :   -0.030501
  90 H :    0.007129
  91 H :   -0.020113
  92 H :    0.100020
  93 H :    0.101307
  94 H :   -0.007171
  95 H :   -0.003929
  96 H :    0.092691
  97 H :    0.094074
  98 H :   -0.020654
  99 H :    0.033311
 100 H :   -0.008163
 101 H :   -0.041927
 102 H :   -0.044458
 103 H :   -0.036843
 104 H :    0.005420
 105 H :    0.041685
 106 H :    0.017504
 107 H :    0.035440
 108 H :    0.004402
 109 H :    0.023403
 110 H :    0.039962
 111 H :    0.023382
 112 H :   -0.032138
 113 H :   -0.021311
 114 H :   -0.038515
 115 H :    0.033108
 116 H :    0.019952
 117 H :    0.021016
Sum of atomic charges:   -0.0000000

LOEWDIN ATOMIC CHARGES
----------------------
   0 C :   -0.060440
   1 C :    0.051919
   2 O :   -0.111501
   3 C :    0.077018
   4 C :   -0.046765
   5 C :   -0.005909
   6 C :    0.043229
   7 C :   -0.058674
   8 O :   -0.108961
   9 C :    0.075483
  10 C :    0.049814
  11 C :   -0.029615
  12 C :    0.101149
  13 O :   -0.124034
  14 N :   -0.012058
  15 C :    0.095573
  16 O :   -0.137764
  17 C :   -0.032002
  18 C :    0.038295
  19 C :   -0.055255
  20 C :   -0.046472
  21 C :   -0.038889
  22 O :   -0.104245
  23 S :    0.287863
  24 C :   -0.046837
  25 O :   -0.115958
  26 C :    0.008257
  27 C :   -0.030282
  28 C :   -0.028248
  29 C :   -0.016673
  30 C :   -0.027278
  31 C :   -0.032508
  32 C :   -0.040209
  33 C :    0.029645
  34 N :   -0.092136
  35 C :    0.022714
  36 N :   -0.118051
  37 C :   -0.028165
  38 C :    0.080774
  39 C :   -0.032797
  40 C :   -0.039925
  41 C :   -0.017048
  42 C :   -0.039480
  43 C :   -0.033705
  44 C :   -0.008652
  45 C :   -0.031517
  46 C :    0.040909
  47 C :   -0.041695
  48 C :    0.040804
  49 C :   -0.031343
  50 C :    0.103284
  51 O :   -0.135909
  52 N :   -0.010116
  53 C :    0.097212
  54 O :   -0.131437
  55 C :   -0.027518
  56 C :    0.035967
  57 C :   -0.052064
  58 C :   -0.063509
  59 C :   -0.035483
  60 O :   -0.113267
  61 S :    0.295312
  62 C :   -0.045340
  63 O :   -0.111692
  64 C :    0.018368
  65 C :   -0.036179
  66 C :   -0.036131
  67 C :    0.046665
  68 O :   -0.098402
  69 C :    0.077507
  70 C :   -0.062971
  71 C :   -0.035008
  72 C :    0.038882
  73 C :   -0.060331
  74 O :   -0.112768
  75 C :    0.074351
  76 H :    0.028618
  77 H :    0.027891
  78 H :    0.014347
  79 H :    0.017817
  80 H :    0.032718
  81 H :    0.027988
  82 H :    0.028055
  83 H :    0.013230
  84 H :    0.012911
  85 H :    0.050591
  86 H :    0.028197
  87 H :    0.032003
  88 H :    0.021106
  89 H :    0.021156
  90 H :    0.020251
  91 H :    0.002669
  92 H :    0.047908
  93 H :    0.048006
  94 H :    0.004330
  95 H :    0.016753
  96 H :    0.053410
  97 H :    0.055610
  98 H :    0.019579
  99 H :    0.059540
 100 H :    0.024574
 101 H :    0.027670
 102 H :    0.024673
 103 H :    0.023356
 104 H :    0.023795
 105 H :    0.040516
 106 H :    0.051282
 107 H :    0.028438
 108 H :    0.030491
 109 H :    0.015289
 110 H :    0.029835
 111 H :    0.015216
 112 H :    0.028665
 113 H :    0.032240
 114 H :    0.027242
 115 H :    0.027438
 116 H :    0.013239
 117 H :    0.013579

  Mayer bond orders larger than 0.100000
B(  0-C ,  1-C ) :   1.3455 B(  0-C ,  7-C ) :   1.3066 B(  0-C , 76-H ) :   0.9973
B(  1-C ,  2-O ) :   1.1486 B(  1-C ,  4-C ) :   1.3601 B(  2-O ,  3-C ) :   0.9596
B(  3-C , 77-H ) :   0.9793 B(  3-C , 78-H ) :   0.9696 B(  3-C , 79-H ) :   0.9682
B(  4-C ,  5-C ) :   1.4111 B(  4-C , 10-C ) :   0.9501 B(  5-C ,  6-C ) :   1.3256
B(  5-C , 80-H ) :   1.0020 B(  6-C ,  7-C ) :   1.3418 B(  6-C ,  8-O ) :   1.1280
B(  7-C , 81-H ) :   0.9981 B(  8-O ,  9-C ) :   0.9746 B(  9-C , 82-H ) :   0.9796
B(  9-C , 83-H ) :   0.9678 B(  9-C , 84-H ) :   0.9684 B( 10-C , 11-C ) :   1.4460
B( 10-C , 20-C ) :   1.3937 B( 11-C , 12-C ) :   0.8896 B( 11-C , 17-C ) :   1.3620
B( 12-C , 13-O ) :   2.1636 B( 12-C , 14-N ) :   1.0389 B( 14-N , 15-C ) :   1.0363
B( 14-N , 26-C ) :   1.0004 B( 15-C , 16-O ) :   2.2237 B( 15-C , 17-C ) :   0.8714
B( 17-C , 18-C ) :   1.3481 B( 18-C , 19-C ) :   1.3173 B( 18-C , 85-H ) :   1.0282
B( 19-C , 20-C ) :   1.3493 B( 19-C , 24-C ) :   0.8402 B( 20-C , 21-C ) :   0.8417
B( 21-C , 22-O ) :   2.1932 B( 21-C , 23-S ) :   1.0129 B( 22-O , 23-S ) :   0.1065
B( 23-S , 24-C ) :   1.0272 B( 23-S , 25-O ) :   0.1083 B( 24-C , 25-O ) :   2.2200
B( 26-C , 27-C ) :   1.7044 B( 26-C , 86-H ) :   0.9630 B( 27-C , 28-C ) :   1.0620
B( 27-C , 87-H ) :   0.9782 B( 28-C , 29-C ) :   1.5167 B( 28-C , 45-C ) :   1.1306
B( 29-C , 30-C ) :   1.1202 B( 29-C , 88-H ) :   1.0011 B( 30-C , 31-C ) :   1.4844
B( 30-C , 43-C ) :   1.1228 B( 31-C , 32-C ) :   1.0364 B( 31-C , 37-C ) :   1.1035
B( 32-C , 33-C ) :   1.0159 B( 32-C , 35-C ) :   1.0645 B( 32-C , 89-H ) :   0.8769
B( 33-C , 34-N ) :   1.0790 B( 33-C , 90-H ) :   0.9540 B( 33-C , 91-H ) :   0.9352
B( 34-N , 92-H ) :   0.9459 B( 34-N , 93-H ) :   0.9476 B( 34-N , 98-H ) :   0.1950
B( 35-C , 36-N ) :   1.0704 B( 35-C , 94-H ) :   0.9442 B( 35-C , 95-H ) :   0.9281
B( 36-N , 96-H ) :   0.9693 B( 36-N , 97-H ) :   0.9685 B( 37-C , 38-C ) :   1.6867
B( 37-C , 42-C ) :   1.0562 B( 38-C , 39-C ) :   0.9545 B( 38-C , 98-H ) :   0.8936
B( 39-C , 40-C ) :   0.9992 B( 39-C , 46-C ) :   0.9855 B( 39-C , 99-H ) :   0.8522
B( 40-C , 41-C ) :   1.7083 B( 40-C ,100-H ) :   0.9719 B( 41-C , 42-C ) :   1.1283
B( 41-C ,101-H ) :   0.9935 B( 42-C , 43-C ) :   1.4209 B( 43-C , 44-C ) :   1.1455
B( 44-C , 45-C ) :   1.6118 B( 44-C ,102-H ) :   0.9887 B( 45-C ,103-H ) :   0.9799
B( 46-C , 47-C ) :   1.8671 B( 46-C ,104-H ) :   0.9703 B( 47-C , 48-C ) :   1.0694
B( 47-C ,105-H ) :   0.9183 B( 48-C , 49-C ) :   1.3908 B( 48-C , 58-C ) :   1.3455
B( 49-C , 50-C ) :   0.8995 B( 49-C , 55-C ) :   1.3773 B( 50-C , 51-O ) :   2.1134
B( 50-C , 52-N ) :   1.0638 B( 52-N , 53-C ) :   1.0347 B( 52-N , 64-C ) :   0.9802
B( 53-C , 54-O ) :   2.2345 B( 53-C , 55-C ) :   0.8686 B( 55-C , 56-C ) :   1.3349
B( 56-C , 57-C ) :   1.3403 B( 56-C ,106-H ) :   1.0285 B( 57-C , 58-C ) :   1.3331
B( 57-C , 62-C ) :   0.8457 B( 58-C , 59-C ) :   0.8607 B( 59-C , 60-O ) :   2.1441
B( 59-C , 61-S ) :   1.0275 B( 60-O , 61-S ) :   0.1038 B( 61-S , 62-C ) :   1.0211
B( 61-S , 63-O ) :   0.1067 B( 62-C , 63-O ) :   2.2210 B( 64-C , 65-C ) :   1.7228
B( 64-C ,107-H ) :   0.9534 B( 65-C , 66-C ) :   1.0814 B( 65-C ,108-H ) :   0.9659
B( 66-C , 67-C ) :   1.3419 B( 66-C , 73-C ) :   1.3175 B( 67-C , 68-O ) :   1.1259
B( 67-C , 70-C ) :   1.3112 B( 68-O , 69-C ) :   0.9612 B( 69-C ,109-H ) :   0.9689
B( 69-C ,110-H ) :   0.9783 B( 69-C ,111-H ) :   0.9688 B( 70-C , 71-C ) :   1.3580
B( 70-C ,112-H ) :   0.9916 B( 71-C , 72-C ) :   1.3707 B( 71-C ,113-H ) :   0.9975
B( 72-C , 73-C ) :   1.2846 B( 72-C , 74-O ) :   1.1262 B( 73-C ,114-H ) :   1.0054
B( 74-O , 75-C ) :   0.9756 B( 75-C ,115-H ) :   0.9788 B( 75-C ,116-H ) :   0.9684
B( 75-C ,117-H ) :   0.9682

-----------------------------------------------------------------------------
         ABSORPTION SPECTRUM VIA TRANSITION ELECTRIC DIPOLE MOMENTS
-----------------------------------------------------------------------------
State   Energy  Wavelength   fosc         T2         TX        TY        TZ
        (cm-1)    (nm)                  (au**2)     (au)      (au)      (au)
-----------------------------------------------------------------------------
   0   10176.9    982.6   0.000808843   0.02617   0.03437   0.12783   0.09297
   1   14403.0    694.3   0.000663565   0.01517   0.06833   0.08820  -0.05215
   2   14593.0    685.3   0.033537481   0.75659   0.60791   0.59194  -0.19144
   3   18456.9    541.8   0.002964748   0.05288  -0.06568   0.02034   0.21944
   4   18910.5    528.8   0.001650287   0.02873  -0.14905   0.01026   0.08006
   5   18919.0    528.6   0.021202171   0.36894  -0.39717  -0.31293   0.33655
   6   23170.6    431.6   0.241331514   3.42888  -1.24058   0.96259   0.98147
   7   23559.8    424.5   0.007909380   0.11052  -0.05484   0.32342   0.05400
   8   24275.2    411.9   0.016224287   0.22003   0.13152   0.42859   0.13798
   9   24927.4    401.2   0.005830854   0.07701  -0.20001  -0.18264  -0.06036
  10   25569.2    391.1   0.005122472   0.06595  -0.19492  -0.14300   0.08666
  11   26472.3    377.8   0.006538166   0.08131   0.06790  -0.08244  -0.26439
  12   26674.5    374.9   0.016662842   0.20565  -0.19552  -0.26541   0.31141
  13   26737.2    374.0   0.001518176   0.01869  -0.02310   0.13240   0.02509
  14   26951.7    371.0   0.069121104   0.84431   0.53766  -0.16094  -0.72755
  15   27483.3    363.9   0.360354690   4.31656   1.19062  -1.25432  -1.15138
  16   27989.7    357.3   0.311214918   3.66048   0.86903   1.59079  -0.61210
  17   29603.7    337.8   0.020994146   0.23347   0.05885  -0.46586  -0.11393
  18   29754.6    336.1   0.001149721   0.01272   0.07351   0.08423  -0.01489
  19   29890.3    334.6   0.004502785   0.04959  -0.19033  -0.08388   0.07957
  20   30097.1    332.3   0.056189737   0.61462   0.50164   0.57967  -0.16419
  21   30156.8    331.6   0.025273302   0.27590  -0.26621   0.37332   0.25625
  22   30497.6    327.9   0.000020155   0.00022   0.00554   0.01345  -0.00245
  23   31812.7    314.3   0.024254511   0.25100  -0.29220  -0.38108  -0.14280
  24   32468.2    308.0   0.056744557   0.57536  -0.40525   0.25748   0.58723
  25   32775.9    305.1   0.078136203   0.78483  -0.34311   0.52810   0.62307
  26   33022.2    302.8   0.232348849   2.31638  -0.92238   0.85843   0.85364
  27   33054.1    302.5   0.135836189   1.35290   0.79939  -0.51523  -0.66963
  28   33395.8    299.4   0.260582194   2.56879  -0.82947   1.16417   0.72490
  29   33538.2    298.2   0.007105299   0.06975   0.17814   0.13239  -0.14313
  30   33576.7    297.8   0.046377953   0.45473   0.37493  -0.46725  -0.30956
  31   33596.6    297.6   0.035295453   0.34586   0.40670   0.42423   0.02187
  32   33844.6    295.5   0.040534903   0.39429   0.25186   0.37688  -0.43453
  33   34184.6    292.5   0.299667996   2.88593   1.04150  -1.07285  -0.80635
  34   34496.4    289.9   0.006242846   0.05958   0.17529   0.12793  -0.11174
  35   34641.8    288.7   0.043641593   0.41474  -0.06757   0.06739   0.63689
  36   34984.3    285.8   0.028890008   0.27186  -0.07748  -0.46230   0.22833
  37   35201.0    284.1   0.011301717   0.10570  -0.18405   0.23618   0.12667
  38   35305.9    283.2   0.058432150   0.54485   0.07170  -0.68881  -0.25545
  39   35375.4    282.7   0.021583495   0.20086   0.30316   0.29327   0.15150
  40   35446.2    282.1   0.058107234   0.53968  -0.69662  -0.23324   0.00155
  41   35638.6    280.6   0.561849883   5.19010   0.92180  -1.78014  -1.08234
  42   35814.0    279.2   0.003223847   0.02963  -0.14616   0.04503  -0.07903
  43   36023.3    277.6   0.027778980   0.25387  -0.03907  -0.43007  -0.25958
  44   36060.1    277.3   0.015754597   0.14383   0.33326   0.16437  -0.07584
  45   36513.5    273.9   0.100624289   0.90724  -0.23653  -0.91291  -0.13378
  46   36706.4    272.4   0.002814931   0.02525  -0.12016  -0.07771   0.06907
  47   36837.3    271.5   0.169877671   1.51818  -0.30685   0.49053   1.08784
  48   37777.8    264.7   0.060649258   0.52852   0.65789  -0.16170  -0.26373
  49   37911.0    263.8   0.000424730   0.00369  -0.03926   0.04410   0.01420
  50   38009.3    263.1   0.114592691   0.99253   0.69710  -0.65732  -0.27295
  51   38299.1    261.1   0.000016574   0.00014   0.00608   0.01027   0.00010
  52   38601.2    259.1   0.012768305   0.10890   0.22113  -0.16465  -0.18135
  53   38787.8    257.8   0.033028757   0.28033  -0.14070   0.48222   0.16734
  54   39199.2    255.1   0.099033633   0.83173   0.59724   0.30113  -0.61996
  55   39368.5    254.0   0.026349012   0.22034  -0.27673   0.12424   0.35822
  56   39392.5    253.9   0.008827955   0.07378   0.20080   0.08327  -0.16286
  57   39456.3    253.4   0.100662970   0.83990  -0.37285  -0.74567   0.38061
  58   39727.7    251.7   0.011026392   0.09137  -0.07542  -0.27812   0.09129
  59   39772.7    251.4   0.074377259   0.61565   0.30793   0.62990  -0.35220
  60   39840.6    251.0   0.001310059   0.01083  -0.03194   0.06185   0.07733
  61   40154.0    249.0   0.005031513   0.04125  -0.06750  -0.19097  -0.01507

FINAL SINGLE POINT ENERGY     -4149.180520759134

DIPOLE MOMENT
-------------
                                X             Y             Z
Electronic contribution:    -28.82154      24.16776       0.87594
Nuclear contribution   :     29.11876     -26.08671      -0.26967
                        -----------------------------------------
Total Dipole Moment    :      0.29722      -1.91895       0.60627
                        -----------------------------------------
Magnitude (a.u.)       :      2.03428
Magnitude (Debye)      :      5.17072

Rotational constants in cm-1:     0.001130     0.000244     0.000211
Rotational constants in MHz :    33.886042     7.325995     6.335540

                             ****ORCA TERMINATED NORMALLY****
TOTAL RUN TIME: 0 days 0 hours 11 minutes 26 seconds 919 msec
