                         Program Version 4.2.0 -  RELEASE  -
|  1> # ORCA input file
|  2> # SCF done       -151.725017398200          0.000650273769
|  3> ! CAM-B3LYP def2-SVP def2/J RIJCOSX Grid4 TightSCF
|  4> %maxcore 5000
|  5> %tddft
|  6>     Mode sTDDFT
|  7>     Ethresh 5.0
|  8>     maxcore 5000
|  9> end
| 10>
| 11> %pal
| 12>   nprocs 6
| 13>   end
| 14> * xyz 0 1
| 15>    C        0.80220        -1.34776        -4.72716
| 16>    O        1.32538        -0.23165        -5.29252
| 17>    C        2.52128        -0.63124        -5.75724
| 18>    C        3.82198        -0.36172        -6.46047
| 19>    C        4.12958        -1.87251        -6.18474
| 20>    C        2.77127        -1.93874        -5.51098
| 21>    C        1.63898        -2.45688        -4.81948
| 22>    C        1.42207        -3.79087        -4.34482
| 23>    C        0.31631        -4.21397        -3.69217
| 24>    C        0.09666        -5.53883        -3.22945
| 25>    C       -1.03150        -5.98297        -2.57589
| 26>    C       -0.89201        -7.36673        -2.27844
| 27>    C        0.42338        -7.73411        -2.80405
| 28>    C        1.01732        -6.67008        -3.36623
| 29>    F        0.93865        -8.97195        -2.72053
| 30>    C       -1.78237        -8.20455        -1.63882
| 31>    C       -1.64481        -9.58506        -1.34525
| 32>    C       -2.77690       -10.03239        -0.68832
| 33>    C       -3.69254        -8.89781        -0.54700
| 34>    C       -3.09669        -7.83515        -1.10848
| 35>    F       -3.61014        -6.59781        -1.18575
| 36>    C       -2.99585       -11.35013        -0.23811
| 37>    C       -4.11241       -11.78557         0.41282
| 38>    C       -4.32284       -13.10589         0.86276
| 39>    N       -5.48878       -13.45676         1.51812
| 40>    C       -5.43165       -14.77551         1.83832
| 41>    C       -6.12143       -15.81412         2.44415
| 42>    C       -5.29325       -16.94608         2.34189
| 43>    N       -4.12686       -16.59421         1.68817
| 44>    C       -4.18474       -15.27569         1.36816
| 45>    C       -3.49480       -14.23822         0.76186
| 46>    C       -5.49966       -18.26974         2.78379
| 47>    C       -6.61335       -18.72109         3.42891
| 48>    C       -6.81698       -20.04792         3.85899
| 49>    C       -7.94678       -20.52425         4.50260
| 50>    C       -7.79223       -21.90709         4.76673
| 51>    C       -6.47152       -22.24775         4.23763
| 52>    C       -5.88587       -21.16582         3.70137
| 53>    F       -5.93914       -23.47968         4.29346
| 54>    C       -8.67742       -22.77586         5.37898
| 55>    C       -8.52272       -24.16280         5.61959
| 56>    C       -9.65795       -24.64851         6.24306
| 57>    C      -10.58771       -23.53101         6.42008
| 58>    C      -10.00065       -22.43837         5.90954
| 59>    F      -10.52157       -21.20143         5.87528
| 60>    C       -9.95380       -25.96597         6.65747
| 61>    C       -9.11214       -27.02959         6.52201
| 62>    C       -9.42154       -28.34504         6.92663
| 63>    O      -10.65409       -28.60817         7.49015
| 64>    C      -10.62666       -29.91853         7.74574
| 65>    C      -11.27514       -31.16758         8.26769
| 66>    C       -9.94026       -31.87713         7.85909
| 67>    C       -9.45933       -30.51777         7.38630
| 68>    C       -8.62861       -29.51592         6.83935
| 69>    C       -7.29424       -29.62175         6.31380
| 70>    C       -6.61736       -30.76722         6.27041
| 71>    H       -0.16927        -1.24377        -4.28833
| 72>    H        4.48506         0.34074        -5.95889
| 73>    H        3.73573        -0.09544        -7.51237
| 74>    H        4.97633        -2.04633        -5.52465
| 75>    H        4.22664        -2.48303        -7.07966
| 76>    H        2.22627        -4.48440        -4.54587
| 77>    H       -0.48289        -3.51172        -3.49603
| 78>    H       -1.88672        -5.38528        -2.32880
| 79>    H        1.98356        -6.64374        -3.82940
| 80>    H       -0.79266       -10.18584        -1.59574
| 81>    H       -4.65784        -8.91856        -0.08090
| 82>    H       -2.19919       -12.05425        -0.43494
| 83>    H       -4.91143       -11.08400         0.61195
| 84>    H       -6.24319       -12.82232         1.71607
| 85>    H       -7.08808       -15.78717         2.90380
| 86>    H       -3.37332       -17.22904         1.48836
| 87>    H       -2.52824       -14.26693         0.30224
| 88>    H       -4.69612       -18.96466         2.57931
| 89>    H       -7.41713       -18.02730         3.63319
| 90>    H       -8.80929       -19.94085         4.75878
| 91>    H       -4.91750       -21.12392         3.24325
| 92>    H       -7.65698       -24.73216         5.34749
| 93>    H      -11.55479       -23.60191         6.87905
| 94>    H      -10.92177       -26.13205         7.11144
| 95>    H       -8.13886       -26.88720         6.07855
| 96>    H      -12.15764       -31.49506         7.72110
| 97>    H      -11.48798       -31.16661         9.33524
| 98>    H      -10.04755       -32.62077         7.07258
| 99>    H       -9.37877       -32.29610         8.69102
|100>    H       -6.84592       -28.71036         5.94420
|101>    H       -7.04567       -31.68646         6.63307
|102>    H       -5.61916       -30.82038         5.87312
|103> *
|104>
|105>                          ****END OF INPUT****

CARTESIAN COORDINATES (ANGSTROEM)
---------------------------------
  C      0.802200   -1.347760   -4.727160
  O      1.325380   -0.231650   -5.292520
  C      2.521280   -0.631240   -5.757240
  C      3.821980   -0.361720   -6.460470
  C      4.129580   -1.872510   -6.184740
  C      2.771270   -1.938740   -5.510980
  C      1.638980   -2.456880   -4.819480
  C      1.422070   -3.790870   -4.344820
  C      0.316310   -4.213970   -3.692170
  C      0.096660   -5.538830   -3.229450
  C     -1.031500   -5.982970   -2.575890
  C     -0.892010   -7.366730   -2.278440
  C      0.423380   -7.734110   -2.804050
  C      1.017320   -6.670080   -3.366230
  F      0.938650   -8.971950   -2.720530
  C     -1.782370   -8.204550   -1.638820
  C     -1.644810   -9.585060   -1.345250
  C     -2.776900  -10.032390   -0.688320
  C     -3.692540   -8.897810   -0.547000
  C     -3.096690   -7.835150   -1.108480
  F     -3.610140   -6.597810   -1.185750
  C     -2.995850  -11.350130   -0.238110
  C     -4.112410  -11.785570    0.412820
  C     -4.322840  -13.105890    0.862760
  N     -5.488780  -13.456760    1.518120
  C     -5.431650  -14.775510    1.838320
  C     -6.121430  -15.814120    2.444150
  C     -5.293250  -16.946080    2.341890
  N     -4.126860  -16.594210    1.688170
  C     -4.184740  -15.275690    1.368160
  C     -3.494800  -14.238220    0.761860
  C     -5.499660  -18.269740    2.783790
  C     -6.613350  -18.721090    3.428910
  C     -6.816980  -20.047920    3.858990
  C     -7.946780  -20.524250    4.502600
  C     -7.792230  -21.907090    4.766730
  C     -6.471520  -22.247750    4.237630
  C     -5.885870  -21.165820    3.701370
  F     -5.939140  -23.479680    4.293460
  C     -8.677420  -22.775860    5.378980
  C     -8.522720  -24.162800    5.619590
  C     -9.657950  -24.648510    6.243060
  C    -10.587710  -23.531010    6.420080
  C    -10.000650  -22.438370    5.909540
  F    -10.521570  -21.201430    5.875280
  C     -9.953800  -25.965970    6.657470
  C     -9.112140  -27.029590    6.522010
  C     -9.421540  -28.345040    6.926630
  O    -10.654090  -28.608170    7.490150
  C    -10.626660  -29.918530    7.745740
  C    -11.275140  -31.167580    8.267690
  C     -9.940260  -31.877130    7.859090
  C     -9.459330  -30.517770    7.386300
  C     -8.628610  -29.515920    6.839350
  C     -7.294240  -29.621750    6.313800
  C     -6.617360  -30.767220    6.270410
  H     -0.169270   -1.243770   -4.288330
  H      4.485060    0.340740   -5.958890
  H      3.735730   -0.095440   -7.512370
  H      4.976330   -2.046330   -5.524650
  H      4.226640   -2.483030   -7.079660
  H      2.226270   -4.484400   -4.545870
  H     -0.482890   -3.511720   -3.496030
  H     -1.886720   -5.385280   -2.328800
  H      1.983560   -6.643740   -3.829400
  H     -0.792660  -10.185840   -1.595740
  H     -4.657840   -8.918560   -0.080900
  H     -2.199190  -12.054250   -0.434940
  H     -4.911430  -11.084000    0.611950
  H     -6.243190  -12.822320    1.716070
  H     -7.088080  -15.787170    2.903800
  H     -3.373320  -17.229040    1.488360
  H     -2.528240  -14.266930    0.302240
  H     -4.696120  -18.964660    2.579310
  H     -7.417130  -18.027300    3.633190
  H     -8.809290  -19.940850    4.758780
  H     -4.917500  -21.123920    3.243250
  H     -7.656980  -24.732160    5.347490
  H    -11.554790  -23.601910    6.879050
  H    -10.921770  -26.132050    7.111440
  H     -8.138860  -26.887200    6.078550
  H    -12.157640  -31.495060    7.721100
  H    -11.487980  -31.166610    9.335240
  H    -10.047550  -32.620770    7.072580
  H     -9.378770  -32.296100    8.691020
  H     -6.845920  -28.710360    5.944200
  H     -7.045670  -31.686460    6.633070
  H     -5.619160  -30.820380    5.873120

 Total Charge           Charge          ....    0
 Multiplicity           Mult            ....    1
 Number of Electrons    NEL             ....  386
 Basis Dimension        Dim             ....  944

ORBITAL ENERGIES
----------------

  NO   OCC          E(Eh)            E(eV)
   0   2.0000     -24.777646      -674.2340
   1   2.0000     -24.776105      -674.1921
   2   2.0000     -24.774555      -674.1499
   3   2.0000     -24.772674      -674.0987
   4   2.0000     -19.287347      -524.8354
   5   2.0000     -19.284836      -524.7671
   6   2.0000     -14.457104      -393.3978
   7   2.0000     -14.456699      -393.3868
   8   2.0000     -10.343108      -281.4503
   9   2.0000     -10.340561      -281.3810
  10   2.0000     -10.339192      -281.3437
  11   2.0000     -10.336689      -281.2756
  12   2.0000     -10.324256      -280.9373
  13   2.0000     -10.313372      -280.6411
  14   2.0000     -10.312678      -280.6222
  15   2.0000     -10.305384      -280.4237
  16   2.0000     -10.305347      -280.4228
  17   2.0000     -10.298726      -280.2426
  18   2.0000     -10.294023      -280.1146
  19   2.0000     -10.293510      -280.1006
  20   2.0000     -10.291486      -280.0456
  21   2.0000     -10.287637      -279.9408
  22   2.0000     -10.286560      -279.9115
  23   2.0000     -10.285773      -279.8901
  24   2.0000     -10.284694      -279.8607
  25   2.0000     -10.284452      -279.8542
  26   2.0000     -10.283877      -279.8385
  27   2.0000     -10.282311      -279.7959
  28   2.0000     -10.281642      -279.7777
  29   2.0000     -10.280708      -279.7523
  30   2.0000     -10.280615      -279.7498
  31   2.0000     -10.277975      -279.6779
  32   2.0000     -10.275493      -279.6104
  33   2.0000     -10.273965      -279.5688
  34   2.0000     -10.273155      -279.5468
  35   2.0000     -10.273016      -279.5430
  36   2.0000     -10.272312      -279.5238
  37   2.0000     -10.271783      -279.5094
  38   2.0000     -10.270904      -279.4855
  39   2.0000     -10.270503      -279.4746
  40   2.0000     -10.270298      -279.4690
  41   2.0000     -10.266027      -279.3528
  42   2.0000     -10.265253      -279.3317
  43   2.0000     -10.263560      -279.2857
  44   2.0000     -10.263066      -279.2722
  45   2.0000     -10.262461      -279.2557
  46   2.0000     -10.261167      -279.2205
  47   2.0000     -10.258670      -279.1526
  48   2.0000     -10.257735      -279.1272
  49   2.0000     -10.254443      -279.0376
  50   2.0000     -10.254253      -279.0324
  51   2.0000     -10.246703      -278.8270
  52   2.0000     -10.246342      -278.8171
  53   2.0000     -10.245685      -278.7993
  54   2.0000     -10.244959      -278.7795
  55   2.0000     -10.240930      -278.6699
  56   2.0000      -1.288871       -35.0720
  57   2.0000      -1.286882       -35.0178
  58   2.0000      -1.285257       -34.9736
  59   2.0000      -1.283562       -34.9275
  60   2.0000      -1.198111       -32.6023
  61   2.0000      -1.194889       -32.5146
  62   2.0000      -1.088620       -29.6229
  63   2.0000      -1.052156       -28.6306
  64   2.0000      -0.972648       -26.4671
  65   2.0000      -0.970349       -26.4045
  66   2.0000      -0.958844       -26.0915
  67   2.0000      -0.954762       -25.9804
  68   2.0000      -0.952303       -25.9135
  69   2.0000      -0.950676       -25.8692
  70   2.0000      -0.909365       -24.7451
  71   2.0000      -0.899293       -24.4710
  72   2.0000      -0.896068       -24.3833
  73   2.0000      -0.892761       -24.2933
  74   2.0000      -0.878055       -23.8931
  75   2.0000      -0.863492       -23.4968
  76   2.0000      -0.860939       -23.4273
  77   2.0000      -0.848584       -23.0911
  78   2.0000      -0.836230       -22.7550
  79   2.0000      -0.825635       -22.4667
  80   2.0000      -0.821924       -22.3657
  81   2.0000      -0.807617       -21.9764
  82   2.0000      -0.794614       -21.6225
  83   2.0000      -0.792499       -21.5650
  84   2.0000      -0.783714       -21.3259
  85   2.0000      -0.773642       -21.0519
  86   2.0000      -0.771193       -20.9852
  87   2.0000      -0.761125       -20.7113
  88   2.0000      -0.744566       -20.2607
  89   2.0000      -0.737294       -20.0628
  90   2.0000      -0.728515       -19.8239
  91   2.0000      -0.720630       -19.6093
  92   2.0000      -0.717233       -19.5169
  93   2.0000      -0.698752       -19.0140
  94   2.0000      -0.696167       -18.9437
  95   2.0000      -0.693330       -18.8665
  96   2.0000      -0.685818       -18.6620
  97   2.0000      -0.681245       -18.5376
  98   2.0000      -0.675877       -18.3916
  99   2.0000      -0.658967       -17.9314
 100   2.0000      -0.654254       -17.8032
 101   2.0000      -0.650457       -17.6998
 102   2.0000      -0.646676       -17.5969
 103   2.0000      -0.644423       -17.5356
 104   2.0000      -0.643234       -17.5033
 105   2.0000      -0.639433       -17.3998
 106   2.0000      -0.627634       -17.0788
 107   2.0000      -0.627034       -17.0625
 108   2.0000      -0.616456       -16.7746
 109   2.0000      -0.616028       -16.7630
 110   2.0000      -0.608908       -16.5692
 111   2.0000      -0.607056       -16.5188
 112   2.0000      -0.599972       -16.3261
 113   2.0000      -0.595247       -16.1975
 114   2.0000      -0.589673       -16.0458
 115   2.0000      -0.582294       -15.8450
 116   2.0000      -0.579788       -15.7768
 117   2.0000      -0.571947       -15.5635
 118   2.0000      -0.564466       -15.3599
 119   2.0000      -0.562901       -15.3173
 120   2.0000      -0.559056       -15.2127
 121   2.0000      -0.548767       -14.9327
 122   2.0000      -0.546509       -14.8713
 123   2.0000      -0.544614       -14.8197
 124   2.0000      -0.541156       -14.7256
 125   2.0000      -0.539020       -14.6675
 126   2.0000      -0.537877       -14.6364
 127   2.0000      -0.537197       -14.6179
 128   2.0000      -0.534869       -14.5545
 129   2.0000      -0.533485       -14.5169
 130   2.0000      -0.531393       -14.4599
 131   2.0000      -0.529573       -14.4104
 132   2.0000      -0.526854       -14.3364
 133   2.0000      -0.526172       -14.3179
 134   2.0000      -0.524884       -14.2828
 135   2.0000      -0.521891       -14.2014
 136   2.0000      -0.518297       -14.1036
 137   2.0000      -0.513601       -13.9758
 138   2.0000      -0.511439       -13.9170
 139   2.0000      -0.504326       -13.7234
 140   2.0000      -0.499647       -13.5961
 141   2.0000      -0.498832       -13.5739
 142   2.0000      -0.493493       -13.4286
 143   2.0000      -0.490601       -13.3499
 144   2.0000      -0.485713       -13.2169
 145   2.0000      -0.478836       -13.0298
 146   2.0000      -0.474659       -12.9161
 147   2.0000      -0.473238       -12.8775
 148   2.0000      -0.470679       -12.8078
 149   2.0000      -0.462900       -12.5962
 150   2.0000      -0.458829       -12.4854
 151   2.0000      -0.456938       -12.4339
 152   2.0000      -0.456249       -12.4152
 153   2.0000      -0.453084       -12.3290
 154   2.0000      -0.453043       -12.3279
 155   2.0000      -0.451997       -12.2995
 156   2.0000      -0.449383       -12.2283
 157   2.0000      -0.446458       -12.1487
 158   2.0000      -0.446311       -12.1447
 159   2.0000      -0.444433       -12.0936
 160   2.0000      -0.443640       -12.0721
 161   2.0000      -0.439644       -11.9633
 162   2.0000      -0.439042       -11.9469
 163   2.0000      -0.437697       -11.9103
 164   2.0000      -0.434636       -11.8271
 165   2.0000      -0.433194       -11.7878
 166   2.0000      -0.430944       -11.7266
 167   2.0000      -0.426958       -11.6181
 168   2.0000      -0.424236       -11.5441
 169   2.0000      -0.420639       -11.4462
 170   2.0000      -0.420306       -11.4371
 171   2.0000      -0.402718       -10.9585
 172   2.0000      -0.400845       -10.9075
 173   2.0000      -0.398477       -10.8431
 174   2.0000      -0.397514       -10.8169
 175   2.0000      -0.388246       -10.5647
 176   2.0000      -0.386995       -10.5307
 177   2.0000      -0.382535       -10.4093
 178   2.0000      -0.378106       -10.2888
 179   2.0000      -0.367584       -10.0025
 180   2.0000      -0.340709        -9.2712
 181   2.0000      -0.323256        -8.7962
 182   2.0000      -0.309379        -8.4186
 183   2.0000      -0.304624        -8.2892
 184   2.0000      -0.294930        -8.0254
 185   2.0000      -0.290478        -7.9043
 186   2.0000      -0.281381        -7.6568
 187   2.0000      -0.280479        -7.6322
 188   2.0000      -0.279938        -7.6175
 189   2.0000      -0.262355        -7.1391
 190   2.0000      -0.244404        -6.6506
 191   2.0000      -0.228062        -6.2059
 192   2.0000      -0.200061        -5.4439
 193   0.0000      -0.096475        -2.6252
 194   0.0000      -0.080672        -2.1952
 195   0.0000      -0.016598        -0.4517
 196   0.0000      -0.002180        -0.0593
 197   0.0000       0.012964         0.3528

MULLIKEN ATOMIC CHARGES
-----------------------
   0 C :    0.082051
   1 O :   -0.173440
   2 C :   -0.053275
   3 C :    0.149568
   4 C :    0.133328
   5 C :   -0.138808
   6 C :   -0.034632
   7 C :    0.031014
   8 C :    0.004120
   9 C :    0.113586
  10 C :   -0.098618
  11 C :    0.013593
  12 C :    0.247772
  13 C :   -0.082742
  14 F :   -0.184823
  15 C :    0.018351
  16 C :   -0.101763
  17 C :    0.124052
  18 C :   -0.085468
  19 C :    0.250310
  20 F :   -0.181810
  21 C :   -0.017628
  22 C :    0.010255
  23 C :    0.108799
  24 N :   -0.036778
  25 C :    0.121899
  26 C :   -0.173088
  27 C :    0.111856
  28 N :   -0.036926
  29 C :    0.121728
  30 C :   -0.172406
  31 C :    0.006798
  32 C :   -0.014462
  33 C :    0.121231
  34 C :   -0.101088
  35 C :    0.014439
  36 C :    0.250011
  37 C :   -0.086736
  38 F :   -0.183257
  39 C :    0.019048
  40 C :   -0.104593
  41 C :    0.111204
  42 C :   -0.082406
  43 C :    0.249755
  44 F :   -0.184883
  45 C :   -0.010769
  46 C :   -0.017527
  47 C :    0.132866
  48 O :   -0.196133
  49 C :   -0.031279
  50 C :    0.153484
  51 C :    0.126496
  52 C :   -0.153723
  53 C :   -0.015864
  54 C :   -0.004958
  55 C :   -0.009095
  56 H :    0.002858
  57 H :    0.018541
  58 H :    0.018330
  59 H :    0.012943
  60 H :    0.013980
  61 H :   -0.021735
  62 H :   -0.029337
  63 H :   -0.024109
  64 H :   -0.024224
  65 H :   -0.023573
  66 H :   -0.027591
  67 H :   -0.023674
  68 H :   -0.034483
  69 H :    0.121428
  70 H :   -0.032539
  71 H :    0.121344
  72 H :   -0.032361
  73 H :   -0.035262
  74 H :   -0.023757
  75 H :   -0.024302
  76 H :   -0.029544
  77 H :   -0.027868
  78 H :   -0.026030
  79 H :   -0.016787
  80 H :   -0.007517
  81 H :    0.022431
  82 H :    0.022812
  83 H :    0.018285
  84 H :    0.017530
  85 H :   -0.018788
  86 H :    0.012794
  87 H :    0.021566
Sum of atomic charges:   -0.0000000

LOEWDIN ATOMIC CHARGES
----------------------
   0 C :    0.043572
   1 O :    0.018576
   2 C :   -0.012048
   3 C :   -0.002085
   4 C :    0.005227
   5 C :   -0.082093
   6 C :   -0.078802
   7 C :   -0.007578
   8 C :   -0.020613
   9 C :   -0.003031
  10 C :   -0.066867
  11 C :   -0.008017
  12 C :    0.080352
  13 C :   -0.062680
  14 F :   -0.060463
  15 C :   -0.005091
  16 C :   -0.070037
  17 C :   -0.002316
  18 C :   -0.065337
  19 C :    0.084387
  20 F :   -0.057555
  21 C :   -0.021636
  22 C :   -0.025444
  23 C :    0.000137
  24 N :    0.068998
  25 C :   -0.014528
  26 C :   -0.089167
  27 C :    0.002432
  28 N :    0.068875
  29 C :   -0.015453
  30 C :   -0.087501
  31 C :   -0.028744
  32 C :   -0.018583
  33 C :   -0.005443
  34 C :   -0.068377
  35 C :   -0.009347
  36 C :    0.083747
  37 C :   -0.067564
  38 F :   -0.059898
  39 C :   -0.004481
  40 C :   -0.076254
  41 C :   -0.003064
  42 C :   -0.062401
  43 C :    0.078390
  44 F :   -0.060050
  45 C :   -0.029556
  46 C :   -0.012072
  47 C :    0.035682
  48 O :    0.007033
  49 C :    0.012093
  50 C :   -0.002528
  51 C :    0.004080
  52 C :   -0.080114
  53 C :   -0.050751
  54 C :   -0.022173
  55 C :   -0.038180
  56 H :    0.018478
  57 H :    0.028507
  58 H :    0.028463
  59 H :    0.026069
  60 H :    0.026269
  61 H :    0.028879
  62 H :    0.028621
  63 H :    0.020094
  64 H :    0.026036
  65 H :    0.020380
  66 H :    0.024567
  67 H :    0.030835
  68 H :    0.025724
  69 H :    0.089250
  70 H :    0.024652
  71 H :    0.089167
  72 H :    0.024665
  73 H :    0.025428
  74 H :    0.030789
  75 H :    0.020215
  76 H :    0.023783
  77 H :    0.015592
  78 H :    0.027146
  79 H :    0.029253
  80 H :    0.036627
  81 H :    0.031411
  82 H :    0.031596
  83 H :    0.027903
  84 H :    0.027674
  85 H :    0.028361
  86 H :    0.022516
  87 H :    0.025389

  Mayer bond orders larger than 0.100000
B(  0-C ,  1-O ) :   1.1448 B(  0-C ,  6-C ) :   1.5005 B(  0-C , 56-H ) :   1.0016
B(  1-O ,  2-C ) :   1.1611 B(  2-C ,  3-C ) :   1.1322 B(  2-C ,  5-C ) :   1.6287
B(  3-C ,  4-C ) :   1.2037 B(  3-C , 57-H ) :   0.8865 B(  3-C , 58-H ) :   0.8868
B(  4-C ,  5-C ) :   1.1066 B(  4-C , 59-H ) :   0.8946 B(  4-C , 60-H ) :   0.8949
B(  5-C ,  6-C ) :   1.1936 B(  6-C ,  7-C ) :   1.0884 B(  7-C ,  8-C ) :   1.6594
B(  7-C , 61-H ) :   0.9797 B(  8-C ,  9-C ) :   1.1315 B(  8-C , 62-H ) :   0.9799
B(  9-C , 10-C ) :   1.5117 B(  9-C , 13-C ) :   1.0234 B( 10-C , 11-C ) :   1.1264
B( 10-C , 63-H ) :   1.0226 B( 11-C , 12-C ) :   1.0307 B( 11-C , 15-C ) :   1.4324
B( 12-C , 13-C ) :   1.6579 B( 12-C , 14-F ) :   1.1169 B( 13-C , 64-H ) :   1.0122
B( 15-C , 16-C ) :   1.1440 B( 15-C , 19-C ) :   1.0232 B( 16-C , 17-C ) :   1.4761
B( 16-C , 65-H ) :   1.0235 B( 17-C , 18-C ) :   1.0156 B( 17-C , 21-C ) :   1.1685
B( 18-C , 19-C ) :   1.6679 B( 18-C , 66-H ) :   1.0108 B( 19-C , 20-F ) :   1.1208
B( 21-C , 22-C ) :   1.5868 B( 21-C , 67-H ) :   0.9818 B( 22-C , 23-C ) :   1.1318
B( 22-C , 68-H ) :   0.9652 B( 23-C , 24-N ) :   1.1629 B( 23-C , 30-C ) :   1.3783
B( 24-N , 25-C ) :   1.1701 B( 24-N , 69-H ) :   0.9368 B( 25-C , 26-C ) :   1.2742
B( 25-C , 29-C ) :   1.2868 B( 26-C , 27-C ) :   1.3802 B( 26-C , 70-H ) :   1.0320
B( 27-C , 28-N ) :   1.1643 B( 27-C , 31-C ) :   1.1289 B( 28-N , 29-C ) :   1.1689
B( 28-N , 71-H ) :   0.9368 B( 29-C , 30-C ) :   1.2764 B( 30-C , 72-H ) :   1.0317
B( 31-C , 32-C ) :   1.5879 B( 31-C , 73-H ) :   0.9646 B( 32-C , 33-C ) :   1.1696
B( 32-C , 74-H ) :   0.9821 B( 33-C , 34-C ) :   1.4678 B( 33-C , 37-C ) :   1.0202
B( 34-C , 35-C ) :   1.1533 B( 34-C , 75-H ) :   1.0234 B( 35-C , 36-C ) :   1.0278
B( 35-C , 39-C ) :   1.4077 B( 36-C , 37-C ) :   1.6635 B( 36-C , 38-F ) :   1.1150
B( 37-C , 76-H ) :   1.0105 B( 39-C , 40-C ) :   1.1677 B( 39-C , 43-C ) :   1.0210
B( 40-C , 41-C ) :   1.5075 B( 40-C , 77-H ) :   1.0074 B( 41-C , 42-C ) :   1.0164
B( 41-C , 45-C ) :   1.1201 B( 42-C , 43-C ) :   1.6506 B( 42-C , 78-H ) :   1.0212
B( 43-C , 44-F ) :   1.1152 B( 45-C , 46-C ) :   1.6046 B( 45-C , 79-H ) :   0.9877
B( 46-C , 47-C ) :   1.2052 B( 46-C , 80-H ) :   0.9530 B( 47-C , 48-O ) :   1.0957
B( 47-C , 53-C ) :   1.3879 B( 48-O , 49-C ) :   1.1757 B( 49-C , 50-C ) :   1.1343
B( 49-C , 52-C ) :   1.5989 B( 50-C , 51-C ) :   1.2010 B( 50-C , 81-H ) :   0.8817
B( 50-C , 82-H ) :   0.8810 B( 51-C , 52-C ) :   1.1093 B( 51-C , 83-H ) :   0.8936
B( 51-C , 84-H ) :   0.8931 B( 52-C , 53-C ) :   1.1978 B( 53-C , 54-C ) :   1.1124
B( 54-C , 55-C ) :   1.9381 B( 54-C , 85-H ) :   0.9547 B( 55-C , 86-H ) :   0.9536
B( 55-C , 87-H ) :   0.9460

-----------------------------------------------------------------------------
         ABSORPTION SPECTRUM VIA TRANSITION ELECTRIC DIPOLE MOMENTS
-----------------------------------------------------------------------------
State   Energy  Wavelength   fosc         T2         TX        TY        TZ
        (cm-1)    (nm)                  (au**2)     (au)      (au)      (au)
-----------------------------------------------------------------------------
   0   10056.7    994.4   2.512454857  82.24694  -3.51181  -7.57254   3.54553
   1   13684.7    730.7   0.084975465   2.04424   0.94188   0.77773  -0.74314
   2   15287.3    654.1   0.003913602   0.08428   0.14107  -0.25056  -0.03999
   3   17231.7    580.3   0.029206539   0.55799  -0.42656  -0.51010   0.34034
   4   20020.3    499.5   0.005961138   0.09802  -0.04801  -0.29413   0.09595
   5   21110.5    473.7   0.533162818   8.31451   0.71676   2.60624  -1.00412
   6   23442.6    426.6   0.191464126   2.68879  -0.09487  -1.59843   0.35329
   7   24823.1    402.9   0.227726640   3.02018  -0.65053  -1.46267   0.67646
   8   25594.4    390.7   0.219544352   2.82392  -0.73503  -1.32996   0.71754
   9   27293.0    366.4   0.017309006   0.20878  -0.21440  -0.35564   0.19063
  10   27910.6    358.3   0.155759635   1.83722   0.90123   0.75379  -0.67588
  11   28613.5    349.5   0.166878548   1.92002   0.87763   0.87044  -0.62619
  12   29209.6    342.4   0.095550930   1.07692  -0.23598   1.00525  -0.10343
  13   29953.7    333.8   0.309625857   3.40300  -0.53259  -1.64898   0.63261
  14   30582.2    327.0   0.179633086   1.93372  -0.00331   1.35562  -0.30984
  15   31262.7    319.9   0.010972616   0.11555   0.28076   0.09948  -0.16379
  16   32251.6    310.1   0.072572155   0.74079  -0.67865   0.48088   0.22130
  17   33583.7    297.8   0.069737718   0.68362   0.74479  -0.24839  -0.25925
  18   34237.5    292.1   0.050175623   0.48247  -0.59187  -0.15610   0.32832
  19   34631.4    288.8   0.076322421   0.72553  -0.65617  -0.36162   0.40523
  20   34853.2    286.9   0.117327078   1.10823   0.12166   0.99822  -0.31142
  21   35596.4    280.9   0.141748000   1.31095  -0.60019  -0.82115   0.52577
  22   36030.2    277.5   0.002625751   0.02399  -0.11662   0.09223   0.04341
  23   36274.9    275.7   0.007974058   0.07237  -0.07952   0.25446  -0.03603
  24   36809.3    271.7   0.016560295   0.14811   0.25785  -0.28371  -0.03369
  25   36861.9    271.3   0.097063181   0.86687  -0.24946   0.88994  -0.11245
  26   37878.2    264.0   0.008352252   0.07259   0.21857   0.08809  -0.13061
  27   38967.5    256.6   0.013660951   0.11541   0.21224   0.20890  -0.16349
  28   40042.3    249.7   0.012866802   0.10579   0.25408   0.12856  -0.15717

FINAL SINGLE POINT ENERGY     -2504.219785919478

DIPOLE MOMENT
-------------
                                X             Y             Z
Electronic contribution:     -7.35436      22.37088      -0.89218
Nuclear contribution   :      7.60365     -23.58301       1.00318
                        -----------------------------------------
Total Dipole Moment    :      0.24929      -1.21213       0.11100
                        -----------------------------------------
Magnitude (a.u.)       :      1.24247
Magnitude (Debye)      :      3.15810

Rotational constants in cm-1:     0.008767     0.000174     0.000171
Rotational constants in MHz :   262.817992     5.231082     5.130499

                             ****ORCA TERMINATED NORMALLY****
TOTAL RUN TIME: 0 days 0 hours 6 minutes 47 seconds 761 msec
