                         Program Version 4.2.0 -  RELEASE  -
|  1> # ORCA input file
|  2> # SCF done       -195.161140388405          0.000697282701
|  3> ! CAM-B3LYP def2-SVP def2/J RIJCOSX Grid4 TightSCF
|  4> %maxcore 5000
|  5> %tddft
|  6>     Mode sTDDFT
|  7>     Ethresh 5.0
|  8>     maxcore 5000
|  9> end
| 10>
| 11> %pal
| 12>   nprocs 6
| 13>   end
| 14> * xyz 0 1
| 15>    C       -4.42511       -15.52914         5.43993
| 16>    S       -3.82842       -13.90313         5.41880
| 17>    C       -5.44264       -13.31071         5.42354
| 18>    N       -5.93338       -12.06439         5.40407
| 19>    C       -7.22272       -12.08393         5.42987
| 20>    S       -7.96317       -13.68920         5.45916
| 21>    C       -6.37458       -14.35106         5.44439
| 22>    C       -5.78060       -15.62709         5.45109
| 23>    C       -8.03116       -10.87746         5.36907
| 24>    C       -7.91233       -10.00243         4.29127
| 25>    C       -7.11519       -10.14474         3.04773
| 26>    O       -6.46309       -11.08253         2.67230
| 27>    N       -7.31885        -8.95213         2.34286
| 28>    C       -8.22079        -8.09583         2.98876
| 29>    O       -8.56011        -7.01842         2.57675
| 30>    C       -8.62049        -8.79799         4.22901
| 31>    C       -9.51294        -8.42014         5.21426
| 32>    C       -9.65822        -9.29996         6.28140
| 33>    C       -8.93212       -10.49107         6.37275
| 34>    C       -9.14938       -11.23688         7.62452
| 35>    O       -8.60792       -12.23396         7.99811
| 36>    S      -10.38677       -10.37438         8.60685
| 37>    C      -10.56169        -9.03971         7.41785
| 38>    O      -11.29606        -8.11061         7.56793
| 39>    C       -6.70490        -8.55434         1.15756
| 40>    C       -5.90350        -9.31717         0.40631
| 41>    C       -5.20439        -8.88300        -0.78402
| 42>    C       -4.54931        -9.83127        -1.54194
| 43>    C       -3.79641        -9.45414        -2.66940
| 44>    C       -3.02912       -10.19385        -3.56877
| 45>    C       -2.85472       -11.66437        -3.67431
| 46>    C       -2.33165       -12.31969        -2.38319
| 47>    N       -1.95640       -13.69379        -2.66120
| 48>    C       -4.17537       -12.36049        -4.11249
| 49>    N       -4.64613       -11.98221        -5.42446
| 50>    C       -2.45422        -9.24893        -4.50025
| 51>    C       -1.60376        -9.42276        -5.53042
| 52>    C       -1.16700        -8.27886        -6.38059
| 53>    C       -1.66325        -6.94275        -5.93541
| 54>    C       -2.48980        -6.78353        -4.88247
| 55>    C       -2.91471        -7.90532        -4.13467
| 56>    C       -3.72661        -8.04375        -3.01980
| 57>    C       -4.42393        -7.09478        -2.24319
| 58>    C       -5.13838        -7.50577        -1.16174
| 59>    C       -1.69191        -8.60338        -7.75821
| 60>    C       -0.93494        -8.97470        -8.78492
| 61>    C       -1.50165        -9.38287       -10.06237
| 62>    C       -2.58430       -10.26205       -10.14327
| 63>    C       -3.27029       -11.02443        -9.08306
| 64>    O       -3.02292       -11.10655        -7.90064
| 65>    N       -4.29680       -11.72995        -9.71285
| 66>    C       -4.28967       -11.55206       -11.10126
| 67>    O       -5.05119       -12.05449       -11.88422
| 68>    C       -3.16122       -10.62729       -11.36806
| 69>    C       -2.67806       -10.16100       -12.57518
| 70>    C       -1.57341        -9.31745       -12.51139
| 71>    C       -0.99822        -8.93494       -11.29496
| 72>    C        0.14534        -8.02205       -11.42670
| 73>    O        0.80279        -7.52796       -10.55593
| 74>    S        0.45062        -7.71777       -13.17236
| 75>    C       -0.92110        -8.75409       -13.70461
| 76>    O       -1.21213        -8.92410       -14.85017
| 77>    C       -5.18338       -12.48745        -8.95353
| 78>    C       -6.19035       -13.23688        -9.41729
| 79>    C       -7.06910       -13.95643        -8.54309
| 80>    S       -8.33438       -14.93839        -9.26328
| 81>    C       -8.87910       -15.40297        -7.70264
| 82>    N       -9.88398       -16.20319        -7.30347
| 83>    C       -9.92369       -16.26065        -6.02218
| 84>    S       -8.71787       -15.32803        -5.15890
| 85>    C       -8.10873       -14.81673        -6.69274
| 86>    C       -7.08073       -13.99458        -7.16703
| 87>    H       -3.71592       -16.33313         5.44444
| 88>    H       -6.32367       -16.55333         5.46684
| 89>    H      -10.06785        -7.49652         5.16978
| 90>    H       -6.96269        -7.53319         0.91126
| 91>    H       -5.73099       -10.34239         0.69872
| 92>    H       -4.61367       -10.87002        -1.25697
| 93>    H       -2.11761       -11.86868        -4.45986
| 94>    H       -3.11815       -12.34361        -1.62823
| 95>    H       -1.50223       -11.70748        -1.99066
| 96>    H       -1.13758       -13.72921        -3.25880
| 97>    H       -1.74049       -14.18857        -1.80420
| 98>    H       -4.96379       -12.14356        -3.38925
| 99>    H       -3.98324       -13.43647        -4.11136
|100>    H       -3.88512       -12.03895        -6.09613
|101>    H       -4.96676       -11.01858        -5.42274
|102>    H       -1.23962       -10.39620        -5.82542
|103>    H       -0.07014        -8.26406        -6.43062
|104>    H       -1.33299        -6.09985        -6.52266
|105>    H       -2.82988        -5.80006        -4.59270
|106>    H       -4.37505        -6.04933        -2.50936
|107>    H       -5.65463        -6.77656        -0.55859
|108>    H       -2.76702        -8.54753        -7.85130
|109>    H        0.14411        -8.95797        -8.72169
|110>    H       -3.11780       -10.43987       -13.51929
|111>    H       -4.98491       -12.40137        -7.89541
|112>    H       -6.38014       -13.32325       -10.47607
|113>    H      -10.64463       -16.83929        -5.48098
|114>    H       -6.39416       -13.45953        -6.53498
|115> *
|116>
|117>                          ****END OF INPUT****

CARTESIAN COORDINATES (ANGSTROEM)
---------------------------------
  C     -4.425110  -15.529140    5.439930
  S     -3.828420  -13.903130    5.418800
  C     -5.442640  -13.310710    5.423540
  N     -5.933380  -12.064390    5.404070
  C     -7.222720  -12.083930    5.429870
  S     -7.963170  -13.689200    5.459160
  C     -6.374580  -14.351060    5.444390
  C     -5.780600  -15.627090    5.451090
  C     -8.031160  -10.877460    5.369070
  C     -7.912330  -10.002430    4.291270
  C     -7.115190  -10.144740    3.047730
  O     -6.463090  -11.082530    2.672300
  N     -7.318850   -8.952130    2.342860
  C     -8.220790   -8.095830    2.988760
  O     -8.560110   -7.018420    2.576750
  C     -8.620490   -8.797990    4.229010
  C     -9.512940   -8.420140    5.214260
  C     -9.658220   -9.299960    6.281400
  C     -8.932120  -10.491070    6.372750
  C     -9.149380  -11.236880    7.624520
  O     -8.607920  -12.233960    7.998110
  S    -10.386770  -10.374380    8.606850
  C    -10.561690   -9.039710    7.417850
  O    -11.296060   -8.110610    7.567930
  C     -6.704900   -8.554340    1.157560
  C     -5.903500   -9.317170    0.406310
  C     -5.204390   -8.883000   -0.784020
  C     -4.549310   -9.831270   -1.541940
  C     -3.796410   -9.454140   -2.669400
  C     -3.029120  -10.193850   -3.568770
  C     -2.854720  -11.664370   -3.674310
  C     -2.331650  -12.319690   -2.383190
  N     -1.956400  -13.693790   -2.661200
  C     -4.175370  -12.360490   -4.112490
  N     -4.646130  -11.982210   -5.424460
  C     -2.454220   -9.248930   -4.500250
  C     -1.603760   -9.422760   -5.530420
  C     -1.167000   -8.278860   -6.380590
  C     -1.663250   -6.942750   -5.935410
  C     -2.489800   -6.783530   -4.882470
  C     -2.914710   -7.905320   -4.134670
  C     -3.726610   -8.043750   -3.019800
  C     -4.423930   -7.094780   -2.243190
  C     -5.138380   -7.505770   -1.161740
  C     -1.691910   -8.603380   -7.758210
  C     -0.934940   -8.974700   -8.784920
  C     -1.501650   -9.382870  -10.062370
  C     -2.584300  -10.262050  -10.143270
  C     -3.270290  -11.024430   -9.083060
  O     -3.022920  -11.106550   -7.900640
  N     -4.296800  -11.729950   -9.712850
  C     -4.289670  -11.552060  -11.101260
  O     -5.051190  -12.054490  -11.884220
  C     -3.161220  -10.627290  -11.368060
  C     -2.678060  -10.161000  -12.575180
  C     -1.573410   -9.317450  -12.511390
  C     -0.998220   -8.934940  -11.294960
  C      0.145340   -8.022050  -11.426700
  O      0.802790   -7.527960  -10.555930
  S      0.450620   -7.717770  -13.172360
  C     -0.921100   -8.754090  -13.704610
  O     -1.212130   -8.924100  -14.850170
  C     -5.183380  -12.487450   -8.953530
  C     -6.190350  -13.236880   -9.417290
  C     -7.069100  -13.956430   -8.543090
  S     -8.334380  -14.938390   -9.263280
  C     -8.879100  -15.402970   -7.702640
  N     -9.883980  -16.203190   -7.303470
  C     -9.923690  -16.260650   -6.022180
  S     -8.717870  -15.328030   -5.158900
  C     -8.108730  -14.816730   -6.692740
  C     -7.080730  -13.994580   -7.167030
  H     -3.715920  -16.333130    5.444440
  H     -6.323670  -16.553330    5.466840
  H    -10.067850   -7.496520    5.169780
  H     -6.962690   -7.533190    0.911260
  H     -5.730990  -10.342390    0.698720
  H     -4.613670  -10.870020   -1.256970
  H     -2.117610  -11.868680   -4.459860
  H     -3.118150  -12.343610   -1.628230
  H     -1.502230  -11.707480   -1.990660
  H     -1.137580  -13.729210   -3.258800
  H     -1.740490  -14.188570   -1.804200
  H     -4.963790  -12.143560   -3.389250
  H     -3.983240  -13.436470   -4.111360
  H     -3.885120  -12.038950   -6.096130
  H     -4.966760  -11.018580   -5.422740
  H     -1.239620  -10.396200   -5.825420
  H     -0.070140   -8.264060   -6.430620
  H     -1.332990   -6.099850   -6.522660
  H     -2.829880   -5.800060   -4.592700
  H     -4.375050   -6.049330   -2.509360
  H     -5.654630   -6.776560   -0.558590
  H     -2.767020   -8.547530   -7.851300
  H      0.144110   -8.957970   -8.721690
  H     -3.117800  -10.439870  -13.519290
  H     -4.984910  -12.401370   -7.895410
  H     -6.380140  -13.323250  -10.476070
  H    -10.644630  -16.839290   -5.480980
  H     -6.394160  -13.459530   -6.534980

 Total Charge           Charge          ....    0
 Multiplicity           Mult            ....    1
 Number of Electrons    NEL             ....  542
 Basis Dimension        Dim             .... 1172

ORBITAL ENERGIES
----------------

  NO   OCC          E(Eh)            E(eV)
   0   2.0000     -88.965933     -2420.8861
   1   2.0000     -88.957994     -2420.6701
   2   2.0000     -88.957800     -2420.6648
   3   2.0000     -88.956403     -2420.6268
   4   2.0000     -88.952483     -2420.5201
   5   2.0000     -88.946544     -2420.3585
   6   2.0000     -19.251576      -523.8620
   7   2.0000     -19.251365      -523.8563
   8   2.0000     -19.249300      -523.8001
   9   2.0000     -19.248957      -523.7907
  10   2.0000     -19.243683      -523.6472
  11   2.0000     -19.241030      -523.5750
  12   2.0000     -19.236561      -523.4534
  13   2.0000     -19.232658      -523.3472
  14   2.0000     -14.490910      -394.3177
  15   2.0000     -14.484062      -394.1314
  16   2.0000     -14.421736      -392.4354
  17   2.0000     -14.405794      -392.0016
  18   2.0000     -14.379548      -391.2874
  19   2.0000     -14.373708      -391.1285
  20   2.0000     -10.423765      -283.6451
  21   2.0000     -10.420158      -283.5469
  22   2.0000     -10.415128      -283.4101
  23   2.0000     -10.414507      -283.3931
  24   2.0000     -10.413534      -283.3667
  25   2.0000     -10.412613      -283.3416
  26   2.0000     -10.411994      -283.3248
  27   2.0000     -10.410736      -283.2905
  28   2.0000     -10.346158      -281.5333
  29   2.0000     -10.343327      -281.4562
  30   2.0000     -10.342057      -281.4217
  31   2.0000     -10.335981      -281.2564
  32   2.0000     -10.335308      -281.2380
  33   2.0000     -10.333609      -281.1918
  34   2.0000     -10.332620      -281.1649
  35   2.0000     -10.332514      -281.1620
  36   2.0000     -10.330992      -281.1206
  37   2.0000     -10.330836      -281.1163
  38   2.0000     -10.330681      -281.1121
  39   2.0000     -10.330172      -281.0983
  40   2.0000     -10.329369      -281.0764
  41   2.0000     -10.321044      -280.8499
  42   2.0000     -10.319864      -280.8178
  43   2.0000     -10.313314      -280.6395
  44   2.0000     -10.313261      -280.6381
  45   2.0000     -10.308346      -280.5044
  46   2.0000     -10.302607      -280.3482
  47   2.0000     -10.302044      -280.3329
  48   2.0000     -10.301714      -280.3239
  49   2.0000     -10.301263      -280.3116
  50   2.0000     -10.299104      -280.2529
  51   2.0000     -10.295624      -280.1582
  52   2.0000     -10.290372      -280.0153
  53   2.0000     -10.288184      -279.9557
  54   2.0000     -10.285258      -279.8761
  55   2.0000     -10.281288      -279.7681
  56   2.0000     -10.280895      -279.7574
  57   2.0000     -10.276856      -279.6475
  58   2.0000     -10.275105      -279.5998
  59   2.0000     -10.273218      -279.5485
  60   2.0000     -10.271893      -279.5124
  61   2.0000     -10.271083      -279.4904
  62   2.0000     -10.269019      -279.4342
  63   2.0000     -10.268849      -279.4296
  64   2.0000     -10.265906      -279.3495
  65   2.0000     -10.265819      -279.3471
  66   2.0000     -10.265088      -279.3273
  67   2.0000     -10.263983      -279.2972
  68   2.0000     -10.262938      -279.2687
  69   2.0000     -10.261943      -279.2417
  70   2.0000     -10.260734      -279.2088
  71   2.0000     -10.258068      -279.1362
  72   2.0000      -8.061653      -219.3687
  73   2.0000      -8.057126      -219.2455
  74   2.0000      -8.055558      -219.2029
  75   2.0000      -8.054062      -219.1622
  76   2.0000      -8.048465      -219.0099
  77   2.0000      -8.042359      -218.8437
  78   2.0000      -6.030971      -164.1111
  79   2.0000      -6.027089      -164.0054
  80   2.0000      -6.025989      -163.9755
  81   2.0000      -6.024396      -163.9322
  82   2.0000      -6.023450      -163.9064
  83   2.0000      -6.023319      -163.9028
  84   2.0000      -6.022730      -163.8868
  85   2.0000      -6.021165      -163.8442
  86   2.0000      -6.019339      -163.7946
  87   2.0000      -6.018186      -163.7632
  88   2.0000      -6.017675      -163.7493
  89   2.0000      -6.016626      -163.7207
  90   2.0000      -6.015778      -163.6976
  91   2.0000      -6.013779      -163.6432
  92   2.0000      -6.011626      -163.5847
  93   2.0000      -6.010427      -163.5520
  94   2.0000      -6.007851      -163.4819
  95   2.0000      -6.004106      -163.3800
  96   2.0000      -1.187923       -32.3250
  97   2.0000      -1.181168       -32.1412
  98   2.0000      -1.174860       -31.9696
  99   2.0000      -1.173728       -31.9388
 100   2.0000      -1.170848       -31.8604
 101   2.0000      -1.169665       -31.8282
 102   2.0000      -1.163755       -31.6674
 103   2.0000      -1.157320       -31.4923
 104   2.0000      -1.080111       -29.3913
 105   2.0000      -1.077789       -29.3281
 106   2.0000      -1.073761       -29.2185
 107   2.0000      -1.059831       -28.8395
 108   2.0000      -1.020518       -27.7697
 109   2.0000      -1.018974       -27.7277
 110   2.0000      -0.983490       -26.7621
 111   2.0000      -0.971723       -26.4419
 112   2.0000      -0.965645       -26.2765
 113   2.0000      -0.964290       -26.2397
 114   2.0000      -0.959356       -26.1054
 115   2.0000      -0.958190       -26.0737
 116   2.0000      -0.949334       -25.8327
 117   2.0000      -0.948247       -25.8031
 118   2.0000      -0.928952       -25.2781
 119   2.0000      -0.916412       -24.9368
 120   2.0000      -0.911156       -24.7938
 121   2.0000      -0.903668       -24.5900
 122   2.0000      -0.898409       -24.4469
 123   2.0000      -0.895321       -24.3629
 124   2.0000      -0.887017       -24.1370
 125   2.0000      -0.874009       -23.7830
 126   2.0000      -0.863795       -23.5051
 127   2.0000      -0.863495       -23.4969
 128   2.0000      -0.840768       -22.8785
 129   2.0000      -0.836795       -22.7704
 130   2.0000      -0.825682       -22.4680
 131   2.0000      -0.820767       -22.3342
 132   2.0000      -0.815827       -22.1998
 133   2.0000      -0.811046       -22.0697
 134   2.0000      -0.803751       -21.8712
 135   2.0000      -0.802969       -21.8499
 136   2.0000      -0.801629       -21.8134
 137   2.0000      -0.799411       -21.7531
 138   2.0000      -0.776525       -21.1303
 139   2.0000      -0.769518       -20.9397
 140   2.0000      -0.756182       -20.5768
 141   2.0000      -0.754500       -20.5310
 142   2.0000      -0.751922       -20.4608
 143   2.0000      -0.737252       -20.0616
 144   2.0000      -0.724618       -19.7179
 145   2.0000      -0.717219       -19.5165
 146   2.0000      -0.713869       -19.4254
 147   2.0000      -0.704577       -19.1725
 148   2.0000      -0.700322       -19.0567
 149   2.0000      -0.693896       -18.8819
 150   2.0000      -0.689263       -18.7558
 151   2.0000      -0.672236       -18.2925
 152   2.0000      -0.670600       -18.2480
 153   2.0000      -0.666572       -18.1383
 154   2.0000      -0.662074       -18.0160
 155   2.0000      -0.657937       -17.9034
 156   2.0000      -0.652225       -17.7479
 157   2.0000      -0.651940       -17.7402
 158   2.0000      -0.643899       -17.5214
 159   2.0000      -0.635735       -17.2992
 160   2.0000      -0.634257       -17.2590
 161   2.0000      -0.631239       -17.1769
 162   2.0000      -0.628118       -17.0920
 163   2.0000      -0.623058       -16.9543
 164   2.0000      -0.620046       -16.8723
 165   2.0000      -0.617591       -16.8055
 166   2.0000      -0.606544       -16.5049
 167   2.0000      -0.603465       -16.4211
 168   2.0000      -0.596857       -16.2413
 169   2.0000      -0.595809       -16.2128
 170   2.0000      -0.590673       -16.0730
 171   2.0000      -0.589222       -16.0336
 172   2.0000      -0.580911       -15.8074
 173   2.0000      -0.579154       -15.7596
 174   2.0000      -0.575307       -15.6549
 175   2.0000      -0.570941       -15.5361
 176   2.0000      -0.569417       -15.4946
 177   2.0000      -0.566298       -15.4097
 178   2.0000      -0.563902       -15.3446
 179   2.0000      -0.561974       -15.2921
 180   2.0000      -0.559411       -15.2223
 181   2.0000      -0.557977       -15.1833
 182   2.0000      -0.555417       -15.1137
 183   2.0000      -0.554685       -15.0938
 184   2.0000      -0.552979       -15.0473
 185   2.0000      -0.552583       -15.0366
 186   2.0000      -0.546760       -14.8781
 187   2.0000      -0.545411       -14.8414
 188   2.0000      -0.544554       -14.8181
 189   2.0000      -0.541751       -14.7418
 190   2.0000      -0.539123       -14.6703
 191   2.0000      -0.538030       -14.6406
 192   2.0000      -0.537906       -14.6372
 193   2.0000      -0.531158       -14.4536
 194   2.0000      -0.528937       -14.3931
 195   2.0000      -0.528693       -14.3865
 196   2.0000      -0.524680       -14.2773
 197   2.0000      -0.522663       -14.2224
 198   2.0000      -0.519480       -14.1358
 199   2.0000      -0.515801       -14.0357
 200   2.0000      -0.515523       -14.0281
 201   2.0000      -0.513992       -13.9864
 202   2.0000      -0.513302       -13.9677
 203   2.0000      -0.509711       -13.8699
 204   2.0000      -0.508440       -13.8354
 205   2.0000      -0.507404       -13.8072
 206   2.0000      -0.506887       -13.7931
 207   2.0000      -0.504471       -13.7274
 208   2.0000      -0.502052       -13.6615
 209   2.0000      -0.500275       -13.6132
 210   2.0000      -0.491835       -13.3835
 211   2.0000      -0.486751       -13.2452
 212   2.0000      -0.485294       -13.2055
 213   2.0000      -0.484293       -13.1783
 214   2.0000      -0.482874       -13.1397
 215   2.0000      -0.481627       -13.1058
 216   2.0000      -0.480877       -13.0853
 217   2.0000      -0.476845       -12.9756
 218   2.0000      -0.473350       -12.8805
 219   2.0000      -0.468999       -12.7621
 220   2.0000      -0.465983       -12.6800
 221   2.0000      -0.459664       -12.5081
 222   2.0000      -0.458222       -12.4688
 223   2.0000      -0.453320       -12.3355
 224   2.0000      -0.449481       -12.2310
 225   2.0000      -0.448620       -12.2076
 226   2.0000      -0.445314       -12.1176
 227   2.0000      -0.439209       -11.9515
 228   2.0000      -0.437487       -11.9046
 229   2.0000      -0.435493       -11.8504
 230   2.0000      -0.431875       -11.7519
 231   2.0000      -0.429977       -11.7003
 232   2.0000      -0.423300       -11.5186
 233   2.0000      -0.417684       -11.3658
 234   2.0000      -0.416924       -11.3451
 235   2.0000      -0.409592       -11.1456
 236   2.0000      -0.406920       -11.0729
 237   2.0000      -0.405409       -11.0317
 238   2.0000      -0.403656       -10.9840
 239   2.0000      -0.391557       -10.6548
 240   2.0000      -0.387556       -10.5459
 241   2.0000      -0.387085       -10.5331
 242   2.0000      -0.384560       -10.4644
 243   2.0000      -0.381616       -10.3843
 244   2.0000      -0.381547       -10.3824
 245   2.0000      -0.377882       -10.2827
 246   2.0000      -0.374312       -10.1856
 247   2.0000      -0.373338       -10.1590
 248   2.0000      -0.373090       -10.1523
 249   2.0000      -0.371649       -10.1131
 250   2.0000      -0.367780       -10.0078
 251   2.0000      -0.366969        -9.9857
 252   2.0000      -0.365125        -9.9356
 253   2.0000      -0.356618        -9.7041
 254   2.0000      -0.356083        -9.6895
 255   2.0000      -0.354350        -9.6424
 256   2.0000      -0.353484        -9.6188
 257   2.0000      -0.352304        -9.5867
 258   2.0000      -0.343993        -9.3605
 259   2.0000      -0.342009        -9.3065
 260   2.0000      -0.340185        -9.2569
 261   2.0000      -0.333795        -9.0830
 262   2.0000      -0.319329        -8.6894
 263   2.0000      -0.312655        -8.5078
 264   2.0000      -0.301486        -8.2039
 265   2.0000      -0.292476        -7.9587
 266   2.0000      -0.289019        -7.8646
 267   2.0000      -0.288137        -7.8406
 268   2.0000      -0.277935        -7.5630
 269   2.0000      -0.254336        -6.9208
 270   2.0000      -0.220974        -6.0130
 271   0.0000      -0.103611        -2.8194
 272   0.0000      -0.098870        -2.6904
 273   0.0000      -0.075059        -2.0425
 274   0.0000      -0.063567        -1.7297
 275   0.0000      -0.056966        -1.5501

MULLIKEN ATOMIC CHARGES
-----------------------
   0 C :   -0.085873
   1 S :    0.137717
   2 C :   -0.100330
   3 N :   -0.020921
   4 C :   -0.176710
   5 S :    0.163604
   6 C :   -0.013552
   7 C :    0.015773
   8 C :    0.046980
   9 C :    0.001062
  10 C :    0.217022
  11 O :   -0.127539
  12 N :   -0.232732
  13 C :    0.193725
  14 O :   -0.134110
  15 C :    0.008986
  16 C :   -0.057732
  17 C :    0.041270
  18 C :    0.065767
  19 C :    0.034157
  20 O :   -0.110788
  21 S :    0.013904
  22 C :    0.047067
  23 O :   -0.116030
  24 C :    0.073132
  25 C :   -0.018767
  26 C :    0.127057
  27 C :   -0.111548
  28 C :    0.058811
  29 C :   -0.022919
  30 C :   -0.074544
  31 C :    0.137669
  32 N :   -0.214728
  33 C :    0.142719
  34 N :   -0.220175
  35 C :    0.109082
  36 C :   -0.119144
  37 C :    0.105457
  38 C :   -0.050474
  39 C :    0.024070
  40 C :    0.008664
  41 C :    0.033831
  42 C :   -0.004583
  43 C :   -0.009706
  44 C :    0.014351
  45 C :   -0.025291
  46 C :    0.033209
  47 C :   -0.038366
  48 C :    0.193491
  49 O :   -0.165549
  50 N :   -0.216972
  51 C :    0.213236
  52 O :   -0.130631
  53 C :    0.013480
  54 C :   -0.070655
  55 C :    0.054346
  56 C :    0.046496
  57 C :    0.035209
  58 O :   -0.128293
  59 S :    0.012150
  60 C :    0.045919
  61 O :   -0.114463
  62 C :    0.067120
  63 C :    0.058375
  64 C :   -0.114414
  65 S :    0.132305
  66 C :   -0.093850
  67 N :   -0.059971
  68 C :   -0.009558
  69 S :    0.107876
  70 C :   -0.031696
  71 C :   -0.023223
  72 H :    0.033803
  73 H :   -0.004373
  74 H :    0.021801
  75 H :    0.027046
  76 H :    0.014972
  77 H :   -0.038924
  78 H :   -0.041498
  79 H :   -0.009146
  80 H :   -0.005809
  81 H :    0.088015
  82 H :    0.092627
  83 H :   -0.010607
  84 H :    0.010209
  85 H :    0.121511
  86 H :    0.099036
  87 H :   -0.005619
  88 H :    0.031682
  89 H :   -0.007244
  90 H :   -0.034481
  91 H :   -0.038036
  92 H :   -0.032426
  93 H :    0.014958
  94 H :    0.022620
  95 H :    0.020661
  96 H :    0.002517
  97 H :    0.012130
  98 H :    0.038057
  99 H :   -0.012734
Sum of atomic charges:   -0.0000000

LOEWDIN ATOMIC CHARGES
----------------------
   0 C :   -0.167201
   1 S :    0.433303
   2 C :   -0.200586
   3 N :   -0.076188
   4 C :   -0.133729
   5 S :    0.427392
   6 C :   -0.214612
   7 C :   -0.073630
   8 C :    0.004730
   9 C :   -0.014056
  10 C :    0.102581
  11 O :   -0.116881
  12 N :   -0.011550
  13 C :    0.096202
  14 O :   -0.131872
  15 C :   -0.029608
  16 C :    0.046882
  17 C :   -0.053568
  18 C :   -0.052104
  19 C :   -0.048233
  20 O :   -0.105940
  21 S :    0.302214
  22 C :   -0.046326
  23 O :   -0.108814
  24 C :    0.014794
  25 C :   -0.029657
  26 C :   -0.021135
  27 C :   -0.019600
  28 C :   -0.019221
  29 C :   -0.041992
  30 C :   -0.053892
  31 C :    0.027325
  32 N :   -0.113907
  33 C :    0.024807
  34 N :   -0.100105
  35 C :   -0.020514
  36 C :    0.071240
  37 C :   -0.026556
  38 C :   -0.038860
  39 C :   -0.012679
  40 C :   -0.038428
  41 C :   -0.029217
  42 C :   -0.006489
  43 C :   -0.026357
  44 C :    0.045144
  45 C :   -0.051213
  46 C :    0.037748
  47 C :   -0.038804
  48 C :    0.107395
  49 O :   -0.143943
  50 N :   -0.005350
  51 C :    0.100120
  52 O :   -0.122380
  53 C :   -0.024286
  54 C :    0.037989
  55 C :   -0.049616
  56 C :   -0.059389
  57 C :   -0.042708
  58 O :   -0.112712
  59 S :    0.300260
  60 C :   -0.044449
  61 O :   -0.106984
  62 C :    0.016775
  63 C :   -0.048903
  64 C :   -0.166152
  65 S :    0.425949
  66 C :   -0.206832
  67 N :   -0.096949
  68 C :   -0.124207
  69 S :    0.395849
  70 C :   -0.218769
  71 C :   -0.061608
  72 H :    0.025522
  73 H :    0.034333
  74 H :    0.053434
  75 H :    0.029718
  76 H :    0.034225
  77 H :    0.022520
  78 H :    0.016863
  79 H :    0.016686
  80 H :    0.002509
  81 H :    0.050887
  82 H :    0.055707
  83 H :    0.015074
  84 H :    0.016091
  85 H :    0.042577
  86 H :    0.053641
  87 H :    0.029264
  88 H :    0.055959
  89 H :    0.026026
  90 H :    0.030314
  91 H :    0.027048
  92 H :    0.025027
  93 H :    0.028858
  94 H :    0.035569
  95 H :    0.052639
  96 H :    0.032373
  97 H :    0.032928
  98 H :    0.016739
  99 H :    0.027529

  Mayer bond orders larger than 0.100000
B(  0-C ,  1-S ) :   1.1580 B(  0-C ,  7-C ) :   1.5907 B(  0-C , 72-H ) :   0.9700
B(  1-S ,  2-C ) :   1.1060 B(  2-C ,  3-N ) :   1.3571 B(  2-C ,  6-C ) :   1.3750
B(  3-N ,  4-C ) :   1.7403 B(  3-N ,  5-S ) :   0.1171 B(  4-C ,  5-S ) :   1.0991
B(  4-C ,  8-C ) :   0.9645 B(  5-S ,  6-C ) :   1.1023 B(  6-C ,  7-C ) :   1.2451
B(  7-C , 73-H ) :   1.0036 B(  8-C ,  9-C ) :   1.4430 B(  8-C , 18-C ) :   1.4075
B(  9-C , 10-C ) :   0.8885 B(  9-C , 15-C ) :   1.3723 B( 10-C , 11-O ) :   2.1741
B( 10-C , 12-N ) :   1.0373 B( 12-N , 13-C ) :   1.0357 B( 12-N , 24-C ) :   1.0027
B( 13-C , 14-O ) :   2.2321 B( 13-C , 15-C ) :   0.8684 B( 15-C , 16-C ) :   1.3383
B( 16-C , 17-C ) :   1.3355 B( 16-C , 74-H ) :   1.0268 B( 17-C , 18-C ) :   1.3342
B( 17-C , 22-C ) :   0.8382 B( 18-C , 19-C ) :   0.8443 B( 19-C , 20-O ) :   2.1938
B( 19-C , 21-S ) :   1.0227 B( 20-O , 21-S ) :   0.1089 B( 21-S , 22-C ) :   1.0260
B( 21-S , 23-O ) :   0.1085 B( 22-C , 23-O ) :   2.2255 B( 24-C , 25-C ) :   1.7108
B( 24-C , 75-H ) :   0.9643 B( 25-C , 26-C ) :   1.0564 B( 25-C , 76-H ) :   0.9754
B( 26-C , 27-C ) :   1.5221 B( 26-C , 43-C ) :   1.1310 B( 27-C , 28-C ) :   1.1122
B( 27-C , 77-H ) :   1.0026 B( 28-C , 29-C ) :   1.4584 B( 28-C , 41-C ) :   1.1300
B( 29-C , 30-C ) :   0.9985 B( 29-C , 35-C ) :   1.1176 B( 30-C , 31-C ) :   1.0289
B( 30-C , 33-C ) :   1.0081 B( 30-C , 78-H ) :   0.8895 B( 31-C , 32-N ) :   1.0855
B( 31-C , 79-H ) :   0.9310 B( 31-C , 80-H ) :   0.9487 B( 32-N , 81-H ) :   0.9717
B( 32-N , 82-H ) :   0.9678 B( 33-C , 34-N ) :   1.1073 B( 33-C , 83-H ) :   0.9474
B( 33-C , 84-H ) :   0.9375 B( 34-N , 85-H ) :   0.9266 B( 34-N , 86-H ) :   0.9744
B( 34-N , 99-H ) :   0.1044 B( 35-C , 36-C ) :   1.6363 B( 35-C , 40-C ) :   1.0449
B( 36-C , 37-C ) :   0.9806 B( 36-C , 87-H ) :   0.9664 B( 37-C , 38-C ) :   0.9858
B( 37-C , 44-C ) :   0.9755 B( 37-C , 88-H ) :   0.8779 B( 38-C , 39-C ) :   1.7065
B( 38-C , 89-H ) :   0.9776 B( 39-C , 40-C ) :   1.1338 B( 39-C , 90-H ) :   0.9913
B( 40-C , 41-C ) :   1.4266 B( 41-C , 42-C ) :   1.1443 B( 42-C , 43-C ) :   1.6126
B( 42-C , 91-H ) :   0.9909 B( 43-C , 92-H ) :   0.9810 B( 44-C , 45-C ) :   1.8276
B( 44-C , 93-H ) :   0.9627 B( 45-C , 46-C ) :   1.0501 B( 45-C , 94-H ) :   0.9450
B( 46-C , 47-C ) :   1.3877 B( 46-C , 56-C ) :   1.3656 B( 47-C , 48-C ) :   0.8981
B( 47-C , 53-C ) :   1.3753 B( 48-C , 49-O ) :   2.0992 B( 48-C , 50-N ) :   1.0679
B( 50-N , 51-C ) :   1.0234 B( 50-N , 62-C ) :   0.9958 B( 51-C , 52-O ) :   2.2187
B( 51-C , 53-C ) :   0.8764 B( 53-C , 54-C ) :   1.3457 B( 54-C , 55-C ) :   1.3290
B( 54-C , 95-H ) :   1.0293 B( 55-C , 56-C ) :   1.3401 B( 55-C , 60-C ) :   0.8385
B( 56-C , 57-C ) :   0.8581 B( 57-C , 58-O ) :   2.1701 B( 57-C , 59-S ) :   1.0303
B( 58-O , 59-S ) :   0.1067 B( 59-S , 60-C ) :   1.0223 B( 59-S , 61-O ) :   0.1083
B( 60-C , 61-O ) :   2.2280 B( 62-C , 63-C ) :   1.7701 B( 62-C , 96-H ) :   0.9561
B( 63-C , 64-C ) :   1.0846 B( 63-C , 97-H ) :   0.9571 B( 64-C , 65-S ) :   1.0982
B( 64-C , 71-C ) :   1.5428 B( 65-S , 66-C ) :   1.0991 B( 66-C , 67-N ) :   1.3669
B( 66-C , 70-C ) :   1.3866 B( 67-N , 68-C ) :   1.7300 B( 67-N , 69-S ) :   0.1033
B( 68-C , 69-S ) :   1.1277 B( 68-C , 98-H ) :   0.9663 B( 69-S , 70-C ) :   1.0826
B( 70-C , 71-C ) :   1.2593 B( 71-C , 99-H ) :   0.9741

-----------------------------------------------------------------------------
         ABSORPTION SPECTRUM VIA TRANSITION ELECTRIC DIPOLE MOMENTS
-----------------------------------------------------------------------------
State   Energy  Wavelength   fosc         T2         TX        TY        TZ
        (cm-1)    (nm)                  (au**2)     (au)      (au)      (au)
-----------------------------------------------------------------------------
   0   12505.1    799.7   0.002337673   0.06154  -0.03874  -0.21943  -0.10905
   1   14075.4    710.5   0.044621907   1.04367   0.14010  -0.96749  -0.29666
   2   14866.8    672.6   0.000870445   0.01928   0.05621  -0.12691   0.00298
   3   16998.3    588.3   0.004581370   0.08873   0.19756   0.12140   0.18699
   4   20553.6    486.5   0.045647123   0.73114   0.08385   0.33349  -0.78288
   5   22125.8    452.0   0.000960348   0.01429  -0.06587   0.09973   0.00225
   6   22493.5    444.6   0.195482766   2.86107  -0.74470  -0.36562   1.47405
   7   23706.8    421.8   0.008812830   0.12238   0.21371  -0.20343  -0.18796
   8   25562.9    391.2   0.144151501   1.85646  -0.86454  -1.05308   0.00676
   9   25589.6    390.8   0.027667393   0.35594   0.44959   0.33213  -0.20857
  10   26089.4    383.3   0.061436227   0.77524   0.58222   0.65643  -0.07325
  11   26297.9    380.3   0.000736203   0.00922  -0.04944  -0.08112  -0.01385
  12   26447.0    378.1   0.013783647   0.17158  -0.23834  -0.08177   0.32877
  13   26621.0    375.6   0.373213836   4.61540  -1.15851  -0.05041   1.80851
  14   27035.8    369.9   0.001219571   0.01485   0.00476   0.10558   0.06068
  15   27810.0    359.6   0.052059180   0.61627   0.43095   0.20896  -0.62200
  16   28447.0    351.5   0.026751778   0.30959   0.14260   0.08375  -0.53127
  17   28636.9    349.2   0.217996848   2.50611   1.09825   0.91121  -0.68532
  18   28900.0    346.0   0.000454474   0.00518  -0.05592  -0.04527   0.00099
  19   29236.0    342.0   0.190141743   2.14109   0.63025  -1.29903   0.23750
  20   29357.5    340.6   0.089762400   1.00659   0.67862   0.65036  -0.35084
  21   29702.1    336.7   0.011015518   0.12209  -0.17763   0.28902   0.08373
  22   30076.9    332.5   0.100124915   1.09593  -0.66597   0.34462   0.73052
  23   31536.1    317.1   0.001543319   0.01611  -0.06120  -0.01544   0.11012
  24   31926.4    313.2   0.507440995   5.23253   1.16363   0.30324  -1.94591
  25   32287.3    309.7   0.000390465   0.00398  -0.05779   0.00745   0.02421
  26   32486.2    307.8   0.008177002   0.08287  -0.21001  -0.19532  -0.02473
  27   32589.1    306.9   0.017943431   0.18126  -0.21616   0.06076   0.36172
  28   32758.5    305.3   0.004385583   0.04407  -0.02562   0.05802   0.20013
  29   32793.0    304.9   0.001290990   0.01296  -0.09201  -0.01776   0.06464
  30   32871.2    304.2   0.039662447   0.39723   0.11899   0.15569  -0.59902
  31   32974.1    303.3   0.037760440   0.37700   0.57003  -0.22723  -0.02069
  32   33377.6    299.6   0.043416542   0.42823  -0.38629  -0.52224  -0.07924
  33   33402.5    299.4   0.006507123   0.06413  -0.06413  -0.24064   0.04595
  34   33677.4    296.9   0.173117005   1.69230  -0.44443  -0.08466   1.21968
  35   33762.8    296.2   0.091431346   0.89152  -0.52064  -0.04568   0.78636
  36   33894.8    295.0   0.015196663   0.14760  -0.24661  -0.07721   0.28430
  37   33902.1    295.0   0.110963564   1.07753  -0.62831  -0.15445   0.81172
  38   34223.4    292.2   0.002253599   0.02168   0.07209   0.04958  -0.11842
  39   34356.6    291.1   0.188964658   1.81070   0.55856  -0.19307  -1.20890
  40   34357.3    291.1   0.081120200   0.77729  -0.36904   0.12505   0.79086
  41   34677.9    288.4   0.012597709   0.11960   0.25262   0.22431   0.07390
  42   35276.7    283.5   0.005514930   0.05147  -0.01429   0.03624  -0.22349
  43   35418.5    282.3   0.287104278   2.66861   0.65120  -0.51399  -1.40725
  44   35670.6    280.3   0.250651545   2.31332  -1.04074  -0.14386   1.09977
  45   35872.8    278.8   0.054916998   0.50398  -0.22371  -0.07466   0.66960
  46   35921.2    278.4   0.078823089   0.72240  -0.51577  -0.27702   0.61615
  47   36030.2    277.5   0.114183051   1.04330   0.21032   0.14180  -0.98943
  48   36314.5    275.4   0.656604338   5.95249  -1.65816  -1.19280   1.33424
  49   36632.6    273.0   0.000272574   0.00245   0.02720  -0.03735  -0.01774
  50   37030.1    270.1   0.000135994   0.00121   0.02215   0.01046  -0.02468
  51   37152.9    269.2   0.139397257   1.23520  -0.83781  -0.30149   0.66512
  52   37564.1    266.2   0.011154988   0.09776  -0.19760  -0.15666   0.18487
  53   37605.3    265.9   0.037388044   0.32731   0.12584   0.34669  -0.43735
  54   37728.6    265.1   0.004014648   0.03503   0.13198  -0.11411  -0.06776
  55   37787.0    264.6   0.005707258   0.04972  -0.08683   0.20514  -0.01015
  56   37922.7    263.7   0.016547805   0.14365   0.13667   0.04508  -0.35063
  57   38020.8    263.0   0.018381973   0.15916   0.06328   0.31404   0.23778
  58   38561.6    259.3   0.040078067   0.34216   0.34899   0.28800   0.37071
  59   38677.6    258.5   0.007364550   0.06268  -0.09599   0.22908   0.03152
  60   38722.5    258.2   0.018263452   0.15527   0.25395  -0.15024  -0.26117
  61   39234.7    254.9   0.012231753   0.10263  -0.28960  -0.10668  -0.08595
  62   39417.3    253.7   0.001816520   0.01517  -0.00731   0.04021  -0.11620
  63   40058.7    249.6   0.006162404   0.05064   0.17162  -0.06431  -0.13060

FINAL SINGLE POINT ENERGY     -5313.540650545491

DIPOLE MOMENT
-------------
                                X             Y             Z
Electronic contribution:    -30.67917       0.87314      24.87442
Nuclear contribution   :     32.33577      -1.00570     -24.29436
                        -----------------------------------------
Total Dipole Moment    :      1.65660      -0.13256       0.58006
                        -----------------------------------------
Magnitude (a.u.)       :      1.76022
Magnitude (Debye)      :      4.47411

Rotational constants in cm-1:     0.001281     0.000282     0.000258
Rotational constants in MHz :    38.394810     8.468906     7.734626

                             ****ORCA TERMINATED NORMALLY****
TOTAL RUN TIME: 0 days 0 hours 9 minutes 34 seconds 713 msec
