                         Program Version 4.2.0 -  RELEASE  -
|  1> # ORCA input file
|  2> # SCF done       -186.722353689886          0.000470783868
|  3> ! CAM-B3LYP def2-SVP def2/J RIJCOSX Grid4 TightSCF
|  4> %maxcore 5000
|  5> %tddft
|  6>     Mode sTDDFT
|  7>     Ethresh 5.0
|  8>     maxcore 5000
|  9> end
| 10>
| 11> %pal
| 12>   nprocs 6
| 13>   end
| 14> * xyz 0 1
| 15>    C       18.87587         2.94349         0.30400
| 16>    N       18.91389         3.05484         1.59085
| 17>    C       17.82087         2.40846         2.06573
| 18>    C       17.09563         1.86267         1.02994
| 19>    N       17.77534         2.23186        -0.12581
| 20>    C       17.60543         1.70782        -1.42073
| 21>    O       17.33503         0.55967        -1.63063
| 22>    N       17.81640         2.63671        -2.42400
| 23>    C       17.85206         4.02172        -2.36256
| 24>    C       18.04005         4.44596        -3.63621
| 25>    N       18.12884         3.37521        -4.48698
| 26>    C       17.98253         2.32361        -3.76179
| 27>    C       15.84654         1.17130         1.05728
| 28>    C       14.91635         1.01548         0.05182
| 29>    C       13.78984         0.31707         0.49125
| 30>    C       13.86459        -0.05196         1.84543
| 31>    S       15.32496         0.45568         2.57179
| 32>    C       12.66876        -0.72114         2.20403
| 33>    C       11.84024        -0.78211         1.06332
| 34>    C       12.51932        -0.13410        -0.04843
| 35>    C       12.05881         0.03361        -1.32137
| 36>    C       12.81130         0.71938        -2.29851
| 37>    N       13.41987         1.29245        -3.08364
| 38>    C       10.79932        -0.44794        -1.73716
| 39>    N        9.77596        -0.83328        -2.08215
| 40>    C       10.61925        -1.38910         1.31667
| 41>    C       10.50177        -1.78536         2.64463
| 42>    S       11.94043        -1.41630         3.58509
| 43>    C        9.36510        -2.36314         3.26275
| 44>    C        9.35728        -2.65460         4.64541
| 45>    C        8.17957        -3.12800         5.32678
| 46>    N        8.22890        -3.36479         6.64137
| 47>    C        9.34473        -3.16971         7.30295
| 48>    C       10.51523        -2.69780         6.62579
| 49>    N       10.48408        -2.45679         5.33669
| 50>    C       11.71988        -2.48358         7.33941
| 51>    N       12.67978        -2.31661         7.94154
| 52>    C        9.37661        -3.42984         8.69493
| 53>    N        9.43027        -3.63105         9.82120
| 54>    C        6.95076        -3.33233         4.65967
| 55>    C        6.97529        -3.11367         3.26117
| 56>    C        8.15767        -2.63924         2.57706
| 57>    N        7.93862        -2.49431         1.27013
| 58>    S        6.42816        -2.90859         0.92944
| 59>    N        5.96026        -3.28812         2.41479
| 60>    C        5.77938        -3.67996         5.37727
| 61>    C        4.49921        -3.84176         4.85834
| 62>    C        3.56593        -4.09685         5.85202
| 63>    C        4.13719        -4.14092         7.14171
| 64>    S        5.82470        -3.87090         7.12424
| 65>    C        3.09767        -4.36498         8.07745
| 66>    C        1.87655        -4.45118         7.38688
| 67>    C        2.12899        -4.29524         5.96533
| 68>    C        1.20923        -4.31739         4.95824
| 69>    C        1.56982        -4.15260         3.60401
| 70>    N        1.85373        -4.01609         2.50159
| 71>    C       -0.16753        -4.49396         5.21258
| 72>    N       -1.28701        -4.62496         5.42434
| 73>    C        0.78144        -4.63549         8.23316
| 74>    C        1.16201        -4.70080         9.55671
| 75>    S        2.89469        -4.52208         9.76638
| 76>    C        0.34795        -4.82943        10.72268
| 77>    C        0.61853        -4.48020        12.02735
| 78>    N       -0.46844        -4.68919        12.80970
| 79>    C       -1.40053        -5.13342        12.03254
| 80>    N       -0.98132        -5.23786        10.72285
| 81>    C       -1.66054        -5.93483         9.70660
| 82>    O       -1.13950        -6.77080         9.02513
| 83>    N       -2.99227        -5.57416         9.59486
| 84>    C       -3.93144        -6.25917         8.83968
| 85>    C       -5.07666        -5.54103         8.92381
| 86>    N       -4.87721        -4.41973         9.68732
| 87>    C       -3.65020        -4.45339        10.07214
| 88>    H       19.62162         3.31651        -0.36898
| 89>    H       17.60533         2.37448         3.11460
| 90>    H       17.71185         4.56147        -1.44954
| 91>    H       18.11791         5.44731        -4.00824
| 92>    H       17.99330         1.30909        -4.10442
| 93>    H       15.03534         1.39922        -0.94400
| 94>    H        9.82892        -1.54323         0.60525
| 95>    H        4.29745        -3.75885         3.80622
| 96>    H       -0.23520        -4.70006         7.89391
| 97>    H        1.52886        -4.08583        12.43173
| 98>    H       -2.38003        -5.42950        12.35045
| 99>    H       -3.67696        -7.16968         8.33994
|100>    H       -6.03432        -5.73944         8.48824
|101>    H       -3.17101        -3.70068        10.66517
|102> *
|103>
|104>                          ****END OF INPUT****

CARTESIAN COORDINATES (ANGSTROEM)
---------------------------------
  C     18.875870    2.943490    0.304000
  N     18.913890    3.054840    1.590850
  C     17.820870    2.408460    2.065730
  C     17.095630    1.862670    1.029940
  N     17.775340    2.231860   -0.125810
  C     17.605430    1.707820   -1.420730
  O     17.335030    0.559670   -1.630630
  N     17.816400    2.636710   -2.424000
  C     17.852060    4.021720   -2.362560
  C     18.040050    4.445960   -3.636210
  N     18.128840    3.375210   -4.486980
  C     17.982530    2.323610   -3.761790
  C     15.846540    1.171300    1.057280
  C     14.916350    1.015480    0.051820
  C     13.789840    0.317070    0.491250
  C     13.864590   -0.051960    1.845430
  S     15.324960    0.455680    2.571790
  C     12.668760   -0.721140    2.204030
  C     11.840240   -0.782110    1.063320
  C     12.519320   -0.134100   -0.048430
  C     12.058810    0.033610   -1.321370
  C     12.811300    0.719380   -2.298510
  N     13.419870    1.292450   -3.083640
  C     10.799320   -0.447940   -1.737160
  N      9.775960   -0.833280   -2.082150
  C     10.619250   -1.389100    1.316670
  C     10.501770   -1.785360    2.644630
  S     11.940430   -1.416300    3.585090
  C      9.365100   -2.363140    3.262750
  C      9.357280   -2.654600    4.645410
  C      8.179570   -3.128000    5.326780
  N      8.228900   -3.364790    6.641370
  C      9.344730   -3.169710    7.302950
  C     10.515230   -2.697800    6.625790
  N     10.484080   -2.456790    5.336690
  C     11.719880   -2.483580    7.339410
  N     12.679780   -2.316610    7.941540
  C      9.376610   -3.429840    8.694930
  N      9.430270   -3.631050    9.821200
  C      6.950760   -3.332330    4.659670
  C      6.975290   -3.113670    3.261170
  C      8.157670   -2.639240    2.577060
  N      7.938620   -2.494310    1.270130
  S      6.428160   -2.908590    0.929440
  N      5.960260   -3.288120    2.414790
  C      5.779380   -3.679960    5.377270
  C      4.499210   -3.841760    4.858340
  C      3.565930   -4.096850    5.852020
  C      4.137190   -4.140920    7.141710
  S      5.824700   -3.870900    7.124240
  C      3.097670   -4.364980    8.077450
  C      1.876550   -4.451180    7.386880
  C      2.128990   -4.295240    5.965330
  C      1.209230   -4.317390    4.958240
  C      1.569820   -4.152600    3.604010
  N      1.853730   -4.016090    2.501590
  C     -0.167530   -4.493960    5.212580
  N     -1.287010   -4.624960    5.424340
  C      0.781440   -4.635490    8.233160
  C      1.162010   -4.700800    9.556710
  S      2.894690   -4.522080    9.766380
  C      0.347950   -4.829430   10.722680
  C      0.618530   -4.480200   12.027350
  N     -0.468440   -4.689190   12.809700
  C     -1.400530   -5.133420   12.032540
  N     -0.981320   -5.237860   10.722850
  C     -1.660540   -5.934830    9.706600
  O     -1.139500   -6.770800    9.025130
  N     -2.992270   -5.574160    9.594860
  C     -3.931440   -6.259170    8.839680
  C     -5.076660   -5.541030    8.923810
  N     -4.877210   -4.419730    9.687320
  C     -3.650200   -4.453390   10.072140
  H     19.621620    3.316510   -0.368980
  H     17.605330    2.374480    3.114600
  H     17.711850    4.561470   -1.449540
  H     18.117910    5.447310   -4.008240
  H     17.993300    1.309090   -4.104420
  H     15.035340    1.399220   -0.944000
  H      9.828920   -1.543230    0.605250
  H      4.297450   -3.758850    3.806220
  H     -0.235200   -4.700060    7.893910
  H      1.528860   -4.085830   12.431730
  H     -2.380030   -5.429500   12.350450
  H     -3.676960   -7.169680    8.339940
  H     -6.034320   -5.739440    8.488240
  H     -3.171010   -3.700680   10.665170

 Total Charge           Charge          ....    0
 Multiplicity           Mult            ....    1
 Number of Electrons    NEL             ....  524
 Basis Dimension        Dim             .... 1112

ORBITAL ENERGIES
----------------

  NO   OCC          E(Eh)            E(eV)
   0   2.0000     -89.056119     -2423.3402
   1   2.0000     -88.995403     -2421.6880
   2   2.0000     -88.995322     -2421.6858
   3   2.0000     -88.989162     -2421.5182
   4   2.0000     -88.989142     -2421.5177
   5   2.0000     -19.248814      -523.7869
   6   2.0000     -19.248496      -523.7782
   7   2.0000     -14.507921      -394.7806
   8   2.0000     -14.507869      -394.7792
   9   2.0000     -14.505566      -394.7165
  10   2.0000     -14.505106      -394.7040
  11   2.0000     -14.481186      -394.0531
  12   2.0000     -14.481041      -394.0492
  13   2.0000     -14.464568      -393.6009
  14   2.0000     -14.464503      -393.5991
  15   2.0000     -14.442889      -393.0110
  16   2.0000     -14.442812      -393.0089
  17   2.0000     -14.433045      -392.7431
  18   2.0000     -14.432739      -392.7348
  19   2.0000     -14.432022      -392.7153
  20   2.0000     -14.431857      -392.7108
  21   2.0000     -14.415654      -392.2699
  22   2.0000     -14.415259      -392.2592
  23   2.0000     -14.408759      -392.0823
  24   2.0000     -14.407188      -392.0395
  25   2.0000     -10.464134      -284.7436
  26   2.0000     -10.463906      -284.7374
  27   2.0000     -10.398221      -282.9500
  28   2.0000     -10.397988      -282.9436
  29   2.0000     -10.366758      -282.0938
  30   2.0000     -10.366627      -282.0903
  31   2.0000     -10.360880      -281.9339
  32   2.0000     -10.360632      -281.9271
  33   2.0000     -10.356462      -281.8137
  34   2.0000     -10.356218      -281.8070
  35   2.0000     -10.354330      -281.7557
  36   2.0000     -10.354255      -281.7536
  37   2.0000     -10.354048      -281.7480
  38   2.0000     -10.353963      -281.7456
  39   2.0000     -10.347536      -281.5708
  40   2.0000     -10.343278      -281.4549
  41   2.0000     -10.340735      -281.3857
  42   2.0000     -10.340486      -281.3789
  43   2.0000     -10.336280      -281.2645
  44   2.0000     -10.336204      -281.2624
  45   2.0000     -10.335940      -281.2552
  46   2.0000     -10.335813      -281.2518
  47   2.0000     -10.335061      -281.2313
  48   2.0000     -10.335057      -281.2312
  49   2.0000     -10.333521      -281.1894
  50   2.0000     -10.333194      -281.1805
  51   2.0000     -10.332933      -281.1734
  52   2.0000     -10.332779      -281.1692
  53   2.0000     -10.332330      -281.1570
  54   2.0000     -10.332163      -281.1525
  55   2.0000     -10.330920      -281.1186
  56   2.0000     -10.330825      -281.1160
  57   2.0000     -10.328282      -281.0468
  58   2.0000     -10.328153      -281.0433
  59   2.0000     -10.320732      -280.8414
  60   2.0000     -10.315717      -280.7049
  61   2.0000     -10.310279      -280.5570
  62   2.0000     -10.310079      -280.5515
  63   2.0000     -10.308572      -280.5105
  64   2.0000     -10.308546      -280.5098
  65   2.0000     -10.305859      -280.4367
  66   2.0000     -10.305857      -280.4366
  67   2.0000     -10.302821      -280.3540
  68   2.0000     -10.302746      -280.3520
  69   2.0000     -10.302324      -280.3405
  70   2.0000     -10.302252      -280.3385
  71   2.0000     -10.301515      -280.3185
  72   2.0000     -10.299353      -280.2597
  73   2.0000      -8.147011      -221.6914
  74   2.0000      -8.089906      -220.1375
  75   2.0000      -8.089870      -220.1366
  76   2.0000      -8.081732      -219.9151
  77   2.0000      -8.081722      -219.9148
  78   2.0000      -6.118097      -166.4819
  79   2.0000      -6.110170      -166.2662
  80   2.0000      -6.109956      -166.2604
  81   2.0000      -6.059220      -164.8798
  82   2.0000      -6.059170      -164.8784
  83   2.0000      -6.054967      -164.7640
  84   2.0000      -6.054951      -164.7636
  85   2.0000      -6.052229      -164.6895
  86   2.0000      -6.052165      -164.6878
  87   2.0000      -6.051308      -164.6645
  88   2.0000      -6.051274      -164.6635
  89   2.0000      -6.046482      -164.5331
  90   2.0000      -6.046479      -164.5331
  91   2.0000      -6.044174      -164.4703
  92   2.0000      -6.044171      -164.4702
  93   2.0000      -1.208471       -32.8842
  94   2.0000      -1.208353       -32.8810
  95   2.0000      -1.153994       -31.4018
  96   2.0000      -1.139649       -31.0114
  97   2.0000      -1.139026       -30.9945
  98   2.0000      -1.138730       -30.9864
  99   2.0000      -1.132399       -30.8142
 100   2.0000      -1.131633       -30.7933
 101   2.0000      -1.068722       -29.0814
 102   2.0000      -1.047045       -28.4916
 103   2.0000      -1.046533       -28.4776
 104   2.0000      -1.028220       -27.9793
 105   2.0000      -1.024151       -27.8686
 106   2.0000      -1.023862       -27.8607
 107   2.0000      -1.020196       -27.7609
 108   2.0000      -1.018863       -27.7247
 109   2.0000      -1.018123       -27.7045
 110   2.0000      -1.011003       -27.5108
 111   2.0000      -1.010115       -27.4866
 112   2.0000      -1.009519       -27.4704
 113   2.0000      -1.006320       -27.3834
 114   2.0000      -0.997988       -27.1566
 115   2.0000      -0.991256       -26.9734
 116   2.0000      -0.988465       -26.8975
 117   2.0000      -0.984361       -26.7858
 118   2.0000      -0.962435       -26.1892
 119   2.0000      -0.958156       -26.0728
 120   2.0000      -0.926509       -25.2116
 121   2.0000      -0.923779       -25.1373
 122   2.0000      -0.917871       -24.9766
 123   2.0000      -0.901392       -24.5281
 124   2.0000      -0.884152       -24.0590
 125   2.0000      -0.880209       -23.9517
 126   2.0000      -0.869567       -23.6621
 127   2.0000      -0.864719       -23.5302
 128   2.0000      -0.859316       -23.3832
 129   2.0000      -0.858286       -23.3552
 130   2.0000      -0.857105       -23.3230
 131   2.0000      -0.853953       -23.2372
 132   2.0000      -0.848632       -23.0924
 133   2.0000      -0.821235       -22.3469
 134   2.0000      -0.816945       -22.2302
 135   2.0000      -0.803527       -21.8651
 136   2.0000      -0.798102       -21.7175
 137   2.0000      -0.786315       -21.3967
 138   2.0000      -0.783039       -21.3076
 139   2.0000      -0.780972       -21.2513
 140   2.0000      -0.764330       -20.7985
 141   2.0000      -0.747235       -20.3333
 142   2.0000      -0.745906       -20.2971
 143   2.0000      -0.741042       -20.1648
 144   2.0000      -0.730013       -19.8647
 145   2.0000      -0.720162       -19.5966
 146   2.0000      -0.719385       -19.5755
 147   2.0000      -0.716315       -19.4919
 148   2.0000      -0.716071       -19.4853
 149   2.0000      -0.703446       -19.1417
 150   2.0000      -0.702665       -19.1205
 151   2.0000      -0.695096       -18.9145
 152   2.0000      -0.692250       -18.8371
 153   2.0000      -0.689847       -18.7717
 154   2.0000      -0.680622       -18.5207
 155   2.0000      -0.678978       -18.4759
 156   2.0000      -0.670506       -18.2454
 157   2.0000      -0.669938       -18.2299
 158   2.0000      -0.666878       -18.1467
 159   2.0000      -0.665726       -18.1153
 160   2.0000      -0.642219       -17.4757
 161   2.0000      -0.640856       -17.4386
 162   2.0000      -0.636476       -17.3194
 163   2.0000      -0.634584       -17.2679
 164   2.0000      -0.628801       -17.1105
 165   2.0000      -0.622766       -16.9463
 166   2.0000      -0.616954       -16.7882
 167   2.0000      -0.615419       -16.7464
 168   2.0000      -0.601423       -16.3655
 169   2.0000      -0.598872       -16.2961
 170   2.0000      -0.596568       -16.2334
 171   2.0000      -0.593523       -16.1506
 172   2.0000      -0.585188       -15.9238
 173   2.0000      -0.583471       -15.8770
 174   2.0000      -0.573992       -15.6191
 175   2.0000      -0.572845       -15.5879
 176   2.0000      -0.570385       -15.5210
 177   2.0000      -0.568449       -15.4683
 178   2.0000      -0.565558       -15.3896
 179   2.0000      -0.558890       -15.2082
 180   2.0000      -0.557549       -15.1717
 181   2.0000      -0.556130       -15.1331
 182   2.0000      -0.550689       -14.9850
 183   2.0000      -0.549332       -14.9481
 184   2.0000      -0.545790       -14.8517
 185   2.0000      -0.544332       -14.8120
 186   2.0000      -0.543519       -14.7899
 187   2.0000      -0.538039       -14.6408
 188   2.0000      -0.531839       -14.4721
 189   2.0000      -0.529659       -14.4128
 190   2.0000      -0.527994       -14.3675
 191   2.0000      -0.527258       -14.3474
 192   2.0000      -0.519340       -14.1319
 193   2.0000      -0.518073       -14.0975
 194   2.0000      -0.513802       -13.9813
 195   2.0000      -0.509029       -13.8514
 196   2.0000      -0.508016       -13.8238
 197   2.0000      -0.507336       -13.8053
 198   2.0000      -0.505593       -13.7579
 199   2.0000      -0.504878       -13.7384
 200   2.0000      -0.501859       -13.6563
 201   2.0000      -0.500109       -13.6086
 202   2.0000      -0.498860       -13.5747
 203   2.0000      -0.497883       -13.5481
 204   2.0000      -0.495752       -13.4901
 205   2.0000      -0.495583       -13.4855
 206   2.0000      -0.490899       -13.3580
 207   2.0000      -0.483460       -13.1556
 208   2.0000      -0.480251       -13.0683
 209   2.0000      -0.479214       -13.0401
 210   2.0000      -0.474952       -12.9241
 211   2.0000      -0.472465       -12.8564
 212   2.0000      -0.469853       -12.7854
 213   2.0000      -0.466148       -12.6845
 214   2.0000      -0.464072       -12.6280
 215   2.0000      -0.463698       -12.6179
 216   2.0000      -0.462500       -12.5853
 217   2.0000      -0.460684       -12.5358
 218   2.0000      -0.460217       -12.5231
 219   2.0000      -0.456443       -12.4204
 220   2.0000      -0.454790       -12.3755
 221   2.0000      -0.451745       -12.2926
 222   2.0000      -0.449247       -12.2246
 223   2.0000      -0.442713       -12.0468
 224   2.0000      -0.442514       -12.0414
 225   2.0000      -0.441123       -12.0036
 226   2.0000      -0.440797       -11.9947
 227   2.0000      -0.440175       -11.9778
 228   2.0000      -0.436112       -11.8672
 229   2.0000      -0.430562       -11.7162
 230   2.0000      -0.430163       -11.7053
 231   2.0000      -0.429567       -11.6891
 232   2.0000      -0.422223       -11.4893
 233   2.0000      -0.420203       -11.4343
 234   2.0000      -0.419303       -11.4098
 235   2.0000      -0.413437       -11.2502
 236   2.0000      -0.412068       -11.2129
 237   2.0000      -0.398623       -10.8471
 238   2.0000      -0.392243       -10.6735
 239   2.0000      -0.390122       -10.6157
 240   2.0000      -0.389778       -10.6064
 241   2.0000      -0.386055       -10.5051
 242   2.0000      -0.385052       -10.4778
 243   2.0000      -0.382858       -10.4181
 244   2.0000      -0.380915       -10.3652
 245   2.0000      -0.368686       -10.0324
 246   2.0000      -0.368533       -10.0283
 247   2.0000      -0.364166        -9.9095
 248   2.0000      -0.362153        -9.8547
 249   2.0000      -0.360998        -9.8233
 250   2.0000      -0.359507        -9.7827
 251   2.0000      -0.356024        -9.6879
 252   2.0000      -0.350286        -9.5318
 253   2.0000      -0.349755        -9.5173
 254   2.0000      -0.337532        -9.1847
 255   2.0000      -0.327191        -8.9033
 256   2.0000      -0.326656        -8.8888
 257   2.0000      -0.324941        -8.8421
 258   2.0000      -0.323633        -8.8065
 259   2.0000      -0.304448        -8.2844
 260   2.0000      -0.275109        -7.4861
 261   2.0000      -0.241408        -6.5690
 262   0.0000      -0.140413        -3.8208
 263   0.0000      -0.106234        -2.8908
 264   0.0000      -0.102339        -2.7848
 265   0.0000      -0.066578        -1.8117
 266   0.0000      -0.053438        -1.4541

MULLIKEN ATOMIC CHARGES
-----------------------
   0 C :    0.093246
   1 N :   -0.083258
   2 C :   -0.045086
   3 C :    0.134676
   4 N :   -0.209272
   5 C :    0.223111
   6 O :   -0.136146
   7 N :   -0.185091
   8 C :    0.050933
   9 C :    0.022571
  10 N :   -0.104774
  11 C :    0.121161
  12 C :   -0.076162
  13 C :   -0.025264
  14 C :   -0.005869
  15 C :   -0.102224
  16 S :    0.203826
  17 C :   -0.058805
  18 C :    0.036777
  19 C :    0.310895
  20 C :   -0.302321
  21 C :   -0.182583
  22 N :    0.165952
  23 C :   -0.187926
  24 N :    0.176918
  25 C :   -0.067353
  26 C :   -0.176745
  27 S :    0.203216
  28 C :    0.194610
  29 C :   -0.065191
  30 C :   -0.066056
  31 N :   -0.002589
  32 C :   -0.099153
  33 C :   -0.102344
  34 N :   -0.002035
  35 C :   -0.243103
  36 N :    0.251441
  37 C :   -0.243162
  38 N :    0.250988
  39 C :    0.195165
  40 C :   -0.014879
  41 C :   -0.017441
  42 N :   -0.281855
  43 S :    0.584178
  44 N :   -0.280825
  45 C :   -0.180031
  46 C :   -0.062029
  47 C :    0.035736
  48 C :   -0.060046
  49 S :    0.203341
  50 C :   -0.102968
  51 C :   -0.002725
  52 C :    0.308023
  53 C :   -0.296717
  54 C :   -0.186746
  55 N :    0.172379
  56 C :   -0.183331
  57 N :    0.164678
  58 C :   -0.028945
  59 C :   -0.074592
  60 S :    0.204247
  61 C :    0.135121
  62 C :   -0.044930
  63 N :   -0.082850
  64 C :    0.095109
  65 N :   -0.210634
  66 C :    0.224947
  67 O :   -0.134247
  68 N :   -0.187834
  69 C :    0.088053
  70 C :    0.025923
  71 N :   -0.110203
  72 C :    0.086535
  73 H :    0.046145
  74 H :    0.005268
  75 H :    0.037850
  76 H :    0.013592
  77 H :    0.041456
  78 H :    0.011067
  79 H :    0.022650
  80 H :    0.021184
  81 H :    0.011731
  82 H :    0.004231
  83 H :    0.043952
  84 H :    0.033254
  85 H :    0.014511
  86 H :    0.045695
Sum of atomic charges:   -0.0000000

LOEWDIN ATOMIC CHARGES
----------------------
   0 C :    0.037242
   1 N :   -0.084388
   2 C :   -0.025510
   3 C :   -0.031687
   4 N :    0.019905
   5 C :    0.114419
   6 O :   -0.123319
   7 N :    0.025909
   8 C :   -0.026089
   9 C :   -0.017459
  10 N :   -0.086163
  11 C :    0.056611
  12 C :   -0.164298
  13 C :   -0.029858
  14 C :   -0.060423
  15 C :   -0.182782
  16 S :    0.490919
  17 C :   -0.172346
  18 C :   -0.076904
  19 C :    0.082009
  20 C :   -0.101884
  21 C :   -0.014629
  22 N :   -0.034568
  23 C :   -0.016699
  24 N :   -0.032033
  25 C :   -0.005415
  26 C :   -0.170054
  27 S :    0.508557
  28 C :   -0.038571
  29 C :   -0.016574
  30 C :   -0.016617
  31 N :   -0.016772
  32 C :   -0.023525
  33 C :   -0.023581
  34 N :   -0.016650
  35 C :   -0.039635
  36 N :    0.000239
  37 C :   -0.039559
  38 N :    0.000193
  39 C :   -0.038408
  40 C :   -0.037396
  41 C :   -0.037218
  42 N :   -0.270812
  43 S :    0.703452
  44 N :   -0.270819
  45 C :   -0.170004
  46 C :   -0.005188
  47 C :   -0.076964
  48 C :   -0.172256
  49 S :    0.508584
  50 C :   -0.182758
  51 C :   -0.060347
  52 C :    0.082049
  53 C :   -0.101963
  54 C :   -0.016616
  55 N :   -0.032286
  56 C :   -0.014483
  57 N :   -0.035029
  58 C :   -0.030360
  59 C :   -0.164100
  60 S :    0.491004
  61 C :   -0.031997
  62 C :   -0.024812
  63 N :   -0.084031
  64 C :    0.037101
  65 N :    0.020151
  66 C :    0.114091
  67 O :   -0.122078
  68 N :    0.026432
  69 C :    0.002435
  70 C :   -0.017061
  71 N :   -0.087135
  72 C :    0.027358
  73 H :    0.026616
  74 H :    0.023415
  75 H :    0.030410
  76 H :    0.026931
  77 H :    0.029654
  78 H :    0.036328
  79 H :    0.038601
  80 H :    0.038482
  81 H :    0.036224
  82 H :    0.023284
  83 H :    0.026082
  84 H :    0.035833
  85 H :    0.027017
  86 H :    0.024572

  Mayer bond orders larger than 0.100000
B(  0-C ,  1-N ) :   1.7324 B(  0-C ,  4-N ) :   1.0937 B(  0-C , 73-H ) :   0.9734
B(  1-N ,  2-C ) :   1.3777 B(  2-C ,  3-C ) :   1.5262 B(  2-C , 74-H ) :   0.9983
B(  3-C ,  4-N ) :   1.1193 B(  3-C , 12-C ) :   1.0582 B(  4-N ,  5-C ) :   0.9515
B(  5-C ,  6-O ) :   2.2052 B(  5-C ,  7-N ) :   1.0303 B(  7-N ,  8-C ) :   1.0749
B(  7-N , 11-C ) :   1.0946 B(  8-C ,  9-C ) :   1.6055 B(  8-C , 75-H ) :   0.9841
B(  9-C , 10-N ) :   1.3187 B(  9-C , 76-H ) :   1.0010 B( 10-N , 11-C ) :   1.7651
B( 11-C , 77-H ) :   0.9819 B( 12-C , 13-C ) :   1.4722 B( 12-C , 16-S ) :   1.1243
B( 13-C , 14-C ) :   1.2979 B( 13-C , 78-H ) :   0.9811 B( 14-C , 15-C ) :   1.4385
B( 14-C , 19-C ) :   0.9946 B( 15-C , 16-S ) :   1.1149 B( 15-C , 17-C ) :   1.1981
B( 17-C , 18-C ) :   1.4005 B( 17-C , 27-S ) :   1.0929 B( 18-C , 19-C ) :   0.9875
B( 18-C , 25-C ) :   1.2844 B( 19-C , 20-C ) :   1.7110 B( 20-C , 21-C ) :   1.1326
B( 20-C , 23-C ) :   1.1409 B( 21-C , 22-N ) :   2.9802 B( 23-C , 24-N ) :   2.9885
B( 25-C , 26-C ) :   1.4051 B( 25-C , 79-H ) :   0.9827 B( 26-C , 27-S ) :   1.0810
B( 26-C , 28-C ) :   1.2179 B( 28-C , 29-C ) :   1.2523 B( 28-C , 39-C ) :   0.1186
B( 28-C , 41-C ) :   1.1898 B( 29-C , 30-C ) :   1.1057 B( 29-C , 34-N ) :   1.4058
B( 30-C , 31-N ) :   1.4064 B( 30-C , 39-C ) :   1.2516 B( 31-N , 32-C ) :   1.6904
B( 32-C , 33-C ) :   1.2211 B( 32-C , 37-C ) :   1.1659 B( 33-C , 34-N ) :   1.6919
B( 33-C , 35-C ) :   1.1663 B( 35-C , 36-N ) :   3.0401 B( 37-C , 38-N ) :   3.0399
B( 39-C , 40-C ) :   1.1927 B( 39-C , 45-C ) :   1.2154 B( 40-C , 41-C ) :   1.0995
B( 40-C , 44-N ) :   1.5205 B( 41-C , 42-N ) :   1.5206 B( 42-N , 43-S ) :   1.2834
B( 42-N , 44-N ) :   0.1458 B( 43-S , 44-N ) :   1.2834 B( 45-C , 46-C ) :   1.4070
B( 45-C , 49-S ) :   1.0810 B( 46-C , 47-C ) :   1.2840 B( 46-C , 80-H ) :   0.9828
B( 47-C , 48-C ) :   1.3993 B( 47-C , 52-C ) :   0.9885 B( 48-C , 49-S ) :   1.0931
B( 48-C , 50-C ) :   1.1997 B( 50-C , 51-C ) :   1.4361 B( 50-C , 60-S ) :   1.1148
B( 51-C , 52-C ) :   0.9974 B( 51-C , 58-C ) :   1.2951 B( 52-C , 53-C ) :   1.7092
B( 53-C , 54-C ) :   1.1385 B( 53-C , 56-C ) :   1.1337 B( 54-C , 55-N ) :   2.9871
B( 56-C , 57-N ) :   2.9791 B( 58-C , 59-C ) :   1.4726 B( 58-C , 81-H ) :   0.9822
B( 59-C , 60-S ) :   1.1236 B( 59-C , 61-C ) :   1.0596 B( 61-C , 62-C ) :   1.5228
B( 61-C , 65-N ) :   1.1200 B( 62-C , 63-N ) :   1.3799 B( 62-C , 82-H ) :   0.9982
B( 63-N , 64-C ) :   1.7311 B( 64-C , 65-N ) :   1.0925 B( 64-C , 83-H ) :   0.9742
B( 65-N , 66-C ) :   0.9496 B( 66-C , 67-O ) :   2.2095 B( 66-C , 68-N ) :   1.0239
B( 68-N , 69-C ) :   1.0895 B( 68-N , 72-C ) :   1.0802 B( 69-C , 70-C ) :   1.5961
B( 69-C , 84-H ) :   0.9945 B( 70-C , 71-N ) :   1.3111 B( 70-C , 85-H ) :   1.0001
B( 71-N , 72-C ) :   1.7777 B( 72-C , 86-H ) :   0.9744

-----------------------------------------------------------------------------
         ABSORPTION SPECTRUM VIA TRANSITION ELECTRIC DIPOLE MOMENTS
-----------------------------------------------------------------------------
State   Energy  Wavelength   fosc         T2         TX        TY        TZ
        (cm-1)    (nm)                  (au**2)     (au)      (au)      (au)
-----------------------------------------------------------------------------
   0    6772.9   1476.5   0.464668846  22.58634   3.88708   1.55038  -2.25239
   1   12575.3    795.2   0.004738371   0.12405   0.05031  -0.30547  -0.16795
   2   13083.1    764.3   0.018548508   0.46674  -0.55641  -0.23184   0.32156
   3   15751.0    634.9   0.011507824   0.24052   0.11904  -0.45947  -0.12344
   4   21396.0    467.4   0.148942110   2.29172   1.23634   0.49286  -0.72130
   5   21878.3    457.1   0.051828396   0.77988   0.51120  -0.22157   0.68518
   6   22894.8    436.8   0.358912805   5.16093   1.85183   0.74440  -1.08514
   7   23481.8    425.9   0.000970241   0.01360   0.04142   0.04982  -0.09698
   8   23557.2    424.5   0.066800803   0.93354  -0.79510  -0.31191   0.45175
   9   24338.5    410.9   0.022468515   0.30392   0.30274  -0.07750   0.45416
  10   24716.4    404.6   0.013281071   0.17690  -0.33802  -0.14117   0.20667
  11   25252.3    396.0   0.002400694   0.03130   0.03280   0.11158   0.13331
  12   28186.2    354.8   1.200596063  14.02282   3.05937   1.23023  -1.77471
  13   28635.6    349.2   0.027431695   0.31537  -0.35007   0.00539  -0.43908
  14   29469.3    339.3   0.027654998   0.30894  -0.12675  -0.32459  -0.43304
  15   29837.1    335.2   0.205697470   2.26959  -1.26351  -0.50750   0.64466
  16   30023.2    333.1   0.103224360   1.13188   0.30328   0.30450   0.97323
  17   30375.3    329.2   0.003658943   0.03966  -0.14007  -0.05961   0.12838
  18   30472.8    328.2   0.338261660   3.65440   0.91541   0.03636   1.67783
  19   31012.0    322.5   0.011845610   0.12575  -0.28030  -0.11022   0.18717
  20   31081.6    321.7   0.224910243   2.38222   1.24696   0.49336  -0.76414
  21   31465.2    317.8   0.033878427   0.35446  -0.42044  -0.07506  -0.41480
  22   31533.8    317.1   0.047682753   0.49781  -0.22854   0.07370  -0.66343
  23   31623.4    316.2   0.040961454   0.42643   0.62479   0.16185   0.09930
  24   31821.7    314.3   0.114601448   1.18561   0.85301   0.34942  -0.57956
  25   32386.7    308.8   0.013312852   0.13533  -0.29481  -0.13664   0.17246
  26   32588.0    306.9   1.256164267  12.69008   1.85275  -0.36673   3.02041
  27   32645.4    306.3   0.020042711   0.20212  -0.33574   0.01930  -0.29838
  28   33628.7    297.4   0.110121953   1.07805  -0.47923  -0.10696  -0.91485
  29   33837.6    295.5   0.002571379   0.02502  -0.13759  -0.04709   0.06221
  30   34037.6    293.8   0.316193399   3.05822   0.81463   0.22392   1.53116
  31   34233.9    292.1   0.201416762   1.93693  -1.11388  -0.45484   0.69952
  32   34538.1    289.5   0.024658583   0.23504  -0.01503  -0.32194  -0.36218
  33   35594.3    280.9   0.003771153   0.03488  -0.16613  -0.01095   0.08461
  34   35798.4    279.3   0.021841587   0.20086  -0.40395  -0.18143  -0.06905
  35   36414.5    274.6   0.062451107   0.56460  -0.56359  -0.22519   0.44301
  36   36757.7    272.1   0.199845124   1.78987   0.55415   0.21980   1.19769
  37   37313.2    268.0   0.101313101   0.89388   0.80438   0.30839  -0.38955
  38   37606.7    265.9   0.215811090   1.88923  -0.58810  -0.27792  -1.21084
  39   38053.7    262.8   0.000773089   0.00669   0.03176  -0.00704  -0.07503
  40   38100.6    262.5   0.016575736   0.14322  -0.24592  -0.09441   0.27173
  41   38319.8    261.0   0.089833183   0.77177  -0.37324  -0.29005  -0.74050
  42   38395.5    260.4   0.010832909   0.09288   0.20679   0.01820   0.22313
  43   38719.6    258.3   0.012818619   0.10899   0.23713  -0.07795   0.21606
  44   38737.5    258.1   0.010670028   0.09068   0.15856  -0.09521   0.23764
  45   38871.5    257.3   0.134745462   1.14119   0.64770   0.40633  -0.74603
  46   38974.5    256.6   0.287183801   2.42580   1.00911  -0.04885   1.18537
  47   39253.6    254.8   0.036585133   0.30683   0.41374   0.15755  -0.33291
  48   39608.6    252.5   0.012840112   0.10672   0.18431  -0.13016  -0.23624
  49   39686.8    252.0   0.009778730   0.08112   0.19554   0.20641  -0.01667
  50   40211.1    248.7   0.008932979   0.07314   0.23518   0.09105  -0.09765
  51   40306.9    248.1   0.000756739   0.00618   0.01347  -0.06376   0.04397

FINAL SINGLE POINT ENERGY     -4959.994540514243

DIPOLE MOMENT
-------------
                                X             Y             Z
Electronic contribution:      5.96073     -10.94315       2.94161
Nuclear contribution   :     -5.78299      11.11176      -2.30253
                        -----------------------------------------
Total Dipole Moment    :      0.17775       0.16861       0.63908
                        -----------------------------------------
Magnitude (a.u.)       :      0.68443
Magnitude (Debye)      :      1.73968

Rotational constants in cm-1:     0.002532     0.000242     0.000225
Rotational constants in MHz :    75.893042     7.254590     6.745068

                             ****ORCA TERMINATED NORMALLY****
TOTAL RUN TIME: 0 days 0 hours 8 minutes 58 seconds 970 msec
