                         Program Version 4.2.0 -  RELEASE  -
|  1> # ORCA input file
|  2> # SCF done       -138.281339789636          0.000990722375
|  3> ! CAM-B3LYP def2-SVP def2/J RIJCOSX Grid4 TightSCF
|  4> %maxcore 5000
|  5> %tddft
|  6>     Mode sTDDFT
|  7>     Ethresh 5.0
|  8>     maxcore 5000
|  9> end
| 10>
| 11> %pal
| 12>   nprocs 6
| 13>   end
| 14> * xyz 0 1
| 15>    C        8.01385         0.66212         0.68334
| 16>    O        9.10514         0.82451         1.44149
| 17>    C        9.54613         2.07834         1.24643
| 18>    C        8.75693         2.73960         0.36046
| 19>    C        7.74422         1.81055        -0.00487
| 20>    S        6.45700         2.02193        -1.18489
| 21>    C        5.69479         3.48302        -0.60864
| 22>    C        5.86727         4.07321         0.60036
| 23>    C        5.09569         5.29362         0.60879
| 24>    C        4.98529         6.15084         1.70787
| 25>    N        4.90504         6.86563         2.60396
| 26>    C        4.49843         5.46303        -0.61806
| 27>    C        4.82905         4.34397        -1.43934
| 28>    C        4.39644         4.09130        -2.72418
| 29>    C        3.78625         5.06411        -3.66796
| 30>    C        3.32027         4.34127        -4.74275
| 31>    C        3.64013         2.96243        -4.54065
| 32>    C        4.32232         2.81830        -3.34832
| 33>    C        3.30226         1.93427        -5.43021
| 34>    N        3.01519         1.10278        -6.16823
| 35>    C        3.83641         6.46900        -3.53133
| 36>    C        3.18143         7.35119        -4.34160
| 37>    C        3.23304         8.75279        -4.21090
| 38>    N        2.54444         9.57049        -5.08602
| 39>    C        2.75813        10.86480        -4.73581
| 40>    C        2.46921        12.17587        -5.06820
| 41>    C        3.13671        12.97619        -4.11913
| 42>    N        3.81181        12.15997        -3.23390
| 43>    C        3.60651        10.86495        -3.58891
| 44>    C        3.90351         9.55368        -3.26331
| 45>    C        3.19761        14.38055        -4.00282
| 46>    C        2.56398        15.25204        -4.83882
| 47>    C        2.61618        16.66339        -4.79244
| 48>    C        1.66027        17.48668        -5.34538
| 49>    C        1.91906        18.83083        -4.93522
| 50>    C        1.15923        19.94623        -5.30934
| 51>    N        0.52786        20.85513        -5.61612
| 52>    C        3.02847        18.84962        -4.11130
| 53>    C        3.54544        17.52797        -4.02699
| 54>    C        4.78331        17.18563        -3.51542
| 55>    C        5.57188        17.92828        -2.50638
| 56>    C        6.83765        17.40433        -2.51177
| 57>    C        6.88698        16.33162        -3.46613
| 58>    C        5.64035        16.17331        -4.03490
| 59>    C        8.02226        15.56572        -3.75350
| 60>    N        8.94659        14.92155        -3.97825
| 61>    C        5.09414        18.89321        -1.57651
| 62>    C        3.79800        19.08601        -1.23436
| 63>    C        3.34343        20.09236        -0.34306
| 64>    O        4.19064        20.95107         0.27820
| 65>    C        3.44888        21.79229         1.01073
| 66>    C        2.12014        21.51782         0.88961
| 67>    C        2.03883        20.41315         0.01150
| 68>    S        0.60897        19.59070        -0.56328
| 69>    H        7.51824        -0.28750         0.70078
| 70>    H       10.42131         2.38211         1.78543
| 71>    H        8.86163         3.74555         0.00964
| 72>    H        6.45027         3.71892         1.42848
| 73>    H        3.79800         6.23694        -0.86368
| 74>    H        2.84008         4.72028        -5.62477
| 75>    H        4.64713         1.88773        -2.92650
| 76>    H        4.46129         6.86613        -2.74676
| 77>    H        2.55635         6.96942        -5.13784
| 78>    H        1.99254         9.23919        -5.85852
| 79>    H        1.86267        12.53468        -5.87422
| 80>    H        4.38230        12.49213        -2.47512
| 81>    H        4.51331         9.19559        -2.45928
| 82>    H        3.78870        14.76614        -3.18299
| 83>    H        1.89174        14.84748        -5.58458
| 84>    H        0.82512        17.18193        -5.94807
| 85>    H        3.49932        19.72931        -3.71726
| 86>    H        7.65983        17.70166        -1.88811
| 87>    H        5.39804        15.50459        -4.83883
| 88>    H        5.85236        19.47509        -1.06755
| 89>    H        3.01445        18.46530        -1.64500
| 90>    H        3.96849        22.54140         1.57471
| 91>    H        1.30564        22.03062         1.35862
| 92>    H       -0.25019        20.40390         0.04660
| 93> *
| 94>
| 95>                          ****END OF INPUT****

CARTESIAN COORDINATES (ANGSTROEM)
---------------------------------
  C      8.013850    0.662120    0.683340
  O      9.105140    0.824510    1.441490
  C      9.546130    2.078340    1.246430
  C      8.756930    2.739600    0.360460
  C      7.744220    1.810550   -0.004870
  S      6.457000    2.021930   -1.184890
  C      5.694790    3.483020   -0.608640
  C      5.867270    4.073210    0.600360
  C      5.095690    5.293620    0.608790
  C      4.985290    6.150840    1.707870
  N      4.905040    6.865630    2.603960
  C      4.498430    5.463030   -0.618060
  C      4.829050    4.343970   -1.439340
  C      4.396440    4.091300   -2.724180
  C      3.786250    5.064110   -3.667960
  C      3.320270    4.341270   -4.742750
  C      3.640130    2.962430   -4.540650
  C      4.322320    2.818300   -3.348320
  C      3.302260    1.934270   -5.430210
  N      3.015190    1.102780   -6.168230
  C      3.836410    6.469000   -3.531330
  C      3.181430    7.351190   -4.341600
  C      3.233040    8.752790   -4.210900
  N      2.544440    9.570490   -5.086020
  C      2.758130   10.864800   -4.735810
  C      2.469210   12.175870   -5.068200
  C      3.136710   12.976190   -4.119130
  N      3.811810   12.159970   -3.233900
  C      3.606510   10.864950   -3.588910
  C      3.903510    9.553680   -3.263310
  C      3.197610   14.380550   -4.002820
  C      2.563980   15.252040   -4.838820
  C      2.616180   16.663390   -4.792440
  C      1.660270   17.486680   -5.345380
  C      1.919060   18.830830   -4.935220
  C      1.159230   19.946230   -5.309340
  N      0.527860   20.855130   -5.616120
  C      3.028470   18.849620   -4.111300
  C      3.545440   17.527970   -4.026990
  C      4.783310   17.185630   -3.515420
  C      5.571880   17.928280   -2.506380
  C      6.837650   17.404330   -2.511770
  C      6.886980   16.331620   -3.466130
  C      5.640350   16.173310   -4.034900
  C      8.022260   15.565720   -3.753500
  N      8.946590   14.921550   -3.978250
  C      5.094140   18.893210   -1.576510
  C      3.798000   19.086010   -1.234360
  C      3.343430   20.092360   -0.343060
  O      4.190640   20.951070    0.278200
  C      3.448880   21.792290    1.010730
  C      2.120140   21.517820    0.889610
  C      2.038830   20.413150    0.011500
  S      0.608970   19.590700   -0.563280
  H      7.518240   -0.287500    0.700780
  H     10.421310    2.382110    1.785430
  H      8.861630    3.745550    0.009640
  H      6.450270    3.718920    1.428480
  H      3.798000    6.236940   -0.863680
  H      2.840080    4.720280   -5.624770
  H      4.647130    1.887730   -2.926500
  H      4.461290    6.866130   -2.746760
  H      2.556350    6.969420   -5.137840
  H      1.992540    9.239190   -5.858520
  H      1.862670   12.534680   -5.874220
  H      4.382300   12.492130   -2.475120
  H      4.513310    9.195590   -2.459280
  H      3.788700   14.766140   -3.182990
  H      1.891740   14.847480   -5.584580
  H      0.825120   17.181930   -5.948070
  H      3.499320   19.729310   -3.717260
  H      7.659830   17.701660   -1.888110
  H      5.398040   15.504590   -4.838830
  H      5.852360   19.475090   -1.067550
  H      3.014450   18.465300   -1.645000
  H      3.968490   22.541400    1.574710
  H      1.305640   22.030620    1.358620
  H     -0.250190   20.403900    0.046600

 Total Charge           Charge          ....    0
 Multiplicity           Mult            ....    1
 Number of Electrons    NEL             ....  378
 Basis Dimension        Dim             ....  884

ORBITAL ENERGIES
----------------

  NO   OCC          E(Eh)            E(eV)
   0   2.0000     -88.950264     -2420.4597
   1   2.0000     -88.943640     -2420.2795
   2   2.0000     -19.297563      -525.1134
   3   2.0000     -19.297548      -525.1130
   4   2.0000     -14.471230      -393.7822
   5   2.0000     -14.470586      -393.7647
   6   2.0000     -14.408718      -392.0812
   7   2.0000     -14.408561      -392.0769
   8   2.0000     -14.408507      -392.0754
   9   2.0000     -14.406623      -392.0242
  10   2.0000     -10.336731      -281.2768
  11   2.0000     -10.331839      -281.1436
  12   2.0000     -10.331280      -281.1284
  13   2.0000     -10.328005      -281.0393
  14   2.0000     -10.322095      -280.8785
  15   2.0000     -10.321276      -280.8562
  16   2.0000     -10.320884      -280.8455
  17   2.0000     -10.320822      -280.8438
  18   2.0000     -10.320320      -280.8302
  19   2.0000     -10.318116      -280.7702
  20   2.0000     -10.317844      -280.7628
  21   2.0000     -10.317140      -280.7437
  22   2.0000     -10.316693      -280.7315
  23   2.0000     -10.315749      -280.7058
  24   2.0000     -10.313044      -280.6322
  25   2.0000     -10.309276      -280.5297
  26   2.0000     -10.309239      -280.5287
  27   2.0000     -10.308485      -280.5081
  28   2.0000     -10.307414      -280.4790
  29   2.0000     -10.307408      -280.4788
  30   2.0000     -10.306514      -280.4545
  31   2.0000     -10.305304      -280.4216
  32   2.0000     -10.300208      -280.2829
  33   2.0000     -10.297325      -280.2045
  34   2.0000     -10.296057      -280.1700
  35   2.0000     -10.295540      -280.1559
  36   2.0000     -10.295406      -280.1522
  37   2.0000     -10.294112      -280.1170
  38   2.0000     -10.292838      -280.0824
  39   2.0000     -10.292409      -280.0707
  40   2.0000     -10.291154      -280.0365
  41   2.0000     -10.289428      -279.9896
  42   2.0000     -10.288101      -279.9535
  43   2.0000     -10.287060      -279.9251
  44   2.0000     -10.286770      -279.9173
  45   2.0000     -10.284884      -279.8659
  46   2.0000     -10.284528      -279.8562
  47   2.0000     -10.283655      -279.8325
  48   2.0000     -10.283517      -279.8287
  49   2.0000     -10.282476      -279.8004
  50   2.0000     -10.280674      -279.7514
  51   2.0000     -10.278435      -279.6904
  52   2.0000     -10.277676      -279.6698
  53   2.0000     -10.277378      -279.6617
  54   2.0000      -8.044834      -218.9111
  55   2.0000      -8.038903      -218.7497
  56   2.0000      -6.015221      -163.6825
  57   2.0000      -6.010973      -163.5669
  58   2.0000      -6.009297      -163.5213
  59   2.0000      -6.005194      -163.4096
  60   2.0000      -6.004904      -163.4017
  61   2.0000      -5.998842      -163.2368
  62   2.0000      -1.218109       -33.1464
  63   2.0000      -1.216507       -33.1028
  64   2.0000      -1.103213       -30.0200
  65   2.0000      -1.066760       -29.0280
  66   2.0000      -1.010191       -27.4887
  67   2.0000      -1.010058       -27.4851
  68   2.0000      -0.997804       -27.1516
  69   2.0000      -0.997310       -27.1382
  70   2.0000      -0.986235       -26.8368
  71   2.0000      -0.985495       -26.8167
  72   2.0000      -0.974731       -26.5238
  73   2.0000      -0.973796       -26.4983
  74   2.0000      -0.933317       -25.3969
  75   2.0000      -0.929759       -25.3000
  76   2.0000      -0.915300       -24.9066
  77   2.0000      -0.912418       -24.8282
  78   2.0000      -0.909657       -24.7530
  79   2.0000      -0.879249       -23.9256
  80   2.0000      -0.878420       -23.9030
  81   2.0000      -0.877255       -23.8713
  82   2.0000      -0.872947       -23.7541
  83   2.0000      -0.866518       -23.5791
  84   2.0000      -0.858507       -23.3612
  85   2.0000      -0.845463       -23.0062
  86   2.0000      -0.841116       -22.8879
  87   2.0000      -0.834489       -22.7076
  88   2.0000      -0.822609       -22.3843
  89   2.0000      -0.800285       -21.7769
  90   2.0000      -0.798200       -21.7201
  91   2.0000      -0.794679       -21.6243
  92   2.0000      -0.791456       -21.5366
  93   2.0000      -0.777809       -21.1652
  94   2.0000      -0.752925       -20.4881
  95   2.0000      -0.728794       -19.8315
  96   2.0000      -0.719297       -19.5731
  97   2.0000      -0.717190       -19.5157
  98   2.0000      -0.710022       -19.3207
  99   2.0000      -0.704117       -19.1600
 100   2.0000      -0.698145       -18.9975
 101   2.0000      -0.696549       -18.9541
 102   2.0000      -0.692971       -18.8567
 103   2.0000      -0.682766       -18.5790
 104   2.0000      -0.677467       -18.4348
 105   2.0000      -0.663166       -18.0457
 106   2.0000      -0.657896       -17.9023
 107   2.0000      -0.643078       -17.4990
 108   2.0000      -0.639707       -17.4073
 109   2.0000      -0.637216       -17.3395
 110   2.0000      -0.629316       -17.1246
 111   2.0000      -0.625656       -17.0250
 112   2.0000      -0.621980       -16.9249
 113   2.0000      -0.618037       -16.8177
 114   2.0000      -0.607543       -16.5321
 115   2.0000      -0.600618       -16.3436
 116   2.0000      -0.597842       -16.2681
 117   2.0000      -0.591037       -16.0829
 118   2.0000      -0.589083       -16.0298
 119   2.0000      -0.574810       -15.6414
 120   2.0000      -0.565283       -15.3821
 121   2.0000      -0.560956       -15.2644
 122   2.0000      -0.556279       -15.1371
 123   2.0000      -0.554362       -15.0850
 124   2.0000      -0.547983       -14.9114
 125   2.0000      -0.545554       -14.8453
 126   2.0000      -0.537703       -14.6316
 127   2.0000      -0.536881       -14.6093
 128   2.0000      -0.531456       -14.4617
 129   2.0000      -0.528357       -14.3773
 130   2.0000      -0.521846       -14.2002
 131   2.0000      -0.518050       -14.0968
 132   2.0000      -0.516144       -14.0450
 133   2.0000      -0.512398       -13.9431
 134   2.0000      -0.510845       -13.9008
 135   2.0000      -0.507217       -13.8021
 136   2.0000      -0.505699       -13.7608
 137   2.0000      -0.503571       -13.7029
 138   2.0000      -0.499976       -13.6050
 139   2.0000      -0.498992       -13.5783
 140   2.0000      -0.495781       -13.4909
 141   2.0000      -0.493926       -13.4404
 142   2.0000      -0.492679       -13.4065
 143   2.0000      -0.490879       -13.3575
 144   2.0000      -0.489656       -13.3242
 145   2.0000      -0.489106       -13.3093
 146   2.0000      -0.486895       -13.2491
 147   2.0000      -0.486475       -13.2377
 148   2.0000      -0.482623       -13.1328
 149   2.0000      -0.478062       -13.0087
 150   2.0000      -0.466875       -12.7043
 151   2.0000      -0.463991       -12.6258
 152   2.0000      -0.461544       -12.5593
 153   2.0000      -0.456321       -12.4171
 154   2.0000      -0.452958       -12.3256
 155   2.0000      -0.446647       -12.1539
 156   2.0000      -0.441611       -12.0169
 157   2.0000      -0.440055       -11.9745
 158   2.0000      -0.438076       -11.9206
 159   2.0000      -0.437721       -11.9110
 160   2.0000      -0.436484       -11.8773
 161   2.0000      -0.436037       -11.8652
 162   2.0000      -0.434271       -11.8171
 163   2.0000      -0.427840       -11.6421
 164   2.0000      -0.425747       -11.5852
 165   2.0000      -0.424897       -11.5620
 166   2.0000      -0.421130       -11.4595
 167   2.0000      -0.412894       -11.2354
 168   2.0000      -0.407828       -11.0976
 169   2.0000      -0.407751       -11.0955
 170   2.0000      -0.404988       -11.0203
 171   2.0000      -0.402441       -10.9510
 172   2.0000      -0.396650       -10.7934
 173   2.0000      -0.394106       -10.7242
 174   2.0000      -0.382003       -10.3948
 175   2.0000      -0.378114       -10.2890
 176   2.0000      -0.353802        -9.6275
 177   2.0000      -0.351219        -9.5571
 178   2.0000      -0.333768        -9.0823
 179   2.0000      -0.326343        -8.8802
 180   2.0000      -0.322087        -8.7644
 181   2.0000      -0.313619        -8.5340
 182   2.0000      -0.311257        -8.4697
 183   2.0000      -0.307123        -8.3573
 184   2.0000      -0.301063        -8.1923
 185   2.0000      -0.277136        -7.5413
 186   2.0000      -0.270230        -7.3533
 187   2.0000      -0.249858        -6.7990
 188   2.0000      -0.220651        -6.0042
 189   0.0000      -0.128209        -3.4887
 190   0.0000      -0.118343        -3.2203
 191   0.0000      -0.046462        -1.2643
 192   0.0000      -0.025010        -0.6806
 193   0.0000      -0.001898        -0.0516

MULLIKEN ATOMIC CHARGES
-----------------------
   0 C :    0.107777
   1 O :   -0.176867
   2 C :    0.135178
   3 C :   -0.023231
   4 C :   -0.062117
   5 S :    0.076588
   6 C :   -0.020156
   7 C :   -0.036209
   8 C :   -0.096790
   9 C :   -0.129850
  10 N :    0.132510
  11 C :   -0.046678
  12 C :    0.045454
  13 C :    0.063166
  14 C :    0.101067
  15 C :   -0.057188
  16 C :   -0.084047
  17 C :   -0.046460
  18 C :   -0.128528
  19 N :    0.137469
  20 C :   -0.046533
  21 C :    0.014285
  22 C :    0.107069
  23 N :   -0.033342
  24 C :    0.128852
  25 C :   -0.170281
  26 C :    0.091373
  27 N :   -0.030952
  28 C :    0.129617
  29 C :   -0.170009
  30 C :   -0.006026
  31 C :   -0.028293
  32 C :    0.098843
  33 C :   -0.030129
  34 C :   -0.092999
  35 C :   -0.124429
  36 N :    0.135240
  37 C :   -0.043923
  38 C :    0.038103
  39 C :    0.034696
  40 C :    0.096052
  41 C :   -0.023826
  42 C :   -0.108538
  43 C :   -0.054590
  44 C :   -0.126772
  45 N :    0.134040
  46 C :   -0.020437
  47 C :   -0.041570
  48 C :    0.095301
  49 O :   -0.191250
  50 C :    0.157498
  51 C :   -0.042405
  52 C :   -0.063771
  53 S :    0.045886
  54 H :    0.014994
  55 H :    0.018675
  56 H :    0.003699
  57 H :    0.003261
  58 H :   -0.000387
  59 H :   -0.020110
  60 H :    0.005050
  61 H :   -0.008107
  62 H :   -0.027095
  63 H :    0.124734
  64 H :   -0.029991
  65 H :    0.128994
  66 H :   -0.023271
  67 H :   -0.004684
  68 H :   -0.015102
  69 H :   -0.017068
  70 H :    0.008687
  71 H :   -0.015629
  72 H :    0.010181
  73 H :   -0.002269
  74 H :    0.022199
  75 H :    0.017621
  76 H :   -0.009328
  77 H :    0.067074
Sum of atomic charges:   -0.0000000

LOEWDIN ATOMIC CHARGES
----------------------
   0 C :    0.023864
   1 O :    0.028110
   2 C :    0.036699
   3 C :   -0.078268
   4 C :   -0.224864
   5 S :    0.374807
   6 C :   -0.162236
   7 C :   -0.045111
   8 C :   -0.049372
   9 C :   -0.030160
  10 N :   -0.050352
  11 C :   -0.026106
  12 C :    0.016235
  13 C :    0.041840
  14 C :   -0.017008
  15 C :   -0.029690
  16 C :   -0.037781
  17 C :   -0.035654
  18 C :   -0.027052
  19 N :   -0.044131
  20 C :   -0.029768
  21 C :   -0.011739
  22 C :    0.003590
  23 N :    0.071172
  24 C :   -0.009347
  25 C :   -0.088281
  26 C :    0.005617
  27 N :    0.073653
  28 C :   -0.010055
  29 C :   -0.081536
  30 C :   -0.029159
  31 C :   -0.014391
  32 C :   -0.026961
  33 C :   -0.017344
  34 C :   -0.052939
  35 C :   -0.027707
  36 N :   -0.048278
  37 C :   -0.015969
  38 C :    0.039362
  39 C :    0.034096
  40 C :   -0.026052
  41 C :   -0.014625
  42 C :   -0.059867
  43 C :   -0.018907
  44 C :   -0.031399
  45 N :   -0.050643
  46 C :   -0.022956
  47 C :   -0.027817
  48 C :   -0.014093
  49 O :    0.017340
  50 C :    0.055773
  51 C :   -0.091561
  52 C :   -0.192354
  53 S :    0.241425
  54 H :    0.026632
  55 H :    0.025486
  56 H :    0.034954
  57 H :    0.033865
  58 H :    0.032497
  59 H :    0.025494
  60 H :    0.021021
  61 H :    0.029550
  62 H :    0.028644
  63 H :    0.091316
  64 H :    0.025226
  65 H :    0.093801
  66 H :    0.027550
  67 H :    0.031486
  68 H :    0.034495
  69 H :    0.029852
  70 H :    0.036083
  71 H :    0.031023
  72 H :    0.035435
  73 H :    0.036960
  74 H :    0.035405
  75 H :    0.026492
  76 H :    0.031285
  77 H :   -0.016600

  Mayer bond orders larger than 0.100000
B(  0-C ,  1-O ) :   1.1721 B(  0-C ,  4-C ) :   1.5692 B(  0-C , 54-H ) :   1.0114
B(  1-O ,  2-C ) :   1.1475 B(  2-C ,  3-C ) :   1.5792 B(  2-C , 55-H ) :   1.0018
B(  3-C ,  4-C ) :   1.2219 B(  3-C , 56-H ) :   1.0142 B(  4-C ,  5-S ) :   0.9760
B(  5-S ,  6-C ) :   1.0051 B(  6-C ,  7-C ) :   1.6314 B(  6-C , 12-C ) :   1.0945
B(  7-C ,  8-C ) :   1.0958 B(  7-C , 57-H ) :   1.0163 B(  8-C ,  9-C ) :   1.0661
B(  8-C , 11-C ) :   1.6148 B(  9-C , 10-N ) :   3.0332 B( 11-C , 12-C ) :   1.1182
B( 11-C , 58-H ) :   1.0132 B( 12-C , 13-C ) :   1.4484 B( 13-C , 14-C ) :   1.0245
B( 13-C , 17-C ) :   1.1290 B( 14-C , 15-C ) :   1.5448 B( 14-C , 20-C ) :   1.1417
B( 15-C , 16-C ) :   1.1460 B( 15-C , 59-H ) :   1.0113 B( 16-C , 17-C ) :   1.5715
B( 16-C , 18-C ) :   1.0527 B( 17-C , 60-H ) :   1.0035 B( 18-C , 19-N ) :   3.0381
B( 20-C , 21-C ) :   1.6010 B( 20-C , 61-H ) :   0.9691 B( 21-C , 22-C ) :   1.1457
B( 21-C , 62-H ) :   0.9684 B( 22-C , 23-N ) :   1.1636 B( 22-C , 29-C ) :   1.3579
B( 23-N , 24-C ) :   1.1713 B( 23-N , 63-H ) :   0.9361 B( 24-C , 25-C ) :   1.2806
B( 24-C , 28-C ) :   1.2751 B( 25-C , 26-C ) :   1.3691 B( 25-C , 64-H ) :   1.0319
B( 26-C , 27-N ) :   1.1738 B( 26-C , 30-C ) :   1.1486 B( 27-N , 28-C ) :   1.1694
B( 27-N , 65-H ) :   0.9345 B( 28-C , 29-C ) :   1.2886 B( 29-C , 66-H ) :   1.0318
B( 30-C , 31-C ) :   1.5931 B( 30-C , 67-H ) :   0.9549 B( 31-C , 32-C ) :   1.1654
B( 31-C , 68-H ) :   0.9670 B( 32-C , 33-C ) :   1.5156 B( 32-C , 38-C ) :   1.0259
B( 33-C , 34-C ) :   1.1384 B( 33-C , 69-H ) :   1.0226 B( 34-C , 35-C ) :   1.0611
B( 34-C , 37-C ) :   1.5469 B( 35-C , 36-N ) :   3.0392 B( 37-C , 38-C ) :   1.1565
B( 37-C , 70-H ) :   1.0150 B( 38-C , 39-C ) :   1.4229 B( 39-C , 40-C ) :   1.0429
B( 39-C , 43-C ) :   1.1398 B( 40-C , 41-C ) :   1.5513 B( 40-C , 46-C ) :   1.1137
B( 41-C , 42-C ) :   1.1205 B( 41-C , 71-H ) :   1.0230 B( 42-C , 43-C ) :   1.5628
B( 42-C , 44-C ) :   1.0622 B( 43-C , 72-H ) :   1.0176 B( 44-C , 45-N ) :   3.0375
B( 46-C , 47-C ) :   1.6354 B( 46-C , 73-H ) :   0.9765 B( 47-C , 48-C ) :   1.1937
B( 47-C , 74-H ) :   0.9409 B( 48-C , 49-O ) :   1.1441 B( 48-C , 52-C ) :   1.4713
B( 49-O , 50-C ) :   1.1562 B( 50-C , 51-C ) :   1.5415 B( 50-C , 75-H ) :   1.0031
B( 51-C , 52-C ) :   1.2554 B( 51-C , 76-H ) :   1.0060 B( 52-C , 53-S ) :   1.0444
B( 53-S , 77-H ) :   0.9564

-----------------------------------------------------------------------------
         ABSORPTION SPECTRUM VIA TRANSITION ELECTRIC DIPOLE MOMENTS
-----------------------------------------------------------------------------
State   Energy  Wavelength   fosc         T2         TX        TY        TZ
        (cm-1)    (nm)                  (au**2)     (au)      (au)      (au)
-----------------------------------------------------------------------------
   0    5130.0   1949.3   0.271304837  17.41062  -0.05419   4.16979  -0.14323
   1    7096.7   1409.1   0.061235777   2.84068  -0.72355   0.75867  -1.31969
   2    9745.9   1026.1   0.031290011   1.05696  -0.37316  -0.28120   0.91577
   3   12123.2    824.9   0.037315847   1.01333  -0.59691   0.65502  -0.47748
   4   16921.5    591.0   0.010004258   0.19464   0.37480   0.18469   0.14159
   5   18117.7    551.9   0.330339936   6.00253   0.26061  -2.43595   0.02736
   6   19930.8    501.7   0.087651577   1.44780   0.12145  -1.18124  -0.19426
   7   21800.4    458.7   0.052710606   0.79599   0.76246   0.07168  -0.45773
   8   23045.5    433.9   0.630713656   9.00994   0.17886  -2.93026   0.62571
   9   23346.1    428.3   0.139887235   1.97260  -0.14651  -1.39622   0.04123
  10   23956.2    417.4   0.000921583   0.01266   0.07592   0.06511   0.05159
  11   24018.8    416.3   0.007338088   0.10058  -0.27955   0.10784  -0.10393
  12   24506.7    408.1   0.000357995   0.00481   0.01574   0.06440   0.02035
  13   26046.1    383.9   0.065748319   0.83103  -0.48934   0.67101  -0.37592
  14   27074.8    369.3   0.382215047   4.64749  -1.24909   0.10670  -1.75382
  15   27920.4    358.2   0.163278868   1.92524  -0.90548   0.14185  -1.04174
  16   28235.9    354.2   0.052032643   0.60667   0.61124  -0.45196   0.16964
  17   28709.6    348.3   0.233048403   2.67236   0.10007   0.98378   1.30174
  18   29728.4    336.4   0.049709033   0.55048   0.27918   0.61821   0.30059
  19   30181.9    331.3   0.825405218   9.00318  -0.94403   2.42415   1.49515
  20   31086.8    321.7   0.110999502   1.17550  -0.13713  -0.68388  -0.83006
  21   31933.0    313.2   0.016086681   0.16585  -0.34835   0.00519  -0.21088
  22   33076.3    302.3   0.072953055   0.72611   0.54722  -0.22258   0.61411
  23   33750.3    296.3   0.154735044   1.50934   0.53221  -0.63640  -0.90614
  24   34121.4    293.1   0.029698174   0.28654   0.51539  -0.03452   0.14042
  25   34340.7    291.2   0.012864152   0.12332   0.18183   0.15576   0.25690
  26   34779.0    287.5   0.677042764   6.40876   2.12389  -1.26898  -0.53624
  27   35205.6    284.0   0.009854978   0.09216  -0.22020   0.15099  -0.14447
  28   35369.1    282.7   0.130368364   1.21345  -0.94385   0.51076  -0.24845
  29   36391.0    274.8   0.020647662   0.18679   0.03030  -0.09214   0.42117
  30   36604.2    273.2   0.206519619   1.85740  -1.15586   0.31222  -0.65109
  31   37209.6    268.7   0.108086743   0.95630  -0.61727   0.61553  -0.44316
  32   37830.7    264.3   0.037476855   0.32613  -0.28714   0.44846  -0.20632
  33   38244.3    261.5   0.008447248   0.07271  -0.21552   0.16002  -0.02572
  34   38697.5    258.4   0.100355150   0.85375   0.62040  -0.68040   0.07688
  35   39322.2    254.3   0.046301597   0.38765   0.50797  -0.35980  -0.01233
  36   39852.8    250.9   0.013486093   0.11140  -0.12338  -0.21699   0.22158

FINAL SINGLE POINT ENERGY     -2963.172289128748

DIPOLE MOMENT
-------------
                                X             Y             Z
Electronic contribution:      1.74110     -11.09228      -0.84278
Nuclear contribution   :     -2.31235      12.33407       2.01557
                        -----------------------------------------
Total Dipole Moment    :     -0.57126       1.24179       1.17279
                        -----------------------------------------
Magnitude (a.u.)       :      1.80106
Magnitude (Debye)      :      4.57793

Rotational constants in cm-1:     0.002541     0.000421     0.000393
Rotational constants in MHz :    76.186639    12.614216    11.767975

                             ****ORCA TERMINATED NORMALLY****
TOTAL RUN TIME: 0 days 0 hours 7 minutes 59 seconds 475 msec
