                         Program Version 4.2.0 -  RELEASE  -
|  1> # ORCA input file
|  2> # SCF done       -168.243121464902          0.000755921471
|  3> ! CAM-B3LYP def2-SVP def2/J RIJCOSX Grid4 TightSCF
|  4> %maxcore 5000
|  5> %tddft
|  6>     Mode sTDDFT
|  7>     Ethresh 5.0
|  8>     maxcore 5000
|  9> end
| 10>
| 11> %pal
| 12>   nprocs 6
| 13>   end
| 14> * xyz 0 1
| 15>    C       -1.52873        -2.12814         0.80831
| 16>    C       -1.46351        -1.98470        -0.52925
| 17>    C       -1.65475        -0.59836        -0.90206
| 18>    C       -1.84400         0.15535         0.21849
| 19>    C       -1.77204        -0.79698         1.40077
| 20>    O       -1.89555        -0.49974         2.56314
| 21>    C       -2.07324         1.53173         0.41332
| 22>    C       -2.16726         2.46307        -0.58209
| 23>    C       -2.40885         3.83576        -0.38519
| 24>    C       -2.53454         4.78111        -1.39071
| 25>    C       -2.79382         6.04910        -0.81386
| 26>    C       -2.80857         5.81255         0.63432
| 27>    C       -2.58501         4.51723         0.90087
| 28>    F       -3.01932         6.77859         1.53524
| 29>    C       -3.00996         7.25506        -1.45177
| 30>    C       -3.30150         8.51822        -0.87771
| 31>    C       -3.47531         9.44633        -1.89135
| 32>    C       -3.27967         8.76277        -3.17298
| 33>    C       -3.00576         7.47900        -2.90230
| 34>    F       -2.76065         6.51388        -3.79870
| 35>    C       -3.80481        10.81296        -1.79970
| 36>    C       -3.99049        11.50086        -0.63512
| 37>    C       -4.35708        12.85756        -0.57876
| 38>    S       -4.63158        13.78692        -2.03051
| 39>    C       -4.57372        13.63884         0.56227
| 40>    C       -4.41077        13.12821         1.93901
| 41>    O       -4.07645        11.98721         2.21304
| 42>    C       -4.69245        14.14031         2.94246
| 43>    C       -4.64050        14.04856         4.31668
| 44>    N       -4.97495        15.25044         4.84314
| 45>    C       -5.09777        15.53569         6.25053
| 46>    C       -6.50529        15.22184         6.75363
| 47>    C       -5.25493        16.12009         3.84396
| 48>    C       -5.08776        15.47362         2.63836
| 49>    C       -5.25724        15.98323         1.28871
| 50>    O       -5.60176        17.12787         1.04336
| 51>    C       -4.96614        14.96349         0.26091
| 52>    C       -5.05250        15.21137        -1.11426
| 53>    C       -5.44000        16.40477        -1.74837
| 54>    C       -5.47833        16.56780        -3.10383
| 55>    C       -5.90713        17.73323        -3.76723
| 56>    C       -6.41585        18.90716        -3.23137
| 57>    C       -6.75828        19.78619        -4.28690
| 58>    C       -6.40494        19.07222        -5.51865
| 59>    C       -5.90597        17.86263        -5.22599
| 60>    F       -6.57220        19.58546        -6.74536
| 61>    C       -7.33946        21.03970        -4.21138
| 62>    C       -7.72692        21.89346        -5.26831
| 63>    C       -8.31595        23.03820        -4.74457
| 64>    C       -8.29537        22.92661        -3.28361
| 65>    C       -7.71989        21.75228        -2.98559
| 66>    F       -7.50880        21.26724        -1.75731
| 67>    C       -8.85126        24.09282        -5.49953
| 68>    C       -9.46895        25.20051        -4.97897
| 69>    C      -10.02995        26.24286        -5.73206
| 70>    C      -10.11523        26.46293        -7.08497
| 71>    C      -10.80691        27.68623        -7.34667
| 72>    C      -11.18647        28.28853        -6.18057
| 73>    C      -10.71478        27.41060        -5.06503
| 74>    O      -10.85143        27.58855        -3.88070
| 75>    C      -11.89391        29.50535        -5.92578
| 76>    C      -12.35897        30.34309        -6.85687
| 77>    H       -1.42842        -3.02600         1.38684
| 78>    H       -1.29567        -2.76708        -1.24891
| 79>    H       -1.64177        -0.25349        -1.91981
| 80>    H       -2.18279         1.83466         1.44621
| 81>    H       -2.05845         2.14233        -1.61009
| 82>    H       -2.45645         4.58492        -2.44212
| 83>    H       -2.53959         4.05715         1.86762
| 84>    H       -3.38218         8.70849         0.17392
| 85>    H       -3.34878         9.23045        -4.13584
| 86>    H       -3.92512        11.34520        -2.73709
| 87>    H       -3.86496        11.00860         0.31867
| 88>    H       -4.38022        13.20910         4.93029
| 89>    H       -4.87051        16.59266         6.41119
| 90>    H       -4.36396        14.93361         6.79254
| 91>    H       -7.24011        15.82050         6.22078
| 92>    H       -6.57812        15.44258         7.81471
| 93>    H       -6.73732        14.17098         6.59845
| 94>    H       -5.54454        17.13456         4.03356
| 95>    H       -5.71924        17.21575        -1.09108
| 96>    H       -5.16510        15.74041        -3.73140
| 97>    H       -6.54799        19.11967        -2.18922
| 98>    H       -5.56135        17.11166        -5.90995
| 99>    H       -7.59847        21.68504        -6.31234
|100>    H       -8.67124        23.65344        -2.59162
|101>    H       -8.77131        23.99805        -6.57469
|102>    H       -9.55836        25.30832        -3.90615
|103>    H       -9.72728        25.82558        -7.85909
|104>    H      -10.98968        28.05738        -8.33950
|105>    H      -12.04308        29.72318        -4.87537
|106>    H      -12.22837        30.15540        -7.90908
|107>    H      -12.88417        31.24320        -6.59007
|108> *
|109>
|110>                          ****END OF INPUT****

CARTESIAN COORDINATES (ANGSTROEM)
---------------------------------
  C     -1.528730   -2.128140    0.808310
  C     -1.463510   -1.984700   -0.529250
  C     -1.654750   -0.598360   -0.902060
  C     -1.844000    0.155350    0.218490
  C     -1.772040   -0.796980    1.400770
  O     -1.895550   -0.499740    2.563140
  C     -2.073240    1.531730    0.413320
  C     -2.167260    2.463070   -0.582090
  C     -2.408850    3.835760   -0.385190
  C     -2.534540    4.781110   -1.390710
  C     -2.793820    6.049100   -0.813860
  C     -2.808570    5.812550    0.634320
  C     -2.585010    4.517230    0.900870
  F     -3.019320    6.778590    1.535240
  C     -3.009960    7.255060   -1.451770
  C     -3.301500    8.518220   -0.877710
  C     -3.475310    9.446330   -1.891350
  C     -3.279670    8.762770   -3.172980
  C     -3.005760    7.479000   -2.902300
  F     -2.760650    6.513880   -3.798700
  C     -3.804810   10.812960   -1.799700
  C     -3.990490   11.500860   -0.635120
  C     -4.357080   12.857560   -0.578760
  S     -4.631580   13.786920   -2.030510
  C     -4.573720   13.638840    0.562270
  C     -4.410770   13.128210    1.939010
  O     -4.076450   11.987210    2.213040
  C     -4.692450   14.140310    2.942460
  C     -4.640500   14.048560    4.316680
  N     -4.974950   15.250440    4.843140
  C     -5.097770   15.535690    6.250530
  C     -6.505290   15.221840    6.753630
  C     -5.254930   16.120090    3.843960
  C     -5.087760   15.473620    2.638360
  C     -5.257240   15.983230    1.288710
  O     -5.601760   17.127870    1.043360
  C     -4.966140   14.963490    0.260910
  C     -5.052500   15.211370   -1.114260
  C     -5.440000   16.404770   -1.748370
  C     -5.478330   16.567800   -3.103830
  C     -5.907130   17.733230   -3.767230
  C     -6.415850   18.907160   -3.231370
  C     -6.758280   19.786190   -4.286900
  C     -6.404940   19.072220   -5.518650
  C     -5.905970   17.862630   -5.225990
  F     -6.572200   19.585460   -6.745360
  C     -7.339460   21.039700   -4.211380
  C     -7.726920   21.893460   -5.268310
  C     -8.315950   23.038200   -4.744570
  C     -8.295370   22.926610   -3.283610
  C     -7.719890   21.752280   -2.985590
  F     -7.508800   21.267240   -1.757310
  C     -8.851260   24.092820   -5.499530
  C     -9.468950   25.200510   -4.978970
  C    -10.029950   26.242860   -5.732060
  C    -10.115230   26.462930   -7.084970
  C    -10.806910   27.686230   -7.346670
  C    -11.186470   28.288530   -6.180570
  C    -10.714780   27.410600   -5.065030
  O    -10.851430   27.588550   -3.880700
  C    -11.893910   29.505350   -5.925780
  C    -12.358970   30.343090   -6.856870
  H     -1.428420   -3.026000    1.386840
  H     -1.295670   -2.767080   -1.248910
  H     -1.641770   -0.253490   -1.919810
  H     -2.182790    1.834660    1.446210
  H     -2.058450    2.142330   -1.610090
  H     -2.456450    4.584920   -2.442120
  H     -2.539590    4.057150    1.867620
  H     -3.382180    8.708490    0.173920
  H     -3.348780    9.230450   -4.135840
  H     -3.925120   11.345200   -2.737090
  H     -3.864960   11.008600    0.318670
  H     -4.380220   13.209100    4.930290
  H     -4.870510   16.592660    6.411190
  H     -4.363960   14.933610    6.792540
  H     -7.240110   15.820500    6.220780
  H     -6.578120   15.442580    7.814710
  H     -6.737320   14.170980    6.598450
  H     -5.544540   17.134560    4.033560
  H     -5.719240   17.215750   -1.091080
  H     -5.165100   15.740410   -3.731400
  H     -6.547990   19.119670   -2.189220
  H     -5.561350   17.111660   -5.909950
  H     -7.598470   21.685040   -6.312340
  H     -8.671240   23.653440   -2.591620
  H     -8.771310   23.998050   -6.574690
  H     -9.558360   25.308320   -3.906150
  H     -9.727280   25.825580   -7.859090
  H    -10.989680   28.057380   -8.339500
  H    -12.043080   29.723180   -4.875370
  H    -12.228370   30.155400   -7.909080
  H    -12.884170   31.243200   -6.590070

 Total Charge           Charge          ....    0
 Multiplicity           Mult            ....    1
 Number of Electrons    NEL             ....  434
 Basis Dimension        Dim             .... 1027

ORBITAL ENERGIES
----------------

  NO   OCC          E(Eh)            E(eV)
   0   2.0000     -88.960683     -2420.7432
   1   2.0000     -24.782204      -674.3581
   2   2.0000     -24.781248      -674.3320
   3   2.0000     -24.781165      -674.3298
   4   2.0000     -24.780921      -674.3231
   5   2.0000     -19.232786      -523.3507
   6   2.0000     -19.225588      -523.1548
   7   2.0000     -19.193776      -522.2892
   8   2.0000     -19.193433      -522.2799
   9   2.0000     -14.482793      -394.0968
  10   2.0000     -10.363263      -281.9987
  11   2.0000     -10.359618      -281.8995
  12   2.0000     -10.353956      -281.7455
  13   2.0000     -10.353625      -281.7365
  14   2.0000     -10.347971      -281.5826
  15   2.0000     -10.347620      -281.5731
  16   2.0000     -10.346657      -281.5468
  17   2.0000     -10.345509      -281.5156
  18   2.0000     -10.329687      -281.0851
  19   2.0000     -10.314077      -280.6603
  20   2.0000     -10.313939      -280.6565
  21   2.0000     -10.306550      -280.4555
  22   2.0000     -10.306500      -280.4541
  23   2.0000     -10.296714      -280.1878
  24   2.0000     -10.296233      -280.1747
  25   2.0000     -10.295895      -280.1655
  26   2.0000     -10.294697      -280.1329
  27   2.0000     -10.294535      -280.1285
  28   2.0000     -10.292123      -280.0629
  29   2.0000     -10.291862      -280.0558
  30   2.0000     -10.287084      -279.9258
  31   2.0000     -10.283421      -279.8261
  32   2.0000     -10.283176      -279.8195
  33   2.0000     -10.282932      -279.8128
  34   2.0000     -10.282762      -279.8082
  35   2.0000     -10.281921      -279.7853
  36   2.0000     -10.280924      -279.7582
  37   2.0000     -10.280726      -279.7528
  38   2.0000     -10.280723      -279.7527
  39   2.0000     -10.280644      -279.7505
  40   2.0000     -10.280242      -279.7396
  41   2.0000     -10.280181      -279.7379
  42   2.0000     -10.279905      -279.7304
  43   2.0000     -10.279794      -279.7274
  44   2.0000     -10.279657      -279.7237
  45   2.0000     -10.278732      -279.6985
  46   2.0000     -10.278463      -279.6912
  47   2.0000     -10.277421      -279.6629
  48   2.0000     -10.276592      -279.6403
  49   2.0000     -10.273972      -279.5690
  50   2.0000     -10.270074      -279.4629
  51   2.0000     -10.267673      -279.3976
  52   2.0000     -10.265052      -279.3263
  53   2.0000     -10.264967      -279.3239
  54   2.0000     -10.264527      -279.3120
  55   2.0000     -10.263315      -279.2790
  56   2.0000     -10.263014      -279.2708
  57   2.0000     -10.262742      -279.2634
  58   2.0000     -10.258214      -279.1402
  59   2.0000     -10.257285      -279.1149
  60   2.0000     -10.254456      -279.0379
  61   2.0000     -10.253772      -279.0193
  62   2.0000      -8.056155      -219.2191
  63   2.0000      -6.025198      -163.9540
  64   2.0000      -6.021372      -163.8499
  65   2.0000      -6.018414      -163.7694
  66   2.0000      -1.294105       -35.2144
  67   2.0000      -1.293941       -35.2099
  68   2.0000      -1.293575       -35.2000
  69   2.0000      -1.292991       -35.1841
  70   2.0000      -1.140911       -31.0458
  71   2.0000      -1.133934       -30.8559
  72   2.0000      -1.113497       -30.2998
  73   2.0000      -1.108706       -30.1694
  74   2.0000      -1.101853       -29.9829
  75   2.0000      -0.991258       -26.9735
  76   2.0000      -0.980132       -26.6708
  77   2.0000      -0.979614       -26.6566
  78   2.0000      -0.968394       -26.3513
  79   2.0000      -0.964290       -26.2397
  80   2.0000      -0.960885       -26.1470
  81   2.0000      -0.960291       -26.1309
  82   2.0000      -0.932432       -25.3728
  83   2.0000      -0.908094       -24.7105
  84   2.0000      -0.898642       -24.4533
  85   2.0000      -0.892771       -24.2935
  86   2.0000      -0.887995       -24.1636
  87   2.0000      -0.870860       -23.6973
  88   2.0000      -0.865915       -23.5627
  89   2.0000      -0.849931       -23.1278
  90   2.0000      -0.839251       -22.8372
  91   2.0000      -0.834950       -22.7201
  92   2.0000      -0.829054       -22.5597
  93   2.0000      -0.824759       -22.4428
  94   2.0000      -0.815594       -22.1934
  95   2.0000      -0.811007       -22.0686
  96   2.0000      -0.789670       -21.4880
  97   2.0000      -0.787370       -21.4254
  98   2.0000      -0.782189       -21.2844
  99   2.0000      -0.774244       -21.0682
 100   2.0000      -0.770052       -20.9542
 101   2.0000      -0.766357       -20.8536
 102   2.0000      -0.761074       -20.7099
 103   2.0000      -0.752427       -20.4746
 104   2.0000      -0.750182       -20.4135
 105   2.0000      -0.731454       -19.9039
 106   2.0000      -0.714111       -19.4319
 107   2.0000      -0.700290       -19.0559
 108   2.0000      -0.698526       -19.0079
 109   2.0000      -0.692948       -18.8561
 110   2.0000      -0.691291       -18.8110
 111   2.0000      -0.687368       -18.7042
 112   2.0000      -0.667094       -18.1525
 113   2.0000      -0.663512       -18.0551
 114   2.0000      -0.655872       -17.8472
 115   2.0000      -0.652880       -17.7658
 116   2.0000      -0.648217       -17.6389
 117   2.0000      -0.645058       -17.5529
 118   2.0000      -0.641996       -17.4696
 119   2.0000      -0.636142       -17.3103
 120   2.0000      -0.628930       -17.1141
 121   2.0000      -0.623193       -16.9579
 122   2.0000      -0.616108       -16.7652
 123   2.0000      -0.614448       -16.7200
 124   2.0000      -0.613039       -16.6816
 125   2.0000      -0.609309       -16.5801
 126   2.0000      -0.606948       -16.5159
 127   2.0000      -0.602484       -16.3944
 128   2.0000      -0.592361       -16.1190
 129   2.0000      -0.590455       -16.0671
 130   2.0000      -0.584443       -15.9035
 131   2.0000      -0.581384       -15.8203
 132   2.0000      -0.580400       -15.7935
 133   2.0000      -0.564809       -15.3692
 134   2.0000      -0.562230       -15.2991
 135   2.0000      -0.556597       -15.1458
 136   2.0000      -0.552398       -15.0315
 137   2.0000      -0.551991       -15.0204
 138   2.0000      -0.551916       -15.0184
 139   2.0000      -0.547245       -14.8913
 140   2.0000      -0.545372       -14.8403
 141   2.0000      -0.545023       -14.8308
 142   2.0000      -0.544383       -14.8134
 143   2.0000      -0.543560       -14.7910
 144   2.0000      -0.540969       -14.7205
 145   2.0000      -0.538875       -14.6635
 146   2.0000      -0.532900       -14.5009
 147   2.0000      -0.532543       -14.4912
 148   2.0000      -0.529146       -14.3988
 149   2.0000      -0.525003       -14.2860
 150   2.0000      -0.519967       -14.1490
 151   2.0000      -0.517121       -14.0716
 152   2.0000      -0.515263       -14.0210
 153   2.0000      -0.514409       -13.9978
 154   2.0000      -0.512534       -13.9468
 155   2.0000      -0.508937       -13.8489
 156   2.0000      -0.508041       -13.8245
 157   2.0000      -0.506615       -13.7857
 158   2.0000      -0.505183       -13.7467
 159   2.0000      -0.503262       -13.6945
 160   2.0000      -0.502074       -13.6621
 161   2.0000      -0.500013       -13.6060
 162   2.0000      -0.494117       -13.4456
 163   2.0000      -0.492795       -13.4096
 164   2.0000      -0.490529       -13.3480
 165   2.0000      -0.483567       -13.1585
 166   2.0000      -0.481545       -13.1035
 167   2.0000      -0.480165       -13.0660
 168   2.0000      -0.476688       -12.9713
 169   2.0000      -0.474615       -12.9149
 170   2.0000      -0.471574       -12.8322
 171   2.0000      -0.469523       -12.7764
 172   2.0000      -0.468478       -12.7479
 173   2.0000      -0.465786       -12.6747
 174   2.0000      -0.465107       -12.6562
 175   2.0000      -0.464269       -12.6334
 176   2.0000      -0.460632       -12.5344
 177   2.0000      -0.459524       -12.5043
 178   2.0000      -0.454011       -12.3543
 179   2.0000      -0.452314       -12.3081
 180   2.0000      -0.448807       -12.2126
 181   2.0000      -0.447627       -12.1806
 182   2.0000      -0.447284       -12.1712
 183   2.0000      -0.445962       -12.1353
 184   2.0000      -0.445677       -12.1275
 185   2.0000      -0.441516       -12.0143
 186   2.0000      -0.437607       -11.9079
 187   2.0000      -0.432371       -11.7654
 188   2.0000      -0.431668       -11.7463
 189   2.0000      -0.430127       -11.7043
 190   2.0000      -0.429789       -11.6952
 191   2.0000      -0.419855       -11.4248
 192   2.0000      -0.414294       -11.2735
 193   2.0000      -0.412995       -11.2382
 194   2.0000      -0.406991       -11.0748
 195   2.0000      -0.405528       -11.0350
 196   2.0000      -0.405345       -11.0300
 197   2.0000      -0.396177       -10.7805
 198   2.0000      -0.380120       -10.3436
 199   2.0000      -0.363808        -9.8997
 200   2.0000      -0.348901        -9.4941
 201   2.0000      -0.338770        -9.2184
 202   2.0000      -0.334195        -9.0939
 203   2.0000      -0.332539        -9.0489
 204   2.0000      -0.324059        -8.8181
 205   2.0000      -0.323228        -8.7955
 206   2.0000      -0.319778        -8.7016
 207   2.0000      -0.319353        -8.6900
 208   2.0000      -0.309150        -8.4124
 209   2.0000      -0.298440        -8.1210
 210   2.0000      -0.297605        -8.0982
 211   2.0000      -0.293941        -7.9985
 212   2.0000      -0.289080        -7.8663
 213   2.0000      -0.269058        -7.3214
 214   2.0000      -0.255298        -6.9470
 215   2.0000      -0.238470        -6.4891
 216   2.0000      -0.220559        -6.0017
 217   0.0000      -0.114122        -3.1054
 218   0.0000      -0.102669        -2.7938
 219   0.0000      -0.074344        -2.0230
 220   0.0000      -0.066860        -1.8194
 221   0.0000      -0.038369        -1.0441

MULLIKEN ATOMIC CHARGES
-----------------------
   0 C :   -0.032502
   1 C :    0.059006
   2 C :   -0.027596
   3 C :   -0.015460
   4 C :    0.134311
   5 O :   -0.123987
   6 C :    0.021289
   7 C :    0.006153
   8 C :    0.115599
   9 C :   -0.093363
  10 C :    0.015128
  11 C :    0.257354
  12 C :   -0.079317
  13 F :   -0.172538
  14 C :    0.014084
  15 C :   -0.092094
  16 C :    0.108888
  17 C :   -0.082685
  18 C :    0.256125
  19 F :   -0.180304
  20 C :   -0.003638
  21 C :    0.005994
  22 C :   -0.111163
  23 S :    0.113870
  24 C :    0.017621
  25 C :    0.135445
  26 O :   -0.167694
  27 C :   -0.018775
  28 C :    0.009800
  29 N :   -0.134986
  30 C :    0.090025
  31 C :    0.000504
  32 C :    0.010569
  33 C :   -0.019238
  34 C :    0.134299
  35 O :   -0.168647
  36 C :    0.020237
  37 C :   -0.111447
  38 C :    0.005393
  39 C :   -0.002807
  40 C :    0.107975
  41 C :   -0.093862
  42 C :    0.017118
  43 C :    0.253341
  44 C :   -0.082197
  45 F :   -0.181469
  46 C :    0.020133
  47 C :   -0.097472
  48 C :    0.119398
  49 C :   -0.080664
  50 C :    0.256879
  51 F :   -0.172153
  52 C :   -0.001028
  53 C :    0.011909
  54 C :    0.007705
  55 C :   -0.013718
  56 C :   -0.012264
  57 C :   -0.006692
  58 C :    0.125505
  59 O :   -0.115952
  60 C :    0.011094
  61 C :   -0.007989
  62 H :   -0.007188
  63 H :    0.004436
  64 H :   -0.004118
  65 H :   -0.004167
  66 H :   -0.022594
  67 H :   -0.017020
  68 H :   -0.013440
  69 H :   -0.003891
  70 H :   -0.021483
  71 H :   -0.018003
  72 H :    0.027298
  73 H :    0.005931
  74 H :    0.033462
  75 H :    0.033682
  76 H :    0.031228
  77 H :    0.030544
  78 H :    0.031307
  79 H :    0.005662
  80 H :    0.026432
  81 H :   -0.017106
  82 H :   -0.005392
  83 H :   -0.022087
  84 H :   -0.017627
  85 H :   -0.012846
  86 H :   -0.023307
  87 H :   -0.003381
  88 H :   -0.005804
  89 H :   -0.010027
  90 H :    0.000774
  91 H :    0.012073
  92 H :    0.027599
Sum of atomic charges:   -0.0000000

LOEWDIN ATOMIC CHARGES
----------------------
   0 C :   -0.067103
   1 C :    0.023456
   2 C :   -0.004933
   3 C :   -0.060051
   4 C :    0.094710
   5 O :   -0.097154
   6 C :   -0.009933
   7 C :   -0.000112
   8 C :   -0.000317
   9 C :   -0.055319
  10 C :   -0.000434
  11 C :    0.082478
  12 C :   -0.058423
  13 F :   -0.049995
  14 C :   -0.000460
  15 C :   -0.052126
  16 C :   -0.004057
  17 C :   -0.059597
  18 C :    0.078222
  19 F :   -0.055519
  20 C :   -0.019249
  21 C :   -0.012194
  22 C :   -0.125556
  23 S :    0.448261
  24 C :   -0.082391
  25 C :    0.080261
  26 O :   -0.166495
  27 C :   -0.101387
  28 C :    0.029729
  29 N :    0.089187
  30 C :    0.043936
  31 C :   -0.057684
  32 C :    0.029924
  33 C :   -0.101473
  34 C :    0.080102
  35 O :   -0.166824
  36 C :   -0.083257
  37 C :   -0.124735
  38 C :   -0.013940
  39 C :   -0.017645
  40 C :   -0.005391
  41 C :   -0.052033
  42 C :   -0.002679
  43 C :    0.078082
  44 C :   -0.060948
  45 F :   -0.056298
  46 C :   -0.000169
  47 C :   -0.057945
  48 C :    0.001307
  49 C :   -0.060171
  50 C :    0.083758
  51 F :   -0.049499
  52 C :   -0.003962
  53 C :   -0.007256
  54 C :   -0.068303
  55 C :    0.010770
  56 C :    0.015030
  57 C :   -0.067879
  58 C :    0.107484
  59 O :   -0.092808
  60 C :   -0.024082
  61 C :   -0.027562
  62 H :    0.029817
  63 H :    0.031443
  64 H :    0.026024
  65 H :    0.032606
  66 H :    0.030437
  67 H :    0.022452
  68 H :    0.030758
  69 H :    0.025807
  70 H :    0.028742
  71 H :    0.019571
  72 H :    0.041412
  73 H :    0.029208
  74 H :    0.033617
  75 H :    0.033646
  76 H :    0.030761
  77 H :    0.032948
  78 H :    0.030733
  79 H :    0.029175
  80 H :    0.041281
  81 H :    0.019904
  82 H :    0.025479
  83 H :    0.028521
  84 H :    0.022223
  85 H :    0.030617
  86 H :    0.030078
  87 H :    0.033221
  88 H :    0.028141
  89 H :    0.028768
  90 H :    0.034614
  91 H :    0.019690
  92 H :    0.026960

  Mayer bond orders larger than 0.100000
B(  0-C ,  1-C ) :   1.7020 B(  0-C ,  4-C ) :   0.9877 B(  0-C , 62-H ) :   1.0161
B(  1-C ,  2-C ) :   1.0346 B(  1-C , 63-H ) :   0.9990 B(  2-C ,  3-C ) :   1.6534
B(  2-C , 64-H ) :   1.0036 B(  3-C ,  4-C ) :   0.8957 B(  3-C ,  6-C ) :   1.1545
B(  4-C ,  5-O ) :   2.2040 B(  6-C ,  7-C ) :   1.5692 B(  6-C , 65-H ) :   0.9704
B(  7-C ,  8-C ) :   1.1640 B(  7-C , 66-H ) :   0.9830 B(  8-C ,  9-C ) :   1.4778
B(  8-C , 12-C ) :   1.0163 B(  9-C , 10-C ) :   1.1377 B(  9-C , 67-H ) :   1.0240
B( 10-C , 11-C ) :   1.0203 B( 10-C , 14-C ) :   1.4301 B( 11-C , 12-C ) :   1.6658
B( 11-C , 13-F ) :   1.1275 B( 12-C , 68-H ) :   1.0154 B( 14-C , 15-C ) :   1.1505
B( 14-C , 18-C ) :   1.0153 B( 15-C , 16-C ) :   1.5136 B( 15-C , 69-H ) :   1.0127
B( 16-C , 17-C ) :   1.0075 B( 16-C , 20-C ) :   1.1501 B( 17-C , 18-C ) :   1.6573
B( 17-C , 70-H ) :   1.0225 B( 18-C , 19-F ) :   1.1187 B( 20-C , 21-C ) :   1.5542
B( 20-C , 71-H ) :   0.9723 B( 21-C , 22-C ) :   1.2045 B( 21-C , 72-H ) :   0.9583
B( 22-C , 23-S ) :   1.1065 B( 22-C , 24-C ) :   1.4454 B( 23-S , 37-C ) :   1.1070
B( 24-C , 25-C ) :   0.9412 B( 24-C , 36-C ) :   1.2027 B( 25-C , 26-O ) :   2.1901
B( 25-C , 27-C ) :   0.9989 B( 27-C , 28-C ) :   1.4264 B( 27-C , 33-C ) :   1.2928
B( 28-C , 29-N ) :   1.2335 B( 28-C , 73-H ) :   0.9927 B( 29-N , 30-C ) :   0.9532
B( 29-N , 32-C ) :   1.2336 B( 30-C , 31-C ) :   1.1109 B( 30-C , 74-H ) :   0.9513
B( 30-C , 75-H ) :   0.9509 B( 31-C , 76-H ) :   0.9674 B( 31-C , 77-H ) :   0.9682
B( 31-C , 78-H ) :   0.9677 B( 32-C , 33-C ) :   1.4272 B( 32-C , 79-H ) :   0.9925
B( 33-C , 34-C ) :   0.9994 B( 34-C , 35-O ) :   2.1888 B( 34-C , 36-C ) :   0.9416
B( 36-C , 37-C ) :   1.4410 B( 37-C , 38-C ) :   1.2088 B( 38-C , 39-C ) :   1.5528
B( 38-C , 80-H ) :   0.9563 B( 39-C , 40-C ) :   1.1529 B( 39-C , 81-H ) :   0.9715
B( 40-C , 41-C ) :   1.5056 B( 40-C , 44-C ) :   1.0103 B( 41-C , 42-C ) :   1.1563
B( 41-C , 82-H ) :   1.0134 B( 42-C , 43-C ) :   1.0175 B( 42-C , 46-C ) :   1.4158
B( 43-C , 44-C ) :   1.6553 B( 43-C , 45-F ) :   1.1168 B( 44-C , 83-H ) :   1.0214
B( 46-C , 47-C ) :   1.1493 B( 46-C , 50-C ) :   1.0186 B( 47-C , 48-C ) :   1.4582
B( 47-C , 84-H ) :   1.0247 B( 48-C , 49-C ) :   1.0170 B( 48-C , 52-C ) :   1.1768
B( 49-C , 50-C ) :   1.6676 B( 49-C , 85-H ) :   1.0137 B( 50-C , 51-F ) :   1.1276
B( 52-C , 53-C ) :   1.5393 B( 52-C , 86-H ) :   0.9840 B( 53-C , 54-C ) :   1.1645
B( 53-C , 87-H ) :   0.9724 B( 54-C , 55-C ) :   1.6024 B( 54-C , 58-C ) :   0.9076
B( 55-C , 56-C ) :   1.0557 B( 55-C , 88-H ) :   1.0050 B( 56-C , 57-C ) :   1.6393
B( 56-C , 89-H ) :   1.0061 B( 57-C , 58-C ) :   0.9312 B( 57-C , 60-C ) :   1.1205
B( 58-C , 59-O ) :   2.2373 B( 60-C , 61-C ) :   1.8982 B( 60-C , 90-H ) :   0.9601
B( 61-C , 91-H ) :   0.9551 B( 61-C , 92-H ) :   0.9510

-----------------------------------------------------------------------------
         ABSORPTION SPECTRUM VIA TRANSITION ELECTRIC DIPOLE MOMENTS
-----------------------------------------------------------------------------
State   Energy  Wavelength   fosc         T2         TX        TY        TZ
        (cm-1)    (nm)                  (au**2)     (au)      (au)      (au)
-----------------------------------------------------------------------------
   0   10092.4    990.8   2.043025726  66.64317   2.62640  -7.50259   1.85910
   1   12643.2    790.9   0.097913238   2.54953   0.36670   1.48101   0.47084
   2   14830.9    674.3   0.028252224   0.62714   0.41503  -0.62155  -0.26184
   3   15699.8    637.0   0.061565109   1.29097   0.22617  -1.05656   0.35142
   4   16623.3    601.6   0.003993851   0.07909  -0.13410   0.00728   0.24710
   5   18169.7    550.4   0.007230459   0.13101  -0.01216   0.22084   0.28651
   6   19385.5    515.8   0.049422464   0.83931   0.38985  -0.82341   0.09656
   7   19579.1    510.7   0.256233049   4.30842  -0.46709   1.91763  -0.64262
   8   21203.8    471.6   0.176698260   2.74344   0.70428  -1.29417   0.75667
   9   22753.4    439.5   0.473481148   6.85064   0.50407  -2.55493  -0.26251
  10   24041.0    416.0   0.085079392   1.16506   0.29989  -0.54639   0.88124
  11   24432.7    409.3   0.000472677   0.00637  -0.03227   0.07091   0.01732
  12   24466.2    408.7   0.072329977   0.97326  -0.40198   0.82178   0.36925
  13   24554.7    407.3   0.000188631   0.00253   0.00790  -0.01542   0.04721
  14   24642.5    405.8   0.154971581   2.07034  -0.16349   0.75000  -1.21701
  15   25138.5    397.8   0.080036911   1.04816  -0.05866   0.33807  -0.96459
  16   25651.1    389.8   0.041170231   0.52839  -0.25681   0.41718  -0.53703
  17   26774.8    373.5   0.126577739   1.55635   0.43747  -1.15706  -0.16185
  18   27099.5    369.0   0.009680809   0.11760   0.08034   0.10424   0.31668
  19   27383.3    365.2   0.000086754   0.00104  -0.00274  -0.00990  -0.03062
  20   27453.9    364.2   0.000007331   0.00009  -0.00544   0.00580  -0.00497
  21   27862.6    358.9   0.013444617   0.15886  -0.18286  -0.12085  -0.33289
  22   27958.2    357.7   0.000049233   0.00058  -0.00011  -0.01274   0.02043
  23   29521.5    338.7   0.080483137   0.89752  -0.35832   0.84244  -0.24376
  24   29851.6    335.0   0.037756614   0.41639   0.27877  -0.53538  -0.22814
  25   30218.1    330.9   0.052736239   0.57454  -0.20403   0.67462   0.27892
  26   30614.2    326.6   0.026787112   0.28806  -0.03473   0.06678  -0.53141
  27   31224.6    320.3   0.004229635   0.04459   0.06615  -0.10462   0.17109
  28   31650.8    315.9   0.118415954   1.23169  -0.21158   1.08243  -0.12356
  29   32051.3    312.0   0.121974589   1.25285   0.04182  -0.09625  -1.11438
  30   32227.3    310.3   0.002294835   0.02344   0.04951  -0.14207   0.02839
  31   32503.4    307.7   0.000329623   0.00334  -0.00252   0.00661   0.05735
  32   32540.7    307.3   0.000331740   0.00336  -0.01052   0.04460   0.03545
  33   32783.9    305.0   0.008286781   0.08321  -0.04562  -0.19531  -0.20733
  34   33015.4    302.9   0.036144259   0.36041   0.13935  -0.57331   0.11092
  35   33314.7    300.2   0.022662463   0.22395  -0.11286   0.38449  -0.25175
  36   33508.2    298.4   0.055817193   0.54839   0.22760  -0.65532   0.25912
  37   33840.2    295.5   0.119649070   1.16400   0.28647  -0.91207   0.50007
  38   34001.9    294.1   0.018876221   0.18276  -0.13375   0.09318   0.39521
  39   34269.4    291.8   0.023385907   0.22466  -0.14629   0.41457  -0.17718
  40   34392.3    290.8   0.009683679   0.09269   0.14790  -0.25765  -0.06661
  41   34974.7    285.9   0.003277905   0.03085   0.01898   0.08357   0.15333
  42   35001.3    285.7   0.022604217   0.21261   0.20278  -0.29669   0.28889
  43   35304.5    283.2   0.028974898   0.27019  -0.19949   0.41149   0.24712
  44   35877.6    278.7   0.030530948   0.28015  -0.24589   0.40764   0.23133
  45   36540.0    273.7   0.004866520   0.04385  -0.10814   0.00090  -0.17931
  46   36842.0    271.4   0.000166230   0.00149   0.02920  -0.01482  -0.02032
  47   37133.5    269.3   0.000066112   0.00059  -0.02280   0.00812   0.00039
  48   37278.6    268.3   0.088661652   0.78298   0.35387  -0.75317  -0.30081
  49   37322.2    267.9   0.000040186   0.00035  -0.01072   0.01315   0.00816
  50   37854.3    264.2   0.000076920   0.00067   0.02162   0.00159  -0.01410
  51   37888.0    263.9   0.016423575   0.14271  -0.05600   0.07879   0.36519
  52   38486.9    259.8   0.144298148   1.23431   0.22268  -1.08821   0.02290
  53   38595.0    259.1   0.066746212   0.56934  -0.00783  -0.24007   0.71529
  54   38726.3    258.2   0.039414113   0.33506   0.04217  -0.42140  -0.39459
  55   39214.1    255.0   0.041089871   0.34496   0.30822  -0.41847  -0.27357
  56   39438.4    253.6   0.068274556   0.56992   0.17163  -0.67195   0.29825
  57   39570.6    252.7   0.015644227   0.13015  -0.07329  -0.09845   0.33925
  58   39738.0    251.6   0.073548013   0.60931   0.25082  -0.37277   0.63832
  59   40223.4    248.6   0.204462582   1.67344   0.42255  -1.14872   0.41873

FINAL SINGLE POINT ENERGY     -3149.621683408930

DIPOLE MOMENT
-------------
                                X             Y             Z
Electronic contribution:     15.31494     -21.95873     -15.86306
Nuclear contribution   :    -15.52449      22.19867      15.54511
                        -----------------------------------------
Total Dipole Moment    :     -0.20955       0.23994      -0.31796
                        -----------------------------------------
Magnitude (a.u.)       :      0.45009
Magnitude (Debye)      :      1.14403

Rotational constants in cm-1:     0.002451     0.000233     0.000214
Rotational constants in MHz :    73.474962     6.971975     6.429109

                             ****ORCA TERMINATED NORMALLY****
TOTAL RUN TIME: 0 days 0 hours 7 minutes 25 seconds 854 msec
