                         Program Version 4.2.0 -  RELEASE  -
|  1> # ORCA input file
|  2> # SCF done       -191.865117529850          0.000605400823
|  3> ! CAM-B3LYP def2-SVP def2/J RIJCOSX Grid4 TightSCF
|  4> %maxcore 5000
|  5> %tddft
|  6>     Mode sTDDFT
|  7>     Ethresh 5.0
|  8>     maxcore 5000
|  9> end
| 10>
| 11> %pal
| 12>   nprocs 6
| 13>   end
| 14> * xyz 0 1
| 15>    C        7.51541         8.82933         2.06045
| 16>    S        8.21846         9.59224         3.57617
| 17>    C        6.76025         9.16680         4.59103
| 18>    C        6.14384         7.94699         3.91148
| 19>    C        6.13301         8.30128         2.41584
| 20>    C        4.70685         7.74637         4.44594
| 21>    O        3.73616         8.17445         3.87043
| 22>    N        4.64969         7.10452         5.62807
| 23>    N        6.96324         6.78719         4.18735
| 24>    C        6.58843         5.54687         3.81537
| 25>    C        7.34487         4.42829         3.94690
| 26>    C        6.86530         3.13688         3.62840
| 27>    N        7.41454         2.04386         4.15267
| 28>    C        6.63367         1.02185         3.77809
| 29>    C        5.50602         1.48411         2.94116
| 30>    C        4.68404         0.34352         2.50926
| 31>    O        3.70380         0.34681         1.78668
| 32>    C        5.35300        -0.79502         3.14746
| 33>    C        6.53351        -0.34580         3.90787
| 34>    N        7.17060        -1.39850         4.46750
| 35>    C        6.47673        -2.45456         4.10069
| 36>    C        5.33895        -2.15232         3.27107
| 37>    C        5.67221         2.83138         2.80105
| 38>    C        4.95330         3.78379         2.00100
| 39>    C        3.61289         3.84279         1.92702
| 40>    C        2.85925         4.79777         1.14691
| 41>    C        1.55631         5.07074         1.49954
| 42>    C        0.79608         5.98634         0.74803
| 43>    C       -0.50462         6.45173         0.91674
| 44>    C       -1.41490         6.05826         2.03242
| 45>    C       -1.50478         7.16061         3.11119
| 46>    N       -2.01307         8.40893         2.56757
| 47>    C       -2.81555         5.63883         1.55833
| 48>    N       -2.70028         4.54242         0.61144
| 49>    C       -0.76997         7.34550        -0.18692
| 50>    C       -1.83652         8.10847        -0.50099
| 51>    C       -1.90684         8.85593        -1.78372
| 52>    C       -0.62955         8.89762        -2.56525
| 53>    C        0.45333         8.17784        -2.20544
| 54>    C        0.43131         7.38292        -1.03945
| 55>    C        1.38660         6.58256        -0.43888
| 56>    C        2.72794         6.29574        -0.77110
| 57>    C        3.44168         5.44863         0.01277
| 58>    C       -2.85822         8.15248        -2.72414
| 59>    C       -3.01376         6.81919        -2.74840
| 60>    C       -3.94838         6.15663        -3.59506
| 61>    N       -4.79250         6.81302        -4.38262
| 62>    C       -5.62894         5.88469        -4.87807
| 63>    C       -5.31354         4.54441        -4.34522
| 64>    C       -6.25653         3.54038        -4.86888
| 65>    O       -6.32001         2.35847        -4.61495
| 66>    C       -7.11204         4.34687        -5.76000
| 67>    C       -6.70075         5.76532        -5.73005
| 68>    N       -7.47741         6.50651        -6.55697
| 69>    C       -8.31856         5.65226        -7.09166
| 70>    C       -8.14267         4.28901        -6.64422
| 71>    C       -4.20723         4.69929        -3.56281
| 72>    C       -3.45342         3.70848        -2.83922
| 73>    C       -2.12148         3.71110        -2.72999
| 74>    C       -1.34781         2.67927        -1.99808
| 75>    S       -0.93655         1.27048        -3.14797
| 76>    C        0.84868         1.35489        -2.79555
| 77>    C        0.98828         2.02478        -1.42858
| 78>    C       -0.01463         3.19152        -1.46498
| 79>    C        2.43096         2.57108        -1.35749
| 80>    O        2.76983         3.51421        -2.04581
| 81>    N        3.26812         1.89837        -0.56379
| 82>    N        0.71034         1.06681        -0.38588
| 83>    C        0.57555         1.47510         0.92491
| 84>    C       -0.10266         0.81549         1.85570
| 85>    H        8.19425         8.03200         1.75871
| 86>    H        7.48345         9.58367         1.27768
| 87>    H        6.06423        10.00561         4.58894
| 88>    H        7.08937         8.96852         5.60929
| 89>    H        5.36660         9.06036         2.25600
| 90>    H        5.87661         7.43215         1.80991
| 91>    H        5.46580         6.72127         6.07152
| 92>    H        3.74788         6.93713         6.04339
| 93>    H        7.94291         6.96067         4.37225
| 94>    H        5.56675         5.47650         3.46646
| 95>    H        8.32576         4.47885         4.39741
| 96>    H        6.77762        -3.43673         4.42162
| 97>    H        4.65240        -2.86761         2.86279
| 98>    H        5.56777         4.49239         1.45815
| 99>    H        3.03678         3.16095         2.53991
|100>    H        1.12090         4.58947         2.36441
|101>    H       -0.97668         5.17937         2.51563
|102>    H       -0.50803         7.26887         3.56897
|103>    H       -2.19971         6.82202         3.88411
|104>    H       -1.28801         8.86955         2.02738
|105>    H       -2.28102         9.03452         3.31868
|106>    H       -3.35288         6.51163         1.16448
|107>    H       -3.37388         5.26742         2.42226
|108>    H       -3.61829         4.20603         0.34400
|109>    H       -2.22737         4.85498        -0.23024
|110>    H       -2.70365         8.17297         0.13847
|111>    H       -2.28362         9.86947        -1.60407
|112>    H       -0.63704         9.49598        -3.46248
|113>    H        1.35625         8.21054        -2.79772
|114>    H        3.17063         6.74163        -1.64802
|115>    H        4.46026         5.21246        -0.25192
|116>    H       -3.40020         8.75826        -3.43489
|117>    H       -2.45877         6.19303        -2.06419
|118>    H       -9.05991         5.99043        -7.79511
|119>    H       -8.72348         3.44646        -6.96383
|120>    H       -4.02892         2.89541        -2.41497
|121>    H       -1.53398         4.45528        -3.25318
|122>    H       -1.95105         2.23631        -1.20216
|123>    H        1.33392         1.95555        -3.56530
|124>    H        1.25432         0.34496        -2.80660
|125>    H        0.39602         3.96135        -2.12256
|126>    H       -0.15006         3.61667        -0.46985
|127>    H        2.97338         1.17524         0.07850
|128>    H        4.21859         2.22293        -0.49163
|129>    H        0.06843         0.33343        -0.65753
|130>    H        1.12039         2.37834         1.15898
|131>    H       -0.64559        -0.08579         1.62936
|132>    H       -0.11237         1.14457         2.87714
|133> *
|134>
|135>                          ****END OF INPUT****

CARTESIAN COORDINATES (ANGSTROEM)
---------------------------------
  C      7.515410    8.829330    2.060450
  S      8.218460    9.592240    3.576170
  C      6.760250    9.166800    4.591030
  C      6.143840    7.946990    3.911480
  C      6.133010    8.301280    2.415840
  C      4.706850    7.746370    4.445940
  O      3.736160    8.174450    3.870430
  N      4.649690    7.104520    5.628070
  N      6.963240    6.787190    4.187350
  C      6.588430    5.546870    3.815370
  C      7.344870    4.428290    3.946900
  C      6.865300    3.136880    3.628400
  N      7.414540    2.043860    4.152670
  C      6.633670    1.021850    3.778090
  C      5.506020    1.484110    2.941160
  C      4.684040    0.343520    2.509260
  O      3.703800    0.346810    1.786680
  C      5.353000   -0.795020    3.147460
  C      6.533510   -0.345800    3.907870
  N      7.170600   -1.398500    4.467500
  C      6.476730   -2.454560    4.100690
  C      5.338950   -2.152320    3.271070
  C      5.672210    2.831380    2.801050
  C      4.953300    3.783790    2.001000
  C      3.612890    3.842790    1.927020
  C      2.859250    4.797770    1.146910
  C      1.556310    5.070740    1.499540
  C      0.796080    5.986340    0.748030
  C     -0.504620    6.451730    0.916740
  C     -1.414900    6.058260    2.032420
  C     -1.504780    7.160610    3.111190
  N     -2.013070    8.408930    2.567570
  C     -2.815550    5.638830    1.558330
  N     -2.700280    4.542420    0.611440
  C     -0.769970    7.345500   -0.186920
  C     -1.836520    8.108470   -0.500990
  C     -1.906840    8.855930   -1.783720
  C     -0.629550    8.897620   -2.565250
  C      0.453330    8.177840   -2.205440
  C      0.431310    7.382920   -1.039450
  C      1.386600    6.582560   -0.438880
  C      2.727940    6.295740   -0.771100
  C      3.441680    5.448630    0.012770
  C     -2.858220    8.152480   -2.724140
  C     -3.013760    6.819190   -2.748400
  C     -3.948380    6.156630   -3.595060
  N     -4.792500    6.813020   -4.382620
  C     -5.628940    5.884690   -4.878070
  C     -5.313540    4.544410   -4.345220
  C     -6.256530    3.540380   -4.868880
  O     -6.320010    2.358470   -4.614950
  C     -7.112040    4.346870   -5.760000
  C     -6.700750    5.765320   -5.730050
  N     -7.477410    6.506510   -6.556970
  C     -8.318560    5.652260   -7.091660
  C     -8.142670    4.289010   -6.644220
  C     -4.207230    4.699290   -3.562810
  C     -3.453420    3.708480   -2.839220
  C     -2.121480    3.711100   -2.729990
  C     -1.347810    2.679270   -1.998080
  S     -0.936550    1.270480   -3.147970
  C      0.848680    1.354890   -2.795550
  C      0.988280    2.024780   -1.428580
  C     -0.014630    3.191520   -1.464980
  C      2.430960    2.571080   -1.357490
  O      2.769830    3.514210   -2.045810
  N      3.268120    1.898370   -0.563790
  N      0.710340    1.066810   -0.385880
  C      0.575550    1.475100    0.924910
  C     -0.102660    0.815490    1.855700
  H      8.194250    8.032000    1.758710
  H      7.483450    9.583670    1.277680
  H      6.064230   10.005610    4.588940
  H      7.089370    8.968520    5.609290
  H      5.366600    9.060360    2.256000
  H      5.876610    7.432150    1.809910
  H      5.465800    6.721270    6.071520
  H      3.747880    6.937130    6.043390
  H      7.942910    6.960670    4.372250
  H      5.566750    5.476500    3.466460
  H      8.325760    4.478850    4.397410
  H      6.777620   -3.436730    4.421620
  H      4.652400   -2.867610    2.862790
  H      5.567770    4.492390    1.458150
  H      3.036780    3.160950    2.539910
  H      1.120900    4.589470    2.364410
  H     -0.976680    5.179370    2.515630
  H     -0.508030    7.268870    3.568970
  H     -2.199710    6.822020    3.884110
  H     -1.288010    8.869550    2.027380
  H     -2.281020    9.034520    3.318680
  H     -3.352880    6.511630    1.164480
  H     -3.373880    5.267420    2.422260
  H     -3.618290    4.206030    0.344000
  H     -2.227370    4.854980   -0.230240
  H     -2.703650    8.172970    0.138470
  H     -2.283620    9.869470   -1.604070
  H     -0.637040    9.495980   -3.462480
  H      1.356250    8.210540   -2.797720
  H      3.170630    6.741630   -1.648020
  H      4.460260    5.212460   -0.251920
  H     -3.400200    8.758260   -3.434890
  H     -2.458770    6.193030   -2.064190
  H     -9.059910    5.990430   -7.795110
  H     -8.723480    3.446460   -6.963830
  H     -4.028920    2.895410   -2.414970
  H     -1.533980    4.455280   -3.253180
  H     -1.951050    2.236310   -1.202160
  H      1.333920    1.955550   -3.565300
  H      1.254320    0.344960   -2.806600
  H      0.396020    3.961350   -2.122560
  H     -0.150060    3.616670   -0.469850
  H      2.973380    1.175240    0.078500
  H      4.218590    2.222930   -0.491630
  H      0.068430    0.333430   -0.657530
  H      1.120390    2.378340    1.158980
  H     -0.645590   -0.085790    1.629360
  H     -0.112370    1.144570    2.877140

 Total Charge           Charge          ....    0
 Multiplicity           Mult            ....    1
 Number of Electrons    NEL             ....  506
 Basis Dimension        Dim             .... 1228

ORBITAL ENERGIES
----------------

  NO   OCC          E(Eh)            E(eV)
   0   2.0000     -88.929067     -2419.8829
   1   2.0000     -88.897897     -2419.0348
   2   2.0000     -19.205305      -522.6029
   3   2.0000     -19.202445      -522.5251
   4   2.0000     -19.195477      -522.3355
   5   2.0000     -19.158982      -521.3424
   6   2.0000     -14.471111      -393.7789
   7   2.0000     -14.452108      -393.2618
   8   2.0000     -14.403030      -391.9264
   9   2.0000     -14.399960      -391.8428
  10   2.0000     -14.396954      -391.7610
  11   2.0000     -14.393270      -391.6608
  12   2.0000     -14.392657      -391.6441
  13   2.0000     -14.390407      -391.5829
  14   2.0000     -14.385411      -391.4469
  15   2.0000     -14.373615      -391.1259
  16   2.0000     -10.393662      -282.8259
  17   2.0000     -10.366119      -282.0764
  18   2.0000     -10.356983      -281.8278
  19   2.0000     -10.351460      -281.6775
  20   2.0000     -10.351184      -281.6700
  21   2.0000     -10.347783      -281.5775
  22   2.0000     -10.336897      -281.2813
  23   2.0000     -10.333130      -281.1787
  24   2.0000     -10.322482      -280.8890
  25   2.0000     -10.321196      -280.8540
  26   2.0000     -10.321019      -280.8492
  27   2.0000     -10.311424      -280.5881
  28   2.0000     -10.309470      -280.5349
  29   2.0000     -10.308382      -280.5053
  30   2.0000     -10.307501      -280.4814
  31   2.0000     -10.306004      -280.4406
  32   2.0000     -10.305331      -280.4223
  33   2.0000     -10.304366      -280.3961
  34   2.0000     -10.301372      -280.3146
  35   2.0000     -10.301033      -280.3054
  36   2.0000     -10.299570      -280.2655
  37   2.0000     -10.292560      -280.0748
  38   2.0000     -10.291349      -280.0418
  39   2.0000     -10.289122      -279.9813
  40   2.0000     -10.286722      -279.9159
  41   2.0000     -10.284752      -279.8623
  42   2.0000     -10.283877      -279.8385
  43   2.0000     -10.283354      -279.8243
  44   2.0000     -10.281331      -279.7692
  45   2.0000     -10.280937      -279.7585
  46   2.0000     -10.279675      -279.7242
  47   2.0000     -10.279638      -279.7232
  48   2.0000     -10.279461      -279.7184
  49   2.0000     -10.277907      -279.6761
  50   2.0000     -10.277647      -279.6690
  51   2.0000     -10.277207      -279.6570
  52   2.0000     -10.276292      -279.6321
  53   2.0000     -10.275919      -279.6220
  54   2.0000     -10.275514      -279.6109
  55   2.0000     -10.275026      -279.5977
  56   2.0000     -10.274515      -279.5838
  57   2.0000     -10.274043      -279.5709
  58   2.0000     -10.273939      -279.5681
  59   2.0000     -10.273917      -279.5675
  60   2.0000     -10.271481      -279.5012
  61   2.0000     -10.265257      -279.3319
  62   2.0000     -10.265241      -279.3314
  63   2.0000     -10.264231      -279.3039
  64   2.0000     -10.263628      -279.2875
  65   2.0000     -10.263066      -279.2722
  66   2.0000     -10.262899      -279.2677
  67   2.0000     -10.262402      -279.2542
  68   2.0000     -10.254362      -279.0354
  69   2.0000     -10.223055      -278.1835
  70   2.0000      -8.025268      -218.3786
  71   2.0000      -7.993844      -217.5235
  72   2.0000      -5.996101      -163.1622
  73   2.0000      -5.991750      -163.0438
  74   2.0000      -5.984310      -162.8413
  75   2.0000      -5.964477      -162.3017
  76   2.0000      -5.960388      -162.1904
  77   2.0000      -5.953030      -161.9902
  78   2.0000      -1.144824       -31.1522
  79   2.0000      -1.117855       -30.4184
  80   2.0000      -1.110286       -30.2124
  81   2.0000      -1.099850       -29.9284
  82   2.0000      -1.079023       -29.3617
  83   2.0000      -1.065716       -28.9996
  84   2.0000      -1.065594       -28.9963
  85   2.0000      -1.046203       -28.4686
  86   2.0000      -1.043932       -28.4068
  87   2.0000      -1.015738       -27.6396
  88   2.0000      -1.008296       -27.4371
  89   2.0000      -0.987347       -26.8671
  90   2.0000      -0.966706       -26.3054
  91   2.0000      -0.960932       -26.1483
  92   2.0000      -0.959736       -26.1158
  93   2.0000      -0.952870       -25.9289
  94   2.0000      -0.950421       -25.8623
  95   2.0000      -0.929288       -25.2872
  96   2.0000      -0.927905       -25.2496
  97   2.0000      -0.925196       -25.1759
  98   2.0000      -0.920964       -25.0607
  99   2.0000      -0.903447       -24.5841
 100   2.0000      -0.897729       -24.4284
 101   2.0000      -0.882212       -24.0062
 102   2.0000      -0.878115       -23.8947
 103   2.0000      -0.863913       -23.5083
 104   2.0000      -0.851573       -23.1725
 105   2.0000      -0.849032       -23.1033
 106   2.0000      -0.846557       -23.0360
 107   2.0000      -0.840558       -22.8728
 108   2.0000      -0.839982       -22.8571
 109   2.0000      -0.835968       -22.7478
 110   2.0000      -0.831295       -22.6207
 111   2.0000      -0.826396       -22.4874
 112   2.0000      -0.812097       -22.0983
 113   2.0000      -0.803949       -21.8766
 114   2.0000      -0.801224       -21.8024
 115   2.0000      -0.775914       -21.1137
 116   2.0000      -0.766701       -20.8630
 117   2.0000      -0.763265       -20.7695
 118   2.0000      -0.758274       -20.6337
 119   2.0000      -0.747383       -20.3373
 120   2.0000      -0.739710       -20.1285
 121   2.0000      -0.737177       -20.0596
 122   2.0000      -0.729611       -19.8537
 123   2.0000      -0.719171       -19.5696
 124   2.0000      -0.718326       -19.5467
 125   2.0000      -0.703781       -19.1509
 126   2.0000      -0.696648       -18.9568
 127   2.0000      -0.694626       -18.9017
 128   2.0000      -0.692918       -18.8553
 129   2.0000      -0.684785       -18.6339
 130   2.0000      -0.680286       -18.5115
 131   2.0000      -0.675364       -18.3776
 132   2.0000      -0.667582       -18.1658
 133   2.0000      -0.663657       -18.0590
 134   2.0000      -0.662253       -18.0208
 135   2.0000      -0.653258       -17.7760
 136   2.0000      -0.650199       -17.6928
 137   2.0000      -0.645480       -17.5644
 138   2.0000      -0.639120       -17.3913
 139   2.0000      -0.639019       -17.3886
 140   2.0000      -0.633897       -17.2492
 141   2.0000      -0.628797       -17.1104
 142   2.0000      -0.625241       -17.0137
 143   2.0000      -0.619590       -16.8599
 144   2.0000      -0.614305       -16.7161
 145   2.0000      -0.608401       -16.5554
 146   2.0000      -0.604532       -16.4501
 147   2.0000      -0.600856       -16.3501
 148   2.0000      -0.597106       -16.2481
 149   2.0000      -0.591035       -16.0829
 150   2.0000      -0.589849       -16.0506
 151   2.0000      -0.584246       -15.8981
 152   2.0000      -0.579503       -15.7691
 153   2.0000      -0.578969       -15.7546
 154   2.0000      -0.574831       -15.6419
 155   2.0000      -0.570928       -15.5357
 156   2.0000      -0.564549       -15.3621
 157   2.0000      -0.563912       -15.3448
 158   2.0000      -0.561625       -15.2826
 159   2.0000      -0.556933       -15.1549
 160   2.0000      -0.551429       -15.0052
 161   2.0000      -0.548860       -14.9353
 162   2.0000      -0.544238       -14.8095
 163   2.0000      -0.538675       -14.6581
 164   2.0000      -0.537900       -14.6370
 165   2.0000      -0.535666       -14.5762
 166   2.0000      -0.534574       -14.5465
 167   2.0000      -0.532465       -14.4891
 168   2.0000      -0.530009       -14.4223
 169   2.0000      -0.527860       -14.3638
 170   2.0000      -0.524276       -14.2663
 171   2.0000      -0.523240       -14.2381
 172   2.0000      -0.520983       -14.1767
 173   2.0000      -0.519766       -14.1436
 174   2.0000      -0.514597       -14.0029
 175   2.0000      -0.513614       -13.9761
 176   2.0000      -0.512509       -13.9461
 177   2.0000      -0.510271       -13.8852
 178   2.0000      -0.505215       -13.7476
 179   2.0000      -0.504740       -13.7347
 180   2.0000      -0.501856       -13.6562
 181   2.0000      -0.500065       -13.6075
 182   2.0000      -0.498814       -13.5734
 183   2.0000      -0.494160       -13.4468
 184   2.0000      -0.493405       -13.4262
 185   2.0000      -0.492375       -13.3982
 186   2.0000      -0.489168       -13.3109
 187   2.0000      -0.486335       -13.2338
 188   2.0000      -0.484129       -13.1738
 189   2.0000      -0.480195       -13.0668
 190   2.0000      -0.477415       -12.9911
 191   2.0000      -0.476534       -12.9672
 192   2.0000      -0.473612       -12.8877
 193   2.0000      -0.472284       -12.8515
 194   2.0000      -0.468129       -12.7384
 195   2.0000      -0.467756       -12.7283
 196   2.0000      -0.466703       -12.6996
 197   2.0000      -0.464359       -12.6359
 198   2.0000      -0.462485       -12.5849
 199   2.0000      -0.461496       -12.5579
 200   2.0000      -0.458902       -12.4873
 201   2.0000      -0.452486       -12.3128
 202   2.0000      -0.451560       -12.2876
 203   2.0000      -0.449990       -12.2448
 204   2.0000      -0.447909       -12.1882
 205   2.0000      -0.446448       -12.1485
 206   2.0000      -0.444685       -12.1005
 207   2.0000      -0.442774       -12.0485
 208   2.0000      -0.440862       -11.9965
 209   2.0000      -0.434416       -11.8211
 210   2.0000      -0.434072       -11.8117
 211   2.0000      -0.432520       -11.7695
 212   2.0000      -0.430550       -11.7159
 213   2.0000      -0.427144       -11.6232
 214   2.0000      -0.424601       -11.5540
 215   2.0000      -0.420839       -11.4516
 216   2.0000      -0.416065       -11.3217
 217   2.0000      -0.411456       -11.1963
 218   2.0000      -0.409670       -11.1477
 219   2.0000      -0.401704       -10.9309
 220   2.0000      -0.396820       -10.7980
 221   2.0000      -0.389057       -10.5868
 222   2.0000      -0.383970       -10.4484
 223   2.0000      -0.381272       -10.3749
 224   2.0000      -0.378451       -10.2982
 225   2.0000      -0.376405       -10.2425
 226   2.0000      -0.366198        -9.9648
 227   2.0000      -0.363574        -9.8933
 228   2.0000      -0.359887        -9.7930
 229   2.0000      -0.359090        -9.7713
 230   2.0000      -0.346747        -9.4355
 231   2.0000      -0.345121        -9.3912
 232   2.0000      -0.342561        -9.3216
 233   2.0000      -0.341269        -9.2864
 234   2.0000      -0.340397        -9.2627
 235   2.0000      -0.336109        -9.1460
 236   2.0000      -0.325589        -8.8597
 237   2.0000      -0.323255        -8.7962
 238   2.0000      -0.320890        -8.7319
 239   2.0000      -0.317954        -8.6520
 240   2.0000      -0.316241        -8.6053
 241   2.0000      -0.315144        -8.5755
 242   2.0000      -0.314029        -8.5452
 243   2.0000      -0.309816        -8.4305
 244   2.0000      -0.308806        -8.4030
 245   2.0000      -0.299768        -8.1571
 246   2.0000      -0.292248        -7.9525
 247   2.0000      -0.287949        -7.8355
 248   2.0000      -0.284236        -7.7345
 249   2.0000      -0.273784        -7.4500
 250   2.0000      -0.270702        -7.3662
 251   2.0000      -0.252225        -6.8634
 252   2.0000      -0.222193        -6.0462
 253   0.0000      -0.100924        -2.7463
 254   0.0000      -0.097233        -2.6459
 255   0.0000      -0.071135        -1.9357
 256   0.0000      -0.038270        -1.0414
 257   0.0000      -0.031513        -0.8575

MULLIKEN ATOMIC CHARGES
-----------------------
   0 C :   -0.028527
   1 S :   -0.099655
   2 C :    0.037972
   3 C :   -0.259429
   4 C :    0.119587
   5 C :    0.046978
   6 O :   -0.188639
   7 N :   -0.058368
   8 N :   -0.105518
   9 C :    0.047834
  10 C :   -0.033620
  11 C :    0.033877
  12 N :   -0.049374
  13 C :    0.055031
  14 C :   -0.143870
  15 C :    0.212584
  16 O :   -0.168576
  17 C :   -0.046693
  18 C :   -0.029946
  19 N :   -0.055067
  20 C :    0.079583
  21 C :   -0.090572
  22 C :    0.016916
  23 C :   -0.100041
  24 C :    0.012115
  25 C :    0.090478
  26 C :   -0.080602
  27 C :    0.049358
  28 C :   -0.103388
  29 C :    0.021076
  30 C :    0.138898
  31 N :   -0.233951
  32 C :    0.117693
  33 N :   -0.230146
  34 C :    0.063425
  35 C :   -0.155089
  36 C :    0.156844
  37 C :   -0.032345
  38 C :    0.020911
  39 C :    0.010846
  40 C :    0.050116
  41 C :    0.021956
  42 C :    0.027048
  43 C :   -0.026966
  44 C :    0.009058
  45 C :    0.030793
  46 N :   -0.047684
  47 C :    0.061608
  48 C :   -0.117749
  49 C :    0.200119
  50 O :   -0.129177
  51 C :   -0.043655
  52 C :   -0.022442
  53 N :   -0.060947
  54 C :    0.085529
  55 C :   -0.095312
  56 C :    0.014494
  57 C :   -0.020063
  58 C :    0.002330
  59 C :   -0.130867
  60 S :   -0.058361
  61 C :    0.036943
  62 C :   -0.232899
  63 C :    0.148312
  64 C :    0.044307
  65 O :   -0.245448
  66 N :   -0.031078
  67 N :   -0.138253
  68 C :    0.059170
  69 C :   -0.053325
  70 H :    0.049717
  71 H :    0.060138
  72 H :    0.070112
  73 H :    0.045770
  74 H :    0.043756
  75 H :    0.021374
  76 H :    0.131180
  77 H :    0.137174
  78 H :    0.129769
  79 H :    0.060717
  80 H :   -0.009040
  81 H :   -0.000748
  82 H :   -0.012864
  83 H :    0.011589
  84 H :    0.007011
  85 H :   -0.036870
  86 H :   -0.017706
  87 H :   -0.006699
  88 H :   -0.008427
  89 H :    0.104118
  90 H :    0.096281
  91 H :   -0.005906
  92 H :   -0.012436
  93 H :    0.096858
  94 H :    0.128195
  95 H :    0.022454
  96 H :    0.025680
  97 H :   -0.005774
  98 H :   -0.030968
  99 H :   -0.039775
 100 H :   -0.034777
 101 H :    0.034919
 102 H :   -0.029487
 103 H :    0.003798
 104 H :   -0.010256
 105 H :    0.014667
 106 H :    0.016454
 107 H :    0.045955
 108 H :    0.063141
 109 H :    0.042871
 110 H :    0.029803
 111 H :    0.037913
 112 H :    0.150627
 113 H :    0.119038
 114 H :    0.108144
 115 H :   -0.014257
 116 H :   -0.008047
 117 H :   -0.001327
Sum of atomic charges:   -0.0000000

LOEWDIN ATOMIC CHARGES
----------------------
   0 C :   -0.123308
   1 S :    0.203615
   2 C :   -0.115689
   3 C :   -0.043950
   4 C :   -0.030767
   5 C :    0.051979
   6 O :   -0.191666
   7 N :    0.007167
   8 N :    0.017128
   9 C :    0.074441
  10 C :   -0.112416
  11 C :    0.074203
  12 N :   -0.124370
  13 C :    0.051717
  14 C :   -0.049990
  15 C :    0.076010
  16 O :   -0.158668
  17 C :   -0.050406
  18 C :   -0.000478
  19 N :   -0.098823
  20 C :    0.055537
  21 C :   -0.044662
  22 C :   -0.030550
  23 C :   -0.060477
  24 C :    0.016812
  25 C :   -0.032989
  26 C :   -0.009965
  27 C :   -0.016203
  28 C :   -0.040396
  29 C :   -0.038753
  30 C :    0.028651
  31 N :   -0.115251
  32 C :    0.028009
  33 N :   -0.112473
  34 C :   -0.031432
  35 C :    0.072143
  36 C :   -0.032210
  37 C :   -0.028174
  38 C :   -0.015221
  39 C :   -0.038101
  40 C :   -0.023584
  41 C :    0.009222
  42 C :   -0.019299
  43 C :    0.085076
  44 C :   -0.060126
  45 C :    0.075593
  46 N :   -0.114618
  47 C :    0.047264
  48 C :   -0.041912
  49 C :    0.062779
  50 O :   -0.142217
  51 C :   -0.041686
  52 C :    0.014688
  53 N :   -0.101841
  54 C :    0.066940
  55 C :   -0.043705
  56 C :   -0.026560
  57 C :   -0.035337
  58 C :   -0.018501
  59 C :   -0.113504
  60 S :    0.213004
  61 C :   -0.114265
  62 C :   -0.036199
  63 C :   -0.030873
  64 C :    0.054960
  65 O :   -0.230269
  66 N :    0.026073
  67 N :   -0.038268
  68 C :    0.020873
  69 C :   -0.137545
  70 H :    0.020672
  71 H :    0.029690
  72 H :    0.033435
  73 H :    0.023551
  74 H :    0.039836
  75 H :    0.032326
  76 H :    0.076402
  77 H :    0.085946
  78 H :    0.077073
  79 H :    0.039294
  80 H :    0.037137
  81 H :    0.019541
  82 H :    0.031274
  83 H :    0.026118
  84 H :    0.033803
  85 H :    0.024121
  86 H :    0.029671
  87 H :    0.004409
  88 H :    0.015788
  89 H :    0.054247
  90 H :    0.057269
  91 H :   -0.000770
  92 H :    0.017072
  93 H :    0.055284
  94 H :    0.041347
  95 H :    0.032560
  96 H :    0.052840
  97 H :    0.026707
  98 H :    0.032608
  99 H :    0.028611
 100 H :    0.021125
 101 H :    0.039715
 102 H :    0.026613
 103 H :    0.021154
 104 H :    0.032335
 105 H :    0.038854
 106 H :    0.027759
 107 H :    0.025987
 108 H :    0.028464
 109 H :    0.024286
 110 H :    0.030142
 111 H :    0.031754
 112 H :    0.066911
 113 H :    0.073600
 114 H :    0.066432
 115 H :    0.017630
 116 H :    0.014458
 117 H :    0.018734

  Mayer bond orders larger than 0.100000
B(  0-C ,  1-S ) :   0.9822 B(  0-C ,  4-C ) :   1.0571 B(  0-C , 70-H ) :   0.9480
B(  0-C , 71-H ) :   0.9507 B(  1-S ,  2-C ) :   0.9968 B(  2-C ,  3-C ) :   0.9963
B(  2-C , 72-H ) :   0.9454 B(  2-C , 73-H ) :   0.9431 B(  3-C ,  4-C ) :   1.0381
B(  3-C ,  5-C ) :   0.8550 B(  3-C ,  8-N ) :   0.9551 B(  4-C , 74-H ) :   0.9226
B(  4-C , 75-H ) :   0.9359 B(  5-C ,  6-O ) :   2.1891 B(  5-C ,  7-N ) :   1.2838
B(  7-N , 76-H ) :   0.9343 B(  7-N , 77-H ) :   0.9381 B(  8-N ,  9-C ) :   1.2499
B(  8-N , 78-H ) :   0.9159 B(  9-C , 10-C ) :   1.5202 B(  9-C , 79-H ) :   0.9494
B( 10-C , 11-C ) :   1.2214 B( 10-C , 80-H ) :   0.9585 B( 11-C , 12-N ) :   1.5214
B( 11-C , 13-C ) :   0.1051 B( 11-C , 22-C ) :   1.0125 B( 12-N , 13-C ) :   1.3912
B( 13-C , 14-C ) :   1.0345 B( 13-C , 18-C ) :   1.3797 B( 14-C , 15-C ) :   0.9024
B( 14-C , 22-C ) :   1.6318 B( 15-C , 16-O ) :   2.1603 B( 15-C , 17-C ) :   0.9297
B( 17-C , 18-C ) :   1.0744 B( 17-C , 21-C ) :   1.5591 B( 18-C , 19-N ) :   1.3434
B( 19-N , 20-C ) :   1.6228 B( 20-C , 21-C ) :   1.1144 B( 20-C , 81-H ) :   0.9902
B( 21-C , 82-H ) :   1.0098 B( 22-C , 23-C ) :   1.0308 B( 23-C , 24-C ) :   1.7274
B( 23-C , 83-H ) :   0.9464 B( 24-C , 25-C ) :   1.0566 B( 24-C , 84-H ) :   0.9827
B( 25-C , 26-C ) :   1.4935 B( 25-C , 42-C ) :   1.1435 B( 26-C , 27-C ) :   1.1372
B( 26-C , 85-H ) :   0.9978 B( 27-C , 28-C ) :   1.4807 B( 27-C , 40-C ) :   1.1323
B( 28-C , 29-C ) :   1.0518 B( 28-C , 34-C ) :   1.0850 B( 29-C , 30-C ) :   1.0394
B( 29-C , 32-C ) :   1.0293 B( 29-C , 86-H ) :   0.8726 B( 30-C , 31-N ) :   1.0991
B( 30-C , 87-H ) :   0.9419 B( 30-C , 88-H ) :   0.9391 B( 31-N , 89-H ) :   0.9582
B( 31-N , 90-H ) :   0.9687 B( 32-C , 33-N ) :   1.0979 B( 32-C , 91-H ) :   0.9378
B( 32-C , 92-H ) :   0.9349 B( 33-N , 93-H ) :   0.9600 B( 33-N , 94-H ) :   0.9422
B( 34-C , 35-C ) :   1.6298 B( 34-C , 39-C ) :   1.0520 B( 35-C , 36-C ) :   0.9721
B( 35-C , 95-H ) :   0.9739 B( 36-C , 37-C ) :   0.9773 B( 36-C , 43-C ) :   0.9457
B( 36-C , 96-H ) :   0.8803 B( 37-C , 38-C ) :   1.7131 B( 37-C , 97-H ) :   0.9646
B( 38-C , 39-C ) :   1.1448 B( 38-C , 98-H ) :   0.9872 B( 39-C , 40-C ) :   1.4159
B( 40-C , 41-C ) :   1.1499 B( 41-C , 42-C ) :   1.6044 B( 41-C , 99-H ) :   0.9877
B( 42-C ,100-H ) :   0.9720 B( 43-C , 44-C ) :   1.7526 B( 43-C ,101-H ) :   0.9685
B( 44-C , 45-C ) :   1.1333 B( 44-C ,102-H ) :   0.9396 B( 45-C , 46-N ) :   1.5961
B( 45-C , 47-C ) :   0.1054 B( 45-C , 56-C ) :   1.0242 B( 46-N , 47-C ) :   1.3594
B( 47-C , 48-C ) :   1.0340 B( 47-C , 52-C ) :   1.4107 B( 48-C , 49-C ) :   0.8898
B( 48-C , 56-C ) :   1.6116 B( 49-C , 50-O ) :   2.3010 B( 49-C , 51-C ) :   0.8950
B( 51-C , 52-C ) :   1.0580 B( 51-C , 55-C ) :   1.6009 B( 52-C , 53-N ) :   1.3177
B( 53-N , 54-C ) :   1.6483 B( 54-C , 55-C ) :   1.0862 B( 54-C ,103-H ) :   0.9892
B( 55-C ,104-H ) :   1.0101 B( 56-C , 57-C ) :   1.0568 B( 57-C , 58-C ) :   1.7871
B( 57-C ,105-H ) :   0.9634 B( 58-C , 59-C ) :   0.9867 B( 58-C ,106-H ) :   0.9748
B( 59-C , 60-S ) :   0.9827 B( 59-C , 63-C ) :   0.9928 B( 59-C ,107-H ) :   0.9200
B( 60-S , 61-C ) :   0.9930 B( 61-C , 62-C ) :   1.0054 B( 61-C ,108-H ) :   0.9425
B( 61-C ,109-H ) :   0.9410 B( 62-C , 63-C ) :   1.0279 B( 62-C , 64-C ) :   0.8451
B( 62-C , 67-N ) :   1.0257 B( 63-C ,110-H ) :   0.9194 B( 63-C ,111-H ) :   0.9108
B( 64-C , 65-O ) :   2.0562 B( 64-C , 66-N ) :   1.3715 B( 66-N ,112-H ) :   0.8902
B( 66-N ,113-H ) :   0.9343 B( 67-N , 68-C ) :   1.1162 B( 67-N ,114-H ) :   0.9218
B( 68-C , 69-C ) :   1.9321 B( 68-C ,115-H ) :   0.9457 B( 69-C ,116-H ) :   0.9520
B( 69-C ,117-H ) :   0.9511

-----------------------------------------------------------------------------
         ABSORPTION SPECTRUM VIA TRANSITION ELECTRIC DIPOLE MOMENTS
-----------------------------------------------------------------------------
State   Energy  Wavelength   fosc         T2         TX        TY        TZ
        (cm-1)    (nm)                  (au**2)     (au)      (au)      (au)
-----------------------------------------------------------------------------
   0   12341.3    810.3   0.184744280   4.92819   1.92226   0.00275   1.11045
   1   13470.9    742.3   0.041589253   1.01639  -0.14724   0.26306   0.96203
   2   15186.3    658.5   0.101344665   2.19697  -0.50201   0.97846  -0.99376
   3   18964.2    527.3   0.000395628   0.00687   0.02743  -0.06840   0.03791
   4   20091.4    497.7   0.031131536   0.51011   0.62279  -0.13886   0.32089
   5   21166.9    472.4   0.002863648   0.04454  -0.17572   0.03311  -0.11209
   6   21865.2    457.3   0.042160251   0.63478  -0.62707   0.37186  -0.32138
   7   22012.3    454.3   0.000532964   0.00797  -0.03036  -0.05728   0.06138
   8   22720.7    440.1   0.707113077  10.24573   0.08154  -3.19800   0.10903
   9   23477.5    425.9   0.000702730   0.00985   0.01832   0.09756  -0.00027
  10   23911.1    418.2   0.059768029   0.82289   0.14333  -0.89499  -0.03659
  11   24133.2    414.4   0.025047108   0.34168  -0.52205   0.00597  -0.26287
  12   25174.0    397.2   0.234648453   3.06860  -1.45439   0.08733  -0.97248
  13   25501.2    392.1   0.247552980   3.19583  -0.98503   1.27287  -0.77804
  14   25971.7    385.0   0.010606181   0.13444  -0.27714  -0.18404  -0.15415
  15   26098.5    383.2   0.119917641   1.51267   1.06773   0.29335   0.53532
  16   26302.6    380.2   0.125714071   1.57348  -1.18964   0.25199  -0.30781
  17   26755.3    373.8   0.152685012   1.87872   0.97145  -0.60448   0.75472
  18   26806.3    373.0   0.190657678   2.34149   1.02706   0.83978   0.76250
  19   26908.4    371.6   0.191090547   2.33791  -1.24277  -0.62259  -0.63703
  20   27077.5    369.3   0.000777962   0.00946  -0.01016   0.00699  -0.09647
  21   27157.6    368.2   0.010598179   0.12847   0.04919   0.34220   0.09463
  22   27534.7    363.2   0.150987382   1.80525   1.15855  -0.48543   0.47683
  23   27841.6    359.2   0.163156317   1.92923  -0.96317  -0.50867  -0.86185
  24   28426.9    351.8   0.030173454   0.34944   0.01859  -0.53190  -0.25725
  25   28965.2    345.2   0.018895563   0.21476   0.29231  -0.35958  -0.00446
  26   29106.2    343.6   0.003267096   0.03695   0.07683   0.17575  -0.01270
  27   29633.5    337.5   0.003726446   0.04140  -0.13445   0.00033  -0.15271
  28   30464.3    328.3   0.018494013   0.19986  -0.26492  -0.19477  -0.30288
  29   30574.0    327.1   0.118472544   1.27568  -0.13418  -1.03560  -0.43035
  30   30942.7    323.2   0.005836554   0.06210  -0.08228   0.12708   0.19793
  31   31177.2    320.7   0.015430387   0.16294  -0.36175  -0.17485  -0.03869
  32   31343.2    319.0   0.002171753   0.02281   0.11025  -0.03782   0.09605
  33   31376.4    318.7   0.013290136   0.13944  -0.23962   0.12176  -0.25923
  34   31450.2    318.0   0.014288988   0.14957   0.25654  -0.04235   0.28630
  35   31752.6    314.9   0.002599646   0.02695  -0.06382   0.13059  -0.07633
  36   32158.0    311.0   0.015024757   0.15381  -0.22864   0.24760  -0.20058
  37   32413.9    308.5   0.207589830   2.10839  -0.66877   1.24809  -0.32158
  38   32438.4    308.3   0.020508887   0.20814   0.38391  -0.23052   0.08726
  39   32579.2    306.9   0.093071639   0.94049   0.52431  -0.70951   0.40272
  40   32965.0    303.4   0.002502817   0.02499   0.12327  -0.05818   0.08010
  41   33088.6    302.2   0.032056754   0.31895   0.35055  -0.41298   0.15972
  42   33467.8    298.8   0.002459084   0.02419  -0.13508   0.05007  -0.05861
  43   33554.1    298.0   0.037355675   0.36651  -0.12935   0.57111  -0.15367
  44   33988.7    294.2   0.050702974   0.49110   0.64157  -0.12547   0.25249
  45   34170.4    292.7   0.001205561   0.01161  -0.10598   0.01083   0.01628
  46   34392.7    290.8   0.045936622   0.43971  -0.39008   0.45363  -0.28595
  47   34535.2    289.6   0.238512971   2.27366   1.06553  -0.98084   0.41982
  48   34690.8    288.3   0.043995767   0.41752  -0.51862   0.38400   0.03316
  49   35218.6    283.9   0.104798659   0.97962   0.81579  -0.29655   0.47557
  50   35306.6    283.2   0.184784020   1.72299   1.03555  -0.60121   0.53775
  51   35489.2    281.8   0.049849423   0.46242   0.09691  -0.66777   0.08431
  52   35760.6    279.6   0.002472150   0.02276  -0.05995  -0.11393  -0.07863
  53   36256.1    275.8   0.275402273   2.50070  -0.55405  -1.47908  -0.07791
  54   36888.1    271.1   0.041839382   0.37340  -0.13566   0.55795   0.20903
  55   37053.6    269.9   0.001992603   0.01770   0.11714   0.03634   0.05160
  56   37306.9    268.0   0.023554263   0.20785  -0.24232  -0.38494   0.03090
  57   37500.9    266.7   0.002357053   0.02069   0.03132   0.13413  -0.04147
  58   37721.0    265.1   0.065769590   0.57401  -0.24015  -0.70913   0.11604
  59   38431.4    260.2   0.000519218   0.00445   0.05879   0.01850   0.02549
  60   38530.0    259.5   0.057673785   0.49278  -0.22044   0.60814  -0.27269
  61   38720.2    258.3   0.001500674   0.01276   0.00160   0.05462   0.09886
  62   39188.8    255.2   0.002020477   0.01697   0.00455  -0.12985  -0.00963
  63   39204.9    255.1   0.002518666   0.02115   0.02073   0.03644  -0.13925
  64   39346.8    254.2   0.079891950   0.66845  -0.68089  -0.34325  -0.29499
  65   39606.4    252.5   0.007276769   0.06049  -0.21177  -0.01567  -0.12407
  66   39949.5    250.3   0.113448246   0.93489  -0.59311   0.54349  -0.53640
  67   40068.6    249.6   0.057338377   0.47110  -0.41944  -0.47053  -0.27161
  68   40083.8    249.5   0.325552379   2.67379   1.33001   0.53467   0.78676
  69   40246.6    248.5   0.006967253   0.05699   0.05340   0.20164  -0.11611

FINAL SINGLE POINT ENERGY     -3727.299548361687

DIPOLE MOMENT
-------------
                                X             Y             Z
Electronic contribution:      0.22454     -19.36158     -22.46080
Nuclear contribution   :      1.11511      22.40464      25.05661
                        -----------------------------------------
Total Dipole Moment    :      1.33965       3.04306       2.59580
                        -----------------------------------------
Magnitude (a.u.)       :      4.21818
Magnitude (Debye)      :     10.72177

Rotational constants in cm-1:     0.001561     0.000542     0.000441
Rotational constants in MHz :    46.785875    16.250344    13.216778

                             ****ORCA TERMINATED NORMALLY****
TOTAL RUN TIME: 0 days 0 hours 18 minutes 39 seconds 931 msec
