                         Program Version 4.2.0 -  RELEASE  -
|  1> # ORCA input file
|  2> # SCF done       -150.590886309169          0.000396327127
|  3> ! CAM-B3LYP def2-SVP def2/J RIJCOSX Grid4 TightSCF
|  4> %maxcore 5000
|  5> %tddft
|  6>     Mode sTDDFT
|  7>     Ethresh 5.0
|  8>     maxcore 5000
|  9> end
| 10>
| 11> %pal
| 12>   nprocs 6
| 13>   end
| 14> * xyz 0 1
| 15>    C        2.32388         5.28567        -9.75359
| 16>    S        1.76054         4.67685       -11.25028
| 17>    C        3.03850         3.52100       -11.28802
| 18>    C        3.85218         3.60107       -10.20808
| 19>    C        5.03458         2.71549        -9.99207
| 20>    C        3.44274         4.63615        -9.29691
| 21>    C        4.14326         4.92615        -8.07657
| 22>    C        3.81540         5.87940        -7.17731
| 23>    C        4.56476         6.11594        -5.99244
| 24>    C        4.24256         7.07045        -5.08647
| 25>    C        4.94690         7.38009        -3.88444
| 26>    C        6.09310         6.76212        -3.45140
| 27>    C        6.78224         7.06435        -2.27517
| 28>    C        6.23011         8.03205        -1.31178
| 29>    C        5.12650         8.77739        -1.53073
| 30>    S        4.19486         8.69056        -2.96893
| 31>    C        7.09352         7.97730        -0.18518
| 32>    C        8.11418         7.05810        -0.42295
| 33>    C        9.01527         6.97131         0.66165
| 34>    C        8.66109         7.80500         1.67380
| 35>    S        7.23080         8.73017         1.35606
| 36>    C        7.95067         6.49728        -1.73931
| 37>    C        8.86175         5.56423        -2.30150
| 38>    C        9.05152         5.31363        -3.62135
| 39>    C        9.94821         4.34645        -4.14568
| 40>    N       10.13871         4.23609        -5.51086
| 41>    C       11.02267         3.23048        -5.74887
| 42>    C       11.68931         2.53188        -6.74964
| 43>    C       12.45885         1.55976        -6.09858
| 44>    N       12.26377         1.66842        -4.73325
| 45>    C       11.39276         2.68286        -4.49592
| 46>    C       10.72365         3.38160        -3.49461
| 47>    C       13.31675         0.56297        -6.62404
| 48>    C       13.60342         0.39915        -7.94067
| 49>    C       14.43997        -0.60714        -8.50314
| 50>    C       15.03274        -1.63825        -7.81531
| 51>    C       15.83863        -2.62648        -8.38034
| 52>    C       16.13174        -2.63868        -9.81845
| 53>    C       15.66088        -1.72886       -10.69729
| 54>    S       14.64659        -0.42006       -10.24751
| 55>    C       16.96042        -3.77440       -10.01922
| 56>    C       17.17085        -4.43645        -8.80806
| 57>    C       17.99942        -5.56987        -8.97796
| 58>    C       18.37991        -5.73260       -10.27184
| 59>    S       17.75750        -4.52651       -11.34459
| 60>    C       16.46838        -3.72549        -7.76633
| 61>    C       16.38881        -4.02592        -6.38684
| 62>    C       16.90730        -5.10770        -5.75321
| 63>    C       16.78495        -5.34030        -4.36005
| 64>    S       15.93355        -4.20965        -3.34012
| 65>    C       16.21044        -5.19711        -1.96101
| 66>    C       16.89365        -6.33730        -2.24110
| 67>    C       17.27900        -7.30895        -1.17383
| 68>    C       17.23435        -6.43745        -3.62655
| 69>    C       17.98785        -7.50226        -4.23950
| 70>    C       18.03555        -8.78907        -3.85409
| 71>    C       18.82864        -9.77711        -4.53511
| 72>    C       18.86707       -11.06273        -4.18907
| 73>    H        1.79359         6.09443        -9.29304
| 74>    H        3.10793         2.84610       -12.11822
| 75>    H        5.13545         2.01455       -10.81665
| 76>    H        4.92415         2.15040        -9.06699
| 77>    H        5.94751         3.30663        -9.92512
| 78>    H        5.01231         4.31275        -7.87870
| 79>    H        2.95153         6.50787        -7.34217
| 80>    H        5.42840         5.48389        -5.83574
| 81>    H        3.36536         7.67726        -5.27528
| 82>    H        6.46770         5.95246        -4.05873
| 83>    H        4.75491         9.49196        -0.81324
| 84>    H        9.87822         6.33099         0.69692
| 85>    H        9.15706         7.94650         2.61434
| 86>    H        9.49021         5.04689        -1.58875
| 87>    H        8.52102         5.90384        -4.35651
| 88>    H        9.70987         4.83551        -6.19441
| 89>    H       11.63608         2.68446        -7.80841
| 90>    H       12.70933         1.08367        -4.04766
| 91>    H       10.77049         3.22266        -2.43657
| 92>    H       13.76048        -0.09937        -5.89235
| 93>    H       13.17084         1.09007        -8.65082
| 94>    H       14.84617        -1.68731        -6.75243
| 95>    H       15.88812        -1.76277       -11.75112
| 96>    H       18.31287        -6.24188        -8.20042
| 97>    H       19.00377        -6.50389       -10.68001
| 98>    H       15.84361        -3.31320        -5.77966
| 99>    H       17.43299        -5.85932        -6.31917
|100>    H       15.85286        -4.86643        -1.00545
|101>    H       17.23947        -6.82477        -0.20020
|102>    H       18.28637        -7.68315        -1.34419
|103>    H       16.59317        -8.15597        -1.15538
|104>    H       18.55709        -7.22024        -5.11755
|105>    H       17.44441        -9.14492        -3.02468
|106>    H       19.41946        -9.42674        -5.37277
|107>    H       18.29152       -11.44042        -3.35978
|108>    H       19.47060       -11.77917        -4.71879
|109> *
|110>
|111>                          ****END OF INPUT****

CARTESIAN COORDINATES (ANGSTROEM)
---------------------------------
  C      2.323880    5.285670   -9.753590
  S      1.760540    4.676850  -11.250280
  C      3.038500    3.521000  -11.288020
  C      3.852180    3.601070  -10.208080
  C      5.034580    2.715490   -9.992070
  C      3.442740    4.636150   -9.296910
  C      4.143260    4.926150   -8.076570
  C      3.815400    5.879400   -7.177310
  C      4.564760    6.115940   -5.992440
  C      4.242560    7.070450   -5.086470
  C      4.946900    7.380090   -3.884440
  C      6.093100    6.762120   -3.451400
  C      6.782240    7.064350   -2.275170
  C      6.230110    8.032050   -1.311780
  C      5.126500    8.777390   -1.530730
  S      4.194860    8.690560   -2.968930
  C      7.093520    7.977300   -0.185180
  C      8.114180    7.058100   -0.422950
  C      9.015270    6.971310    0.661650
  C      8.661090    7.805000    1.673800
  S      7.230800    8.730170    1.356060
  C      7.950670    6.497280   -1.739310
  C      8.861750    5.564230   -2.301500
  C      9.051520    5.313630   -3.621350
  C      9.948210    4.346450   -4.145680
  N     10.138710    4.236090   -5.510860
  C     11.022670    3.230480   -5.748870
  C     11.689310    2.531880   -6.749640
  C     12.458850    1.559760   -6.098580
  N     12.263770    1.668420   -4.733250
  C     11.392760    2.682860   -4.495920
  C     10.723650    3.381600   -3.494610
  C     13.316750    0.562970   -6.624040
  C     13.603420    0.399150   -7.940670
  C     14.439970   -0.607140   -8.503140
  C     15.032740   -1.638250   -7.815310
  C     15.838630   -2.626480   -8.380340
  C     16.131740   -2.638680   -9.818450
  C     15.660880   -1.728860  -10.697290
  S     14.646590   -0.420060  -10.247510
  C     16.960420   -3.774400  -10.019220
  C     17.170850   -4.436450   -8.808060
  C     17.999420   -5.569870   -8.977960
  C     18.379910   -5.732600  -10.271840
  S     17.757500   -4.526510  -11.344590
  C     16.468380   -3.725490   -7.766330
  C     16.388810   -4.025920   -6.386840
  C     16.907300   -5.107700   -5.753210
  C     16.784950   -5.340300   -4.360050
  S     15.933550   -4.209650   -3.340120
  C     16.210440   -5.197110   -1.961010
  C     16.893650   -6.337300   -2.241100
  C     17.279000   -7.308950   -1.173830
  C     17.234350   -6.437450   -3.626550
  C     17.987850   -7.502260   -4.239500
  C     18.035550   -8.789070   -3.854090
  C     18.828640   -9.777110   -4.535110
  C     18.867070  -11.062730   -4.189070
  H      1.793590    6.094430   -9.293040
  H      3.107930    2.846100  -12.118220
  H      5.135450    2.014550  -10.816650
  H      4.924150    2.150400   -9.066990
  H      5.947510    3.306630   -9.925120
  H      5.012310    4.312750   -7.878700
  H      2.951530    6.507870   -7.342170
  H      5.428400    5.483890   -5.835740
  H      3.365360    7.677260   -5.275280
  H      6.467700    5.952460   -4.058730
  H      4.754910    9.491960   -0.813240
  H      9.878220    6.330990    0.696920
  H      9.157060    7.946500    2.614340
  H      9.490210    5.046890   -1.588750
  H      8.521020    5.903840   -4.356510
  H      9.709870    4.835510   -6.194410
  H     11.636080    2.684460   -7.808410
  H     12.709330    1.083670   -4.047660
  H     10.770490    3.222660   -2.436570
  H     13.760480   -0.099370   -5.892350
  H     13.170840    1.090070   -8.650820
  H     14.846170   -1.687310   -6.752430
  H     15.888120   -1.762770  -11.751120
  H     18.312870   -6.241880   -8.200420
  H     19.003770   -6.503890  -10.680010
  H     15.843610   -3.313200   -5.779660
  H     17.432990   -5.859320   -6.319170
  H     15.852860   -4.866430   -1.005450
  H     17.239470   -6.824770   -0.200200
  H     18.286370   -7.683150   -1.344190
  H     16.593170   -8.155970   -1.155380
  H     18.557090   -7.220240   -5.117550
  H     17.444410   -9.144920   -3.024680
  H     19.419460   -9.426740   -5.372770
  H     18.291520  -11.440420   -3.359780
  H     19.470600  -11.779170   -4.718790

 Total Charge           Charge          ....    0
 Multiplicity           Mult            ....    1
 Number of Electrons    NEL             ....  446
 Basis Dimension        Dim             .... 1016

ORBITAL ENERGIES
----------------

  NO   OCC          E(Eh)            E(eV)
   0   2.0000     -88.960244     -2420.7313
   1   2.0000     -88.957745     -2420.6633
   2   2.0000     -88.947074     -2420.3729
   3   2.0000     -88.946410     -2420.3549
   4   2.0000     -88.943775     -2420.2832
   5   2.0000     -88.932750     -2419.9832
   6   2.0000     -14.448511      -393.1640
   7   2.0000     -14.447072      -393.1248
   8   2.0000     -10.314626      -280.6752
   9   2.0000     -10.311847      -280.5996
  10   2.0000     -10.307507      -280.4815
  11   2.0000     -10.306515      -280.4545
  12   2.0000     -10.295043      -280.1424
  13   2.0000     -10.295033      -280.1421
  14   2.0000     -10.287495      -279.9370
  15   2.0000     -10.285423      -279.8806
  16   2.0000     -10.284548      -279.8568
  17   2.0000     -10.283813      -279.8368
  18   2.0000     -10.282669      -279.8056
  19   2.0000     -10.282117      -279.7906
  20   2.0000     -10.281736      -279.7803
  21   2.0000     -10.281541      -279.7749
  22   2.0000     -10.280764      -279.7538
  23   2.0000     -10.279526      -279.7201
  24   2.0000     -10.279393      -279.7165
  25   2.0000     -10.278727      -279.6984
  26   2.0000     -10.275923      -279.6221
  27   2.0000     -10.275730      -279.6168
  28   2.0000     -10.274772      -279.5908
  29   2.0000     -10.273468      -279.5553
  30   2.0000     -10.272126      -279.5188
  31   2.0000     -10.271925      -279.5133
  32   2.0000     -10.271512      -279.5021
  33   2.0000     -10.271254      -279.4950
  34   2.0000     -10.270533      -279.4754
  35   2.0000     -10.270097      -279.4636
  36   2.0000     -10.269651      -279.4514
  37   2.0000     -10.269224      -279.4398
  38   2.0000     -10.266805      -279.3740
  39   2.0000     -10.266126      -279.3555
  40   2.0000     -10.265717      -279.3444
  41   2.0000     -10.264699      -279.3167
  42   2.0000     -10.262771      -279.2642
  43   2.0000     -10.262062      -279.2449
  44   2.0000     -10.261722      -279.2357
  45   2.0000     -10.261435      -279.2278
  46   2.0000     -10.261394      -279.2267
  47   2.0000     -10.261005      -279.2161
  48   2.0000     -10.260630      -279.2059
  49   2.0000     -10.259428      -279.1732
  50   2.0000     -10.258879      -279.1583
  51   2.0000     -10.257223      -279.1132
  52   2.0000     -10.256552      -279.0950
  53   2.0000     -10.256039      -279.0810
  54   2.0000     -10.255416      -279.0640
  55   2.0000     -10.253953      -279.0242
  56   2.0000     -10.250841      -278.9396
  57   2.0000     -10.250413      -278.9279
  58   2.0000      -8.055843      -219.2106
  59   2.0000      -8.053321      -219.1420
  60   2.0000      -8.043214      -218.8670
  61   2.0000      -8.041791      -218.8283
  62   2.0000      -8.039231      -218.7586
  63   2.0000      -8.028594      -218.4691
  64   2.0000      -6.025344      -163.9580
  65   2.0000      -6.022839      -163.8898
  66   2.0000      -6.020965      -163.8388
  67   2.0000      -6.018434      -163.7699
  68   2.0000      -6.017681      -163.7494
  69   2.0000      -6.015164      -163.6809
  70   2.0000      -6.012467      -163.6075
  71   2.0000      -6.011259      -163.5747
  72   2.0000      -6.008652      -163.5037
  73   2.0000      -6.008023      -163.4866
  74   2.0000      -6.007047      -163.4601
  75   2.0000      -6.005753      -163.4248
  76   2.0000      -6.004460      -163.3897
  77   2.0000      -6.003757      -163.3705
  78   2.0000      -6.001262      -163.3026
  79   2.0000      -5.997841      -163.2095
  80   2.0000      -5.993795      -163.0995
  81   2.0000      -5.990777      -163.0173
  82   2.0000      -1.078943       -29.3595
  83   2.0000      -1.042708       -28.3735
  84   2.0000      -0.993206       -27.0265
  85   2.0000      -0.990303       -26.9475
  86   2.0000      -0.974006       -26.5041
  87   2.0000      -0.964809       -26.2538
  88   2.0000      -0.959954       -26.1217
  89   2.0000      -0.956954       -26.0401
  90   2.0000      -0.919526       -25.0216
  91   2.0000      -0.915110       -24.9014
  92   2.0000      -0.906721       -24.6731
  93   2.0000      -0.896638       -24.3988
  94   2.0000      -0.889186       -24.1960
  95   2.0000      -0.886182       -24.1142
  96   2.0000      -0.876079       -23.8393
  97   2.0000      -0.873299       -23.7637
  98   2.0000      -0.862504       -23.4699
  99   2.0000      -0.856076       -23.2950
 100   2.0000      -0.853012       -23.2116
 101   2.0000      -0.843107       -22.9421
 102   2.0000      -0.841743       -22.9050
 103   2.0000      -0.838279       -22.8107
 104   2.0000      -0.832893       -22.6642
 105   2.0000      -0.828519       -22.5451
 106   2.0000      -0.816348       -22.2140
 107   2.0000      -0.804489       -21.8912
 108   2.0000      -0.800549       -21.7840
 109   2.0000      -0.787367       -21.4254
 110   2.0000      -0.783794       -21.3281
 111   2.0000      -0.774651       -21.0793
 112   2.0000      -0.765120       -20.8200
 113   2.0000      -0.754580       -20.5332
 114   2.0000      -0.749621       -20.3982
 115   2.0000      -0.735628       -20.0175
 116   2.0000      -0.729453       -19.8494
 117   2.0000      -0.720489       -19.6055
 118   2.0000      -0.709347       -19.3023
 119   2.0000      -0.697673       -18.9847
 120   2.0000      -0.687283       -18.7019
 121   2.0000      -0.683433       -18.5972
 122   2.0000      -0.676817       -18.4171
 123   2.0000      -0.675362       -18.3775
 124   2.0000      -0.664578       -18.0841
 125   2.0000      -0.657290       -17.8858
 126   2.0000      -0.654535       -17.8108
 127   2.0000      -0.649814       -17.6823
 128   2.0000      -0.641389       -17.4531
 129   2.0000      -0.632429       -17.2093
 130   2.0000      -0.629179       -17.1208
 131   2.0000      -0.627456       -17.0740
 132   2.0000      -0.624444       -16.9920
 133   2.0000      -0.614371       -16.7179
 134   2.0000      -0.611004       -16.6263
 135   2.0000      -0.606479       -16.5031
 136   2.0000      -0.598896       -16.2968
 137   2.0000      -0.596697       -16.2369
 138   2.0000      -0.591329       -16.0909
 139   2.0000      -0.582172       -15.8417
 140   2.0000      -0.578728       -15.7480
 141   2.0000      -0.566070       -15.4035
 142   2.0000      -0.562977       -15.3194
 143   2.0000      -0.560658       -15.2563
 144   2.0000      -0.554296       -15.0832
 145   2.0000      -0.551826       -15.0159
 146   2.0000      -0.547666       -14.9028
 147   2.0000      -0.542305       -14.7569
 148   2.0000      -0.538036       -14.6407
 149   2.0000      -0.535683       -14.5767
 150   2.0000      -0.534937       -14.5564
 151   2.0000      -0.524205       -14.2643
 152   2.0000      -0.521730       -14.1970
 153   2.0000      -0.519905       -14.1473
 154   2.0000      -0.513146       -13.9634
 155   2.0000      -0.506340       -13.7782
 156   2.0000      -0.505794       -13.7633
 157   2.0000      -0.504365       -13.7245
 158   2.0000      -0.502384       -13.6706
 159   2.0000      -0.498756       -13.5718
 160   2.0000      -0.497303       -13.5323
 161   2.0000      -0.496260       -13.5039
 162   2.0000      -0.495743       -13.4898
 163   2.0000      -0.495212       -13.4754
 164   2.0000      -0.491938       -13.3863
 165   2.0000      -0.490524       -13.3478
 166   2.0000      -0.486115       -13.2279
 167   2.0000      -0.481881       -13.1127
 168   2.0000      -0.473434       -12.8828
 169   2.0000      -0.472560       -12.8590
 170   2.0000      -0.470867       -12.8129
 171   2.0000      -0.465920       -12.6783
 172   2.0000      -0.464351       -12.6356
 173   2.0000      -0.458505       -12.4766
 174   2.0000      -0.456862       -12.4318
 175   2.0000      -0.454307       -12.3623
 176   2.0000      -0.451122       -12.2757
 177   2.0000      -0.449838       -12.2407
 178   2.0000      -0.449686       -12.2366
 179   2.0000      -0.444561       -12.0971
 180   2.0000      -0.444270       -12.0892
 181   2.0000      -0.442919       -12.0524
 182   2.0000      -0.436874       -11.8880
 183   2.0000      -0.436487       -11.8774
 184   2.0000      -0.434412       -11.8209
 185   2.0000      -0.431566       -11.7435
 186   2.0000      -0.429403       -11.6847
 187   2.0000      -0.427540       -11.6339
 188   2.0000      -0.425214       -11.5707
 189   2.0000      -0.421782       -11.4773
 190   2.0000      -0.420931       -11.4541
 191   2.0000      -0.417873       -11.3709
 192   2.0000      -0.416593       -11.3361
 193   2.0000      -0.410580       -11.1724
 194   2.0000      -0.408581       -11.1181
 195   2.0000      -0.407913       -11.0999
 196   2.0000      -0.404412       -11.0046
 197   2.0000      -0.402503       -10.9527
 198   2.0000      -0.401427       -10.9234
 199   2.0000      -0.398950       -10.8560
 200   2.0000      -0.397283       -10.8106
 201   2.0000      -0.396295       -10.7837
 202   2.0000      -0.392859       -10.6902
 203   2.0000      -0.386034       -10.5045
 204   2.0000      -0.381866       -10.3911
 205   2.0000      -0.364749        -9.9253
 206   2.0000      -0.356953        -9.7132
 207   2.0000      -0.351917        -9.5762
 208   2.0000      -0.334074        -9.0906
 209   2.0000      -0.326430        -8.8826
 210   2.0000      -0.324423        -8.8280
 211   2.0000      -0.318262        -8.6604
 212   2.0000      -0.308074        -8.3831
 213   2.0000      -0.298697        -8.1280
 214   2.0000      -0.281236        -7.6528
 215   2.0000      -0.280801        -7.6410
 216   2.0000      -0.278898        -7.5892
 217   2.0000      -0.270444        -7.3592
 218   2.0000      -0.263199        -7.1620
 219   2.0000      -0.256605        -6.9826
 220   2.0000      -0.236716        -6.4414
 221   2.0000      -0.211356        -5.7513
 222   2.0000      -0.190141        -5.1740
 223   0.0000      -0.059996        -1.6326
 224   0.0000      -0.044491        -1.2107
 225   0.0000      -0.026024        -0.7081
 226   0.0000      -0.019294        -0.5250
 227   0.0000      -0.004426        -0.1204

MULLIKEN ATOMIC CHARGES
-----------------------
   0 C :   -0.151222
   1 S :    0.108330
   2 C :   -0.144351
   3 C :   -0.071468
   4 C :    0.117748
   5 C :    0.112465
   6 C :   -0.016902
   7 C :    0.025562
   8 C :    0.022068
   9 C :    0.039773
  10 C :   -0.075765
  11 C :   -0.043225
  12 C :    0.039627
  13 C :    0.057878
  14 C :   -0.137050
  15 S :    0.118203
  16 C :   -0.112678
  17 C :    0.054478
  18 C :    0.006181
  19 C :   -0.070192
  20 S :    0.117988
  21 C :    0.080775
  22 C :   -0.042428
  23 C :   -0.008668
  24 C :    0.101405
  25 N :   -0.040257
  26 C :    0.107096
  27 C :   -0.174888
  28 C :    0.093660
  29 N :   -0.036955
  30 C :    0.113977
  31 C :   -0.180980
  32 C :    0.031604
  33 C :    0.015156
  34 C :   -0.065226
  35 C :   -0.046783
  36 C :    0.054386
  37 C :    0.065613
  38 C :   -0.137190
  39 S :    0.117339
  40 C :   -0.121878
  41 C :    0.057938
  42 C :   -0.006986
  43 C :   -0.069467
  44 S :    0.116655
  45 C :    0.086695
  46 C :   -0.031131
  47 C :    0.007581
  48 C :   -0.109020
  49 S :    0.069341
  50 C :   -0.117873
  51 C :   -0.078117
  52 C :    0.107702
  53 C :    0.116013
  54 C :   -0.053449
  55 C :    0.004509
  56 C :    0.003768
  57 C :   -0.023667
  58 H :    0.018794
  59 H :    0.012349
  60 H :    0.009479
  61 H :    0.030135
  62 H :    0.024569
  63 H :   -0.030943
  64 H :   -0.022859
  65 H :   -0.014400
  66 H :   -0.018984
  67 H :   -0.033223
  68 H :    0.030678
  69 H :   -0.021248
  70 H :    0.021913
  71 H :   -0.027441
  72 H :   -0.036989
  73 H :    0.116061
  74 H :   -0.039548
  75 H :    0.119291
  76 H :   -0.039820
  77 H :   -0.031879
  78 H :   -0.022481
  79 H :   -0.034361
  80 H :    0.028984
  81 H :   -0.018039
  82 H :    0.020005
  83 H :   -0.035105
  84 H :   -0.053427
  85 H :    0.003344
  86 H :    0.003384
  87 H :    0.027954
  88 H :    0.032919
  89 H :   -0.009892
  90 H :   -0.023455
  91 H :   -0.015391
  92 H :    0.009186
  93 H :    0.016744
Sum of atomic charges:   -0.0000000

LOEWDIN ATOMIC CHARGES
----------------------
   0 C :   -0.183783
   1 S :    0.436087
   2 C :   -0.200662
   3 C :   -0.058223
   4 C :   -0.046148
   5 C :   -0.074205
   6 C :   -0.020859
   7 C :   -0.022381
   8 C :   -0.015780
   9 C :   -0.054687
  10 C :   -0.170931
  11 C :   -0.023087
  12 C :   -0.026280
  13 C :   -0.048812
  14 C :   -0.147174
  15 S :    0.435525
  16 C :   -0.205393
  17 C :   -0.039933
  18 C :   -0.065612
  19 C :   -0.168324
  20 S :    0.412192
  21 C :   -0.054708
  22 C :   -0.019151
  23 C :   -0.051304
  24 C :    0.002784
  25 N :    0.064289
  26 C :   -0.025823
  27 C :   -0.092673
  28 C :   -0.010821
  29 N :    0.068495
  30 C :   -0.019325
  31 C :   -0.104266
  32 C :   -0.020640
  33 C :   -0.065968
  34 C :   -0.159914
  35 C :   -0.032561
  36 C :   -0.016329
  37 C :   -0.050986
  38 C :   -0.148256
  39 S :    0.436484
  40 C :   -0.203815
  41 C :   -0.035580
  42 C :   -0.067922
  43 C :   -0.170358
  44 S :    0.413752
  45 C :   -0.061282
  46 C :   -0.020217
  47 C :   -0.063013
  48 C :   -0.154659
  49 S :    0.407724
  50 C :   -0.200619
  51 C :   -0.054875
  52 C :   -0.046065
  53 C :   -0.072404
  54 C :   -0.018762
  55 C :   -0.031797
  56 C :   -0.024694
  57 C :   -0.056228
  58 H :    0.018388
  59 H :    0.019506
  60 H :    0.033499
  61 H :    0.035377
  62 H :    0.033192
  63 H :    0.024712
  64 H :    0.024944
  65 H :    0.024737
  66 H :    0.023839
  67 H :    0.032083
  68 H :    0.033810
  69 H :    0.028589
  70 H :    0.021414
  71 H :    0.026604
  72 H :    0.021900
  73 H :    0.085804
  74 H :    0.021411
  75 H :    0.087241
  76 H :    0.020942
  77 H :    0.025367
  78 H :    0.022592
  79 H :    0.031344
  80 H :    0.033230
  81 H :    0.026824
  82 H :    0.021315
  83 H :    0.014669
  84 H :    0.025342
  85 H :    0.016773
  86 H :    0.030061
  87 H :    0.034292
  88 H :    0.032559
  89 H :    0.025373
  90 H :    0.025131
  91 H :    0.025648
  92 H :    0.019450
  93 H :    0.021998

  Mayer bond orders larger than 0.100000
B(  0-C ,  1-S ) :   1.1873 B(  0-C ,  5-C ) :   1.5238 B(  0-C , 58-H ) :   0.9594
B(  1-S ,  2-C ) :   1.1511 B(  2-C ,  3-C ) :   1.6089 B(  2-C , 59-H ) :   0.9650
B(  3-C ,  4-C ) :   1.0939 B(  3-C ,  5-C ) :   1.2196 B(  4-C , 60-H ) :   0.9515
B(  4-C , 61-H ) :   0.9443 B(  4-C , 62-H ) :   0.9436 B(  5-C ,  6-C ) :   1.0781
B(  6-C ,  7-C ) :   1.6757 B(  6-C , 63-H ) :   0.9733 B(  7-C ,  8-C ) :   1.1420
B(  7-C , 64-H ) :   0.9869 B(  8-C ,  9-C ) :   1.6729 B(  8-C , 65-H ) :   0.9774
B(  9-C , 10-C ) :   1.0897 B(  9-C , 66-H ) :   0.9653 B( 10-C , 11-C ) :   1.5527
B( 10-C , 15-S ) :   1.0428 B( 11-C , 12-C ) :   1.2397 B( 11-C , 67-H ) :   0.9601
B( 12-C , 13-C ) :   1.0457 B( 12-C , 21-C ) :   1.3960 B( 13-C , 14-C ) :   1.6146
B( 13-C , 16-C ) :   1.1833 B( 14-C , 15-S ) :   1.1317 B( 14-C , 68-H ) :   0.9415
B( 16-C , 17-C ) :   1.4414 B( 16-C , 20-S ) :   1.0683 B( 17-C , 18-C ) :   1.2158
B( 17-C , 21-C ) :   1.1048 B( 18-C , 19-C ) :   1.5862 B( 18-C , 69-H ) :   0.9979
B( 19-C , 20-S ) :   1.1522 B( 19-C , 70-H ) :   0.9664 B( 21-C , 22-C ) :   1.1391
B( 22-C , 23-C ) :   1.6473 B( 22-C , 71-H ) :   0.9648 B( 23-C , 24-C ) :   1.1095
B( 23-C , 72-H ) :   0.9603 B( 24-C , 25-N ) :   1.1684 B( 24-C , 31-C ) :   1.4120
B( 25-N , 26-C ) :   1.1579 B( 25-N , 73-H ) :   0.9382 B( 26-C , 27-C ) :   1.2690
B( 26-C , 30-C ) :   1.3140 B( 27-C , 28-C ) :   1.3956 B( 27-C , 74-H ) :   1.0304
B( 28-C , 29-N ) :   1.1625 B( 28-C , 32-C ) :   1.1337 B( 29-N , 30-C ) :   1.1719
B( 29-N , 75-H ) :   0.9363 B( 30-C , 31-C ) :   1.2493 B( 31-C , 76-H ) :   1.0313
B( 32-C , 33-C ) :   1.6819 B( 32-C , 77-H ) :   0.9522 B( 33-C , 34-C ) :   1.1094
B( 33-C , 78-H ) :   0.9626 B( 34-C , 35-C ) :   1.5427 B( 34-C , 39-S ) :   1.0491
B( 35-C , 36-C ) :   1.2484 B( 35-C , 79-H ) :   0.9620 B( 36-C , 37-C ) :   1.0430
B( 36-C , 45-C ) :   1.3760 B( 37-C , 38-C ) :   1.6142 B( 37-C , 40-C ) :   1.1804
B( 38-C , 39-S ) :   1.1305 B( 38-C , 80-H ) :   0.9410 B( 40-C , 41-C ) :   1.4551
B( 40-C , 44-S ) :   1.0719 B( 41-C , 42-C ) :   1.2109 B( 41-C , 45-C ) :   1.0754
B( 42-C , 43-C ) :   1.5857 B( 42-C , 81-H ) :   0.9987 B( 43-C , 44-S ) :   1.1537
B( 43-C , 82-H ) :   0.9643 B( 45-C , 46-C ) :   1.1843 B( 46-C , 47-C ) :   1.6172
B( 46-C , 83-H ) :   0.9550 B( 47-C , 48-C ) :   1.1692 B( 47-C , 84-H ) :   0.9709
B( 48-C , 49-S ) :   1.1247 B( 48-C , 53-C ) :   1.4299 B( 49-S , 50-C ) :   1.1187
B( 50-C , 51-C ) :   1.6149 B( 50-C , 85-H ) :   0.9664 B( 51-C , 52-C ) :   1.0910
B( 51-C , 53-C ) :   1.2266 B( 52-C , 86-H ) :   0.9483 B( 52-C , 87-H ) :   0.9464
B( 52-C , 88-H ) :   0.9424 B( 53-C , 54-C ) :   1.0694 B( 54-C , 55-C ) :   1.7378
B( 54-C , 57-C ) :   0.1001 B( 54-C , 89-H ) :   0.9606 B( 55-C , 56-C ) :   1.0973
B( 55-C , 90-H ) :   0.9784 B( 56-C , 57-C ) :   1.9087 B( 56-C , 91-H ) :   0.9753
B( 57-C , 92-H ) :   0.9569 B( 57-C , 93-H ) :   0.9518

-----------------------------------------------------------------------------
         ABSORPTION SPECTRUM VIA TRANSITION ELECTRIC DIPOLE MOMENTS
-----------------------------------------------------------------------------
State   Energy  Wavelength   fosc         T2         TX        TY        TZ
        (cm-1)    (nm)                  (au**2)     (au)      (au)      (au)
-----------------------------------------------------------------------------
   0   14716.6    679.5   1.635804161  36.59303   4.45805  -4.08868   0.03958
   1   18182.6    550.0   0.208096310   3.76776  -0.16763  -1.88915  -0.41323
   2   19822.2    504.5   0.002747388   0.04563   0.08527   0.15545  -0.11913
   3   20272.2    493.3   0.182522084   2.96409  -0.17771   1.64636   0.47118
   4   21617.0    462.6   0.063861338   0.97257  -0.76462  -0.04985   0.62083
   5   24278.3    411.9   1.004919822  13.62664  -0.28767  -0.71593  -3.60989
   6   25786.6    387.8   0.473656818   6.04707   0.35544   0.36509  -2.40571
   7   26949.4    371.1   0.587999699   7.18296  -0.98037   1.59403   1.91857
   8   27949.7    357.8   0.148931297   1.75422   0.74029  -1.01069   0.42976
   9   28372.3    352.5   0.131208105   1.52245  -0.44361  -0.98392  -0.59797
  10   29349.0    340.7   0.153710261   1.72419  -0.14744   0.88460  -0.95913
  11   30376.6    329.2   0.016106164   0.17455  -0.01083   0.27449  -0.31479
  12   30735.5    325.4   0.426427608   4.56752  -0.10927   0.74781   1.99909
  13   31645.7    316.0   0.098934558   1.02922   0.62735  -0.61502   0.50735
  14   32007.5    312.4   0.040481431   0.41637  -0.08577   0.56892   0.29213
  15   32407.4    308.6   0.292131615   2.96763   0.72333   0.73384   1.38055
  16   32708.5    305.7   0.081180692   0.81709   0.28905  -0.39665  -0.75908
  17   33372.8    299.6   0.184911168   1.82409   0.85035  -0.41903   0.96198
  18   33636.5    297.3   0.030309840   0.29665   0.41644  -0.05589   0.34657
  19   33917.1    294.8   0.041852928   0.40624  -0.33975  -0.42742  -0.32882
  20   34995.3    285.8   0.135238127   1.27223   0.90716  -0.67008   0.01660
  21   35208.8    284.0   0.080611010   0.75374  -0.10410   0.52083  -0.68676
  22   35605.1    280.9   0.324405468   2.99952   0.02136   0.38752   1.68786
  23   36019.8    277.6   0.145125142   1.32641   0.15512   0.50198   1.02487
  24   36502.3    274.0   0.024817838   0.22383  -0.07667   0.14834   0.44266
  25   36708.1    272.4   0.035926334   0.32220  -0.20297  -0.16305  -0.50440
  26   37471.8    266.9   0.067442941   0.59253   0.34202  -0.01444   0.68945
  27   37744.3    264.9   0.013013968   0.11351   0.30191  -0.13787  -0.05791
  28   38102.6    262.4   0.055196409   0.47690   0.50910  -0.44049  -0.15392
  29   38683.0    258.5   0.005609353   0.04774   0.00562   0.05643  -0.21100
  30   39430.9    253.6   0.061271176   0.51156  -0.14459   0.51626   0.47342
  31   39837.5    251.0   0.084935230   0.70189   0.63247  -0.24839   0.49007
  32   40199.4    248.8   0.179408511   1.46926   0.73489  -0.88876  -0.37323
  33   40325.4    248.0   0.055378616   0.45210  -0.35715   0.49060   0.28960

FINAL SINGLE POINT ENERGY     -4422.133536966146

DIPOLE MOMENT
-------------
                                X             Y             Z
Electronic contribution:    -17.73398      46.02246      -8.17763
Nuclear contribution   :     16.88222     -45.09727       8.06805
                        -----------------------------------------
Total Dipole Moment    :     -0.85177       0.92519      -0.10958
                        -----------------------------------------
Magnitude (a.u.)       :      1.26234
Magnitude (Debye)      :      3.20860

Rotational constants in cm-1:     0.001201     0.000321     0.000271
Rotational constants in MHz :    36.006120     9.611323     8.111334

                             ****ORCA TERMINATED NORMALLY****
TOTAL RUN TIME: 0 days 0 hours 7 minutes 34 seconds 301 msec
