                         Program Version 4.2.0 -  RELEASE  -
|  1> # ORCA input file
|  2> # SCF done       -163.098911735640          0.000259539941
|  3> ! CAM-B3LYP def2-SVP def2/J RIJCOSX Grid4 TightSCF
|  4> %maxcore 5000
|  5> %tddft
|  6>     Mode sTDDFT
|  7>     Ethresh 5.0
|  8>     maxcore 5000
|  9> end
| 10>
| 11> %pal
| 12>   nprocs 6
| 13>   end
| 14> * xyz 0 1
| 15>    C        1.57084        -0.95296        -8.99922
| 16>    C        0.95387        -0.88833       -10.18850
| 17>    C        0.12928         0.33090       -10.21429
| 18>    C       -0.62408         0.74402       -11.32057
| 19>    N       -1.23839         1.07279       -12.23263
| 20>    C        0.24123         0.96086        -9.01704
| 21>    C        1.14376         0.18532        -8.18733
| 22>    C        1.55503         0.44900        -6.91427
| 23>    C        1.10245         1.51118        -6.00280
| 24>    C        1.93991         1.53559        -4.93830
| 25>    C        2.93174         0.47835        -5.10327
| 26>    C        2.67473        -0.19307        -6.25923
| 27>    C        3.95944         0.22169        -4.18493
| 28>    N        4.79403         0.02005        -3.42372
| 29>    C       -0.09550         2.32193        -6.10712
| 30>    C       -1.33836         1.85600        -6.41484
| 31>    F       -1.65104         0.60820        -6.76487
| 32>    S       -2.60628         3.02769        -6.26587
| 33>    C       -1.41621         4.17573        -5.74640
| 34>    F       -1.81354         5.41489        -5.44919
| 35>    C       -0.14155         3.69914        -5.69832
| 36>    C        1.04257         4.47835        -5.37781
| 37>    C        1.15108         5.38521        -4.39897
| 38>    C        0.18429         5.62965        -3.35201
| 39>    C       -0.00196         6.92891        -2.84891
| 40>    C       -0.95609         7.21613        -1.80871
| 41>    N       -1.04254         8.46787        -1.30356
| 42>    C       -0.34456         9.42494        -1.85916
| 43>    C        0.53095         9.14989        -2.97242
| 44>    N        0.70899         7.93368        -3.40265
| 45>    C        1.23613        10.22789        -3.56635
| 46>    N        1.77433        11.13750        -4.00665
| 47>    C       -0.38608        10.73843        -1.33204
| 48>    N       -0.37609        11.82318        -0.95940
| 49>    C       -1.79644         6.22205        -1.28382
| 50>    C       -1.59337         4.91976        -1.75701
| 51>    C       -0.59449         4.62171        -2.76001
| 52>    N       -0.55351         3.31052        -3.03062
| 53>    S       -1.66137         2.55905        -2.15239
| 54>    N       -2.26018         3.82195        -1.38370
| 55>    C       -2.83093         6.55355        -0.31844
| 56>    C       -3.15257         5.81967         0.78436
| 57>    F       -2.57312         4.69767         1.19113
| 58>    S       -4.37138         6.53135         1.78928
| 59>    C       -4.44142         7.86761         0.68558
| 60>    F       -5.31388         8.84796         0.90781
| 61>    C       -3.60260         7.76780        -0.38134
| 62>    C       -3.44592         8.72637        -1.45459
| 63>    C       -3.48439        10.06531        -1.28482
| 64>    C       -3.10279        10.99329        -2.29640
| 65>    C       -2.51760        10.69857        -3.50009
| 66>    C       -2.01583        11.91833        -4.09154
| 67>    C       -1.37928        11.96670        -5.34096
| 68>    N       -0.88031        11.97503        -6.37384
| 69>    C       -2.26343        12.96063        -3.24280
| 70>    C       -3.00668        12.45936        -2.11620
| 71>    C       -3.57242        13.24697        -1.15450
| 72>    C       -3.28583        14.66927        -0.96892
| 73>    C       -3.99994        15.12196         0.07229
| 74>    C       -4.82525        14.01451         0.57870
| 75>    C       -4.55800        12.89825        -0.14929
| 76>    C       -5.73374        14.13792         1.63710
| 77>    N       -6.47286        14.25626         2.50757
| 78>    H        2.23115        -1.72588        -8.65837
| 79>    H        1.02255        -1.57570       -11.01056
| 80>    H       -0.20628         1.89683        -8.74629
| 81>    H        1.87224         2.18148        -4.08340
| 82>    H        3.24204        -1.00947        -6.66124
| 83>    H        1.88198         4.31405        -6.04052
| 84>    H        2.02815         6.01598        -4.35991
| 85>    H       -3.30570         8.29996        -2.43843
| 86>    H       -3.65001        10.45630        -0.29367
| 87>    H       -2.42303         9.73550        -3.96853
| 88>    H       -2.01393        13.98820        -3.41853
| 89>    H       -2.57145        15.22146        -1.54633
| 90>    H       -4.00600        16.10876         0.49561
| 91>    H       -5.04971        11.95114        -0.04458
| 92> *
| 93>
| 94>                          ****END OF INPUT****

CARTESIAN COORDINATES (ANGSTROEM)
---------------------------------
  C      1.570840   -0.952960   -8.999220
  C      0.953870   -0.888330  -10.188500
  C      0.129280    0.330900  -10.214290
  C     -0.624080    0.744020  -11.320570
  N     -1.238390    1.072790  -12.232630
  C      0.241230    0.960860   -9.017040
  C      1.143760    0.185320   -8.187330
  C      1.555030    0.449000   -6.914270
  C      1.102450    1.511180   -6.002800
  C      1.939910    1.535590   -4.938300
  C      2.931740    0.478350   -5.103270
  C      2.674730   -0.193070   -6.259230
  C      3.959440    0.221690   -4.184930
  N      4.794030    0.020050   -3.423720
  C     -0.095500    2.321930   -6.107120
  C     -1.338360    1.856000   -6.414840
  F     -1.651040    0.608200   -6.764870
  S     -2.606280    3.027690   -6.265870
  C     -1.416210    4.175730   -5.746400
  F     -1.813540    5.414890   -5.449190
  C     -0.141550    3.699140   -5.698320
  C      1.042570    4.478350   -5.377810
  C      1.151080    5.385210   -4.398970
  C      0.184290    5.629650   -3.352010
  C     -0.001960    6.928910   -2.848910
  C     -0.956090    7.216130   -1.808710
  N     -1.042540    8.467870   -1.303560
  C     -0.344560    9.424940   -1.859160
  C      0.530950    9.149890   -2.972420
  N      0.708990    7.933680   -3.402650
  C      1.236130   10.227890   -3.566350
  N      1.774330   11.137500   -4.006650
  C     -0.386080   10.738430   -1.332040
  N     -0.376090   11.823180   -0.959400
  C     -1.796440    6.222050   -1.283820
  C     -1.593370    4.919760   -1.757010
  C     -0.594490    4.621710   -2.760010
  N     -0.553510    3.310520   -3.030620
  S     -1.661370    2.559050   -2.152390
  N     -2.260180    3.821950   -1.383700
  C     -2.830930    6.553550   -0.318440
  C     -3.152570    5.819670    0.784360
  F     -2.573120    4.697670    1.191130
  S     -4.371380    6.531350    1.789280
  C     -4.441420    7.867610    0.685580
  F     -5.313880    8.847960    0.907810
  C     -3.602600    7.767800   -0.381340
  C     -3.445920    8.726370   -1.454590
  C     -3.484390   10.065310   -1.284820
  C     -3.102790   10.993290   -2.296400
  C     -2.517600   10.698570   -3.500090
  C     -2.015830   11.918330   -4.091540
  C     -1.379280   11.966700   -5.340960
  N     -0.880310   11.975030   -6.373840
  C     -2.263430   12.960630   -3.242800
  C     -3.006680   12.459360   -2.116200
  C     -3.572420   13.246970   -1.154500
  C     -3.285830   14.669270   -0.968920
  C     -3.999940   15.121960    0.072290
  C     -4.825250   14.014510    0.578700
  C     -4.558000   12.898250   -0.149290
  C     -5.733740   14.137920    1.637100
  N     -6.472860   14.256260    2.507570
  H      2.231150   -1.725880   -8.658370
  H      1.022550   -1.575700  -11.010560
  H     -0.206280    1.896830   -8.746290
  H      1.872240    2.181480   -4.083400
  H      3.242040   -1.009470   -6.661240
  H      1.881980    4.314050   -6.040520
  H      2.028150    6.015980   -4.359910
  H     -3.305700    8.299960   -2.438430
  H     -3.650010   10.456300   -0.293670
  H     -2.423030    9.735500   -3.968530
  H     -2.013930   13.988200   -3.418530
  H     -2.571450   15.221460   -1.546330
  H     -4.006000   16.108760    0.495610
  H     -5.049710   11.951140   -0.044580

 Total Charge           Charge          ....    0
 Multiplicity           Mult            ....    1
 Number of Electrons    NEL             ....  444
 Basis Dimension        Dim             ....  964

ORBITAL ENERGIES
----------------

  NO   OCC          E(Eh)            E(eV)
   0   2.0000     -89.060598     -2423.4621
   1   2.0000     -88.996117     -2421.7075
   2   2.0000     -88.993601     -2421.6390
   3   2.0000     -24.825224      -675.5287
   4   2.0000     -24.823919      -675.4932
   5   2.0000     -24.821507      -675.4275
   6   2.0000     -24.820236      -675.3930
   7   2.0000     -14.472154      -393.8073
   8   2.0000     -14.469951      -393.7474
   9   2.0000     -14.466192      -393.6451
  10   2.0000     -14.464016      -393.5859
  11   2.0000     -14.439405      -392.9162
  12   2.0000     -14.436275      -392.8310
  13   2.0000     -14.418942      -392.3593
  14   2.0000     -14.418059      -392.3353
  15   2.0000     -14.413127      -392.2011
  16   2.0000     -14.411125      -392.1467
  17   2.0000     -10.404964      -283.1335
  18   2.0000     -10.400957      -283.0244
  19   2.0000     -10.398953      -282.9699
  20   2.0000     -10.398634      -282.9612
  21   2.0000     -10.391922      -282.7786
  22   2.0000     -10.391289      -282.7614
  23   2.0000     -10.359024      -281.8834
  24   2.0000     -10.356844      -281.8241
  25   2.0000     -10.354950      -281.7725
  26   2.0000     -10.353427      -281.7311
  27   2.0000     -10.334335      -281.2115
  28   2.0000     -10.333435      -281.1871
  29   2.0000     -10.332534      -281.1626
  30   2.0000     -10.331908      -281.1455
  31   2.0000     -10.330736      -281.1136
  32   2.0000     -10.330071      -281.0955
  33   2.0000     -10.328868      -281.0628
  34   2.0000     -10.328173      -281.0439
  35   2.0000     -10.324538      -280.9450
  36   2.0000     -10.324439      -280.9423
  37   2.0000     -10.324311      -280.9388
  38   2.0000     -10.323599      -280.9194
  39   2.0000     -10.317551      -280.7548
  40   2.0000     -10.316329      -280.7216
  41   2.0000     -10.315559      -280.7006
  42   2.0000     -10.314256      -280.6652
  43   2.0000     -10.311705      -280.5957
  44   2.0000     -10.311441      -280.5886
  45   2.0000     -10.311220      -280.5826
  46   2.0000     -10.311060      -280.5782
  47   2.0000     -10.310653      -280.5671
  48   2.0000     -10.310302      -280.5576
  49   2.0000     -10.309282      -280.5298
  50   2.0000     -10.308083      -280.4972
  51   2.0000     -10.307794      -280.4893
  52   2.0000     -10.307668      -280.4859
  53   2.0000     -10.307508      -280.4816
  54   2.0000     -10.306080      -280.4427
  55   2.0000     -10.303185      -280.3639
  56   2.0000     -10.302599      -280.3480
  57   2.0000     -10.302215      -280.3375
  58   2.0000     -10.300644      -280.2948
  59   2.0000     -10.298507      -280.2366
  60   2.0000     -10.297248      -280.2024
  61   2.0000     -10.295771      -280.1622
  62   2.0000     -10.288936      -279.9762
  63   2.0000      -8.151649      -221.8177
  64   2.0000      -8.093004      -220.2218
  65   2.0000      -8.090698      -220.1591
  66   2.0000      -6.122489      -166.6014
  67   2.0000      -6.114920      -166.3954
  68   2.0000      -6.114756      -166.3910
  69   2.0000      -6.062223      -164.9615
  70   2.0000      -6.059917      -164.8987
  71   2.0000      -6.058571      -164.8621
  72   2.0000      -6.056270      -164.7995
  73   2.0000      -6.054391      -164.7484
  74   2.0000      -6.052016      -164.6837
  75   2.0000      -1.339287       -36.4438
  76   2.0000      -1.338638       -36.4262
  77   2.0000      -1.337672       -36.3999
  78   2.0000      -1.336726       -36.3742
  79   2.0000      -1.155609       -31.4457
  80   2.0000      -1.130183       -30.7538
  81   2.0000      -1.058226       -28.7958
  82   2.0000      -1.026560       -27.9341
  83   2.0000      -1.026482       -27.9320
  84   2.0000      -1.018718       -27.7207
  85   2.0000      -1.015525       -27.6338
  86   2.0000      -1.014074       -27.5943
  87   2.0000      -1.010934       -27.5089
  88   2.0000      -1.008493       -27.4425
  89   2.0000      -1.005487       -27.3607
  90   2.0000      -1.002570       -27.2813
  91   2.0000      -0.995653       -27.0931
  92   2.0000      -0.989414       -26.9233
  93   2.0000      -0.988867       -26.9084
  94   2.0000      -0.984381       -26.7864
  95   2.0000      -0.978602       -26.6291
  96   2.0000      -0.931686       -25.3525
  97   2.0000      -0.923301       -25.1243
  98   2.0000      -0.917897       -24.9773
  99   2.0000      -0.905037       -24.6273
 100   2.0000      -0.890836       -24.2409
 101   2.0000      -0.883750       -24.0481
 102   2.0000      -0.880927       -23.9712
 103   2.0000      -0.866859       -23.5884
 104   2.0000      -0.854124       -23.2419
 105   2.0000      -0.842619       -22.9288
 106   2.0000      -0.839768       -22.8512
 107   2.0000      -0.834461       -22.7068
 108   2.0000      -0.831221       -22.6187
 109   2.0000      -0.820344       -22.3227
 110   2.0000      -0.808020       -21.9873
 111   2.0000      -0.804896       -21.9023
 112   2.0000      -0.799891       -21.7662
 113   2.0000      -0.799054       -21.7434
 114   2.0000      -0.761327       -20.7168
 115   2.0000      -0.745416       -20.2838
 116   2.0000      -0.742059       -20.1924
 117   2.0000      -0.734315       -19.9817
 118   2.0000      -0.727278       -19.7902
 119   2.0000      -0.724275       -19.7085
 120   2.0000      -0.718666       -19.5559
 121   2.0000      -0.715593       -19.4723
 122   2.0000      -0.704899       -19.1813
 123   2.0000      -0.699759       -19.0414
 124   2.0000      -0.696722       -18.9588
 125   2.0000      -0.692314       -18.8388
 126   2.0000      -0.688426       -18.7330
 127   2.0000      -0.672950       -18.3119
 128   2.0000      -0.663745       -18.0614
 129   2.0000      -0.659668       -17.9505
 130   2.0000      -0.654976       -17.8228
 131   2.0000      -0.648410       -17.6441
 132   2.0000      -0.645952       -17.5772
 133   2.0000      -0.642911       -17.4945
 134   2.0000      -0.639106       -17.3910
 135   2.0000      -0.636250       -17.3132
 136   2.0000      -0.625646       -17.0247
 137   2.0000      -0.618415       -16.8279
 138   2.0000      -0.617381       -16.7998
 139   2.0000      -0.615853       -16.7582
 140   2.0000      -0.605289       -16.4708
 141   2.0000      -0.601569       -16.3695
 142   2.0000      -0.599397       -16.3104
 143   2.0000      -0.598066       -16.2742
 144   2.0000      -0.594317       -16.1722
 145   2.0000      -0.591451       -16.0942
 146   2.0000      -0.585275       -15.9261
 147   2.0000      -0.584180       -15.8963
 148   2.0000      -0.580397       -15.7934
 149   2.0000      -0.577535       -15.7155
 150   2.0000      -0.569206       -15.4889
 151   2.0000      -0.564205       -15.3528
 152   2.0000      -0.558884       -15.2080
 153   2.0000      -0.549882       -14.9631
 154   2.0000      -0.547943       -14.9103
 155   2.0000      -0.540736       -14.7142
 156   2.0000      -0.536125       -14.5887
 157   2.0000      -0.531989       -14.4761
 158   2.0000      -0.528069       -14.3695
 159   2.0000      -0.525774       -14.3070
 160   2.0000      -0.525242       -14.2926
 161   2.0000      -0.522726       -14.2241
 162   2.0000      -0.520717       -14.1694
 163   2.0000      -0.517515       -14.0823
 164   2.0000      -0.511707       -13.9243
 165   2.0000      -0.506473       -13.7818
 166   2.0000      -0.503197       -13.6927
 167   2.0000      -0.502005       -13.6602
 168   2.0000      -0.501127       -13.6364
 169   2.0000      -0.500024       -13.6064
 170   2.0000      -0.497578       -13.5398
 171   2.0000      -0.496480       -13.5099
 172   2.0000      -0.495276       -13.4772
 173   2.0000      -0.492716       -13.4075
 174   2.0000      -0.492346       -13.3974
 175   2.0000      -0.484782       -13.1916
 176   2.0000      -0.481772       -13.1097
 177   2.0000      -0.477717       -12.9994
 178   2.0000      -0.472314       -12.8523
 179   2.0000      -0.467828       -12.7302
 180   2.0000      -0.467183       -12.7127
 181   2.0000      -0.465334       -12.6624
 182   2.0000      -0.460922       -12.5423
 183   2.0000      -0.460273       -12.5247
 184   2.0000      -0.457099       -12.4383
 185   2.0000      -0.455039       -12.3822
 186   2.0000      -0.454222       -12.3600
 187   2.0000      -0.450905       -12.2697
 188   2.0000      -0.448901       -12.2152
 189   2.0000      -0.448367       -12.2007
 190   2.0000      -0.447387       -12.1740
 191   2.0000      -0.446565       -12.1516
 192   2.0000      -0.444928       -12.1071
 193   2.0000      -0.440769       -11.9939
 194   2.0000      -0.437696       -11.9103
 195   2.0000      -0.437199       -11.8968
 196   2.0000      -0.431868       -11.7517
 197   2.0000      -0.427506       -11.6330
 198   2.0000      -0.423665       -11.5285
 199   2.0000      -0.423509       -11.5243
 200   2.0000      -0.421296       -11.4641
 201   2.0000      -0.418775       -11.3954
 202   2.0000      -0.416311       -11.3284
 203   2.0000      -0.416125       -11.3233
 204   2.0000      -0.411851       -11.2070
 205   2.0000      -0.409808       -11.1515
 206   2.0000      -0.404925       -11.0186
 207   2.0000      -0.391319       -10.6483
 208   2.0000      -0.383822       -10.4443
 209   2.0000      -0.363309        -9.8861
 210   2.0000      -0.361898        -9.8477
 211   2.0000      -0.359799        -9.7906
 212   2.0000      -0.356076        -9.6893
 213   2.0000      -0.337527        -9.1846
 214   2.0000      -0.332147        -9.0382
 215   2.0000      -0.328256        -8.9323
 216   2.0000      -0.324297        -8.8246
 217   2.0000      -0.318325        -8.6621
 218   2.0000      -0.316638        -8.6161
 219   2.0000      -0.298453        -8.1213
 220   2.0000      -0.288258        -7.8439
 221   2.0000      -0.277991        -7.5645
 222   0.0000      -0.129221        -3.5163
 223   0.0000      -0.124495        -3.3877
 224   0.0000      -0.119912        -3.2630
 225   0.0000      -0.060817        -1.6549
 226   0.0000      -0.049356        -1.3430

MULLIKEN ATOMIC CHARGES
-----------------------
   0 C :    0.000362
   1 C :    0.068393
   2 C :   -0.127229
   3 C :   -0.130491
   4 N :    0.144467
   5 C :    0.000501
   6 C :    0.010627
   7 C :    0.092301
   8 C :    0.022893
   9 C :   -0.007831
  10 C :   -0.084522
  11 C :   -0.021969
  12 C :   -0.137456
  13 N :    0.144701
  14 C :    0.052971
  15 C :    0.029479
  16 F :   -0.154014
  17 S :    0.108017
  18 C :    0.033668
  19 F :   -0.161452
  20 C :    0.094569
  21 C :    0.013494
  22 C :   -0.040011
  23 C :    0.047572
  24 C :   -0.045830
  25 C :   -0.093746
  26 N :    0.054421
  27 C :   -0.157574
  28 C :   -0.152149
  29 N :    0.075545
  30 C :   -0.194859
  31 N :    0.247262
  32 C :   -0.177257
  33 N :    0.224030
  34 C :    0.098316
  35 C :    0.012218
  36 C :    0.001441
  37 N :   -0.281275
  38 S :    0.559786
  39 N :   -0.262583
  40 C :   -0.019089
  41 C :    0.071529
  42 F :   -0.141734
  43 S :    0.114181
  44 C :    0.031896
  45 F :   -0.154896
  46 C :    0.105406
  47 C :    0.023835
  48 C :   -0.006017
  49 C :    0.045338
  50 C :   -0.045613
  51 C :   -0.091333
  52 C :   -0.136836
  53 N :    0.161396
  54 C :    0.001614
  55 C :    0.086737
  56 C :    0.031052
  57 C :    0.008943
  58 C :    0.063869
  59 C :   -0.126003
  60 C :   -0.009451
  61 C :   -0.130770
  62 N :    0.139743
  63 H :   -0.005759
  64 H :    0.002766
  65 H :    0.014904
  66 H :    0.001223
  67 H :   -0.001947
  68 H :    0.025132
  69 H :    0.020284
  70 H :    0.020919
  71 H :    0.004723
  72 H :   -0.011813
  73 H :   -0.004619
  74 H :   -0.001696
  75 H :    0.000099
  76 H :    0.005200
Sum of atomic charges:    0.0000000

LOEWDIN ATOMIC CHARGES
----------------------
   0 C :   -0.028002
   1 C :    0.021543
   2 C :   -0.053497
   3 C :   -0.032687
   4 N :   -0.038710
   5 C :    0.008737
   6 C :    0.036684
   7 C :    0.030553
   8 C :   -0.032109
   9 C :    0.024637
  10 C :   -0.058354
  11 C :    0.012586
  12 C :   -0.032647
  13 N :   -0.041010
  14 C :   -0.087031
  15 C :   -0.089283
  16 F :   -0.046912
  17 S :    0.423231
  18 C :   -0.087738
  19 F :   -0.049772
  20 C :   -0.084946
  21 C :    0.006549
  22 C :   -0.014455
  23 C :   -0.013453
  24 C :   -0.009112
  25 C :   -0.009462
  26 N :    0.009795
  27 C :   -0.029623
  28 C :   -0.023313
  29 N :    0.000722
  30 C :   -0.038052
  31 N :    0.008133
  32 C :   -0.027966
  33 N :   -0.014924
  34 C :   -0.015799
  35 C :   -0.041565
  36 C :   -0.046465
  37 N :   -0.278312
  38 S :    0.696585
  39 N :   -0.280599
  40 C :   -0.087480
  41 C :   -0.061842
  42 F :   -0.034876
  43 S :    0.432225
  44 C :   -0.077778
  45 F :   -0.046443
  46 C :   -0.084540
  47 C :    0.016242
  48 C :   -0.024194
  49 C :   -0.021875
  50 C :   -0.008804
  51 C :   -0.058368
  52 C :   -0.033821
  53 N :   -0.035401
  54 C :    0.019159
  55 C :    0.037991
  56 C :    0.037838
  57 C :   -0.019216
  58 C :    0.016081
  59 C :   -0.050598
  60 C :    0.000606
  61 C :   -0.031684
  62 N :   -0.041512
  63 H :    0.030217
  64 H :    0.036601
  65 H :    0.035534
  66 H :    0.034322
  67 H :    0.035255
  68 H :    0.041744
  69 H :    0.043174
  70 H :    0.030053
  71 H :    0.031594
  72 H :    0.026672
  73 H :    0.036300
  74 H :    0.031994
  75 H :    0.035770
  76 H :    0.035100

  Mayer bond orders larger than 0.100000
B(  0-C ,  1-C ) :   1.6941 B(  0-C ,  6-C ) :   1.0713 B(  0-C , 63-H ) :   1.0059
B(  1-C ,  2-C ) :   1.0651 B(  1-C , 64-H ) :   1.0119 B(  2-C ,  3-C ) :   1.0652
B(  2-C ,  5-C ) :   1.6912 B(  3-C ,  4-N ) :   3.0394 B(  5-C ,  6-C ) :   1.0608
B(  5-C , 65-H ) :   1.0081 B(  6-C ,  7-C ) :   1.4986 B(  7-C ,  8-C ) :   1.0809
B(  7-C , 11-C ) :   1.0590 B(  8-C ,  9-C ) :   1.6889 B(  8-C , 14-C ) :   0.9504
B(  9-C , 10-C ) :   1.0638 B(  9-C , 66-H ) :   1.0108 B( 10-C , 11-C ) :   1.6575
B( 10-C , 12-C ) :   1.0566 B( 11-C , 67-H ) :   1.0210 B( 12-C , 13-N ) :   3.0443
B( 14-C , 15-C ) :   1.4951 B( 14-C , 20-C ) :   1.2037 B( 15-C , 16-F ) :   1.1311
B( 15-C , 17-S ) :   1.1076 B( 17-S , 18-C ) :   1.1191 B( 18-C , 19-F ) :   1.1126
B( 18-C , 20-C ) :   1.4752 B( 20-C , 21-C ) :   1.0095 B( 21-C , 22-C ) :   1.8197
B( 21-C , 68-H ) :   0.9536 B( 22-C , 23-C ) :   1.0786 B( 22-C , 69-H ) :   0.9544
B( 23-C , 24-C ) :   1.3106 B( 23-C , 34-C ) :   0.1429 B( 23-C , 36-C ) :   1.2272
B( 24-C , 25-C ) :   1.1009 B( 24-C , 29-N ) :   1.4323 B( 25-C , 26-N ) :   1.3850
B( 25-C , 34-C ) :   1.3526 B( 26-N , 27-C ) :   1.7356 B( 27-C , 28-C ) :   1.1761
B( 27-C , 32-C ) :   1.1433 B( 28-C , 29-N ) :   1.7876 B( 28-C , 30-C ) :   1.1445
B( 30-C , 31-N ) :   3.0273 B( 32-C , 33-N ) :   2.9825 B( 34-C , 35-C ) :   1.2728
B( 34-C , 40-C ) :   0.9615 B( 35-C , 36-C ) :   1.1078 B( 35-C , 39-N ) :   1.5021
B( 36-C , 37-N ) :   1.4751 B( 37-N , 38-S ) :   1.2982 B( 37-N , 39-N ) :   0.1585
B( 38-S , 39-N ) :   1.3070 B( 40-C , 41-C ) :   1.4818 B( 40-C , 46-C ) :   1.1992
B( 41-C , 42-F ) :   1.1565 B( 41-C , 43-S ) :   1.1221 B( 43-S , 44-C ) :   1.1075
B( 44-C , 45-F ) :   1.1287 B( 44-C , 46-C ) :   1.4806 B( 46-C , 47-C ) :   1.0263
B( 47-C , 48-C ) :   1.7216 B( 47-C , 70-H ) :   0.9362 B( 48-C , 49-C ) :   1.1194
B( 48-C , 71-H ) :   0.9720 B( 49-C , 50-C ) :   1.5457 B( 49-C , 55-C ) :   1.0485
B( 50-C , 51-C ) :   1.1260 B( 50-C , 72-H ) :   0.9984 B( 51-C , 52-C ) :   1.0546
B( 51-C , 54-C ) :   1.6219 B( 52-C , 53-N ) :   3.0436 B( 54-C , 55-C ) :   1.0735
B( 54-C , 73-H ) :   1.0219 B( 55-C , 56-C ) :   1.5048 B( 56-C , 57-C ) :   1.0764
B( 56-C , 60-C ) :   1.0607 B( 57-C , 58-C ) :   1.6894 B( 57-C , 74-H ) :   1.0058
B( 58-C , 59-C ) :   1.0708 B( 58-C , 75-H ) :   1.0116 B( 59-C , 60-C ) :   1.6817
B( 59-C , 61-C ) :   1.0637 B( 60-C , 76-H ) :   1.0093 B( 61-C , 62-N ) :   3.0386

-----------------------------------------------------------------------------
         ABSORPTION SPECTRUM VIA TRANSITION ELECTRIC DIPOLE MOMENTS
-----------------------------------------------------------------------------
State   Energy  Wavelength   fosc         T2         TX        TY        TZ
        (cm-1)    (nm)                  (au**2)     (au)      (au)      (au)
-----------------------------------------------------------------------------
   0   14120.3    708.2   0.011723413   0.27333  -0.50592   0.12810  -0.03110
   1   15473.7    646.3   0.172899403   3.67854  -0.77601   1.70511   0.41104
   2   16210.7    616.9   0.111081129   2.25587  -0.73096   0.03792   1.31154
   3   17055.1    586.3   0.010802921   0.20853   0.26587  -0.32765  -0.17461
   4   19721.2    507.1   0.031554382   0.52675   0.41353  -0.10791  -0.58660
   5   20849.1    479.6   0.000083016   0.00131   0.00740  -0.01181  -0.03341
   6   21682.3    461.2   0.005570810   0.08458   0.10228  -0.17121  -0.21168
   7   21999.9    454.5   0.008207681   0.12282   0.11018   0.12135   0.30977
   8   22171.8    451.0   0.023973218   0.35596  -0.13199   0.56630   0.13355
   9   22657.8    441.3   0.030528234   0.44357  -0.10604  -0.65751   0.00179
  10   24550.2    407.3   0.000647407   0.00868  -0.03709  -0.04203  -0.07443
  11   25222.3    396.5   0.067001621   0.87453   0.47348  -0.73429  -0.33341
  12   25820.3    387.3   0.009783149   0.12474   0.20214   0.07834   0.27882
  13   26913.5    371.6   0.004187330   0.05122  -0.18366  -0.13218   0.00434
  14   27347.9    365.7   0.183786307   2.21240  -0.57656   1.30738   0.41322
  15   27713.0    360.8   0.044980071   0.53433  -0.12414  -0.65392  -0.30219
  16   28097.6    355.9   0.053203528   0.62337   0.24565   0.16809  -0.73128
  17   28938.2    345.6   0.003943865   0.04487   0.16819   0.11002  -0.06688
  18   29398.1    340.2   0.011848400   0.13268   0.14671  -0.15349  -0.29597
  19   29697.5    336.7   0.035973770   0.39879  -0.21304   0.47235   0.36096
  20   30003.0    333.3   0.620330920   6.80667  -0.95220   1.86759   1.55309
  21   30652.7    326.2   0.426353068   4.57906   1.05329   0.17493   1.85447
  22   30935.9    323.2   0.054328880   0.57815  -0.23893   0.35445   0.62884
  23   30954.4    323.1   0.020595126   0.21904  -0.25006   0.02655  -0.39472
  24   31148.6    321.0   0.043572494   0.46052  -0.20698   0.30297   0.57087
  25   31624.9    316.2   0.029085000   0.30277  -0.01633   0.12451  -0.53573
  26   32108.1    311.4   0.558612740   5.72758   0.62354   0.77677   2.17610
  27   32380.2    308.8   0.021939905   0.22306  -0.20593   0.25970  -0.33647
  28   32636.3    306.4   0.038206955   0.38540   0.05333  -0.58497  -0.20091
  29   32887.4    304.1   0.002710022   0.02713   0.06596  -0.10914   0.10424
  30   32979.3    303.2   0.185668660   1.85341  -0.47183   1.27005   0.13328
  31   34158.8    292.8   0.004518859   0.04355   0.05013  -0.18042  -0.09212
  32   34408.2    290.6   0.485944772   4.64944  -0.57048  -2.07287  -0.16497
  33   34697.6    288.2   0.031506343   0.29893   0.01520   0.54443   0.04799
  34   35238.7    283.8   0.000027771   0.00026   0.00621  -0.00189  -0.01474
  35   35962.6    278.1   0.002826887   0.02588  -0.11322  -0.08708  -0.07400
  36   36305.0    275.4   0.231754619   2.10154   0.68848   1.23568  -0.31720
  37   36496.9    274.0   0.086721135   0.78225   0.25032   0.84822  -0.01029
  38   36738.5    272.2   0.000192697   0.00173  -0.00680  -0.03853   0.01401
  39   37177.9    269.0   0.010134274   0.08974   0.12964  -0.19710  -0.18462
  40   37196.3    268.8   0.021903935   0.19386   0.08558  -0.36972  -0.22327
  41   37892.0    263.9   0.005019172   0.04361  -0.08331   0.01928   0.19051
  42   38256.3    261.4   0.230867803   1.98672  -0.48742  -1.14916   0.65465
  43   38617.2    259.0   0.752320819   6.41354  -1.00602  -0.48899   2.27208
  44   38950.6    256.7   0.001804030   0.01525  -0.12198  -0.01719   0.00850
  45   39186.6    255.2   0.210282355   1.76661  -0.53392  -1.19010   0.25536
  46   39477.1    253.3   0.057600253   0.48035  -0.15563  -0.48689  -0.46804
  47   39624.5    252.4   0.004146337   0.03445   0.04839   0.17864  -0.01401
  48   39767.1    251.5   0.093165777   0.77127  -0.25851   0.18723   0.81816
  49   40163.5    249.0   0.017655772   0.14472   0.14619   0.21196  -0.28004

FINAL SINGLE POINT ENERGY     -3898.706618014524

DIPOLE MOMENT
-------------
                                X             Y             Z
Electronic contribution:    -13.39374     -15.32934      16.16350
Nuclear contribution   :     12.86632      12.69530     -15.64390
                        -----------------------------------------
Total Dipole Moment    :     -0.52742      -2.63404       0.51960
                        -----------------------------------------
Magnitude (a.u.)       :      2.73612
Magnitude (Debye)      :      6.95465

Rotational constants in cm-1:     0.002306     0.000588     0.000541
Rotational constants in MHz :    69.144013    17.631033    16.233205

                             ****ORCA TERMINATED NORMALLY****
TOTAL RUN TIME: 0 days 0 hours 8 minutes 18 seconds 720 msec
