                         Program Version 4.2.0 -  RELEASE  -
|  1> # ORCA input file
|  2> # SCF done       -181.764406795100          0.000776366582
|  3> ! CAM-B3LYP def2-SVP def2/J RIJCOSX Grid4 TightSCF
|  4> %maxcore 5000
|  5> %tddft
|  6>     Mode sTDDFT
|  7>     Ethresh 5.0
|  8>     maxcore 5000
|  9> end
| 10>
| 11> %pal
| 12>   nprocs 6
| 13>   end
| 14> * xyz 0 1
| 15>    C        2.08036       -15.24532         5.59239
| 16>    C        2.44790       -14.00156         6.07670
| 17>    C        2.38529       -12.80088         5.25807
| 18>    N        2.76558       -11.64608         5.79501
| 19>    C        3.18815       -11.59240         7.04917
| 20>    C        3.23722       -12.77059         7.85015
| 21>    N        2.87551       -13.92734         7.35934
| 22>    C        3.68466       -12.66882         9.19155
| 23>    N        4.05856       -12.50829        10.26279
| 24>    C        3.57468       -10.31893         7.49794
| 25>    N        3.87903        -9.24747         7.78265
| 26>    C        1.92614       -12.84320         3.90323
| 27>    C        1.55828       -14.13334         3.44681
| 28>    C        1.63677       -15.31616         4.27556
| 29>    N        1.24105       -16.41009         3.62154
| 30>    S        0.81459       -16.00422         2.12591
| 31>    N        1.10907       -14.41842         2.22842
| 32>    C        1.82052       -11.71400         3.03797
| 33>    C        2.19281       -10.42699         3.40618
| 34>    C        2.09636        -9.29585         2.62365
| 35>    C        1.56842        -9.34192         1.26750
| 36>    C        1.15382       -10.48575         0.67896
| 37>    S        1.17567       -12.03283         1.42517
| 38>    C        1.61887        -8.00086         0.79779
| 39>    C        2.14874        -7.16009         1.78375
| 40>    C        2.19244        -5.81558         1.33957
| 41>    C        1.71795        -5.68260         0.07511
| 42>    S        1.19357        -7.17029        -0.63972
| 43>    C        2.46730        -7.95084         2.94472
| 44>    C        3.04343        -7.55182         4.15998
| 45>    C        3.48883        -6.28638         4.44549
| 46>    C        4.10949        -5.85710         5.62991
| 47>    N        4.33885        -6.62713         6.74820
| 48>    C        4.99997        -5.87095         7.65743
| 49>    C        5.57477        -5.89631         8.91308
| 50>    C        6.12418        -4.60942         9.10954
| 51>    N        5.87461        -3.82423         8.00515
| 52>    C        5.19681        -4.56517         7.09881
| 53>    C        4.63507        -4.55739         5.83789
| 54>    C        6.86699        -4.08655        10.18450
| 55>    C        7.19761        -4.76362        11.32225
| 56>    C        7.99670        -4.25902        12.37684
| 57>    C        8.60229        -3.01241        12.39302
| 58>    C        9.41263        -2.53622        13.40788
| 59>    C        9.70975        -3.33205        14.59679
| 60>    C        9.22344        -4.57539        14.81289
| 61>    S        8.19506        -5.38937        13.70902
| 62>    C       10.57248        -2.52165        15.38665
| 63>    C       10.81018        -1.30086        14.75058
| 64>    C       11.67128        -0.47852        15.51317
| 65>    C       12.04992        -1.08121        16.67062
| 66>    S       11.38617        -2.66319        16.89158
| 67>    C       10.08691        -1.28250        13.50120
| 68>    C       10.00590        -0.28351        12.52725
| 69>    C       10.63259         0.93674        12.56633
| 70>    C       10.55612         1.95808        11.59894
| 71>    C        9.81109         1.93340        10.37974
| 72>    C        9.81633         3.07433         9.47693
| 73>    N        9.09566         3.03047         8.32971
| 74>    C        8.41140         1.95498         8.05334
| 75>    C        8.41238         0.82766         8.93726
| 76>    N        9.10437         0.85150        10.06488
| 77>    C        7.67905        -0.32381         8.61569
| 78>    N        7.07493        -1.26070         8.33096
| 79>    C        7.64622         1.87880         6.86198
| 80>    N        7.00810         1.74144         5.91997
| 81>    C       10.53763         4.22530         9.74217
| 82>    C       11.27775         4.27061        10.92200
| 83>    C       11.28664         3.15365        11.83772
| 84>    N       12.04930         3.39131        12.90261
| 85>    S       12.68931         4.86349        12.76832
| 86>    N       12.03671         5.27910        11.35847
| 87>    H        2.13910       -16.11714         6.22005
| 88>    H        2.58695       -10.32650         4.40557
| 89>    H        0.77329       -10.50836        -0.33046
| 90>    H        2.54331        -4.97409         1.90743
| 91>    H        1.63738        -4.78273        -0.50269
| 92>    H        3.15936        -8.32183         4.91120
| 93>    H        3.39724        -5.52243         3.69008
| 94>    H        4.06540        -7.59067         6.90420
| 95>    H        5.61242        -6.71357         9.60333
| 96>    H        6.19277        -2.86409         7.92203
| 97>    H        4.59713        -3.75533         5.12843
| 98>    H        7.19584        -3.06541        10.05052
| 99>    H        6.83814        -5.77570        11.44584
|100>    H        8.43184        -2.37626        11.53727
|101>    H        9.45294        -5.14524        15.69916
|102>    H       12.00524         0.50517        15.23989
|103>    H       12.69511        -0.68893        17.43226
|104>    H        9.39028        -0.49505        11.66622
|105>    H       11.25893         1.18405        13.41013
|106>    H       10.51999         5.05145         9.05280
|107> *
|108>
|109>                          ****END OF INPUT****

CARTESIAN COORDINATES (ANGSTROEM)
---------------------------------
  C      2.080360  -15.245320    5.592390
  C      2.447900  -14.001560    6.076700
  C      2.385290  -12.800880    5.258070
  N      2.765580  -11.646080    5.795010
  C      3.188150  -11.592400    7.049170
  C      3.237220  -12.770590    7.850150
  N      2.875510  -13.927340    7.359340
  C      3.684660  -12.668820    9.191550
  N      4.058560  -12.508290   10.262790
  C      3.574680  -10.318930    7.497940
  N      3.879030   -9.247470    7.782650
  C      1.926140  -12.843200    3.903230
  C      1.558280  -14.133340    3.446810
  C      1.636770  -15.316160    4.275560
  N      1.241050  -16.410090    3.621540
  S      0.814590  -16.004220    2.125910
  N      1.109070  -14.418420    2.228420
  C      1.820520  -11.714000    3.037970
  C      2.192810  -10.426990    3.406180
  C      2.096360   -9.295850    2.623650
  C      1.568420   -9.341920    1.267500
  C      1.153820  -10.485750    0.678960
  S      1.175670  -12.032830    1.425170
  C      1.618870   -8.000860    0.797790
  C      2.148740   -7.160090    1.783750
  C      2.192440   -5.815580    1.339570
  C      1.717950   -5.682600    0.075110
  S      1.193570   -7.170290   -0.639720
  C      2.467300   -7.950840    2.944720
  C      3.043430   -7.551820    4.159980
  C      3.488830   -6.286380    4.445490
  C      4.109490   -5.857100    5.629910
  N      4.338850   -6.627130    6.748200
  C      4.999970   -5.870950    7.657430
  C      5.574770   -5.896310    8.913080
  C      6.124180   -4.609420    9.109540
  N      5.874610   -3.824230    8.005150
  C      5.196810   -4.565170    7.098810
  C      4.635070   -4.557390    5.837890
  C      6.866990   -4.086550   10.184500
  C      7.197610   -4.763620   11.322250
  C      7.996700   -4.259020   12.376840
  C      8.602290   -3.012410   12.393020
  C      9.412630   -2.536220   13.407880
  C      9.709750   -3.332050   14.596790
  C      9.223440   -4.575390   14.812890
  S      8.195060   -5.389370   13.709020
  C     10.572480   -2.521650   15.386650
  C     10.810180   -1.300860   14.750580
  C     11.671280   -0.478520   15.513170
  C     12.049920   -1.081210   16.670620
  S     11.386170   -2.663190   16.891580
  C     10.086910   -1.282500   13.501200
  C     10.005900   -0.283510   12.527250
  C     10.632590    0.936740   12.566330
  C     10.556120    1.958080   11.598940
  C      9.811090    1.933400   10.379740
  C      9.816330    3.074330    9.476930
  N      9.095660    3.030470    8.329710
  C      8.411400    1.954980    8.053340
  C      8.412380    0.827660    8.937260
  N      9.104370    0.851500   10.064880
  C      7.679050   -0.323810    8.615690
  N      7.074930   -1.260700    8.330960
  C      7.646220    1.878800    6.861980
  N      7.008100    1.741440    5.919970
  C     10.537630    4.225300    9.742170
  C     11.277750    4.270610   10.922000
  C     11.286640    3.153650   11.837720
  N     12.049300    3.391310   12.902610
  S     12.689310    4.863490   12.768320
  N     12.036710    5.279100   11.358470
  H      2.139100  -16.117140    6.220050
  H      2.586950  -10.326500    4.405570
  H      0.773290  -10.508360   -0.330460
  H      2.543310   -4.974090    1.907430
  H      1.637380   -4.782730   -0.502690
  H      3.159360   -8.321830    4.911200
  H      3.397240   -5.522430    3.690080
  H      4.065400   -7.590670    6.904200
  H      5.612420   -6.713570    9.603330
  H      6.192770   -2.864090    7.922030
  H      4.597130   -3.755330    5.128430
  H      7.195840   -3.065410   10.050520
  H      6.838140   -5.775700   11.445840
  H      8.431840   -2.376260   11.537270
  H      9.452940   -5.145240   15.699160
  H     12.005240    0.505170   15.239890
  H     12.695110   -0.688930   17.432260
  H      9.390280   -0.495050   11.666220
  H     11.258930    1.184050   13.410130
  H     10.519990    5.051450    9.052800

 Total Charge           Charge          ....    0
 Multiplicity           Mult            ....    1
 Number of Electrons    NEL             ....  526
 Basis Dimension        Dim             .... 1132

ORBITAL ENERGIES
----------------

  NO   OCC          E(Eh)            E(eV)
   0   2.0000     -89.023870     -2422.4626
   1   2.0000     -89.021372     -2422.3947
   2   2.0000     -88.985810     -2421.4270
   3   2.0000     -88.965017     -2420.8612
   4   2.0000     -88.961398     -2420.7627
   5   2.0000     -88.961390     -2420.7625
   6   2.0000     -14.452448      -393.2711
   7   2.0000     -14.450900      -393.2290
   8   2.0000     -14.442970      -393.0132
   9   2.0000     -14.442581      -393.0026
  10   2.0000     -14.441138      -392.9634
  11   2.0000     -14.440714      -392.9518
  12   2.0000     -14.439835      -392.9279
  13   2.0000     -14.439659      -392.9231
  14   2.0000     -14.438741      -392.8981
  15   2.0000     -14.436237      -392.8300
  16   2.0000     -14.430687      -392.6790
  17   2.0000     -14.428199      -392.6113
  18   2.0000     -14.423923      -392.4949
  19   2.0000     -14.423211      -392.4755
  20   2.0000     -10.370190      -282.1872
  21   2.0000     -10.368454      -282.1400
  22   2.0000     -10.360855      -281.9332
  23   2.0000     -10.358190      -281.8607
  24   2.0000     -10.342132      -281.4237
  25   2.0000     -10.338732      -281.3312
  26   2.0000     -10.338355      -281.3209
  27   2.0000     -10.337092      -281.2866
  28   2.0000     -10.333658      -281.1931
  29   2.0000     -10.331893      -281.1451
  30   2.0000     -10.330257      -281.1006
  31   2.0000     -10.329981      -281.0931
  32   2.0000     -10.327821      -281.0343
  33   2.0000     -10.325126      -280.9610
  34   2.0000     -10.322259      -280.8829
  35   2.0000     -10.321120      -280.8520
  36   2.0000     -10.320956      -280.8475
  37   2.0000     -10.317480      -280.7529
  38   2.0000     -10.317387      -280.7504
  39   2.0000     -10.317181      -280.7448
  40   2.0000     -10.316632      -280.7298
  41   2.0000     -10.309539      -280.5368
  42   2.0000     -10.309257      -280.5291
  43   2.0000     -10.307991      -280.4947
  44   2.0000     -10.307464      -280.4803
  45   2.0000     -10.304375      -280.3963
  46   2.0000     -10.302184      -280.3367
  47   2.0000     -10.300955      -280.3032
  48   2.0000     -10.299867      -280.2736
  49   2.0000     -10.299674      -280.2684
  50   2.0000     -10.296781      -280.1897
  51   2.0000     -10.296423      -280.1799
  52   2.0000     -10.295171      -280.1458
  53   2.0000     -10.295043      -280.1424
  54   2.0000     -10.293023      -280.0874
  55   2.0000     -10.292566      -280.0750
  56   2.0000     -10.291558      -280.0475
  57   2.0000     -10.289524      -279.9922
  58   2.0000     -10.288879      -279.9746
  59   2.0000     -10.285777      -279.8902
  60   2.0000     -10.283346      -279.8241
  61   2.0000     -10.282866      -279.8110
  62   2.0000     -10.282392      -279.7981
  63   2.0000     -10.280869      -279.7567
  64   2.0000     -10.280402      -279.7439
  65   2.0000     -10.279655      -279.7236
  66   2.0000     -10.277715      -279.6708
  67   2.0000     -10.273951      -279.5684
  68   2.0000     -10.270082      -279.4631
  69   2.0000     -10.269868      -279.4573
  70   2.0000     -10.268230      -279.4128
  71   2.0000     -10.264952      -279.3236
  72   2.0000      -8.115311      -220.8288
  73   2.0000      -8.113128      -220.7694
  74   2.0000      -8.081059      -219.8968
  75   2.0000      -8.060588      -219.3397
  76   2.0000      -8.056912      -219.2397
  77   2.0000      -8.055625      -219.2047
  78   2.0000      -6.086544      -165.6233
  79   2.0000      -6.084289      -165.5619
  80   2.0000      -6.078840      -165.4137
  81   2.0000      -6.077692      -165.3824
  82   2.0000      -6.076540      -165.3511
  83   2.0000      -6.075647      -165.3268
  84   2.0000      -6.050377      -164.6391
  85   2.0000      -6.045957      -164.5188
  86   2.0000      -6.043344      -164.4478
  87   2.0000      -6.029958      -164.0835
  88   2.0000      -6.026289      -163.9836
  89   2.0000      -6.025686      -163.9673
  90   2.0000      -6.025353      -163.9582
  91   2.0000      -6.022735      -163.8869
  92   2.0000      -6.022077      -163.8690
  93   2.0000      -6.020506      -163.8263
  94   2.0000      -6.019006      -163.7855
  95   2.0000      -6.017266      -163.7381
  96   2.0000      -1.123411       -30.5696
  97   2.0000      -1.119719       -30.4691
  98   2.0000      -1.105084       -30.0709
  99   2.0000      -1.102331       -29.9959
 100   2.0000      -1.085582       -29.5402
 101   2.0000      -1.047773       -28.5113
 102   2.0000      -1.033539       -28.1240
 103   2.0000      -1.031619       -28.0718
 104   2.0000      -1.019616       -27.7452
 105   2.0000      -1.017536       -27.6886
 106   2.0000      -1.013198       -27.5705
 107   2.0000      -1.010593       -27.4996
 108   2.0000      -1.000573       -27.2270
 109   2.0000      -0.999772       -27.2052
 110   2.0000      -0.987249       -26.8644
 111   2.0000      -0.980099       -26.6699
 112   2.0000      -0.975301       -26.5393
 113   2.0000      -0.968343       -26.3500
 114   2.0000      -0.957301       -26.0495
 115   2.0000      -0.955844       -26.0098
 116   2.0000      -0.936430       -25.4816
 117   2.0000      -0.928838       -25.2750
 118   2.0000      -0.916331       -24.9346
 119   2.0000      -0.901990       -24.5444
 120   2.0000      -0.895342       -24.3635
 121   2.0000      -0.893498       -24.3133
 122   2.0000      -0.888691       -24.1825
 123   2.0000      -0.886232       -24.1156
 124   2.0000      -0.879585       -23.9347
 125   2.0000      -0.859726       -23.3943
 126   2.0000      -0.857313       -23.3287
 127   2.0000      -0.855488       -23.2790
 128   2.0000      -0.852131       -23.1877
 129   2.0000      -0.842332       -22.9210
 130   2.0000      -0.832864       -22.6634
 131   2.0000      -0.821002       -22.3406
 132   2.0000      -0.819359       -22.2959
 133   2.0000      -0.815960       -22.2034
 134   2.0000      -0.811323       -22.0772
 135   2.0000      -0.802516       -21.8376
 136   2.0000      -0.794146       -21.6098
 137   2.0000      -0.783743       -21.3267
 138   2.0000      -0.778262       -21.1776
 139   2.0000      -0.762547       -20.7500
 140   2.0000      -0.746810       -20.3217
 141   2.0000      -0.737852       -20.0780
 142   2.0000      -0.732347       -19.9282
 143   2.0000      -0.722101       -19.6494
 144   2.0000      -0.717974       -19.5371
 145   2.0000      -0.710252       -19.3269
 146   2.0000      -0.697695       -18.9852
 147   2.0000      -0.690790       -18.7973
 148   2.0000      -0.689220       -18.7546
 149   2.0000      -0.686858       -18.6903
 150   2.0000      -0.684315       -18.6212
 151   2.0000      -0.682170       -18.5628
 152   2.0000      -0.675344       -18.3770
 153   2.0000      -0.671927       -18.2841
 154   2.0000      -0.665909       -18.1203
 155   2.0000      -0.663631       -18.0583
 156   2.0000      -0.656327       -17.8596
 157   2.0000      -0.650880       -17.7113
 158   2.0000      -0.647001       -17.6058
 159   2.0000      -0.636456       -17.3189
 160   2.0000      -0.634847       -17.2751
 161   2.0000      -0.634124       -17.2554
 162   2.0000      -0.629993       -17.1430
 163   2.0000      -0.620901       -16.8956
 164   2.0000      -0.618481       -16.8297
 165   2.0000      -0.613080       -16.6828
 166   2.0000      -0.609609       -16.5883
 167   2.0000      -0.593910       -16.1611
 168   2.0000      -0.589335       -16.0366
 169   2.0000      -0.587372       -15.9832
 170   2.0000      -0.584480       -15.9045
 171   2.0000      -0.576276       -15.6813
 172   2.0000      -0.570508       -15.5243
 173   2.0000      -0.565828       -15.3970
 174   2.0000      -0.565429       -15.3861
 175   2.0000      -0.561578       -15.2813
 176   2.0000      -0.556914       -15.1544
 177   2.0000      -0.556473       -15.1424
 178   2.0000      -0.552158       -15.0250
 179   2.0000      -0.546787       -14.8788
 180   2.0000      -0.542903       -14.7731
 181   2.0000      -0.542530       -14.7630
 182   2.0000      -0.538740       -14.6599
 183   2.0000      -0.536428       -14.5970
 184   2.0000      -0.532138       -14.4802
 185   2.0000      -0.525664       -14.3040
 186   2.0000      -0.522889       -14.2285
 187   2.0000      -0.518539       -14.1102
 188   2.0000      -0.518404       -14.1065
 189   2.0000      -0.518228       -14.1017
 190   2.0000      -0.514487       -13.9999
 191   2.0000      -0.513900       -13.9839
 192   2.0000      -0.511463       -13.9176
 193   2.0000      -0.510723       -13.8975
 194   2.0000      -0.508652       -13.8411
 195   2.0000      -0.505906       -13.7664
 196   2.0000      -0.495595       -13.4858
 197   2.0000      -0.490482       -13.3467
 198   2.0000      -0.487346       -13.2614
 199   2.0000      -0.482295       -13.1239
 200   2.0000      -0.481024       -13.0893
 201   2.0000      -0.479172       -13.0389
 202   2.0000      -0.477604       -12.9963
 203   2.0000      -0.476862       -12.9761
 204   2.0000      -0.476101       -12.9554
 205   2.0000      -0.472057       -12.8453
 206   2.0000      -0.468765       -12.7557
 207   2.0000      -0.467040       -12.7088
 208   2.0000      -0.466388       -12.6911
 209   2.0000      -0.463723       -12.6185
 210   2.0000      -0.460855       -12.5405
 211   2.0000      -0.458962       -12.4890
 212   2.0000      -0.456687       -12.4271
 213   2.0000      -0.454506       -12.3678
 214   2.0000      -0.451491       -12.2857
 215   2.0000      -0.450372       -12.2552
 216   2.0000      -0.449922       -12.2430
 217   2.0000      -0.446907       -12.1610
 218   2.0000      -0.446408       -12.1474
 219   2.0000      -0.443929       -12.0799
 220   2.0000      -0.442412       -12.0386
 221   2.0000      -0.440584       -11.9889
 222   2.0000      -0.439629       -11.9629
 223   2.0000      -0.436459       -11.8767
 224   2.0000      -0.432969       -11.7817
 225   2.0000      -0.432323       -11.7641
 226   2.0000      -0.431446       -11.7402
 227   2.0000      -0.426912       -11.6169
 228   2.0000      -0.425581       -11.5806
 229   2.0000      -0.424100       -11.5404
 230   2.0000      -0.423231       -11.5167
 231   2.0000      -0.421502       -11.4697
 232   2.0000      -0.420433       -11.4406
 233   2.0000      -0.416516       -11.3340
 234   2.0000      -0.410759       -11.1773
 235   2.0000      -0.407917       -11.1000
 236   2.0000      -0.400597       -10.9008
 237   2.0000      -0.400242       -10.8911
 238   2.0000      -0.396842       -10.7986
 239   2.0000      -0.392550       -10.6818
 240   2.0000      -0.390579       -10.6282
 241   2.0000      -0.389757       -10.6058
 242   2.0000      -0.376315       -10.2401
 243   2.0000      -0.373989       -10.1768
 244   2.0000      -0.368741       -10.0339
 245   2.0000      -0.364628        -9.9220
 246   2.0000      -0.363089        -9.8801
 247   2.0000      -0.348126        -9.4730
 248   2.0000      -0.342375        -9.3165
 249   2.0000      -0.341879        -9.3030
 250   2.0000      -0.341372        -9.2892
 251   2.0000      -0.337607        -9.1868
 252   2.0000      -0.335389        -9.1264
 253   2.0000      -0.333706        -9.0806
 254   2.0000      -0.322394        -8.7728
 255   2.0000      -0.305004        -8.2996
 256   2.0000      -0.295467        -8.0401
 257   2.0000      -0.289274        -7.8715
 258   2.0000      -0.282978        -7.7002
 259   2.0000      -0.276557        -7.5255
 260   2.0000      -0.252060        -6.8589
 261   2.0000      -0.226298        -6.1579
 262   2.0000      -0.200221        -5.4483
 263   0.0000      -0.121503        -3.3063
 264   0.0000      -0.105890        -2.8814
 265   0.0000      -0.064745        -1.7618
 266   0.0000      -0.047966        -1.3052
 267   0.0000      -0.043559        -1.1853

MULLIKEN ATOMIC CHARGES
-----------------------
   0 C :   -0.128483
   1 C :    0.043697
   2 C :   -0.073812
   3 N :   -0.002721
   4 C :   -0.163570
   5 C :   -0.107094
   6 N :    0.044557
   7 C :   -0.234623
   8 N :    0.222150
   9 C :   -0.133718
  10 N :    0.155797
  11 C :    0.196778
  12 C :   -0.054564
  13 C :    0.126271
  14 N :   -0.278871
  15 S :    0.511501
  16 N :   -0.336583
  17 C :   -0.144767
  18 C :   -0.047274
  19 C :    0.062010
  20 C :    0.067348
  21 C :   -0.108490
  22 S :    0.155623
  23 C :   -0.099894
  24 C :    0.038741
  25 C :    0.004823
  26 C :   -0.068355
  27 S :    0.141021
  28 C :    0.116310
  29 C :   -0.032715
  30 C :    0.039444
  31 C :    0.098535
  32 N :   -0.021892
  33 C :    0.126667
  34 C :   -0.177060
  35 C :    0.101040
  36 N :   -0.016448
  37 C :    0.155465
  38 C :   -0.186236
  39 C :    0.037306
  40 C :    0.018089
  41 C :   -0.054546
  42 C :   -0.048568
  43 C :    0.085288
  44 C :    0.062266
  45 C :   -0.134852
  46 S :    0.165554
  47 C :   -0.119443
  48 C :    0.062816
  49 C :   -0.006780
  50 C :   -0.066514
  51 S :    0.132130
  52 C :    0.099653
  53 C :    0.013977
  54 C :   -0.122789
  55 C :    0.164897
  56 C :   -0.071917
  57 C :    0.046907
  58 N :    0.040024
  59 C :   -0.128839
  60 C :   -0.168675
  61 N :    0.035889
  62 C :   -0.132996
  63 N :    0.151588
  64 C :   -0.215754
  65 N :    0.218319
  66 C :   -0.130664
  67 C :    0.122189
  68 C :   -0.042379
  69 N :   -0.285922
  70 S :    0.504364
  71 N :   -0.278964
  72 H :   -0.030781
  73 H :    0.000526
  74 H :    0.027859
  75 H :   -0.004560
  76 H :    0.028920
  77 H :   -0.046746
  78 H :   -0.046547
  79 H :    0.117038
  80 H :   -0.021692
  81 H :    0.114590
  82 H :   -0.025071
  83 H :   -0.014285
  84 H :   -0.012694
  85 H :   -0.020693
  86 H :    0.039285
  87 H :    0.002981
  88 H :    0.027702
  89 H :   -0.014658
  90 H :   -0.030036
  91 H :   -0.033401
Sum of atomic charges:   -0.0000000

LOEWDIN ATOMIC CHARGES
----------------------
   0 C :   -0.055240
   1 C :   -0.000815
   2 C :   -0.013797
   3 N :   -0.001618
   4 C :   -0.074914
   5 C :   -0.028719
   6 N :   -0.019386
   7 C :   -0.031986
   8 N :   -0.017841
   9 C :    0.011909
  10 N :   -0.059005
  11 C :   -0.035528
  12 C :   -0.054485
  13 C :   -0.041835
  14 N :   -0.297169
  15 S :    0.638635
  16 N :   -0.306174
  17 C :   -0.170638
  18 C :    0.018773
  19 C :   -0.030505
  20 C :   -0.069292
  21 C :   -0.144635
  22 S :    0.486930
  23 C :   -0.173159
  24 C :   -0.051898
  25 C :   -0.059649
  26 C :   -0.164684
  27 S :    0.435702
  28 C :    0.005943
  29 C :   -0.041870
  30 C :   -0.004950
  31 C :    0.009099
  32 N :    0.071983
  33 C :    0.010749
  34 C :   -0.078744
  35 C :    0.008788
  36 N :    0.077607
  37 C :   -0.005650
  38 C :   -0.074481
  39 C :    0.006583
  40 C :   -0.069671
  41 C :   -0.134945
  42 C :   -0.029041
  43 C :    0.023486
  44 C :   -0.048549
  45 C :   -0.147601
  46 S :    0.481447
  47 C :   -0.203317
  48 C :   -0.033663
  49 C :   -0.061135
  50 C :   -0.162790
  51 S :    0.427266
  52 C :   -0.061687
  53 C :    0.032546
  54 C :   -0.050609
  55 C :    0.004310
  56 C :   -0.025597
  57 C :   -0.001925
  58 N :   -0.016350
  59 C :   -0.028099
  60 C :   -0.084709
  61 N :    0.007107
  62 C :    0.020146
  63 N :   -0.056912
  64 C :   -0.031710
  65 N :   -0.019445
  66 C :   -0.060023
  67 C :   -0.043669
  68 C :   -0.052648
  69 N :   -0.283503
  70 S :    0.642587
  71 N :   -0.298319
  72 H :    0.042137
  73 H :    0.030969
  74 H :    0.033669
  75 H :    0.030312
  76 H :    0.025338
  77 H :    0.026743
  78 H :    0.034677
  79 H :    0.061741
  80 H :    0.028910
  81 H :    0.060811
  82 H :    0.027916
  83 H :    0.032440
  84 H :    0.027160
  85 H :    0.038961
  86 H :    0.037793
  87 H :    0.034331
  88 H :    0.024783
  89 H :    0.023946
  90 H :    0.029393
  91 H :    0.040955

  Mayer bond orders larger than 0.100000
B(  0-C ,  1-C ) :   1.3422 B(  0-C , 13-C ) :   1.1483 B(  0-C , 72-H ) :   1.0586
B(  1-C ,  2-C ) :   1.1007 B(  1-C ,  6-N ) :   1.3299 B(  2-C ,  3-N ) :   1.5133
B(  2-C , 11-C ) :   1.1659 B(  3-N ,  4-C ) :   1.5990 B(  3-N , 73-H ) :   0.1161
B(  4-C ,  5-C ) :   1.2174 B(  4-C ,  9-C ) :   1.1901 B(  5-C ,  6-N ) :   1.7648
B(  5-C ,  7-C ) :   1.1637 B(  7-C ,  8-N ) :   3.0436 B(  9-C , 10-N ) :   2.9082
B( 10-N , 79-H ) :   0.1242 B( 11-C , 12-C ) :   1.1597 B( 11-C , 17-C ) :   1.3043
B( 12-C , 13-C ) :   1.1274 B( 12-C , 16-N ) :   1.4894 B( 13-C , 14-N ) :   1.5026
B( 14-N , 15-S ) :   1.2543 B( 14-N , 16-N ) :   0.1370 B( 15-S , 16-N ) :   1.2376
B( 17-C , 18-C ) :   1.3754 B( 17-C , 22-S ) :   1.0460 B( 18-C , 19-C ) :   1.3645
B( 18-C , 73-H ) :   0.9282 B( 19-C , 20-C ) :   1.0593 B( 19-C , 28-C ) :   1.2156
B( 20-C , 21-C ) :   1.5982 B( 20-C , 23-C ) :   1.1590 B( 21-C , 22-S ) :   1.1288
B( 21-C , 74-H ) :   0.9403 B( 23-C , 24-C ) :   1.4327 B( 23-C , 27-S ) :   1.1040
B( 24-C , 25-C ) :   1.1961 B( 24-C , 28-C ) :   1.0948 B( 25-C , 26-C ) :   1.6115
B( 25-C , 75-H ) :   0.9974 B( 26-C , 27-S ) :   1.1377 B( 26-C , 76-H ) :   0.9641
B( 28-C , 29-C ) :   1.2965 B( 29-C , 30-C ) :   1.4534 B( 29-C , 77-H ) :   0.9591
B( 30-C , 31-C ) :   1.2391 B( 30-C , 78-H ) :   0.9587 B( 31-C , 32-N ) :   1.2001
B( 31-C , 38-C ) :   1.2621 B( 32-N , 33-C ) :   1.1966 B( 32-N , 79-H ) :   0.8842
B( 33-C , 34-C ) :   1.3217 B( 33-C , 37-C ) :   1.2298 B( 34-C , 35-C ) :   1.3145
B( 34-C , 80-H ) :   1.0353 B( 35-C , 36-N ) :   1.2014 B( 35-C , 39-C ) :   1.1766
B( 36-N , 37-C ) :   1.1938 B( 36-N , 81-H ) :   0.8811 B( 37-C , 38-C ) :   1.2920
B( 38-C , 82-H ) :   1.0435 B( 39-C , 40-C ) :   1.5990 B( 39-C , 83-H ) :   0.9502
B( 40-C , 41-C ) :   1.1574 B( 40-C , 84-H ) :   0.9653 B( 41-C , 42-C ) :   1.4340
B( 41-C , 46-S ) :   1.0950 B( 42-C , 43-C ) :   1.3438 B( 42-C , 85-H ) :   0.9647
B( 43-C , 44-C ) :   1.0732 B( 43-C , 52-C ) :   1.2356 B( 44-C , 45-C ) :   1.5903
B( 44-C , 47-C ) :   1.1675 B( 45-C , 46-S ) :   1.1468 B( 45-C , 86-H ) :   0.9411
B( 47-C , 48-C ) :   1.4554 B( 47-C , 51-S ) :   1.0830 B( 48-C , 49-C ) :   1.2208
B( 48-C , 52-C ) :   1.0569 B( 49-C , 50-C ) :   1.5842 B( 49-C , 87-H ) :   1.0014
B( 50-C , 51-S ) :   1.1570 B( 50-C , 88-H ) :   0.9636 B( 52-C , 53-C ) :   1.2977
B( 53-C , 54-C ) :   1.3777 B( 53-C , 89-H ) :   0.9387 B( 54-C , 55-C ) :   1.3497
B( 54-C , 90-H ) :   0.9752 B( 55-C , 56-C ) :   1.1253 B( 55-C , 66-C ) :   0.1013
B( 55-C , 68-C ) :   1.1457 B( 56-C , 57-C ) :   1.0970 B( 56-C , 61-N ) :   1.5189
B( 57-C , 58-N ) :   1.3184 B( 57-C , 66-C ) :   1.3553 B( 58-N , 59-C ) :   1.7848
B( 59-C , 60-C ) :   1.2085 B( 59-C , 64-C ) :   1.1531 B( 60-C , 61-N ) :   1.6375
B( 60-C , 62-C ) :   1.1679 B( 62-C , 63-N ) :   2.8889 B( 63-N , 81-H ) :   0.1377
B( 64-C , 65-N ) :   3.0454 B( 66-C , 67-C ) :   1.1391 B( 66-C , 91-H ) :   1.0566
B( 67-C , 68-C ) :   1.1326 B( 67-C , 71-N ) :   1.4957 B( 68-C , 69-N ) :   1.5547
B( 69-N , 70-S ) :   1.2648 B( 69-N , 71-N ) :   0.1455 B( 70-S , 71-N ) :   1.2596

-----------------------------------------------------------------------------
         ABSORPTION SPECTRUM VIA TRANSITION ELECTRIC DIPOLE MOMENTS
-----------------------------------------------------------------------------
State   Energy  Wavelength   fosc         T2         TX        TY        TZ
        (cm-1)    (nm)                  (au**2)     (au)      (au)      (au)
-----------------------------------------------------------------------------
   0    3977.4   2514.2   0.374447730  30.99296  -2.09034  -5.00585  -1.25097
   1    7935.4   1260.2   0.203018423   8.42257  -1.40904  -2.49555  -0.45763
   2   12051.3    829.8   0.018402932   0.50272   0.06251  -0.39826   0.58327
   3   14026.8    712.9   0.830692046  19.49649  -1.83522   0.21420  -4.01031
   4   16249.7    615.4   0.150141162   3.04180   0.87258   1.20308   0.91268
   5   17053.7    586.4   0.671340480  12.95986  -1.70240  -0.95279  -3.02554
   6   18777.5    532.6   0.004528607   0.07940   0.01826  -0.26873   0.08274
   7   18943.3    527.9   0.041603712   0.72302   0.44977   0.42835   0.58073
   8   19592.4    510.4   0.123966615   2.08302  -0.43123  -1.21357  -0.65139
   9   20130.3    496.8   0.011175969   0.18277  -0.15452  -0.30527  -0.25633
  10   21044.6    475.2   0.107938573   1.68854   0.62785   0.11694   1.13167
  11   21402.9    467.2   0.087436959   1.34492   0.48550   0.09832   1.04859
  12   21664.5    461.6   0.170323275   2.58821  -0.89758  -0.63338  -1.17533
  13   22864.4    437.4   0.007301101   0.10512   0.20992  -0.13332  -0.20805
  14   23034.2    434.1   0.069926264   0.99941  -0.34477  -0.90077  -0.26296
  15   23486.0    425.8   0.067326613   0.94374  -0.06376   0.67817  -0.69265
  16   24555.8    407.2   0.033544831   0.44973   0.37827   0.14950   0.53319
  17   24594.6    406.6   0.150760623   2.01801   0.01390   1.10516  -0.89243
  18   25101.0    398.4   0.039245077   0.51472  -0.12939   0.36479  -0.60408
  19   25252.8    396.0   0.034273018   0.44681   0.28165   0.05754   0.60346
  20   25720.1    388.8   0.059611796   0.76302  -0.19143  -0.80123   0.29052
  21   25953.1    385.3   0.001719007   0.02181  -0.11692   0.01166   0.08944
  22   26309.7    380.1   0.029614465   0.37056   0.28162   0.04603   0.53771
  23   26541.1    376.8   0.042788704   0.53074   0.33239   0.64825   0.00556
  24   26743.7    373.9   0.002915875   0.03589   0.15142  -0.06902  -0.09058
  25   27016.5    370.1   0.204440268   2.49122   0.61975  -0.43947   1.38348
  26   27300.3    366.3   0.057899374   0.69820   0.18880  -0.27157   0.76734
  27   28286.9    353.5   0.001448435   0.01686   0.06298   0.04300   0.10508
  28   28971.2    345.2   0.000779411   0.00886  -0.08219   0.04182  -0.01877
  29   29162.4    342.9   0.003657081   0.04128   0.03235  -0.20025   0.01178
  30   29927.2    334.1   0.024591455   0.27052   0.25049   0.26030   0.37418
  31   30411.3    328.8   0.040167515   0.43483  -0.07290   0.45521  -0.47148
  32   30970.0    322.9   0.138739316   1.47480  -0.43304  -0.74425  -0.85637
  33   31125.5    321.3   0.198897152   2.10372  -0.54338  -0.53202  -1.23508
  34   31692.7    315.5   0.281970359   2.92900   0.92193   0.51065   1.34844
  35   31827.9    314.2   0.140366573   1.45188  -0.80410  -0.65398  -0.61451
  36   32130.2    311.2   0.168593289   1.72744  -0.03492  -1.16710   0.60340
  37   32347.6    309.1   0.048975021   0.49843   0.18280   0.68084  -0.03835
  38   32446.4    308.2   0.132681428   1.34623  -0.23184   0.52222  -1.00984
  39   32560.6    307.1   0.031468238   0.31817   0.41303   0.19893   0.32863
  40   32762.7    305.2   0.000142878   0.00144   0.02861  -0.01655  -0.01853
  41   32951.5    303.5   0.001073542   0.01073  -0.05340  -0.08139  -0.03536
  42   33210.3    301.1   0.106662370   1.05734  -0.39738  -0.76797  -0.55646
  43   33763.1    296.2   0.093131666   0.90809   0.21396   0.63718   0.67551
  44   33908.3    294.9   0.166633053   1.61782  -0.46165  -0.63330  -1.00182
  45   34277.4    291.7   0.165078856   1.58548   0.44497  -0.04693   1.17698
  46   34434.5    290.4   0.050824573   0.48591   0.04338  -0.59070   0.36756
  47   34727.6    288.0   0.011372692   0.10781  -0.08034  -0.31280   0.05928
  48   34900.8    286.5   0.009283794   0.08757  -0.17766  -0.22044   0.08609
  49   34966.9    286.0   0.000014975   0.00014  -0.00580  -0.00197   0.01018
  50   35264.4    283.6   0.277185649   2.58767   0.94518   1.14777   0.61394
  51   35490.3    281.8   0.120415874   1.11699   0.38236   0.98232  -0.07642
  52   35841.7    279.0   0.060808728   0.55854   0.53245   0.24027   0.46616
  53   36276.9    275.7   0.170628410   1.54845   0.70281   0.81128   0.62954
  54   36591.3    273.3   0.331574983   2.98318  -0.57351  -0.11929  -1.62482
  55   36967.4    270.5   0.000169438   0.00151   0.01093  -0.01940   0.03183
  56   37406.5    267.3   0.093507063   0.82295  -0.07029  -0.86043   0.27868
  57   37582.6    266.1   0.157768364   1.38200   0.41119   1.08199   0.20549
  58   37854.3    264.2   0.037151885   0.32310  -0.35627  -0.35353  -0.26682
  59   38101.9    262.5   0.050607236   0.43726  -0.25855  -0.26051  -0.55004
  60   38457.5    260.0   0.090829235   0.77753   0.46366   0.73828   0.13226
  61   38630.7    258.9   0.178401815   1.52034   0.67021   0.96583   0.37195
  62   38686.9    258.5   0.251257247   2.13811  -0.32008  -1.41988  -0.14003
  63   38789.1    257.8   0.001009580   0.00857  -0.05764   0.04297   0.05830
  64   38818.2    257.6   0.108457371   0.91981  -0.34374  -0.31727  -0.83726
  65   38907.5    257.0   0.150372662   1.27236  -0.48976  -0.99266  -0.21708
  66   39063.2    256.0   0.033665981   0.28373   0.30314  -0.14027   0.41491
  67   39126.7    255.6   0.001112551   0.00936   0.01591   0.04882  -0.08200
  68   39192.6    255.2   0.008185403   0.06876  -0.05792   0.21199  -0.14305
  69   39346.8    254.2   0.114777916   0.96034  -0.31136  -0.92895  -0.02099
  70   39489.4    253.2   0.052402500   0.43687   0.26838   0.53040   0.28899
  71   39705.3    251.9   0.167758056   1.39095   0.54796   1.02626   0.19358
  72   39806.1    251.2   0.028903095   0.23904  -0.07314   0.47207  -0.10411
  73   39881.4    250.7   0.202151345   1.66871   0.87044   0.38761   0.87224
  74   40233.0    248.6   0.088718177   0.72595   0.50242   0.52045   0.45018

FINAL SINGLE POINT ENERGY     -5144.849014628517

DIPOLE MOMENT
-------------
                                X             Y             Z
Electronic contribution:     -4.61770     -16.49835      -6.53619
Nuclear contribution   :      4.80254      16.27405       6.52159
                        -----------------------------------------
Total Dipole Moment    :      0.18484      -0.22430      -0.01460
                        -----------------------------------------
Magnitude (a.u.)       :      0.29102
Magnitude (Debye)      :      0.73971

Rotational constants in cm-1:     0.001405     0.000256     0.000218
Rotational constants in MHz :    42.108593     7.666609     6.521152

                             ****ORCA TERMINATED NORMALLY****
TOTAL RUN TIME: 0 days 0 hours 10 minutes 28 seconds 60 msec
