                         Program Version 4.2.0 -  RELEASE  -
|  1> # ORCA input file
|  2> # SCF done       -177.952197010492          0.000461961053
|  3> ! CAM-B3LYP def2-SVP def2/J RIJCOSX Grid4 TightSCF
|  4> %maxcore 5000
|  5> %tddft
|  6>     Mode sTDDFT
|  7>     Ethresh 5.0
|  8>     maxcore 5000
|  9> end
| 10>
| 11> %pal
| 12>   nprocs 6
| 13>   end
| 14> * xyz 0 1
| 15>    C       -7.41107        -1.82618         1.21805
| 16>    C       -6.62346        -2.40857         2.21159
| 17>    C       -5.20737        -2.61356         2.02678
| 18>    N       -4.51090        -3.30008         2.94363
| 19>    C       -5.09302        -3.64917         4.05724
| 20>    C       -6.47190        -3.30726         4.30851
| 21>    N       -7.20106        -2.75537         3.37889
| 22>    C       -7.05788        -3.62267         5.56160
| 23>    N       -7.49605        -3.88875         6.58535
| 24>    C       -4.38112        -4.42197         5.00998
| 25>    N       -3.85066        -5.04678         5.80951
| 26>    C       -4.55243        -2.16796         0.85567
| 27>    C       -5.35003        -1.56470        -0.12314
| 28>    C       -6.78243        -1.41774         0.05504
| 29>    N       -7.34447        -0.80832        -1.00516
| 30>    S       -6.21830        -0.47938        -2.06998
| 31>    N       -4.94243        -1.02131        -1.27933
| 32>    C       -3.12383        -2.29589         0.74521
| 33>    N       -2.35686        -2.08342         1.79355
| 34>    C       -1.08687        -2.25776         1.36924
| 35>    C       -1.05163        -2.61416        -0.06092
| 36>    C        0.34061        -2.81976        -0.50476
| 37>    O        0.74283        -3.11212        -1.60832
| 38>    C        1.11017        -2.57684         0.72818
| 39>    C        0.19739        -2.22787         1.84441
| 40>    N        0.90041        -2.01692         2.98471
| 41>    C        2.15148        -2.21699         2.65920
| 42>    C        2.35426        -2.57781         1.26572
| 43>    C       -2.35793        -2.66447        -0.47394
| 44>    C       -2.91667        -3.06981        -1.72387
| 45>    C       -2.15793        -3.34469        -2.80564
| 46>    C       -2.65449        -3.80339        -4.07193
| 47>    C       -1.79403        -4.34821        -5.02519
| 48>    C       -0.41330        -4.54347        -4.91004
| 49>    N        0.71220        -4.75236        -4.84464
| 50>    S       -2.59706        -4.86967        -6.45837
| 51>    C       -4.12839        -4.37573        -5.82303
| 52>    C       -3.99596        -3.81855        -4.54912
| 53>    C       -5.09827        -3.22761        -3.91281
| 54>    N       -5.97304        -2.67222        -3.41668
| 55>    C       -5.37172        -4.59611        -6.47909
| 56>    N       -6.48454        -4.58007        -5.76467
| 57>    C       -7.48164        -4.87626        -6.62325
| 58>    C       -6.96534        -5.10170        -7.98047
| 59>    C       -8.06897        -5.41831        -8.90624
| 60>    O       -8.01470        -5.66815       -10.08906
| 61>    C       -9.25200        -5.35682        -8.02651
| 62>    C       -8.84565        -5.02592        -6.64025
| 63>    N       -9.92868        -4.95270        -5.82974
| 64>    C      -10.95405        -5.20554        -6.60326
| 65>    C      -10.60319        -5.46055        -7.99078
| 66>    C       -5.60723        -4.90228        -7.91268
| 67>    C       -4.61049        -4.87774        -8.92338
| 68>    C       -4.82252        -5.24386       -10.21125
| 69>    C       -3.85693        -5.17614       -11.26461
| 70>    C       -2.55916        -4.60841       -11.17998
| 71>    C       -1.67776        -4.56283       -12.32736
| 72>    N       -0.45565        -3.99690       -12.22204
| 73>    C       -0.07993        -3.49560       -11.07840
| 74>    C       -0.94877        -3.54490        -9.93531
| 75>    N       -2.13815        -4.08643       -10.01751
| 76>    C       -0.57027        -3.00734        -8.67989
| 77>    N       -0.30422        -2.58022        -7.65057
| 78>    C        1.19571        -2.88325       -10.96239
| 79>    N        2.21097        -2.37313       -10.82367
| 80>    C       -2.05029        -5.08137       -13.56440
| 81>    C       -3.31297        -5.64682       -13.66768
| 82>    C       -4.20849        -5.69220       -12.52941
| 83>    N       -5.36797        -6.27619       -12.84381
| 84>    S       -5.33746        -6.70843       -14.38002
| 85>    N       -3.87108        -6.19906       -14.75522
| 86>    H       -8.46512        -1.67347         1.37914
| 87>    H        2.92843        -2.10935         3.39616
| 88>    H        3.30010        -2.78725         0.80693
| 89>    H       -3.98937        -3.17964        -1.76533
| 90>    H       -1.07951        -3.26338        -2.73826
| 91>    H      -11.95117        -5.21391        -6.19865
| 92>    H      -11.29646        -5.68110        -8.77796
| 93>    H       -3.63502        -4.51400        -8.64081
| 94>    H       -5.78974        -5.62776       -10.51259
| 95>    H       -1.37412        -5.03392       -14.40086
| 96> *
| 97>
| 98>                          ****END OF INPUT****

CARTESIAN COORDINATES (ANGSTROEM)
---------------------------------
  C     -7.411070   -1.826180    1.218050
  C     -6.623460   -2.408570    2.211590
  C     -5.207370   -2.613560    2.026780
  N     -4.510900   -3.300080    2.943630
  C     -5.093020   -3.649170    4.057240
  C     -6.471900   -3.307260    4.308510
  N     -7.201060   -2.755370    3.378890
  C     -7.057880   -3.622670    5.561600
  N     -7.496050   -3.888750    6.585350
  C     -4.381120   -4.421970    5.009980
  N     -3.850660   -5.046780    5.809510
  C     -4.552430   -2.167960    0.855670
  C     -5.350030   -1.564700   -0.123140
  C     -6.782430   -1.417740    0.055040
  N     -7.344470   -0.808320   -1.005160
  S     -6.218300   -0.479380   -2.069980
  N     -4.942430   -1.021310   -1.279330
  C     -3.123830   -2.295890    0.745210
  N     -2.356860   -2.083420    1.793550
  C     -1.086870   -2.257760    1.369240
  C     -1.051630   -2.614160   -0.060920
  C      0.340610   -2.819760   -0.504760
  O      0.742830   -3.112120   -1.608320
  C      1.110170   -2.576840    0.728180
  C      0.197390   -2.227870    1.844410
  N      0.900410   -2.016920    2.984710
  C      2.151480   -2.216990    2.659200
  C      2.354260   -2.577810    1.265720
  C     -2.357930   -2.664470   -0.473940
  C     -2.916670   -3.069810   -1.723870
  C     -2.157930   -3.344690   -2.805640
  C     -2.654490   -3.803390   -4.071930
  C     -1.794030   -4.348210   -5.025190
  C     -0.413300   -4.543470   -4.910040
  N      0.712200   -4.752360   -4.844640
  S     -2.597060   -4.869670   -6.458370
  C     -4.128390   -4.375730   -5.823030
  C     -3.995960   -3.818550   -4.549120
  C     -5.098270   -3.227610   -3.912810
  N     -5.973040   -2.672220   -3.416680
  C     -5.371720   -4.596110   -6.479090
  N     -6.484540   -4.580070   -5.764670
  C     -7.481640   -4.876260   -6.623250
  C     -6.965340   -5.101700   -7.980470
  C     -8.068970   -5.418310   -8.906240
  O     -8.014700   -5.668150  -10.089060
  C     -9.252000   -5.356820   -8.026510
  C     -8.845650   -5.025920   -6.640250
  N     -9.928680   -4.952700   -5.829740
  C    -10.954050   -5.205540   -6.603260
  C    -10.603190   -5.460550   -7.990780
  C     -5.607230   -4.902280   -7.912680
  C     -4.610490   -4.877740   -8.923380
  C     -4.822520   -5.243860  -10.211250
  C     -3.856930   -5.176140  -11.264610
  C     -2.559160   -4.608410  -11.179980
  C     -1.677760   -4.562830  -12.327360
  N     -0.455650   -3.996900  -12.222040
  C     -0.079930   -3.495600  -11.078400
  C     -0.948770   -3.544900   -9.935310
  N     -2.138150   -4.086430  -10.017510
  C     -0.570270   -3.007340   -8.679890
  N     -0.304220   -2.580220   -7.650570
  C      1.195710   -2.883250  -10.962390
  N      2.210970   -2.373130  -10.823670
  C     -2.050290   -5.081370  -13.564400
  C     -3.312970   -5.646820  -13.667680
  C     -4.208490   -5.692200  -12.529410
  N     -5.367970   -6.276190  -12.843810
  S     -5.337460   -6.708430  -14.380020
  N     -3.871080   -6.199060  -14.755220
  H     -8.465120   -1.673470    1.379140
  H      2.928430   -2.109350    3.396160
  H      3.300100   -2.787250    0.806930
  H     -3.989370   -3.179640   -1.765330
  H     -1.079510   -3.263380   -2.738260
  H    -11.951170   -5.213910   -6.198650
  H    -11.296460   -5.681100   -8.777960
  H     -3.635020   -4.514000   -8.640810
  H     -5.789740   -5.627760  -10.512590
  H     -1.374120   -5.033920  -14.400860

 Total Charge           Charge          ....    0
 Multiplicity           Mult            ....    1
 Number of Electrons    NEL             ....  488
 Basis Dimension        Dim             .... 1056

ORBITAL ENERGIES
----------------

  NO   OCC          E(Eh)            E(eV)
   0   2.0000     -89.060895     -2423.4702
   1   2.0000     -89.054466     -2423.2952
   2   2.0000     -89.015851     -2422.2445
   3   2.0000     -19.231047      -523.3034
   4   2.0000     -19.217328      -522.9301
   5   2.0000     -14.478782      -393.9877
   6   2.0000     -14.475027      -393.8855
   7   2.0000     -14.464738      -393.6055
   8   2.0000     -14.463362      -393.5681
   9   2.0000     -14.460523      -393.4908
  10   2.0000     -14.456816      -393.3900
  11   2.0000     -14.451297      -393.2398
  12   2.0000     -14.447134      -393.1265
  13   2.0000     -14.446537      -393.1102
  14   2.0000     -14.440159      -392.9367
  15   2.0000     -14.434889      -392.7933
  16   2.0000     -14.432378      -392.7250
  17   2.0000     -14.426312      -392.5599
  18   2.0000     -14.425132      -392.5278
  19   2.0000     -14.424323      -392.5058
  20   2.0000     -14.422124      -392.4460
  21   2.0000     -14.415733      -392.2720
  22   2.0000     -14.410451      -392.1283
  23   2.0000     -10.397898      -282.9412
  24   2.0000     -10.396167      -282.8941
  25   2.0000     -10.390977      -282.7529
  26   2.0000     -10.379773      -282.4480
  27   2.0000     -10.379557      -282.4421
  28   2.0000     -10.376714      -282.3647
  29   2.0000     -10.372498      -282.2500
  30   2.0000     -10.363651      -282.0093
  31   2.0000     -10.361696      -281.9561
  32   2.0000     -10.361364      -281.9471
  33   2.0000     -10.361286      -281.9449
  34   2.0000     -10.355211      -281.7796
  35   2.0000     -10.354719      -281.7662
  36   2.0000     -10.352994      -281.7193
  37   2.0000     -10.352507      -281.7060
  38   2.0000     -10.350839      -281.6606
  39   2.0000     -10.350547      -281.6527
  40   2.0000     -10.348425      -281.5950
  41   2.0000     -10.348114      -281.5865
  42   2.0000     -10.346618      -281.5458
  43   2.0000     -10.345537      -281.5164
  44   2.0000     -10.343245      -281.4540
  45   2.0000     -10.340097      -281.3683
  46   2.0000     -10.339166      -281.3430
  47   2.0000     -10.338881      -281.3353
  48   2.0000     -10.335932      -281.2550
  49   2.0000     -10.334955      -281.2284
  50   2.0000     -10.332758      -281.1686
  51   2.0000     -10.331450      -281.1331
  52   2.0000     -10.331339      -281.1300
  53   2.0000     -10.327390      -281.0226
  54   2.0000     -10.321388      -280.8593
  55   2.0000     -10.320130      -280.8250
  56   2.0000     -10.319928      -280.8195
  57   2.0000     -10.319444      -280.8063
  58   2.0000     -10.317978      -280.7664
  59   2.0000     -10.315633      -280.7026
  60   2.0000     -10.312631      -280.6209
  61   2.0000     -10.311326      -280.5854
  62   2.0000     -10.309781      -280.5434
  63   2.0000     -10.308021      -280.4955
  64   2.0000     -10.305821      -280.4356
  65   2.0000     -10.305092      -280.4158
  66   2.0000     -10.301078      -280.3066
  67   2.0000     -10.296557      -280.1836
  68   2.0000     -10.295565      -280.1566
  69   2.0000     -10.295233      -280.1475
  70   2.0000     -10.293995      -280.1138
  71   2.0000      -8.152068      -221.8290
  72   2.0000      -8.143980      -221.6089
  73   2.0000      -8.109883      -220.6811
  74   2.0000      -6.122879      -166.6120
  75   2.0000      -6.115489      -166.4109
  76   2.0000      -6.115010      -166.3979
  77   2.0000      -6.114399      -166.3813
  78   2.0000      -6.108494      -166.2206
  79   2.0000      -6.106429      -166.1644
  80   2.0000      -6.079159      -165.4223
  81   2.0000      -6.074770      -165.3029
  82   2.0000      -6.072380      -165.2379
  83   2.0000      -1.155796       -31.4508
  84   2.0000      -1.146040       -31.1853
  85   2.0000      -1.144644       -31.1473
  86   2.0000      -1.134915       -30.8826
  87   2.0000      -1.132508       -30.8171
  88   2.0000      -1.119716       -30.4690
  89   2.0000      -1.103166       -30.0187
  90   2.0000      -1.084500       -29.5108
  91   2.0000      -1.081597       -29.4317
  92   2.0000      -1.065771       -29.0011
  93   2.0000      -1.061693       -28.8901
  94   2.0000      -1.045338       -28.4451
  95   2.0000      -1.044421       -28.4201
  96   2.0000      -1.027875       -27.9699
  97   2.0000      -1.016795       -27.6684
  98   2.0000      -1.016288       -27.6546
  99   2.0000      -1.010335       -27.4926
 100   2.0000      -1.007436       -27.4137
 101   2.0000      -1.000042       -27.2125
 102   2.0000      -0.999369       -27.1942
 103   2.0000      -0.994312       -27.0566
 104   2.0000      -0.990174       -26.9440
 105   2.0000      -0.977549       -26.6005
 106   2.0000      -0.958436       -26.0804
 107   2.0000      -0.942571       -25.6486
 108   2.0000      -0.939767       -25.5724
 109   2.0000      -0.931767       -25.3547
 110   2.0000      -0.920205       -25.0401
 111   2.0000      -0.909740       -24.7553
 112   2.0000      -0.906577       -24.6692
 113   2.0000      -0.902807       -24.5666
 114   2.0000      -0.895684       -24.3728
 115   2.0000      -0.887574       -24.1521
 116   2.0000      -0.876846       -23.8602
 117   2.0000      -0.862272       -23.4636
 118   2.0000      -0.852661       -23.2021
 119   2.0000      -0.841545       -22.8996
 120   2.0000      -0.837109       -22.7789
 121   2.0000      -0.833543       -22.6819
 122   2.0000      -0.813835       -22.1456
 123   2.0000      -0.809270       -22.0214
 124   2.0000      -0.804602       -21.8943
 125   2.0000      -0.784705       -21.3529
 126   2.0000      -0.781919       -21.2771
 127   2.0000      -0.772711       -21.0265
 128   2.0000      -0.758624       -20.6432
 129   2.0000      -0.755633       -20.5618
 130   2.0000      -0.746848       -20.3228
 131   2.0000      -0.742651       -20.2086
 132   2.0000      -0.736742       -20.0478
 133   2.0000      -0.724761       -19.7218
 134   2.0000      -0.717275       -19.5180
 135   2.0000      -0.714646       -19.4465
 136   2.0000      -0.709429       -19.3045
 137   2.0000      -0.702689       -19.1211
 138   2.0000      -0.694745       -18.9050
 139   2.0000      -0.687873       -18.7180
 140   2.0000      -0.673911       -18.3380
 141   2.0000      -0.667021       -18.1506
 142   2.0000      -0.665702       -18.1147
 143   2.0000      -0.660500       -17.9731
 144   2.0000      -0.655889       -17.8477
 145   2.0000      -0.648512       -17.6469
 146   2.0000      -0.645099       -17.5540
 147   2.0000      -0.638362       -17.3707
 148   2.0000      -0.634491       -17.2654
 149   2.0000      -0.630738       -17.1632
 150   2.0000      -0.627095       -17.0641
 151   2.0000      -0.625600       -17.0234
 152   2.0000      -0.618803       -16.8385
 153   2.0000      -0.605807       -16.4849
 154   2.0000      -0.603323       -16.4172
 155   2.0000      -0.595887       -16.2149
 156   2.0000      -0.591808       -16.1039
 157   2.0000      -0.586166       -15.9504
 158   2.0000      -0.584908       -15.9161
 159   2.0000      -0.577321       -15.7097
 160   2.0000      -0.573130       -15.5957
 161   2.0000      -0.571178       -15.5425
 162   2.0000      -0.569729       -15.5031
 163   2.0000      -0.565434       -15.3863
 164   2.0000      -0.562349       -15.3023
 165   2.0000      -0.560886       -15.2625
 166   2.0000      -0.557372       -15.1669
 167   2.0000      -0.550107       -14.9692
 168   2.0000      -0.546560       -14.8727
 169   2.0000      -0.546117       -14.8606
 170   2.0000      -0.544465       -14.8156
 171   2.0000      -0.539867       -14.6905
 172   2.0000      -0.538747       -14.6600
 173   2.0000      -0.535538       -14.5727
 174   2.0000      -0.532760       -14.4971
 175   2.0000      -0.529313       -14.4033
 176   2.0000      -0.522638       -14.2217
 177   2.0000      -0.519261       -14.1298
 178   2.0000      -0.512875       -13.9560
 179   2.0000      -0.507484       -13.8094
 180   2.0000      -0.501419       -13.6443
 181   2.0000      -0.500165       -13.6102
 182   2.0000      -0.499141       -13.5823
 183   2.0000      -0.495747       -13.4900
 184   2.0000      -0.494229       -13.4487
 185   2.0000      -0.492887       -13.4121
 186   2.0000      -0.492313       -13.3965
 187   2.0000      -0.491034       -13.3617
 188   2.0000      -0.484676       -13.1887
 189   2.0000      -0.482624       -13.1329
 190   2.0000      -0.480810       -13.0835
 191   2.0000      -0.479141       -13.0381
 192   2.0000      -0.479022       -13.0348
 193   2.0000      -0.474243       -12.9048
 194   2.0000      -0.472442       -12.8558
 195   2.0000      -0.469354       -12.7718
 196   2.0000      -0.468117       -12.7381
 197   2.0000      -0.464732       -12.6460
 198   2.0000      -0.463824       -12.6213
 199   2.0000      -0.458903       -12.4874
 200   2.0000      -0.458046       -12.4641
 201   2.0000      -0.456242       -12.4150
 202   2.0000      -0.451876       -12.2962
 203   2.0000      -0.449520       -12.2321
 204   2.0000      -0.447792       -12.1850
 205   2.0000      -0.446983       -12.1630
 206   2.0000      -0.440242       -11.9796
 207   2.0000      -0.438965       -11.9448
 208   2.0000      -0.436499       -11.8777
 209   2.0000      -0.435906       -11.8616
 210   2.0000      -0.434613       -11.8264
 211   2.0000      -0.433703       -11.8017
 212   2.0000      -0.430126       -11.7043
 213   2.0000      -0.427320       -11.6280
 214   2.0000      -0.424898       -11.5621
 215   2.0000      -0.422713       -11.5026
 216   2.0000      -0.419626       -11.4186
 217   2.0000      -0.417258       -11.3542
 218   2.0000      -0.412570       -11.2266
 219   2.0000      -0.410733       -11.1766
 220   2.0000      -0.409050       -11.1308
 221   2.0000      -0.404543       -11.0082
 222   2.0000      -0.394084       -10.7236
 223   2.0000      -0.385050       -10.4777
 224   2.0000      -0.376201       -10.2369
 225   2.0000      -0.374437       -10.1890
 226   2.0000      -0.373201       -10.1553
 227   2.0000      -0.372065       -10.1244
 228   2.0000      -0.370536       -10.0828
 229   2.0000      -0.363778        -9.8989
 230   2.0000      -0.360446        -9.8082
 231   2.0000      -0.358233        -9.7480
 232   2.0000      -0.355627        -9.6771
 233   2.0000      -0.348698        -9.4886
 234   2.0000      -0.348320        -9.4783
 235   2.0000      -0.347890        -9.4666
 236   2.0000      -0.345632        -9.4051
 237   2.0000      -0.339532        -9.2391
 238   2.0000      -0.338214        -9.2033
 239   2.0000      -0.332634        -9.0514
 240   2.0000      -0.323659        -8.8072
 241   2.0000      -0.299186        -8.1413
 242   2.0000      -0.290865        -7.9148
 243   2.0000      -0.287198        -7.8151
 244   0.0000      -0.143654        -3.9090
 245   0.0000      -0.129645        -3.5278
 246   0.0000      -0.126430        -3.4403
 247   0.0000      -0.098969        -2.6931
 248   0.0000      -0.075419        -2.0523

MULLIKEN ATOMIC CHARGES
-----------------------
   0 C :   -0.061656
   1 C :   -0.005689
   2 C :   -0.030629
   3 N :    0.100059
   4 C :   -0.139139
   5 C :   -0.154387
   6 N :    0.054736
   7 C :   -0.188121
   8 N :    0.230177
   9 C :   -0.185879
  10 N :    0.228322
  11 C :    0.075889
  12 C :   -0.011576
  13 C :    0.105776
  14 N :   -0.260416
  15 S :    0.611108
  16 N :   -0.281256
  17 C :   -0.070513
  18 N :   -0.010043
  19 C :    0.078174
  20 C :   -0.173814
  21 C :    0.224913
  22 O :   -0.124413
  23 C :   -0.008232
  24 C :   -0.023421
  25 N :   -0.047834
  26 C :    0.095952
  27 C :   -0.092244
  28 C :    0.070791
  29 C :    0.005405
  30 C :   -0.056216
  31 C :    0.241329
  32 C :   -0.277273
  33 C :   -0.170577
  34 N :    0.180233
  35 S :    0.250702
  36 C :   -0.091131
  37 C :   -0.079849
  38 C :   -0.167409
  39 N :    0.142689
  40 C :    0.020006
  41 N :   -0.037266
  42 C :    0.083896
  43 C :   -0.169341
  44 C :    0.219712
  45 O :   -0.122499
  46 C :   -0.012979
  47 C :   -0.026958
  48 N :   -0.045632
  49 C :    0.101554
  50 C :   -0.095481
  51 C :    0.085481
  52 C :   -0.039286
  53 C :   -0.070740
  54 C :    0.129431
  55 C :   -0.051135
  56 C :    0.026201
  57 N :    0.063465
  58 C :   -0.136835
  59 C :   -0.122118
  60 N :    0.028652
  61 C :   -0.217611
  62 N :    0.250817
  63 C :   -0.211407
  64 N :    0.246007
  65 C :   -0.077512
  66 C :    0.114192
  67 C :   -0.033646
  68 N :   -0.263595
  69 S :    0.566300
  70 N :   -0.267232
  71 H :   -0.008267
  72 H :    0.016943
  73 H :    0.001244
  74 H :   -0.005459
  75 H :    0.028359
  76 H :    0.018846
  77 H :    0.002627
  78 H :    0.012908
  79 H :    0.023224
  80 H :   -0.009401
Sum of atomic charges:   -0.0000000

LOEWDIN ATOMIC CHARGES
----------------------
   0 C :    0.025109
   1 C :   -0.016608
   2 C :    0.013530
   3 N :    0.017226
   4 C :   -0.022449
   5 C :   -0.027731
   6 N :    0.000935
   7 C :   -0.035422
   8 N :   -0.003374
   9 C :   -0.033182
  10 N :   -0.001351
  11 C :   -0.043891
  12 C :   -0.035656
  13 C :   -0.050118
  14 N :   -0.284858
  15 S :    0.786687
  16 N :   -0.304340
  17 C :    0.078382
  18 N :   -0.072197
  19 C :    0.043973
  20 C :   -0.037223
  21 C :    0.069031
  22 O :   -0.124772
  23 C :   -0.036258
  24 C :    0.036846
  25 N :   -0.090705
  26 C :    0.084308
  27 C :   -0.027097
  28 C :   -0.021195
  29 C :    0.004472
  30 C :   -0.010394
  31 C :    0.002574
  32 C :   -0.196316
  33 C :   -0.057722
  34 N :   -0.009121
  35 S :    0.555106
  36 C :   -0.152029
  37 C :   -0.069017
  38 C :    0.006341
  39 N :   -0.082422
  40 C :    0.046240
  41 N :   -0.074135
  42 C :    0.041850
  43 C :   -0.035251
  44 C :    0.068060
  45 O :   -0.126543
  46 C :   -0.038386
  47 C :    0.038656
  48 N :   -0.089822
  49 C :    0.088340
  50 C :   -0.026450
  51 C :   -0.031120
  52 C :   -0.022542
  53 C :    0.013274
  54 C :   -0.008379
  55 C :   -0.008858
  56 C :   -0.008539
  57 N :    0.006154
  58 C :   -0.026070
  59 C :   -0.026082
  60 N :    0.005546
  61 C :   -0.040252
  62 N :   -0.005104
  63 C :   -0.036863
  64 N :    0.004967
  65 C :    0.004348
  66 C :   -0.048581
  67 C :   -0.041274
  68 N :   -0.274765
  69 S :    0.708408
  70 N :   -0.286514
  71 H :    0.052142
  72 H :    0.026569
  73 H :    0.037302
  74 H :    0.029751
  75 H :    0.040408
  76 H :    0.027818
  77 H :    0.037577
  78 H :    0.008599
  79 H :    0.039448
  80 H :    0.051006

  Mayer bond orders larger than 0.100000
B(  0-C ,  1-C ) :   1.2617 B(  0-C , 11-C ) :   0.1443 B(  0-C , 13-C ) :   1.2119
B(  0-C , 71-H ) :   1.0606 B(  1-C ,  2-C ) :   1.1415 B(  1-C ,  6-N ) :   1.3522
B(  2-C ,  3-N ) :   1.4495 B(  2-C , 11-C ) :   1.3048 B(  3-N ,  4-C ) :   1.7611
B(  4-C ,  5-C ) :   1.1796 B(  4-C ,  9-C ) :   1.1375 B(  5-C ,  6-N ) :   1.7801
B(  5-C ,  7-C ) :   1.1411 B(  7-C ,  8-N ) :   3.0556 B(  9-C , 10-N ) :   3.0496
B( 11-C , 12-C ) :   1.3222 B( 11-C , 17-C ) :   0.9593 B( 12-C , 13-C ) :   1.1148
B( 12-C , 16-N ) :   1.4844 B( 13-C , 14-N ) :   1.4055 B( 14-N , 15-S ) :   1.3966
B( 14-N , 16-N ) :   0.1401 B( 15-S , 16-N ) :   1.3249 B( 17-C , 18-N ) :   1.6712
B( 17-C , 19-C ) :   0.1381 B( 17-C , 28-C ) :   1.0397 B( 18-N , 19-C ) :   1.3241
B( 19-C , 20-C ) :   1.0481 B( 19-C , 24-C ) :   1.4380 B( 20-C , 21-C ) :   0.8858
B( 20-C , 28-C ) :   1.5610 B( 21-C , 22-O ) :   2.1948 B( 21-C , 23-C ) :   0.9230
B( 22-O , 75-H ) :   0.1043 B( 23-C , 24-C ) :   1.0591 B( 23-C , 27-C ) :   1.6219
B( 24-C , 25-N ) :   1.3011 B( 25-N , 26-C ) :   1.6686 B( 26-C , 27-C ) :   1.0528
B( 26-C , 72-H ) :   0.9887 B( 27-C , 73-H ) :   1.0114 B( 28-C , 29-C ) :   1.1239
B( 29-C , 30-C ) :   1.6889 B( 29-C , 74-H ) :   0.9401 B( 30-C , 31-C ) :   1.1149
B( 30-C , 75-H ) :   0.9313 B( 31-C , 32-C ) :   1.4282 B( 31-C , 37-C ) :   1.2173
B( 32-C , 33-C ) :   1.1925 B( 32-C , 35-S ) :   1.1545 B( 32-C , 36-C ) :   0.1199
B( 33-C , 34-N ) :   2.9957 B( 35-S , 36-C ) :   1.1718 B( 36-C , 37-C ) :   1.4688
B( 36-C , 40-C ) :   1.0632 B( 37-C , 38-C ) :   1.1676 B( 38-C , 39-N ) :   2.8891
B( 40-C , 41-N ) :   1.6413 B( 40-C , 42-C ) :   0.1255 B( 40-C , 51-C ) :   1.0300
B( 41-N , 42-C ) :   1.3400 B( 42-C , 43-C ) :   1.0598 B( 42-C , 47-C ) :   1.4199
B( 43-C , 44-C ) :   0.8866 B( 43-C , 51-C ) :   1.5432 B( 44-C , 45-O ) :   2.2166
B( 44-C , 46-C ) :   0.9197 B( 46-C , 47-C ) :   1.0567 B( 46-C , 50-C ) :   1.6210
B( 47-C , 48-N ) :   1.3098 B( 48-N , 49-C ) :   1.6594 B( 49-C , 50-C ) :   1.0529
B( 49-C , 76-H ) :   0.9891 B( 50-C , 77-H ) :   1.0111 B( 51-C , 52-C ) :   1.0901
B( 52-C , 53-C ) :   1.6291 B( 52-C , 78-H ) :   0.9237 B( 53-C , 54-C ) :   1.1615
B( 53-C , 79-H ) :   0.9609 B( 54-C , 55-C ) :   1.2338 B( 54-C , 65-C ) :   0.1410
B( 54-C , 67-C ) :   1.2132 B( 55-C , 56-C ) :   1.1323 B( 55-C , 60-N ) :   1.4158
B( 56-C , 57-N ) :   1.3414 B( 56-C , 65-C ) :   1.2989 B( 57-N , 58-C ) :   1.7841
B( 58-C , 59-C ) :   1.1857 B( 58-C , 63-C ) :   1.1627 B( 59-C , 60-N ) :   1.7344
B( 59-C , 61-C ) :   1.1597 B( 61-C , 62-N ) :   3.0231 B( 63-C , 64-N ) :   3.0468
B( 65-C , 66-C ) :   1.1894 B( 65-C , 80-H ) :   1.0557 B( 66-C , 67-C ) :   1.1173
B( 66-C , 70-N ) :   1.4486 B( 67-C , 68-N ) :   1.5149 B( 68-N , 69-S ) :   1.3068
B( 68-N , 70-N ) :   0.1609 B( 69-S , 70-N ) :   1.3174

-----------------------------------------------------------------------------
         ABSORPTION SPECTRUM VIA TRANSITION ELECTRIC DIPOLE MOMENTS
-----------------------------------------------------------------------------
State   Energy  Wavelength   fosc         T2         TX        TY        TZ
        (cm-1)    (nm)                  (au**2)     (au)      (au)      (au)
-----------------------------------------------------------------------------
   0   15439.2    647.7   0.233575406   4.98057  -1.65702  -0.13610   1.48874
   1   17252.6    579.6   0.146647677   2.79831   0.35670  -0.04997  -1.63358
   2   17607.1    568.0   0.132551059   2.47839   1.48413   0.29324   0.43561
   3   18622.2    537.0   0.092115962   1.62847   1.26426   0.02202   0.17215
   4   20651.2    484.2   0.276958791   4.41516  -2.09806   0.09783   0.06104
   5   20777.0    481.3   0.077460833   1.22737   1.10632   0.03028  -0.05013
   6   21204.3    471.6   0.089869262   1.39528   1.16598  -0.12130   0.14512
   7   21951.3    455.6   0.013963074   0.20941  -0.45739   0.00495  -0.01329
   8   22687.3    440.8   0.019813973   0.28752   0.51246  -0.06929  -0.14177
   9   23535.1    424.9   0.372891157   5.21605   1.94280   0.38403   1.13760
  10   23777.9    420.6   0.032453420   0.44933   0.66093   0.08861  -0.06815
  11   24520.9    407.8   0.224492580   3.01399  -1.41413  -0.25007  -0.97555
  12   24590.6    406.7   0.006460099   0.08649   0.19592   0.07833   0.20485
  13   24687.8    405.1   0.024565616   0.32758  -0.47507  -0.09723  -0.30403
  14   25349.4    394.5   0.018641322   0.24209  -0.12224  -0.18341  -0.43990
  15   25537.1    391.6   0.005201973   0.06706   0.25494   0.04313   0.01445
  16   25749.1    388.4   0.004944613   0.06322   0.04353  -0.22208  -0.10956
  17   25788.1    387.8   0.013084957   0.16704   0.31381   0.07921  -0.24958
  18   26049.5    383.9   0.000448371   0.00567  -0.05240  -0.03304   0.04277
  19   26341.2    379.6   0.015246437   0.19055  -0.32463  -0.11193   0.26952
  20   26907.5    371.6   0.070507936   0.86266   0.40716  -0.03043  -0.83424
  21   27420.4    364.7   0.027456921   0.32965  -0.35681  -0.30487  -0.33074
  22   27555.8    362.9   0.122306113   1.46120   0.11960   0.01076   1.20282
  23   27657.0    361.6   0.146501577   1.74387  -0.09160  -0.08318  -1.31475
  24   28194.2    354.7   0.129722322   1.51472   0.21206   0.72132  -0.97439
  25   28600.1    349.6   0.027605390   0.31776  -0.52665  -0.06598   0.18988
  26   28698.0    348.5   0.000124612   0.00143  -0.03193   0.01462  -0.01402
  27   29152.7    343.0   0.172837502   1.95180  -1.01429  -0.79363  -0.54146
  28   29540.8    338.5   0.353277295   3.93704  -1.94976  -0.26377   0.25669
  29   30218.9    330.9   0.112480553   1.22539  -0.29241  -0.25022  -1.03792
  30   30349.6    329.5   0.211946023   2.29905   0.60878   0.15677   1.37981
  31   30430.4    328.6   0.122519321   1.32548   0.64372   0.36245   0.88302
  32   30713.7    325.6   0.098377898   1.05449   0.28569   0.03079  -0.98586
  33   30923.5    323.4   0.000760568   0.00810  -0.02856  -0.08154   0.02516
  34   31043.2    322.1   0.000356779   0.00378   0.00991  -0.01798   0.05798
  35   31101.1    321.5   0.065844020   0.69697   0.82827  -0.09621   0.04100
  36   31165.3    320.9   0.084330650   0.89082   0.13443  -0.31465  -0.87963
  37   31393.4    318.5   0.082183604   0.86183  -0.88508  -0.12905  -0.24864
  38   32338.4    309.2   0.054441909   0.55423   0.04126   0.13710   0.73057
  39   32599.8    306.8   0.024344445   0.24584  -0.47985   0.02289  -0.12274
  40   32877.6    304.2   0.059380131   0.59459   0.22324   0.32891   0.66074
  41   33030.8    302.7   0.063516602   0.63306  -0.62019   0.28966   0.40562
  42   33286.4    300.4   0.034654651   0.34274  -0.54904  -0.01843   0.20238
  43   33471.5    298.8   0.301629225   2.96670   1.29889   0.68543   0.89987
  44   33636.8    297.3   0.129925562   1.27161  -1.08600  -0.23892  -0.18746
  45   33885.3    295.1   0.003110289   0.03022   0.11070   0.08945  -0.09981
  46   33922.6    294.8   0.082352016   0.79921  -0.73331  -0.36858   0.35443
  47   34009.5    294.0   0.013987418   0.13540  -0.35986  -0.00084  -0.07679
  48   34274.1    291.8   0.003913791   0.03759   0.16454   0.02745  -0.09882
  49   34351.9    291.1   0.005883270   0.05638  -0.10050  -0.15137  -0.15287
  50   34548.2    289.5   0.077075672   0.73446   0.54935  -0.21918  -0.62019
  51   34797.2    287.4   0.167828746   1.58781   0.83373   0.46153   0.82444
  52   34863.5    286.8   0.144897524   1.36825   1.04676   0.40815   0.32551
  53   35180.9    284.2   0.032085963   0.30025   0.40826   0.06216   0.36016
  54   35343.8    282.9   0.109535773   1.02028  -0.46562  -0.09584  -0.89123
  55   35443.4    282.1   0.026178613   0.24316   0.12482   0.01830  -0.47670
  56   35558.0    281.2   0.081322802   0.75292   0.48519   0.17104   0.69876
  57   35738.3    279.8   0.034388896   0.31678  -0.49911  -0.20043   0.16584
  58   35880.8    278.7   0.011498914   0.10550   0.18244  -0.07011   0.25943
  59   36009.5    277.7   0.585262255   5.35068   1.42069   0.99908   1.52780
  60   36462.2    274.3   0.022100310   0.19954   0.01332  -0.10442  -0.43412
  61   36679.0    272.6   0.005285465   0.04744   0.20121  -0.07490   0.03664
  62   36822.5    271.6   0.017149547   0.15333   0.07299  -0.16961  -0.34530
  63   36860.5    271.3   0.017331585   0.15479  -0.06281  -0.16735  -0.35049
  64   36990.9    270.3   0.051554869   0.45883  -0.12215  -0.19156  -0.63813
  65   37128.9    269.3   0.008255364   0.07320   0.17687  -0.16772  -0.11741
  66   37406.9    267.3   0.008323729   0.07326  -0.23962  -0.08751   0.09046
  67   37694.0    265.3   0.199853969   1.74549   0.19727   0.35406  -1.25746
  68   37803.5    264.5   0.029116767   0.25356   0.09268   0.03674  -0.49358
  69   37818.9    264.4   0.119819235   1.04302   0.41563  -0.06471  -0.93064
  70   38022.1    263.0   0.009630470   0.08338  -0.08510  -0.03987  -0.27304
  71   38113.7    262.4   0.059674119   0.51544   0.02205  -0.19786   0.68979
  72   38124.1    262.3   0.001814171   0.01567  -0.02879   0.04249  -0.11416
  73   38274.5    261.3   0.006898497   0.05934  -0.18749  -0.10657   0.11326
  74   38405.9    260.4   0.087554023   0.75051  -0.42996   0.34871  -0.66636
  75   38463.3    260.0   0.015530124   0.13292  -0.31044  -0.16832   0.09065
  76   38565.8    259.3   0.400244932   3.41664   0.32824  -0.22458   1.80512
  77   38594.4    259.1   0.044783954   0.38201  -0.04362  -0.21124   0.57921
  78   38652.2    258.7   0.476882147   4.06174   0.56586   0.64072  -1.82511
  79   38794.2    257.8   0.086148110   0.73106   0.58591   0.59724  -0.17629
  80   38839.2    257.5   0.109467890   0.92788   0.00998  -0.47096   0.84022
  81   39131.4    255.5   0.098289859   0.82691  -0.23110   0.50768  -0.71817
  82   39584.1    252.6   0.033176346   0.27592   0.35562  -0.09773  -0.37404
  83   39747.7    251.6   0.001936604   0.01604   0.11438  -0.05332  -0.01070
  84   39826.3    251.1   0.001477768   0.01222   0.09155   0.06154   0.00681
  85   39895.7    250.7   0.000216822   0.00179   0.03225  -0.01801  -0.02061
  86   40035.1    249.8   0.034659647   0.28501   0.14128   0.41259  -0.30792
  87   40067.7    249.6   0.003443511   0.02829  -0.01083   0.00652   0.16773
  88   40137.6    249.1   0.044658913   0.36630  -0.48038   0.01259  -0.36792

FINAL SINGLE POINT ENERGY     -4161.257292378952

DIPOLE MOMENT
-------------
                                X             Y             Z
Electronic contribution:     -0.28236       1.17978      -3.02175
Nuclear contribution   :     -2.00639      -1.60540      -2.21439
                        -----------------------------------------
Total Dipole Moment    :     -2.28875      -0.42562      -5.23614
                        -----------------------------------------
Magnitude (a.u.)       :      5.73033
Magnitude (Debye)      :     14.56535

Rotational constants in cm-1:     0.001506     0.000481     0.000384
Rotational constants in MHz :    45.145460    14.425616    11.514481

                             ****ORCA TERMINATED NORMALLY****
TOTAL RUN TIME: 0 days 0 hours 17 minutes 1 seconds 427 msec
