                         Program Version 4.2.0 -  RELEASE  -
|  1> # ORCA input file
|  2> # SCF done       -197.599691099127          0.000576128106
|  3> ! CAM-B3LYP def2-SVP def2/J RIJCOSX Grid4 TightSCF
|  4> %maxcore 5000
|  5> %tddft
|  6>     Mode sTDDFT
|  7>     Ethresh 5.0
|  8>     maxcore 5000
|  9> end
| 10>
| 11> %pal
| 12>   nprocs 6
| 13>   end
| 14> * xyz 0 1
| 15>    C       -0.79200        -8.40313        -6.30164
| 16>    C        0.20574        -8.34816        -7.26931
| 17>    C        0.92744        -7.12841        -7.54403
| 18>    N        1.79115        -7.08191        -8.57080
| 19>    C        2.06886        -8.17819        -9.21761
| 20>    C        1.46036        -9.43430        -8.84210
| 21>    N        0.52837        -9.47814        -7.93408
| 22>    C        1.84711       -10.62666        -9.50777
| 23>    N        2.18960       -11.56694       -10.06372
| 24>    C        2.93647        -8.13168       -10.33888
| 25>    N        3.63073        -8.14481       -11.24919
| 26>    C        0.69136        -5.95530        -6.79791
| 27>    C       -0.31454        -6.02066        -5.82127
| 28>    C       -1.06157        -7.24305        -5.58955
| 29>    N       -1.96355        -7.08788        -4.61021
| 30>    S       -1.86903        -5.59903        -4.04885
| 31>    N       -0.69452        -5.04703        -4.98584
| 32>    C        1.50125        -4.78543        -7.01585
| 33>    N        2.80079        -4.89013        -7.20941
| 34>    C        3.27368        -3.62630        -7.31275
| 35>    C        2.18351        -2.65395        -7.16803
| 36>    C        2.67062        -1.27874        -7.30742
| 37>    O        2.03007        -0.24552        -7.26840
| 38>    C        4.11514        -1.47870        -7.51684
| 39>    C        4.43887        -2.92940        -7.51286
| 40>    N        5.76180        -3.11926        -7.73344
| 41>    C        6.26482        -1.91974        -7.87854
| 42>    C        5.29003        -0.84850        -7.76514
| 43>    C        1.03317        -3.37991        -7.00568
| 44>    C       -0.27356        -2.83345        -6.93235
| 45>    C       -1.43135        -3.45393        -7.24485
| 46>    C       -2.67538        -2.76779        -7.21912
| 47>    S       -2.68985        -1.05639        -6.91353
| 48>    C       -4.40968        -0.94903        -7.18551
| 49>    C       -4.93377        -2.20178        -7.46255
| 50>    C       -3.96197        -3.22095        -7.45839
| 51>    C       -4.46339        -4.60746        -7.75267
| 52>    C       -3.46478        -5.63448        -7.87256
| 53>    N       -2.70449        -6.48494        -7.96850
| 54>    C       -5.29726        -4.49849        -9.04695
| 55>    C       -6.52192        -3.60520        -8.81784
| 56>    C       -6.36842        -2.61428        -7.64748
| 57>    O       -6.82131        -3.28229        -6.47412
| 58>    C       -7.06841        -2.42819        -5.38507
| 59>    C       -4.90163         0.38336        -7.13746
| 60>    C       -6.11156         0.88130        -7.48057
| 61>    C       -6.40379         2.27551        -7.47616
| 62>    N       -7.64552         2.68528        -7.27651
| 63>    C       -7.59520         4.03215        -7.25831
| 64>    C       -6.22775         4.51897        -7.50053
| 65>    C       -6.19813         5.99360        -7.47221
| 66>    O       -5.24942         6.73367        -7.60933
| 67>    C       -7.60774         6.34028        -7.21592
| 68>    C       -8.42352         5.11355        -7.08733
| 69>    N       -9.72293         5.42538        -6.85877
| 70>    C       -9.76275         6.73510        -6.84531
| 71>    C       -8.47778         7.37080        -7.06751
| 72>    C       -5.44747         3.40155        -7.67738
| 73>    C       -4.08425         3.28993        -8.07965
| 74>    C       -3.28072         4.36280        -8.27170
| 75>    C       -1.91570         4.29123        -8.69509
| 76>    C       -1.31185         5.45876        -9.22669
| 77>    C        0.05267         5.47035        -9.69610
| 78>    N        0.57782         6.59968       -10.21871
| 79>    C       -0.16719         7.66641       -10.29395
| 80>    C       -1.53142         7.65516        -9.82611
| 81>    N       -2.05383         6.57330        -9.31667
| 82>    C       -2.31372         8.83298        -9.92988
| 83>    N       -2.90078         9.80921       -10.04737
| 84>    C        0.37250         8.85732       -10.84573
| 85>    N        0.77312         9.83469       -11.28768
| 86>    C        0.84808         4.33207        -9.62529
| 87>    C        0.28498         3.18759        -9.07939
| 88>    C       -1.09172         3.14892        -8.61937
| 89>    N       -1.39478         1.94337        -8.12039
| 90>    S       -0.09679         0.99344        -8.20380
| 91>    N        0.90279         2.01234        -8.89618
| 92>    H       -1.31054        -9.32542        -6.10168
| 93>    H        7.31697        -1.79044        -8.06358
| 94>    H        5.50050         0.19824        -7.86075
| 95>    H       -0.29887        -1.78356        -6.66174
| 96>    H       -1.43273        -4.47909        -7.57632
| 97>    H       -5.13980        -4.90487        -6.93756
| 98>    H       -5.61403        -5.49077        -9.36944
| 99>    H       -4.66052        -4.07908        -9.82961
|100>    H       -7.39020        -4.21962        -8.57715
|101>    H       -6.74026        -3.04858        -9.72877
|102>    H       -7.01182        -1.74452        -7.82686
|103>    H       -7.43887        -3.06101        -4.58145
|104>    H       -7.82488        -1.67615        -5.63599
|105>    H       -6.15779        -1.91474        -5.05518
|106>    H       -4.15518         1.08257        -6.78289
|107>    H       -6.94900         0.24686        -7.72863
|108>    H      -10.69377         7.24806        -6.67679
|109>    H       -8.30064         8.42753        -7.09792
|110>    H       -3.69188         2.30755        -8.29442
|111>    H       -3.66978         5.36559        -8.14691
|112>    H        1.86537         4.35089        -9.97737
|113> *
|114>
|115>                          ****END OF INPUT****

CARTESIAN COORDINATES (ANGSTROEM)
---------------------------------
  C     -0.792000   -8.403130   -6.301640
  C      0.205740   -8.348160   -7.269310
  C      0.927440   -7.128410   -7.544030
  N      1.791150   -7.081910   -8.570800
  C      2.068860   -8.178190   -9.217610
  C      1.460360   -9.434300   -8.842100
  N      0.528370   -9.478140   -7.934080
  C      1.847110  -10.626660   -9.507770
  N      2.189600  -11.566940  -10.063720
  C      2.936470   -8.131680  -10.338880
  N      3.630730   -8.144810  -11.249190
  C      0.691360   -5.955300   -6.797910
  C     -0.314540   -6.020660   -5.821270
  C     -1.061570   -7.243050   -5.589550
  N     -1.963550   -7.087880   -4.610210
  S     -1.869030   -5.599030   -4.048850
  N     -0.694520   -5.047030   -4.985840
  C      1.501250   -4.785430   -7.015850
  N      2.800790   -4.890130   -7.209410
  C      3.273680   -3.626300   -7.312750
  C      2.183510   -2.653950   -7.168030
  C      2.670620   -1.278740   -7.307420
  O      2.030070   -0.245520   -7.268400
  C      4.115140   -1.478700   -7.516840
  C      4.438870   -2.929400   -7.512860
  N      5.761800   -3.119260   -7.733440
  C      6.264820   -1.919740   -7.878540
  C      5.290030   -0.848500   -7.765140
  C      1.033170   -3.379910   -7.005680
  C     -0.273560   -2.833450   -6.932350
  C     -1.431350   -3.453930   -7.244850
  C     -2.675380   -2.767790   -7.219120
  S     -2.689850   -1.056390   -6.913530
  C     -4.409680   -0.949030   -7.185510
  C     -4.933770   -2.201780   -7.462550
  C     -3.961970   -3.220950   -7.458390
  C     -4.463390   -4.607460   -7.752670
  C     -3.464780   -5.634480   -7.872560
  N     -2.704490   -6.484940   -7.968500
  C     -5.297260   -4.498490   -9.046950
  C     -6.521920   -3.605200   -8.817840
  C     -6.368420   -2.614280   -7.647480
  O     -6.821310   -3.282290   -6.474120
  C     -7.068410   -2.428190   -5.385070
  C     -4.901630    0.383360   -7.137460
  C     -6.111560    0.881300   -7.480570
  C     -6.403790    2.275510   -7.476160
  N     -7.645520    2.685280   -7.276510
  C     -7.595200    4.032150   -7.258310
  C     -6.227750    4.518970   -7.500530
  C     -6.198130    5.993600   -7.472210
  O     -5.249420    6.733670   -7.609330
  C     -7.607740    6.340280   -7.215920
  C     -8.423520    5.113550   -7.087330
  N     -9.722930    5.425380   -6.858770
  C     -9.762750    6.735100   -6.845310
  C     -8.477780    7.370800   -7.067510
  C     -5.447470    3.401550   -7.677380
  C     -4.084250    3.289930   -8.079650
  C     -3.280720    4.362800   -8.271700
  C     -1.915700    4.291230   -8.695090
  C     -1.311850    5.458760   -9.226690
  C      0.052670    5.470350   -9.696100
  N      0.577820    6.599680  -10.218710
  C     -0.167190    7.666410  -10.293950
  C     -1.531420    7.655160   -9.826110
  N     -2.053830    6.573300   -9.316670
  C     -2.313720    8.832980   -9.929880
  N     -2.900780    9.809210  -10.047370
  C      0.372500    8.857320  -10.845730
  N      0.773120    9.834690  -11.287680
  C      0.848080    4.332070   -9.625290
  C      0.284980    3.187590   -9.079390
  C     -1.091720    3.148920   -8.619370
  N     -1.394780    1.943370   -8.120390
  S     -0.096790    0.993440   -8.203800
  N      0.902790    2.012340   -8.896180
  H     -1.310540   -9.325420   -6.101680
  H      7.316970   -1.790440   -8.063580
  H      5.500500    0.198240   -7.860750
  H     -0.298870   -1.783560   -6.661740
  H     -1.432730   -4.479090   -7.576320
  H     -5.139800   -4.904870   -6.937560
  H     -5.614030   -5.490770   -9.369440
  H     -4.660520   -4.079080   -9.829610
  H     -7.390200   -4.219620   -8.577150
  H     -6.740260   -3.048580   -9.728770
  H     -7.011820   -1.744520   -7.826860
  H     -7.438870   -3.061010   -4.581450
  H     -7.824880   -1.676150   -5.635990
  H     -6.157790   -1.914740   -5.055180
  H     -4.155180    1.082570   -6.782890
  H     -6.949000    0.246860   -7.728630
  H    -10.693770    7.248060   -6.676790
  H     -8.300640    8.427530   -7.097920
  H     -3.691880    2.307550   -8.294420
  H     -3.669780    5.365590   -8.146910
  H      1.865370    4.350890   -9.977370

 Total Charge           Charge          ....    0
 Multiplicity           Mult            ....    1
 Number of Electrons    NEL             ....  536
 Basis Dimension        Dim             .... 1195

ORBITAL ENERGIES
----------------

  NO   OCC          E(Eh)            E(eV)
   0   2.0000     -89.062366     -2423.5102
   1   2.0000     -89.043834     -2423.0059
   2   2.0000     -88.982584     -2421.3392
   3   2.0000     -19.242468      -523.6142
   4   2.0000     -19.230718      -523.2944
   5   2.0000     -19.213451      -522.8246
   6   2.0000     -14.469481      -393.7346
   7   2.0000     -14.466594      -393.6560
   8   2.0000     -14.466506      -393.6536
   9   2.0000     -14.464918      -393.6104
  10   2.0000     -14.457128      -393.3985
  11   2.0000     -14.456503      -393.3814
  12   2.0000     -14.448535      -393.1646
  13   2.0000     -14.446790      -393.1171
  14   2.0000     -14.435438      -392.8082
  15   2.0000     -14.434231      -392.7754
  16   2.0000     -14.434123      -392.7725
  17   2.0000     -14.428876      -392.6297
  18   2.0000     -14.425346      -392.5336
  19   2.0000     -14.422326      -392.4514
  20   2.0000     -14.420632      -392.4053
  21   2.0000     -14.413017      -392.1981
  22   2.0000     -14.406825      -392.0296
  23   2.0000     -10.391247      -282.7602
  24   2.0000     -10.390163      -282.7307
  25   2.0000     -10.389149      -282.7031
  26   2.0000     -10.377850      -282.3957
  27   2.0000     -10.376291      -282.3532
  28   2.0000     -10.373144      -282.2676
  29   2.0000     -10.363294      -281.9996
  30   2.0000     -10.363247      -281.9983
  31   2.0000     -10.358928      -281.8807
  32   2.0000     -10.356873      -281.8248
  33   2.0000     -10.354548      -281.7616
  34   2.0000     -10.353546      -281.7343
  35   2.0000     -10.347464      -281.5688
  36   2.0000     -10.346911      -281.5538
  37   2.0000     -10.343908      -281.4720
  38   2.0000     -10.343381      -281.4577
  39   2.0000     -10.343213      -281.4531
  40   2.0000     -10.342168      -281.4247
  41   2.0000     -10.340897      -281.3901
  42   2.0000     -10.340112      -281.3688
  43   2.0000     -10.338102      -281.3140
  44   2.0000     -10.337138      -281.2878
  45   2.0000     -10.336360      -281.2666
  46   2.0000     -10.335737      -281.2497
  47   2.0000     -10.334276      -281.2100
  48   2.0000     -10.331039      -281.1219
  49   2.0000     -10.327443      -281.0240
  50   2.0000     -10.327026      -281.0127
  51   2.0000     -10.326596      -281.0010
  52   2.0000     -10.326030      -280.9856
  53   2.0000     -10.325676      -280.9759
  54   2.0000     -10.324919      -280.9553
  55   2.0000     -10.323695      -280.9220
  56   2.0000     -10.321048      -280.8500
  57   2.0000     -10.319805      -280.8162
  58   2.0000     -10.318506      -280.7808
  59   2.0000     -10.316605      -280.7291
  60   2.0000     -10.315602      -280.7018
  61   2.0000     -10.311161      -280.5810
  62   2.0000     -10.309615      -280.5389
  63   2.0000     -10.308727      -280.5147
  64   2.0000     -10.306870      -280.4642
  65   2.0000     -10.306674      -280.4589
  66   2.0000     -10.305431      -280.4250
  67   2.0000     -10.305256      -280.4203
  68   2.0000     -10.305023      -280.4139
  69   2.0000     -10.303945      -280.3846
  70   2.0000     -10.302825      -280.3541
  71   2.0000     -10.294653      -280.1318
  72   2.0000     -10.293657      -280.1047
  73   2.0000     -10.291122      -280.0357
  74   2.0000     -10.290668      -280.0233
  75   2.0000     -10.289067      -279.9798
  76   2.0000     -10.286062      -279.8980
  77   2.0000      -8.153542      -221.8692
  78   2.0000      -8.133445      -221.3223
  79   2.0000      -8.078061      -219.8152
  80   2.0000      -6.124383      -166.6529
  81   2.0000      -6.116873      -166.4486
  82   2.0000      -6.116539      -166.4395
  83   2.0000      -6.104256      -166.1053
  84   2.0000      -6.097131      -165.9114
  85   2.0000      -6.096234      -165.8870
  86   2.0000      -6.047235      -164.5536
  87   2.0000      -6.043189      -164.4435
  88   2.0000      -6.040242      -164.3633
  89   2.0000      -1.156738       -31.4764
  90   2.0000      -1.144565       -31.1452
  91   2.0000      -1.143860       -31.1260
  92   2.0000      -1.136889       -30.9363
  93   2.0000      -1.128983       -30.7212
  94   2.0000      -1.128420       -30.7059
  95   2.0000      -1.115658       -30.3586
  96   2.0000      -1.095220       -29.8025
  97   2.0000      -1.080677       -29.4067
  98   2.0000      -1.076102       -29.2822
  99   2.0000      -1.060940       -28.8696
 100   2.0000      -1.054016       -28.6812
 101   2.0000      -1.042470       -28.3671
 102   2.0000      -1.031548       -28.0698
 103   2.0000      -1.018855       -27.7245
 104   2.0000      -1.018037       -27.7022
 105   2.0000      -1.009556       -27.4714
 106   2.0000      -1.008394       -27.4398
 107   2.0000      -1.007105       -27.4047
 108   2.0000      -0.998049       -27.1583
 109   2.0000      -0.989856       -26.9354
 110   2.0000      -0.987307       -26.8660
 111   2.0000      -0.972229       -26.4557
 112   2.0000      -0.959094       -26.0983
 113   2.0000      -0.952647       -25.9228
 114   2.0000      -0.946404       -25.7530
 115   2.0000      -0.937618       -25.5139
 116   2.0000      -0.924514       -25.1573
 117   2.0000      -0.916209       -24.9313
 118   2.0000      -0.912068       -24.8186
 119   2.0000      -0.901149       -24.5215
 120   2.0000      -0.899293       -24.4710
 121   2.0000      -0.892716       -24.2920
 122   2.0000      -0.880640       -23.9634
 123   2.0000      -0.874438       -23.7947
 124   2.0000      -0.871231       -23.7074
 125   2.0000      -0.863369       -23.4935
 126   2.0000      -0.855352       -23.2753
 127   2.0000      -0.844430       -22.9781
 128   2.0000      -0.834181       -22.6992
 129   2.0000      -0.826410       -22.4878
 130   2.0000      -0.823949       -22.4208
 131   2.0000      -0.813779       -22.1441
 132   2.0000      -0.798912       -21.7395
 133   2.0000      -0.791331       -21.5332
 134   2.0000      -0.789804       -21.4917
 135   2.0000      -0.786191       -21.3933
 136   2.0000      -0.769203       -20.9311
 137   2.0000      -0.766032       -20.8448
 138   2.0000      -0.753831       -20.5128
 139   2.0000      -0.745651       -20.2902
 140   2.0000      -0.741729       -20.1835
 141   2.0000      -0.738772       -20.1030
 142   2.0000      -0.734583       -19.9890
 143   2.0000      -0.724831       -19.7237
 144   2.0000      -0.722396       -19.6574
 145   2.0000      -0.713389       -19.4123
 146   2.0000      -0.700672       -19.0663
 147   2.0000      -0.699068       -19.0226
 148   2.0000      -0.697624       -18.9833
 149   2.0000      -0.690135       -18.7795
 150   2.0000      -0.681660       -18.5489
 151   2.0000      -0.677677       -18.4405
 152   2.0000      -0.674017       -18.3409
 153   2.0000      -0.668762       -18.1979
 154   2.0000      -0.663119       -18.0444
 155   2.0000      -0.656867       -17.8743
 156   2.0000      -0.651011       -17.7149
 157   2.0000      -0.646225       -17.5847
 158   2.0000      -0.644505       -17.5379
 159   2.0000      -0.637866       -17.3572
 160   2.0000      -0.632171       -17.2022
 161   2.0000      -0.629698       -17.1349
 162   2.0000      -0.622882       -16.9495
 163   2.0000      -0.620014       -16.8714
 164   2.0000      -0.618219       -16.8226
 165   2.0000      -0.612151       -16.6575
 166   2.0000      -0.611362       -16.6360
 167   2.0000      -0.609110       -16.5747
 168   2.0000      -0.592977       -16.1357
 169   2.0000      -0.589790       -16.0490
 170   2.0000      -0.585251       -15.9255
 171   2.0000      -0.582461       -15.8496
 172   2.0000      -0.581932       -15.8352
 173   2.0000      -0.578465       -15.7408
 174   2.0000      -0.573730       -15.6120
 175   2.0000      -0.573499       -15.6057
 176   2.0000      -0.571418       -15.5491
 177   2.0000      -0.566910       -15.4264
 178   2.0000      -0.563443       -15.3321
 179   2.0000      -0.560643       -15.2559
 180   2.0000      -0.557324       -15.1656
 181   2.0000      -0.552289       -15.0285
 182   2.0000      -0.549995       -14.9661
 183   2.0000      -0.549357       -14.9488
 184   2.0000      -0.545835       -14.8529
 185   2.0000      -0.543350       -14.7853
 186   2.0000      -0.539864       -14.6905
 187   2.0000      -0.537335       -14.6216
 188   2.0000      -0.534413       -14.5421
 189   2.0000      -0.532584       -14.4923
 190   2.0000      -0.528494       -14.3811
 191   2.0000      -0.527428       -14.3520
 192   2.0000      -0.525042       -14.2871
 193   2.0000      -0.523662       -14.2496
 194   2.0000      -0.520854       -14.1732
 195   2.0000      -0.512667       -13.9504
 196   2.0000      -0.509521       -13.8648
 197   2.0000      -0.507334       -13.8053
 198   2.0000      -0.504434       -13.7264
 199   2.0000      -0.500915       -13.6306
 200   2.0000      -0.497442       -13.5361
 201   2.0000      -0.493441       -13.4272
 202   2.0000      -0.492067       -13.3898
 203   2.0000      -0.490725       -13.3533
 204   2.0000      -0.489902       -13.3309
 205   2.0000      -0.488225       -13.2853
 206   2.0000      -0.483939       -13.1686
 207   2.0000      -0.482900       -13.1404
 208   2.0000      -0.481883       -13.1127
 209   2.0000      -0.479144       -13.0382
 210   2.0000      -0.476170       -12.9572
 211   2.0000      -0.474685       -12.9168
 212   2.0000      -0.473021       -12.8716
 213   2.0000      -0.472094       -12.8463
 214   2.0000      -0.467042       -12.7089
 215   2.0000      -0.463448       -12.6111
 216   2.0000      -0.463386       -12.6094
 217   2.0000      -0.459593       -12.5062
 218   2.0000      -0.457839       -12.4584
 219   2.0000      -0.457570       -12.4511
 220   2.0000      -0.456012       -12.4087
 221   2.0000      -0.450816       -12.2673
 222   2.0000      -0.448559       -12.2059
 223   2.0000      -0.448249       -12.1975
 224   2.0000      -0.448082       -12.1929
 225   2.0000      -0.447296       -12.1715
 226   2.0000      -0.442947       -12.0532
 227   2.0000      -0.441879       -12.0241
 228   2.0000      -0.440109       -11.9760
 229   2.0000      -0.438728       -11.9384
 230   2.0000      -0.437157       -11.8956
 231   2.0000      -0.431426       -11.7397
 232   2.0000      -0.430457       -11.7133
 233   2.0000      -0.426657       -11.6099
 234   2.0000      -0.421291       -11.4639
 235   2.0000      -0.419970       -11.4280
 236   2.0000      -0.417489       -11.3605
 237   2.0000      -0.416239       -11.3264
 238   2.0000      -0.415481       -11.3058
 239   2.0000      -0.411048       -11.1852
 240   2.0000      -0.410219       -11.1626
 241   2.0000      -0.408243       -11.1089
 242   2.0000      -0.404153       -10.9976
 243   2.0000      -0.401428       -10.9234
 244   2.0000      -0.395741       -10.7687
 245   2.0000      -0.387931       -10.5561
 246   2.0000      -0.381815       -10.3897
 247   2.0000      -0.377953       -10.2846
 248   2.0000      -0.368510       -10.0277
 249   2.0000      -0.363832        -9.9004
 250   2.0000      -0.361800        -9.8451
 251   2.0000      -0.360704        -9.8153
 252   2.0000      -0.358395        -9.7524
 253   2.0000      -0.356172        -9.6919
 254   2.0000      -0.355260        -9.6671
 255   2.0000      -0.354175        -9.6376
 256   2.0000      -0.353998        -9.6328
 257   2.0000      -0.349388        -9.5073
 258   2.0000      -0.346553        -9.4302
 259   2.0000      -0.343321        -9.3422
 260   2.0000      -0.340323        -9.2607
 261   2.0000      -0.337563        -9.1856
 262   2.0000      -0.331358        -9.0167
 263   2.0000      -0.328772        -8.9463
 264   2.0000      -0.317951        -8.6519
 265   2.0000      -0.308775        -8.4022
 266   2.0000      -0.277106        -7.5405
 267   2.0000      -0.269868        -7.3435
 268   0.0000      -0.138329        -3.7641
 269   0.0000      -0.124157        -3.3785
 270   0.0000      -0.114135        -3.1058
 271   0.0000      -0.107737        -2.9317
 272   0.0000      -0.074009        -2.0139

MULLIKEN ATOMIC CHARGES
-----------------------
   0 C :   -0.040995
   1 C :    0.024240
   2 C :   -0.037220
   3 N :    0.095751
   4 C :   -0.133820
   5 C :   -0.149859
   6 N :    0.054446
   7 C :   -0.187475
   8 N :    0.231686
   9 C :   -0.185586
  10 N :    0.233206
  11 C :    0.101870
  12 C :   -0.039445
  13 C :    0.121617
  14 N :   -0.264251
  15 S :    0.550941
  16 N :   -0.259264
  17 C :   -0.092126
  18 N :   -0.003950
  19 C :    0.091463
  20 C :   -0.161645
  21 C :    0.237658
  22 O :   -0.169249
  23 C :   -0.038660
  24 C :   -0.028451
  25 N :   -0.044490
  26 C :    0.095997
  27 C :   -0.081156
  28 C :    0.107064
  29 C :   -0.050681
  30 C :    0.007235
  31 C :   -0.131668
  32 S :    0.116573
  33 C :   -0.155593
  34 C :   -0.008696
  35 C :   -0.055036
  36 C :    0.093550
  37 C :   -0.237746
  38 N :    0.099682
  39 C :    0.003095
  40 C :    0.121710
  41 C :    0.176750
  42 O :   -0.382801
  43 C :    0.183421
  44 C :    0.080901
  45 C :   -0.013531
  46 C :    0.021531
  47 N :   -0.036071
  48 C :    0.062531
  49 C :   -0.156529
  50 C :    0.217726
  51 O :   -0.127323
  52 C :   -0.006293
  53 C :   -0.027978
  54 N :   -0.054451
  55 C :    0.091194
  56 C :   -0.100960
  57 C :    0.038364
  58 C :   -0.028536
  59 C :   -0.065282
  60 C :    0.112081
  61 C :   -0.057544
  62 C :    0.012253
  63 N :    0.058645
  64 C :   -0.158875
  65 C :   -0.145326
  66 N :    0.079242
  67 C :   -0.188181
  68 N :    0.228162
  69 C :   -0.199484
  70 N :    0.235963
  71 C :   -0.067483
  72 C :    0.092031
  73 C :   -0.010286
  74 N :   -0.295002
  75 S :    0.558515
  76 N :   -0.245155
  77 H :   -0.009479
  78 H :    0.019020
  79 H :    0.004033
  80 H :    0.006652
  81 H :    0.018094
  82 H :    0.056449
  83 H :    0.034720
  84 H :    0.022576
  85 H :    0.018264
  86 H :    0.019099
  87 H :   -0.010084
  88 H :    0.034356
  89 H :    0.015541
  90 H :    0.014093
  91 H :    0.020501
  92 H :    0.002441
  93 H :    0.010012
  94 H :    0.000277
  95 H :   -0.002090
  96 H :    0.031305
  97 H :   -0.018720
Sum of atomic charges:    0.0000000

LOEWDIN ATOMIC CHARGES
----------------------
   0 C :    0.044391
   1 C :   -0.008532
   2 C :    0.019840
   3 N :    0.016486
   4 C :   -0.017186
   5 C :   -0.024676
   6 N :    0.005678
   7 C :   -0.035751
   8 N :    0.000996
   9 C :   -0.033507
  10 N :    0.003306
  11 C :   -0.040587
  12 C :   -0.036204
  13 C :   -0.044485
  14 N :   -0.278166
  15 S :    0.696028
  16 N :   -0.284681
  17 C :    0.080748
  18 N :   -0.068819
  19 C :    0.046529
  20 C :   -0.049401
  21 C :    0.079808
  22 O :   -0.170441
  23 C :   -0.039727
  24 C :    0.035699
  25 N :   -0.087398
  26 C :    0.084738
  27 C :   -0.023551
  28 C :   -0.017424
  29 C :   -0.018555
  30 C :   -0.029123
  31 C :   -0.161365
  32 S :    0.462495
  33 C :   -0.164983
  34 C :   -0.058406
  35 C :   -0.040640
  36 C :   -0.051424
  37 C :   -0.007643
  38 N :   -0.077914
  39 C :   -0.002659
  40 C :   -0.025653
  41 C :    0.075341
  42 O :   -0.167477
  43 C :    0.066888
  44 C :   -0.007138
  45 C :   -0.034922
  46 C :    0.065719
  47 N :   -0.101903
  48 C :    0.042696
  49 C :   -0.041254
  50 C :    0.068010
  51 O :   -0.127767
  52 C :   -0.039572
  53 C :    0.023480
  54 N :   -0.096917
  55 C :    0.075430
  56 C :   -0.032411
  57 C :   -0.028757
  58 C :   -0.020683
  59 C :    0.014876
  60 C :   -0.012661
  61 C :   -0.008137
  62 C :   -0.014724
  63 N :   -0.000637
  64 C :   -0.028062
  65 C :   -0.029270
  66 N :    0.014291
  67 C :   -0.033511
  68 N :   -0.005220
  69 C :   -0.035077
  70 N :   -0.004999
  71 C :    0.000817
  72 C :   -0.050048
  73 C :   -0.042705
  74 N :   -0.306678
  75 S :    0.726120
  76 N :   -0.276367
  77 H :    0.052933
  78 H :    0.027700
  79 H :    0.038209
  80 H :    0.022308
  81 H :    0.034483
  82 H :    0.067080
  83 H :    0.036139
  84 H :    0.032476
  85 H :    0.037011
  86 H :    0.035574
  87 H :    0.017909
  88 H :    0.026717
  89 H :    0.013452
  90 H :    0.009240
  91 H :    0.038205
  92 H :    0.035804
  93 H :    0.023867
  94 H :    0.036311
  95 H :    0.025870
  96 H :    0.036230
  97 H :    0.047870

  Mayer bond orders larger than 0.100000
B(  0-C ,  1-C ) :   1.2913 B(  0-C , 11-C ) :   0.1493 B(  0-C , 13-C ) :   1.1747
B(  0-C , 77-H ) :   1.0570 B(  1-C ,  2-C ) :   1.1319 B(  1-C ,  6-N ) :   1.3332
B(  2-C ,  3-N ) :   1.4438 B(  2-C , 11-C ) :   1.3327 B(  3-N ,  4-C ) :   1.7699
B(  4-C ,  5-C ) :   1.1630 B(  4-C ,  9-C ) :   1.1407 B(  5-C ,  6-N ) :   1.7979
B(  5-C ,  7-C ) :   1.1391 B(  7-C ,  8-N ) :   3.0549 B(  9-C , 10-N ) :   3.0486
B( 11-C , 12-C ) :   1.2996 B( 11-C , 17-C ) :   0.9629 B( 12-C , 13-C ) :   1.1112
B( 12-C , 16-N ) :   1.5057 B( 13-C , 14-N ) :   1.4466 B( 14-N , 15-S ) :   1.3252
B( 14-N , 16-N ) :   0.1598 B( 15-S , 16-N ) :   1.2857 B( 17-C , 18-N ) :   1.6806
B( 17-C , 19-C ) :   0.1330 B( 17-C , 28-C ) :   1.0326 B( 18-N , 19-C ) :   1.3152
B( 19-C , 20-C ) :   1.0372 B( 19-C , 24-C ) :   1.4387 B( 20-C , 21-C ) :   0.9114
B( 20-C , 28-C ) :   1.5416 B( 21-C , 22-O ) :   2.1708 B( 21-C , 23-C ) :   0.9159
B( 23-C , 24-C ) :   1.0515 B( 23-C , 27-C ) :   1.6248 B( 24-C , 25-N ) :   1.3063
B( 25-N , 26-C ) :   1.6636 B( 26-C , 27-C ) :   1.0568 B( 26-C , 78-H ) :   0.9891
B( 27-C , 79-H ) :   1.0098 B( 28-C , 29-C ) :   1.1214 B( 29-C , 30-C ) :   1.6342
B( 29-C , 80-H ) :   0.9550 B( 30-C , 31-C ) :   1.1557 B( 30-C , 81-H ) :   0.9606
B( 31-C , 32-S ) :   1.1133 B( 31-C , 35-C ) :   1.5008 B( 32-S , 33-C ) :   1.1336
B( 33-C , 34-C ) :   1.4993 B( 33-C , 44-C ) :   1.1437 B( 34-C , 35-C ) :   1.3101
B( 34-C , 41-C ) :   1.0035 B( 35-C , 36-C ) :   0.9863 B( 36-C , 37-C ) :   1.0711
B( 36-C , 39-C ) :   1.1134 B( 36-C , 82-H ) :   0.8150 B( 37-C , 38-N ) :   2.9778
B( 39-C , 40-C ) :   1.1145 B( 39-C , 83-H ) :   0.9415 B( 39-C , 84-H ) :   0.9134
B( 40-C , 41-C ) :   1.0417 B( 40-C , 85-H ) :   0.9039 B( 40-C , 86-H ) :   0.9317
B( 41-C , 42-O ) :   1.0243 B( 41-C , 87-H ) :   0.9152 B( 42-O , 43-C ) :   0.9751
B( 43-C , 88-H ) :   0.9809 B( 43-C , 89-H ) :   0.9658 B( 43-C , 90-H ) :   0.9674
B( 44-C , 45-C ) :   1.6557 B( 44-C , 91-H ) :   0.9307 B( 45-C , 46-C ) :   1.1373
B( 45-C , 92-H ) :   0.9513 B( 46-C , 47-N ) :   1.5988 B( 46-C , 48-C ) :   0.1059
B( 46-C , 57-C ) :   1.0019 B( 47-N , 48-C ) :   1.3378 B( 48-C , 49-C ) :   1.0611
B( 48-C , 53-C ) :   1.4264 B( 49-C , 50-C ) :   0.8923 B( 49-C , 57-C ) :   1.5589
B( 50-C , 51-O ) :   2.1935 B( 50-C , 52-C ) :   0.9267 B( 51-O , 96-H ) :   0.1013
B( 52-C , 53-C ) :   1.0674 B( 52-C , 56-C ) :   1.6039 B( 53-C , 54-N ) :   1.3109
B( 54-N , 55-C ) :   1.6576 B( 55-C , 56-C ) :   1.0670 B( 55-C , 93-H ) :   0.9890
B( 56-C , 94-H ) :   1.0131 B( 57-C , 58-C ) :   1.0984 B( 58-C , 59-C ) :   1.6272
B( 58-C , 95-H ) :   0.9644 B( 59-C , 60-C ) :   1.1465 B( 59-C , 96-H ) :   0.9382
B( 60-C , 61-C ) :   1.2569 B( 60-C , 71-C ) :   0.1402 B( 60-C , 73-C ) :   1.2107
B( 61-C , 62-C ) :   1.1327 B( 61-C , 66-N ) :   1.4442 B( 62-C , 63-N ) :   1.3411
B( 62-C , 71-C ) :   1.3042 B( 63-N , 64-C ) :   1.7901 B( 64-C , 65-C ) :   1.1785
B( 64-C , 69-C ) :   1.1515 B( 65-C , 66-N ) :   1.7754 B( 65-C , 67-C ) :   1.1429
B( 67-C , 68-N ) :   3.0430 B( 69-C , 70-N ) :   3.0558 B( 71-C , 72-C ) :   1.1917
B( 71-C , 97-H ) :   1.0535 B( 72-C , 73-C ) :   1.1208 B( 72-C , 76-N ) :   1.4548
B( 73-C , 74-N ) :   1.4816 B( 74-N , 75-S ) :   1.2752 B( 74-N , 76-N ) :   0.1520
B( 75-S , 76-N ) :   1.3404

-----------------------------------------------------------------------------
         ABSORPTION SPECTRUM VIA TRANSITION ELECTRIC DIPOLE MOMENTS
-----------------------------------------------------------------------------
State   Energy  Wavelength   fosc         T2         TX        TY        TZ
        (cm-1)    (nm)                  (au**2)     (au)      (au)      (au)
-----------------------------------------------------------------------------
   0   13830.8    723.0   0.066818157   1.59046  -1.10609   0.60292  -0.05926
   1   15899.2    629.0   0.155177749   3.21313   1.69110  -0.12390  -0.58135
   2   17655.7    566.4   0.094807512   1.76780  -0.64406  -1.03755   0.52582
   3   18322.0    545.8   0.656009591  11.78727  -2.62021   2.21193   0.17073
   4   19333.6    517.2   0.042022244   0.71555  -0.65533   0.52876   0.08069
   5   19513.7    512.5   0.023444844   0.39553  -0.43811   0.45011   0.03151
   6   20954.8    477.2   0.548664355   8.61985   2.19535   1.93225  -0.25830
   7   21304.2    469.4   0.173688225   2.68399   1.11262  -1.19340  -0.14785
   8   21556.6    463.9   0.375150616   5.72929   1.74905  -1.63047  -0.10800
   9   21783.9    459.1   0.043550849   0.65817  -0.42720  -0.65487   0.21637
  10   23815.5    419.9   0.005515877   0.07625   0.16460  -0.21768  -0.04210
  11   24391.0    410.0   0.009273715   0.12517   0.34620  -0.03814  -0.06211
  12   24653.6    405.6   0.022579043   0.30151   0.52868  -0.13850   0.05315
  13   24925.4    401.2   0.004843122   0.06397  -0.12170   0.20767  -0.07765
  14   25287.1    395.5   0.011214633   0.14600   0.24976  -0.27632   0.08526
  15   25798.7    387.6   0.000153947   0.00196   0.04425  -0.00054  -0.00254
  16   26022.8    384.3   0.003613389   0.04571  -0.16983  -0.12762  -0.02415
  17   26197.2    381.7   0.022996991   0.28900  -0.52101  -0.08983  -0.09732
  18   26479.4    377.7   0.004528862   0.05631  -0.13370   0.00042  -0.19604
  19   26935.6    371.3   0.022631999   0.27661  -0.37860   0.12878   0.34160
  20   27296.2    366.4   0.010883624   0.13126   0.33617  -0.07763  -0.11058
  21   27759.1    360.2   0.057449674   0.68133   0.80332  -0.00116  -0.18977
  22   27917.7    358.2   0.301017447   3.54966  -1.78059  -0.60773  -0.09910
  23   28166.0    355.0   0.019156941   0.22391  -0.41852   0.21290   0.05856
  24   28666.8    348.8   0.183570992   2.10814  -1.33249   0.53500   0.21541
  25   28891.0    346.1   0.011208711   0.12772   0.21542  -0.28516  -0.00041
  26   28998.2    344.8   0.257898753   2.92789  -0.82684   0.78604   1.27529
  27   29188.4    342.6   0.153176150   1.72765  -0.56868  -1.06935   0.51062
  28   29702.1    336.7   0.062659116   0.69450   0.53488   0.58274  -0.26234
  29   30156.0    331.6   0.007389580   0.08067  -0.26869  -0.09059   0.01654
  30   30316.5    329.9   0.020862347   0.22655   0.07529   0.45574   0.11481
  31   30537.5    327.5   0.044859948   0.48362  -0.35378   0.57400   0.17022
  32   30611.3    326.7   0.003328391   0.03580  -0.18222  -0.02237  -0.04573
  33   30724.6    325.5   0.028118275   0.30128  -0.35108  -0.40757   0.10915
  34   30967.2    322.9   0.045896709   0.48793   0.41102  -0.49846  -0.26557
  35   31232.9    320.2   0.067376174   0.71018   0.07113   0.82422   0.16057
  36   31349.5    319.0   0.017308812   0.18177  -0.41424  -0.09699  -0.02760
  37   31819.7    314.3   0.075563549   0.78179   0.12307  -0.86913  -0.10609
  38   32237.7    310.2   0.068734904   0.70192  -0.83266  -0.08956  -0.02410
  39   32315.0    309.5   0.006967223   0.07098   0.21693   0.15464   0.00310
  40   32431.1    308.3   0.246772114   2.50501  -1.49749   0.46564   0.21379
  41   32830.4    304.6   0.130773964   1.31136   0.05123  -1.14400  -0.00213
  42   33052.6    302.5   0.045562379   0.45381  -0.34820  -0.56731  -0.10358
  43   33141.8    301.7   0.049787714   0.49456  -0.04266  -0.70140   0.02803
  44   33334.1    300.0   0.051394295   0.50758  -0.06034  -0.70611   0.07308
  45   33824.8    295.6   0.121241459   1.18003  -0.18525   1.00235  -0.37549
  46   33850.8    295.4   0.084563784   0.82241   0.22523  -0.84006   0.25687
  47   33978.5    294.3   0.024979694   0.24202   0.33237  -0.36270  -0.00119
  48   34091.9    293.3   0.009957993   0.09616  -0.09938  -0.27115  -0.11297
  49   34162.1    292.7   0.027428394   0.26432   0.27619  -0.42482  -0.08700
  50   34332.4    291.3   0.000311713   0.00299   0.04036   0.01228  -0.03478
  51   34550.0    289.4   0.045333591   0.43196   0.52674   0.38609  -0.07380
  52   34690.1    288.3   0.060089396   0.57025   0.08727  -0.74960   0.02722
  53   34794.7    287.4   0.015476092   0.14643  -0.20858   0.29644  -0.12266
  54   34973.6    285.9   0.116604141   1.09761   0.00367   1.04266  -0.10227
  55   35009.5    285.6   0.035638825   0.33513  -0.43743   0.37445   0.05976
  56   35140.7    284.6   0.004709045   0.04412  -0.11246  -0.15125   0.09269
  57   35341.0    283.0   0.016560601   0.15427   0.29256  -0.23582  -0.11432
  58   35542.3    281.4   0.266603255   2.46942  -0.23492   1.54498  -0.16510
  59   35649.7    280.5   0.178137264   1.64503   0.46849   1.16761   0.24945
  60   35891.8    278.6   0.296696081   2.72140  -1.02329   1.28108  -0.18199
  61   36028.5    277.6   0.014221132   0.12995   0.30348   0.18993  -0.04210
  62   36174.5    276.4   0.547245833   4.98030  -0.22952   2.16182  -0.50412
  63   36308.0    275.4   0.040751900   0.36951  -0.01938  -0.59802   0.10722
  64   36386.9    274.8   0.011412444   0.10325  -0.08218   0.30676  -0.04900
  65   36483.3    274.1   0.059534989   0.53722   0.12776  -0.70979   0.13073
  66   36652.9    272.8   0.005249617   0.04715  -0.06894   0.20525  -0.01646
  67   36740.8    272.2   0.029895100   0.26787   0.33268   0.36375   0.15774
  68   36817.1    271.6   0.049227343   0.44018  -0.12797  -0.65037  -0.02871
  69   36935.2    270.7   0.012267247   0.10934   0.00725  -0.32431  -0.06410
  70   37130.2    269.3   0.000884277   0.00784   0.01594  -0.03415   0.08012
  71   37619.9    265.8   0.003574421   0.03128  -0.12053  -0.10686  -0.07304
  72   37785.4    264.7   0.000053758   0.00047   0.01828  -0.00891   0.00739
  73   38154.0    262.1   0.002058689   0.01776  -0.10471   0.07545  -0.03326
  74   38206.7    261.7   0.009356011   0.08062   0.11263   0.25861   0.03246
  75   38606.9    259.0   0.019345543   0.16496   0.06599  -0.36577  -0.16378
  76   38684.0    258.5   0.000358476   0.00305  -0.04008  -0.02965   0.02377
  77   38755.1    258.0   0.000050640   0.00043   0.00948  -0.00329  -0.01815
  78   38835.1    257.5   0.147140324   1.24733   0.24740  -0.79642  -0.74286
  79   38856.5    257.4   0.001629611   0.01381  -0.09527   0.05275  -0.04414
  80   38938.5    256.8   0.052021554   0.43983  -0.01089   0.49291   0.44356
  81   39038.1    256.2   0.095943595   0.80910  -0.32689   0.83200   0.10013
  82   39164.4    255.3   0.046952711   0.39468   0.27551  -0.56459  -0.00212
  83   39191.6    255.2   0.030234704   0.25397  -0.20267  -0.10447   0.44943
  84   39288.1    254.5   0.174808328   1.46480   0.59530  -0.09650  -1.04933
  85   39321.5    254.3   0.018567172   0.15545   0.11698  -0.33228  -0.17707
  86   39362.8    254.0   0.026463352   0.22133  -0.33878   0.20558   0.25355
  87   39574.4    252.7   0.133227906   1.10830   0.50775  -0.51951  -0.76197
  88   39772.4    251.4   0.244700124   2.02548   0.76830  -0.82271  -0.87084
  89   39917.8    250.5   0.082623632   0.68142  -0.24607   0.27606   0.73801
  90   40082.2    249.5   0.362029870   2.97350   1.25477  -0.19411  -1.16678
  91   40179.0    248.9   0.013353622   0.10941   0.32757   0.01319   0.04401
  92   40264.1    248.4   0.277254651   2.26692   0.97022  -0.09155  -1.14770

FINAL SINGLE POINT ENERGY     -4416.670358645632

DIPOLE MOMENT
-------------
                                X             Y             Z
Electronic contribution:     43.36547       1.34614      -2.58765
Nuclear contribution   :    -45.29592      -3.29702       5.23109
                        -----------------------------------------
Total Dipole Moment    :     -1.93045      -1.95088       2.64344
                        -----------------------------------------
Magnitude (a.u.)       :      3.81056
Magnitude (Debye)      :      9.68567

Rotational constants in cm-1:     0.001216     0.000456     0.000354
Rotational constants in MHz :    36.460387    13.681198    10.620378

                             ****ORCA TERMINATED NORMALLY****
TOTAL RUN TIME: 0 days 0 hours 20 minutes 15 seconds 704 msec
