                         Program Version 4.2.0 -  RELEASE  -
|  1> # ORCA input file
|  2> # SCF done       -171.940242722114          0.000965475862
|  3> ! CAM-B3LYP def2-SVP def2/J RIJCOSX Grid4 TightSCF
|  4> %maxcore 5000
|  5> %tddft
|  6>     Mode sTDDFT
|  7>     Ethresh 5.0
|  8>     maxcore 5000
|  9> end
| 10>
| 11> %pal
| 12>   nprocs 6
| 13>   end
| 14> * xyz 0 1
| 15>    C        4.98573        -4.32152        -2.41818
| 16>    C        5.82835        -3.30207        -1.99087
| 17>    C        5.31992        -1.98630        -1.68687
| 18>    N        6.17863        -0.99565        -1.40903
| 19>    C        7.44203        -1.26749        -1.24529
| 20>    C        7.92471        -2.62402        -1.37412
| 21>    N        7.13853        -3.56957        -1.80047
| 22>    C        9.29038        -2.91057        -1.11460
| 23>    N       10.39474        -3.10654        -0.88636
| 24>    C        8.36567        -0.21420        -1.02496
| 25>    N        9.14743         0.60252        -0.84426
| 26>    C        3.93590        -1.69874        -1.73000
| 27>    C        3.09714        -2.72498        -2.18971
| 28>    C        3.63309        -4.03053        -2.53726
| 29>    N        2.66336        -4.87735        -2.90843
| 30>    S        1.25684        -4.13281        -2.81771
| 31>    N        1.76489        -2.70019        -2.31225
| 32>    C        3.51568        -0.42689        -1.20260
| 33>    N        4.18148         0.06572        -0.17750
| 34>    C        3.63071         1.27297         0.08536
| 35>    C        2.54200         1.56925        -0.85057
| 36>    C        1.96550         2.89262        -0.56163
| 37>    O        1.06394         3.46941        -1.13134
| 38>    C        2.76280         3.34829         0.59412
| 39>    C        3.76879         2.32385         0.95602
| 40>    N        4.51421         2.73772         2.01051
| 41>    C        4.04996         3.92229         2.31476
| 42>    C        2.95600         4.36802         1.46566
| 43>    C        2.45088         0.48208        -1.69377
| 44>    C        1.61929         0.26079        -2.81789
| 45>    C        0.70305         1.16580        -3.26228
| 46>    C       -0.12003         0.93264        -4.38431
| 47>    C       -0.99308         1.85802        -4.87949
| 48>    C       -1.81856         1.61670        -5.99562
| 49>    C       -2.64253         2.55661        -6.54924
| 50>    C       -3.48816         2.35263        -7.66327
| 51>    C       -3.76381         1.14566        -8.24250
| 52>    C       -4.61248         1.01794        -9.36120
| 53>    N       -5.15290         2.06650        -9.98020
| 54>    C       -5.87666         1.56737       -10.99131
| 55>    C       -5.81611         0.09601       -11.02900
| 56>    C       -6.61349        -0.42762       -12.15521
| 57>    O       -6.78532        -1.58194       -12.48012
| 58>    C       -7.13549         0.80008       -12.77546
| 59>    C       -6.66747         1.99219       -12.03730
| 60>    N       -7.14120         3.12347       -12.60579
| 61>    C       -7.85802         2.71839       -13.62999
| 62>    C       -7.89545         1.28174       -13.79437
| 63>    C       -5.00443        -0.27435        -9.98579
| 64>    C       -4.59435        -1.55309        -9.52518
| 65>    C       -5.01880        -2.72362       -10.06371
| 66>    C       -4.62033        -4.01117        -9.59627
| 67>    C       -5.17881        -5.16880       -10.19651
| 68>    C       -4.81697        -6.50095        -9.77661
| 69>    N       -5.37488        -7.57576       -10.37997
| 70>    C       -6.24137        -7.38182       -11.33310
| 71>    C       -6.61058        -6.04957       -11.74654
| 72>    N       -6.07831        -5.00199       -11.17886
| 73>    C       -7.56958        -5.88306       -12.77761
| 74>    N       -8.34573        -5.81339       -13.61673
| 75>    C       -6.83291        -8.50158       -11.97491
| 76>    N       -7.33504        -9.38077       -12.50942
| 77>    C       -3.90061        -6.71668        -8.75489
| 78>    C       -3.34312        -5.59861        -8.14818
| 79>    C       -3.69265        -4.25019        -8.55628
| 80>    N       -3.03081        -3.34121        -7.83266
| 81>    S       -2.08966        -4.09370        -6.77276
| 82>    N       -2.44848        -5.60182        -7.15052
| 83>    H        5.36827        -5.31309        -2.59239
| 84>    H        4.47339         4.47924         3.13238
| 85>    H        2.44473         5.30638         1.55101
| 86>    H        1.73225        -0.67925        -3.33810
| 87>    H        0.59242         2.11021        -2.74617
| 88>    H       -0.04128        -0.03103        -4.87469
| 89>    H       -1.05411         2.82622        -4.40039
| 90>    H       -1.76402         0.62930        -6.43476
| 91>    H       -2.63663         3.54995        -6.11959
| 92>    H       -3.97963         3.21674        -8.08947
| 93>    H       -3.34308         0.23704        -7.83816
| 94>    H       -8.35386         3.43534       -14.26111
| 95>    H       -8.42084         0.75372       -14.56518
| 96>    H       -3.91186        -1.58546        -8.68846
| 97>    H       -5.70999        -2.72422       -10.89693
| 98>    H       -3.64039        -7.71623        -8.45184
| 99> *
|100>
|101>                          ****END OF INPUT****

CARTESIAN COORDINATES (ANGSTROEM)
---------------------------------
  C      4.985730   -4.321520   -2.418180
  C      5.828350   -3.302070   -1.990870
  C      5.319920   -1.986300   -1.686870
  N      6.178630   -0.995650   -1.409030
  C      7.442030   -1.267490   -1.245290
  C      7.924710   -2.624020   -1.374120
  N      7.138530   -3.569570   -1.800470
  C      9.290380   -2.910570   -1.114600
  N     10.394740   -3.106540   -0.886360
  C      8.365670   -0.214200   -1.024960
  N      9.147430    0.602520   -0.844260
  C      3.935900   -1.698740   -1.730000
  C      3.097140   -2.724980   -2.189710
  C      3.633090   -4.030530   -2.537260
  N      2.663360   -4.877350   -2.908430
  S      1.256840   -4.132810   -2.817710
  N      1.764890   -2.700190   -2.312250
  C      3.515680   -0.426890   -1.202600
  N      4.181480    0.065720   -0.177500
  C      3.630710    1.272970    0.085360
  C      2.542000    1.569250   -0.850570
  C      1.965500    2.892620   -0.561630
  O      1.063940    3.469410   -1.131340
  C      2.762800    3.348290    0.594120
  C      3.768790    2.323850    0.956020
  N      4.514210    2.737720    2.010510
  C      4.049960    3.922290    2.314760
  C      2.956000    4.368020    1.465660
  C      2.450880    0.482080   -1.693770
  C      1.619290    0.260790   -2.817890
  C      0.703050    1.165800   -3.262280
  C     -0.120030    0.932640   -4.384310
  C     -0.993080    1.858020   -4.879490
  C     -1.818560    1.616700   -5.995620
  C     -2.642530    2.556610   -6.549240
  C     -3.488160    2.352630   -7.663270
  C     -3.763810    1.145660   -8.242500
  C     -4.612480    1.017940   -9.361200
  N     -5.152900    2.066500   -9.980200
  C     -5.876660    1.567370  -10.991310
  C     -5.816110    0.096010  -11.029000
  C     -6.613490   -0.427620  -12.155210
  O     -6.785320   -1.581940  -12.480120
  C     -7.135490    0.800080  -12.775460
  C     -6.667470    1.992190  -12.037300
  N     -7.141200    3.123470  -12.605790
  C     -7.858020    2.718390  -13.629990
  C     -7.895450    1.281740  -13.794370
  C     -5.004430   -0.274350   -9.985790
  C     -4.594350   -1.553090   -9.525180
  C     -5.018800   -2.723620  -10.063710
  C     -4.620330   -4.011170   -9.596270
  C     -5.178810   -5.168800  -10.196510
  C     -4.816970   -6.500950   -9.776610
  N     -5.374880   -7.575760  -10.379970
  C     -6.241370   -7.381820  -11.333100
  C     -6.610580   -6.049570  -11.746540
  N     -6.078310   -5.001990  -11.178860
  C     -7.569580   -5.883060  -12.777610
  N     -8.345730   -5.813390  -13.616730
  C     -6.832910   -8.501580  -11.974910
  N     -7.335040   -9.380770  -12.509420
  C     -3.900610   -6.716680   -8.754890
  C     -3.343120   -5.598610   -8.148180
  C     -3.692650   -4.250190   -8.556280
  N     -3.030810   -3.341210   -7.832660
  S     -2.089660   -4.093700   -6.772760
  N     -2.448480   -5.601820   -7.150520
  H      5.368270   -5.313090   -2.592390
  H      4.473390    4.479240    3.132380
  H      2.444730    5.306380    1.551010
  H      1.732250   -0.679250   -3.338100
  H      0.592420    2.110210   -2.746170
  H     -0.041280   -0.031030   -4.874690
  H     -1.054110    2.826220   -4.400390
  H     -1.764020    0.629300   -6.434760
  H     -2.636630    3.549950   -6.119590
  H     -3.979630    3.216740   -8.089470
  H     -3.343080    0.237040   -7.838160
  H     -8.353860    3.435340  -14.261110
  H     -8.420840    0.753720  -14.565180
  H     -3.911860   -1.585460   -8.688460
  H     -5.709990   -2.724220  -10.896930
  H     -3.640390   -7.716230   -8.451840

 Total Charge           Charge          ....    0
 Multiplicity           Mult            ....    1
 Number of Electrons    NEL             ....  464
 Basis Dimension        Dim             .... 1040

ORBITAL ENERGIES
----------------

  NO   OCC          E(Eh)            E(eV)
   0   2.0000     -89.073777     -2423.8207
   1   2.0000     -89.059311     -2423.4270
   2   2.0000     -19.225980      -523.1655
   3   2.0000     -19.208285      -522.6840
   4   2.0000     -14.478227      -393.9726
   5   2.0000     -14.477175      -393.9440
   6   2.0000     -14.476539      -393.9267
   7   2.0000     -14.473468      -393.8431
   8   2.0000     -14.467281      -393.6747
   9   2.0000     -14.464430      -393.5971
  10   2.0000     -14.462755      -393.5516
  11   2.0000     -14.462410      -393.5422
  12   2.0000     -14.440936      -392.9578
  13   2.0000     -14.438908      -392.9027
  14   2.0000     -14.430545      -392.6751
  15   2.0000     -14.429758      -392.6537
  16   2.0000     -14.425748      -392.5446
  17   2.0000     -14.419714      -392.3804
  18   2.0000     -14.403687      -391.9442
  19   2.0000     -14.399161      -391.8211
  20   2.0000     -10.397788      -282.9382
  21   2.0000     -10.395782      -282.8836
  22   2.0000     -10.385499      -282.6038
  23   2.0000     -10.384678      -282.5814
  24   2.0000     -10.381697      -282.5003
  25   2.0000     -10.371636      -282.2266
  26   2.0000     -10.371162      -282.2137
  27   2.0000     -10.368301      -282.1358
  28   2.0000     -10.367151      -282.1045
  29   2.0000     -10.366832      -282.0958
  30   2.0000     -10.362509      -281.9782
  31   2.0000     -10.352928      -281.7175
  32   2.0000     -10.351167      -281.6696
  33   2.0000     -10.351087      -281.6674
  34   2.0000     -10.350595      -281.6540
  35   2.0000     -10.345027      -281.5025
  36   2.0000     -10.341174      -281.3976
  37   2.0000     -10.340584      -281.3816
  38   2.0000     -10.340444      -281.3778
  39   2.0000     -10.339734      -281.3585
  40   2.0000     -10.334607      -281.2189
  41   2.0000     -10.333273      -281.1826
  42   2.0000     -10.331331      -281.1298
  43   2.0000     -10.329302      -281.0746
  44   2.0000     -10.325929      -280.9828
  45   2.0000     -10.323337      -280.9123
  46   2.0000     -10.320548      -280.8364
  47   2.0000     -10.318812      -280.7891
  48   2.0000     -10.317637      -280.7572
  49   2.0000     -10.316788      -280.7341
  50   2.0000     -10.310085      -280.5517
  51   2.0000     -10.307870      -280.4914
  52   2.0000     -10.307712      -280.4871
  53   2.0000     -10.305457      -280.4257
  54   2.0000     -10.303095      -280.3615
  55   2.0000     -10.302922      -280.3568
  56   2.0000     -10.302651      -280.3494
  57   2.0000     -10.300994      -280.3043
  58   2.0000     -10.299616      -280.2668
  59   2.0000     -10.298542      -280.2376
  60   2.0000     -10.297721      -280.2152
  61   2.0000     -10.293687      -280.1055
  62   2.0000     -10.293667      -280.1049
  63   2.0000     -10.292550      -280.0745
  64   2.0000     -10.292343      -280.0689
  65   2.0000     -10.287146      -279.9275
  66   2.0000     -10.282892      -279.8117
  67   2.0000     -10.282205      -279.7930
  68   2.0000      -8.164963      -222.1799
  69   2.0000      -8.150751      -221.7932
  70   2.0000      -6.135811      -166.9639
  71   2.0000      -6.128288      -166.7592
  72   2.0000      -6.127974      -166.7507
  73   2.0000      -6.121717      -166.5804
  74   2.0000      -6.113873      -166.3670
  75   2.0000      -6.113858      -166.3665
  76   2.0000      -1.168236       -31.7893
  77   2.0000      -1.153806       -31.3967
  78   2.0000      -1.140284       -31.0287
  79   2.0000      -1.137171       -30.9440
  80   2.0000      -1.123158       -30.5627
  81   2.0000      -1.121703       -30.5231
  82   2.0000      -1.095868       -29.8201
  83   2.0000      -1.076200       -29.2849
  84   2.0000      -1.073376       -29.2081
  85   2.0000      -1.060714       -28.8635
  86   2.0000      -1.053073       -28.6556
  87   2.0000      -1.048290       -28.5254
  88   2.0000      -1.024900       -27.8890
  89   2.0000      -1.019843       -27.7514
  90   2.0000      -1.013535       -27.5797
  91   2.0000      -1.013143       -27.5690
  92   2.0000      -1.006763       -27.3954
  93   2.0000      -1.001394       -27.2493
  94   2.0000      -0.996351       -27.1121
  95   2.0000      -0.980858       -26.6905
  96   2.0000      -0.951715       -25.8975
  97   2.0000      -0.948697       -25.8154
  98   2.0000      -0.936924       -25.4950
  99   2.0000      -0.927870       -25.2486
 100   2.0000      -0.924408       -25.1544
 101   2.0000      -0.921541       -25.0764
 102   2.0000      -0.909788       -24.7566
 103   2.0000      -0.908387       -24.7185
 104   2.0000      -0.901203       -24.5230
 105   2.0000      -0.887229       -24.1427
 106   2.0000      -0.872541       -23.7430
 107   2.0000      -0.868862       -23.6429
 108   2.0000      -0.853940       -23.2369
 109   2.0000      -0.850774       -23.1507
 110   2.0000      -0.841553       -22.8998
 111   2.0000      -0.831331       -22.6217
 112   2.0000      -0.824899       -22.4467
 113   2.0000      -0.819316       -22.2947
 114   2.0000      -0.798561       -21.7299
 115   2.0000      -0.795751       -21.6535
 116   2.0000      -0.787593       -21.4315
 117   2.0000      -0.768879       -20.9223
 118   2.0000      -0.761310       -20.7163
 119   2.0000      -0.759405       -20.6645
 120   2.0000      -0.745163       -20.2769
 121   2.0000      -0.739701       -20.1283
 122   2.0000      -0.736291       -20.0355
 123   2.0000      -0.727782       -19.8040
 124   2.0000      -0.722483       -19.6598
 125   2.0000      -0.711165       -19.3518
 126   2.0000      -0.707972       -19.2649
 127   2.0000      -0.703506       -19.1434
 128   2.0000      -0.686879       -18.6909
 129   2.0000      -0.684372       -18.6227
 130   2.0000      -0.682263       -18.5653
 131   2.0000      -0.677640       -18.4395
 132   2.0000      -0.672800       -18.3078
 133   2.0000      -0.665502       -18.1092
 134   2.0000      -0.655637       -17.8408
 135   2.0000      -0.653836       -17.7918
 136   2.0000      -0.649280       -17.6678
 137   2.0000      -0.644640       -17.5416
 138   2.0000      -0.640768       -17.4362
 139   2.0000      -0.632935       -17.2230
 140   2.0000      -0.631364       -17.1803
 141   2.0000      -0.621943       -16.9239
 142   2.0000      -0.620105       -16.8739
 143   2.0000      -0.618611       -16.8333
 144   2.0000      -0.611040       -16.6273
 145   2.0000      -0.601332       -16.3631
 146   2.0000      -0.592004       -16.1092
 147   2.0000      -0.589106       -16.0304
 148   2.0000      -0.585148       -15.9227
 149   2.0000      -0.584862       -15.9149
 150   2.0000      -0.582801       -15.8588
 151   2.0000      -0.577655       -15.7188
 152   2.0000      -0.574816       -15.6415
 153   2.0000      -0.564136       -15.3509
 154   2.0000      -0.563601       -15.3364
 155   2.0000      -0.561417       -15.2769
 156   2.0000      -0.557871       -15.1804
 157   2.0000      -0.555322       -15.1111
 158   2.0000      -0.551082       -14.9957
 159   2.0000      -0.548677       -14.9303
 160   2.0000      -0.542685       -14.7672
 161   2.0000      -0.542222       -14.7546
 162   2.0000      -0.538123       -14.6431
 163   2.0000      -0.533326       -14.5125
 164   2.0000      -0.528640       -14.3850
 165   2.0000      -0.523866       -14.2551
 166   2.0000      -0.523113       -14.2346
 167   2.0000      -0.518066       -14.0973
 168   2.0000      -0.511232       -13.9113
 169   2.0000      -0.510556       -13.8929
 170   2.0000      -0.505533       -13.7562
 171   2.0000      -0.499630       -13.5956
 172   2.0000      -0.499006       -13.5786
 173   2.0000      -0.494549       -13.4574
 174   2.0000      -0.493679       -13.4337
 175   2.0000      -0.491205       -13.3664
 176   2.0000      -0.489186       -13.3114
 177   2.0000      -0.486550       -13.2397
 178   2.0000      -0.486480       -13.2378
 179   2.0000      -0.481158       -13.0930
 180   2.0000      -0.480207       -13.0671
 181   2.0000      -0.478726       -13.0268
 182   2.0000      -0.475819       -12.9477
 183   2.0000      -0.469822       -12.7845
 184   2.0000      -0.469329       -12.7711
 185   2.0000      -0.465357       -12.6630
 186   2.0000      -0.464919       -12.6511
 187   2.0000      -0.462493       -12.5851
 188   2.0000      -0.460536       -12.5318
 189   2.0000      -0.458891       -12.4871
 190   2.0000      -0.455472       -12.3940
 191   2.0000      -0.454731       -12.3739
 192   2.0000      -0.454014       -12.3544
 193   2.0000      -0.451240       -12.2789
 194   2.0000      -0.451090       -12.2748
 195   2.0000      -0.450369       -12.2552
 196   2.0000      -0.449840       -12.2408
 197   2.0000      -0.449073       -12.2199
 198   2.0000      -0.443448       -12.0668
 199   2.0000      -0.441775       -12.0213
 200   2.0000      -0.436272       -11.8716
 201   2.0000      -0.432931       -11.7806
 202   2.0000      -0.429457       -11.6861
 203   2.0000      -0.429049       -11.6750
 204   2.0000      -0.423320       -11.5191
 205   2.0000      -0.422412       -11.4944
 206   2.0000      -0.422037       -11.4842
 207   2.0000      -0.418070       -11.3763
 208   2.0000      -0.408421       -11.1137
 209   2.0000      -0.406429       -11.0595
 210   2.0000      -0.398743       -10.8504
 211   2.0000      -0.392157       -10.6711
 212   2.0000      -0.391098       -10.6423
 213   2.0000      -0.387795       -10.5525
 214   2.0000      -0.367891       -10.0108
 215   2.0000      -0.366942        -9.9850
 216   2.0000      -0.362621        -9.8674
 217   2.0000      -0.360631        -9.8133
 218   2.0000      -0.356457        -9.6997
 219   2.0000      -0.355680        -9.6785
 220   2.0000      -0.352834        -9.6011
 221   2.0000      -0.351458        -9.5636
 222   2.0000      -0.348026        -9.4703
 223   2.0000      -0.346978        -9.4417
 224   2.0000      -0.341598        -9.2953
 225   2.0000      -0.338613        -9.2141
 226   2.0000      -0.326706        -8.8901
 227   2.0000      -0.325960        -8.8698
 228   2.0000      -0.315778        -8.5928
 229   2.0000      -0.307395        -8.3646
 230   2.0000      -0.275946        -7.5089
 231   2.0000      -0.260117        -7.0781
 232   0.0000      -0.145739        -3.9658
 233   0.0000      -0.130377        -3.5477
 234   0.0000      -0.122015        -3.3202
 235   0.0000      -0.108266        -2.9461
 236   0.0000      -0.072630        -1.9763

MULLIKEN ATOMIC CHARGES
-----------------------
   0 C :   -0.049065
   1 C :    0.010345
   2 C :   -0.031003
   3 N :    0.098520
   4 C :   -0.128836
   5 C :   -0.147184
   6 N :    0.052551
   7 C :   -0.181620
   8 N :    0.234505
   9 C :   -0.185372
  10 N :    0.230663
  11 C :    0.072665
  12 C :    0.020056
  13 C :    0.084139
  14 N :   -0.260993
  15 S :    0.557984
  16 N :   -0.283539
  17 C :   -0.063543
  18 N :   -0.016153
  19 C :    0.077831
  20 C :   -0.183761
  21 C :    0.225289
  22 O :   -0.140543
  23 C :   -0.007748
  24 C :   -0.028498
  25 N :   -0.046640
  26 C :    0.096846
  27 C :   -0.093484
  28 C :    0.105936
  29 C :   -0.027742
  30 C :    0.028113
  31 C :    0.023652
  32 C :    0.024290
  33 C :    0.050712
  34 C :    0.001525
  35 C :    0.082087
  36 C :   -0.050381
  37 C :    0.045068
  38 N :   -0.041394
  39 C :    0.062913
  40 C :   -0.154514
  41 C :    0.214568
  42 O :   -0.131409
  43 C :   -0.014633
  44 C :   -0.041813
  45 N :   -0.054152
  46 C :    0.088634
  47 C :   -0.097728
  48 C :    0.060234
  49 C :   -0.013366
  50 C :   -0.075427
  51 C :    0.129778
  52 C :   -0.064966
  53 C :    0.018718
  54 N :    0.056525
  55 C :   -0.152633
  56 C :   -0.144884
  57 N :    0.085414
  58 C :   -0.187716
  59 N :    0.233725
  60 C :   -0.199295
  61 N :    0.238300
  62 C :   -0.074403
  63 C :    0.100349
  64 C :   -0.007724
  65 N :   -0.297196
  66 S :    0.530286
  67 N :   -0.264427
  68 H :   -0.003454
  69 H :    0.017979
  70 H :    0.000582
  71 H :   -0.030014
  72 H :    0.015229
  73 H :   -0.018399
  74 H :    0.010502
  75 H :   -0.004135
  76 H :    0.003186
  77 H :    0.026340
  78 H :   -0.017320
  79 H :    0.006521
  80 H :   -0.005408
  81 H :   -0.006048
  82 H :    0.022994
  83 H :   -0.016988
Sum of atomic charges:   -0.0000000

LOEWDIN ATOMIC CHARGES
----------------------
   0 C :    0.025214
   1 C :   -0.013184
   2 C :    0.018230
   3 N :    0.024062
   4 C :   -0.018541
   5 C :   -0.018173
   6 N :    0.000548
   7 C :   -0.035805
   8 N :    0.006285
   9 C :   -0.034154
  10 N :    0.006020
  11 C :   -0.033822
  12 C :   -0.036835
  13 C :   -0.049918
  14 N :   -0.276037
  15 S :    0.699403
  16 N :   -0.287780
  17 C :    0.072812
  18 N :   -0.067691
  19 C :    0.042610
  20 C :   -0.053562
  21 C :    0.071255
  22 O :   -0.138471
  23 C :   -0.037122
  24 C :    0.036942
  25 N :   -0.090751
  26 C :    0.085611
  27 C :   -0.025445
  28 C :   -0.017724
  29 C :   -0.022836
  30 C :    0.008811
  31 C :   -0.003971
  32 C :   -0.012221
  33 C :    0.018463
  34 C :   -0.033508
  35 C :    0.057389
  36 C :   -0.052569
  37 C :    0.069404
  38 N :   -0.113171
  39 C :    0.043910
  40 C :   -0.028995
  41 C :    0.065226
  42 O :   -0.134671
  43 C :   -0.043849
  44 C :    0.016250
  45 N :   -0.099030
  46 C :    0.069802
  47 C :   -0.038829
  48 C :   -0.034394
  49 C :   -0.002792
  50 C :    0.002464
  51 C :   -0.003724
  52 C :   -0.010166
  53 C :   -0.009706
  54 N :   -0.001579
  55 C :   -0.022613
  56 C :   -0.028025
  57 N :    0.018034
  58 C :   -0.034274
  59 N :   -0.000395
  60 C :   -0.035007
  61 N :   -0.000294
  62 C :   -0.008054
  63 C :   -0.046768
  64 C :   -0.038697
  65 N :   -0.286619
  66 S :    0.668661
  67 N :   -0.282650
  68 H :    0.054057
  69 H :    0.027164
  70 H :    0.036848
  71 H :    0.021221
  72 H :    0.033332
  73 H :    0.025024
  74 H :    0.038133
  75 H :    0.028547
  76 H :    0.035374
  77 H :    0.045455
  78 H :    0.026911
  79 H :    0.022369
  80 H :    0.034307
  81 H :    0.023340
  82 H :    0.036622
  83 H :    0.048315

  Mayer bond orders larger than 0.100000
B(  0-C ,  1-C ) :   1.2983 B(  0-C , 11-C ) :   0.1484 B(  0-C , 13-C ) :   1.1847
B(  0-C , 68-H ) :   1.0588 B(  1-C ,  2-C ) :   1.1344 B(  1-C ,  6-N ) :   1.3304
B(  2-C ,  3-N ) :   1.4212 B(  2-C , 11-C ) :   1.3248 B(  3-N ,  4-C ) :   1.7681
B(  4-C ,  5-C ) :   1.1563 B(  4-C ,  9-C ) :   1.1406 B(  5-C ,  6-N ) :   1.7994
B(  5-C ,  7-C ) :   1.1384 B(  7-C ,  8-N ) :   3.0541 B(  9-C , 10-N ) :   3.0465
B( 11-C , 12-C ) :   1.2905 B( 11-C , 17-C ) :   0.9745 B( 12-C , 13-C ) :   1.1164
B( 12-C , 16-N ) :   1.4842 B( 13-C , 14-N ) :   1.4489 B( 14-N , 15-S ) :   1.3284
B( 14-N , 16-N ) :   0.1610 B( 15-S , 16-N ) :   1.2835 B( 17-C , 18-N ) :   1.6585
B( 17-C , 19-C ) :   0.1314 B( 17-C , 28-C ) :   1.0399 B( 18-N , 19-C ) :   1.3124
B( 19-C , 20-C ) :   1.0640 B( 19-C , 24-C ) :   1.4405 B( 20-C , 21-C ) :   0.8981
B( 20-C , 28-C ) :   1.5128 B( 21-C , 22-O ) :   2.1798 B( 21-C , 23-C ) :   0.9258
B( 22-O , 72-H ) :   0.1048 B( 23-C , 24-C ) :   1.0587 B( 23-C , 27-C ) :   1.6276
B( 24-C , 25-N ) :   1.3009 B( 25-N , 26-C ) :   1.6706 B( 26-C , 27-C ) :   1.0476
B( 26-C , 69-H ) :   0.9890 B( 27-C , 70-H ) :   1.0107 B( 28-C , 29-C ) :   1.1290
B( 29-C , 30-C ) :   1.6087 B( 29-C , 71-H ) :   0.9572 B( 30-C , 31-C ) :   1.1374
B( 30-C , 72-H ) :   0.9630 B( 31-C , 32-C ) :   1.5745 B( 31-C , 73-H ) :   0.9894
B( 32-C , 33-C ) :   1.1617 B( 32-C , 74-H ) :   0.9938 B( 33-C , 34-C ) :   1.5995
B( 33-C , 75-H ) :   0.9709 B( 34-C , 35-C ) :   1.1395 B( 34-C , 76-H ) :   0.9832
B( 35-C , 36-C ) :   1.6044 B( 35-C , 77-H ) :   0.9770 B( 36-C , 37-C ) :   1.1950
B( 36-C , 78-H ) :   0.9486 B( 37-C , 38-N ) :   1.5580 B( 37-C , 39-C ) :   0.1091
B( 37-C , 48-C ) :   0.9901 B( 38-N , 39-C ) :   1.3909 B( 39-C , 40-C ) :   1.0551
B( 39-C , 44-C ) :   1.3752 B( 40-C , 41-C ) :   0.8882 B( 40-C , 48-C ) :   1.5521
B( 41-C , 42-O ) :   2.1982 B( 41-C , 43-C ) :   0.9296 B( 43-C , 44-C ) :   1.0772
B( 43-C , 47-C ) :   1.5832 B( 44-C , 45-N ) :   1.3360 B( 45-N , 46-C ) :   1.6311
B( 46-C , 47-C ) :   1.0877 B( 46-C , 79-H ) :   0.9892 B( 47-C , 80-H ) :   1.0111
B( 48-C , 49-C ) :   1.1140 B( 49-C , 50-C ) :   1.5910 B( 49-C , 81-H ) :   0.9491
B( 50-C , 51-C ) :   1.1690 B( 50-C , 82-H ) :   0.9541 B( 51-C , 52-C ) :   1.2514
B( 51-C , 62-C ) :   0.1385 B( 51-C , 64-C ) :   1.1908 B( 52-C , 53-C ) :   1.1281
B( 52-C , 57-N ) :   1.4414 B( 53-C , 54-N ) :   1.3303 B( 53-C , 62-C ) :   1.3194
B( 54-N , 55-C ) :   1.7978 B( 55-C , 56-C ) :   1.1711 B( 55-C , 60-C ) :   1.1490
B( 56-C , 57-N ) :   1.7797 B( 56-C , 58-C ) :   1.1458 B( 58-C , 59-N ) :   3.0422
B( 60-C , 61-N ) :   3.0563 B( 62-C , 63-C ) :   1.1775 B( 62-C , 83-H ) :   1.0548
B( 63-C , 64-C ) :   1.1284 B( 63-C , 67-N ) :   1.4594 B( 64-C , 65-N ) :   1.4831
B( 65-N , 66-S ) :   1.2787 B( 65-N , 67-N ) :   0.1606 B( 66-S , 67-N ) :   1.3120

-----------------------------------------------------------------------------
         ABSORPTION SPECTRUM VIA TRANSITION ELECTRIC DIPOLE MOMENTS
-----------------------------------------------------------------------------
State   Energy  Wavelength   fosc         T2         TX        TY        TZ
        (cm-1)    (nm)                  (au**2)     (au)      (au)      (au)
-----------------------------------------------------------------------------
   0   11164.1    895.7   0.094378553   2.78308   0.91533   0.41409   1.33183
   1   14989.0    667.2   0.464629564  10.20494  -1.60484  -2.13098  -1.75737
   2   15431.1    648.0   0.701118021  14.95785   2.38718  -1.25561   2.77176
   3   16661.4    600.2   0.398834743   7.88057   1.81401  -0.61811   2.05131
   4   17694.3    565.2   0.028856148   0.53688  -0.22835   0.66675  -0.20048
   5   19038.0    525.3   0.616327868  10.65775  -2.06801   0.51647  -2.47272
   6   19608.9    510.0   0.019633732   0.32963  -0.31561   0.04523  -0.47747
   7   20147.5    496.3   0.043054630   0.70351  -0.03580  -0.73405  -0.40423
   8   20645.8    484.4   0.441363883   7.03787  -0.57113   2.21139   1.34961
   9   20857.4    479.4   0.003702974   0.05845  -0.15545  -0.04825  -0.17875
  10   22260.0    449.2   0.046085718   0.68158   0.49116  -0.65649  -0.09680
  11   22941.9    435.9   0.003907858   0.05608  -0.09395   0.04999  -0.21154
  12   23679.1    422.3   0.024615121   0.34223   0.32925   0.22006   0.43058
  13   24664.2    405.4   0.000014819   0.00020   0.00819  -0.00603  -0.00972
  14   24909.9    401.4   0.001120921   0.01481  -0.03558  -0.03719  -0.11030
  15   25019.3    399.7   0.015933180   0.20965   0.06582   0.33920   0.30044
  16   25332.2    394.8   0.006305995   0.08195   0.08703  -0.23731  -0.13440
  17   25533.7    391.6   0.018698050   0.24108  -0.20490  -0.37969  -0.23437
  18   25628.3    390.2   0.004522662   0.05810   0.23677   0.00754  -0.04449
  19   25981.3    384.9   0.008572002   0.10862  -0.09504  -0.14434  -0.28062
  20   26039.4    384.0   0.066885080   0.84562  -0.46372  -0.61808  -0.49856
  21   26380.3    379.1   0.099618349   1.24318   0.68272  -0.34107   0.81286
  22   27105.0    368.9   0.060259686   0.73190   0.09369   0.41878   0.74010
  23   27661.5    361.5   0.008401467   0.09999  -0.10795   0.27902  -0.10240
  24   27824.7    359.4   0.000977356   0.01156  -0.04056  -0.06846   0.07233
  25   28237.7    354.1   0.023654599   0.27578   0.30237  -0.20005   0.37991
  26   28759.7    347.7   0.056125725   0.64247  -0.14244   0.69112  -0.38017
  27   28893.1    346.1   0.138511629   1.57822  -1.07568  -0.14328  -0.63294
  28   29232.1    342.1   0.112643520   1.26859  -0.97672  -0.44934  -0.33572
  29   29439.0    339.7   0.074269141   0.83054   0.87560   0.24332   0.06827
  30   29652.3    337.2   0.277327940   3.07901   0.22213   1.73643   0.12029
  31   30189.3    331.2   0.133156477   1.45206   0.78737   0.22342   0.88442
  32   30722.2    325.5   0.042107751   0.45122   0.47427  -0.27785   0.38612
  33   30901.8    323.6   0.004820076   0.05135   0.13071   0.13797   0.12341
  34   30961.6    323.0   0.032427213   0.34480   0.23812   0.45197   0.28951
  35   31073.6    321.8   0.004134917   0.04381   0.14105   0.12816   0.08653
  36   31264.7    319.8   0.060871681   0.64097   0.39564  -0.60965  -0.33580
  37   31399.7    318.5   0.024072331   0.25239  -0.14103   0.25334  -0.41026
  38   31547.2    317.0   0.103135684   1.07628   0.24505  -0.98430   0.21768
  39   31753.8    314.9   0.043461076   0.45059  -0.50496   0.26374  -0.35503
  40   31896.4    313.5   0.017401342   0.17960  -0.07646   0.17053  -0.38037
  41   32110.1    311.4   0.003820938   0.03917   0.12004  -0.02138  -0.15591
  42   32272.0    309.9   0.000049767   0.00051  -0.01993  -0.00627   0.00843
  43   32309.6    309.5   0.000043849   0.00045   0.00833  -0.00601   0.01847
  44   32349.9    309.1   0.009845136   0.10019  -0.02988  -0.11985   0.29143
  45   32564.4    307.1   0.027343595   0.27643   0.24043  -0.38588  -0.26405
  46   32937.9    303.6   0.138537402   1.38467  -0.69894   0.94665  -0.00254
  47   33201.3    301.2   0.002737754   0.02715  -0.03134   0.16106   0.01495
  48   33516.7    298.4   0.004635308   0.04553   0.16510  -0.13514  -0.00297
  49   33745.1    296.3   0.018195279   0.17751   0.10967  -0.37136  -0.16606
  50   34087.9    293.4   0.012340661   0.11918   0.25391   0.06145   0.22569
  51   34181.7    292.6   0.000230018   0.00222   0.01514  -0.00426  -0.04436
  52   34391.6    290.8   0.117453375   1.12432  -0.75942  -0.18993  -0.71521
  53   34695.5    288.2   0.817084829   7.75301   1.93028   0.67844   1.88859
  54   35350.2    282.9   0.011443721   0.10657   0.10215   0.20123  -0.23590
  55   35466.5    282.0   0.000179513   0.00167  -0.03100   0.01155   0.02391
  56   35612.8    280.8   0.016281437   0.15051  -0.24475  -0.06647  -0.29358
  57   36068.4    277.3   0.012269582   0.11199   0.30567   0.13018   0.04011
  58   36136.4    276.7   0.000430049   0.00392  -0.01170  -0.05714   0.02271
  59   36363.4    275.0   0.048831145   0.44209  -0.48789  -0.15988  -0.42248
  60   36554.6    273.6   0.413283895   3.72205   1.34229   0.44908   1.31097
  61   36672.2    272.7   0.012766021   0.11460   0.02228   0.25147  -0.22554
  62   36898.6    271.0   0.013878804   0.12383   0.05587  -0.03884  -0.34525
  63   37036.8    270.0   0.032387981   0.28789   0.49405   0.03060   0.20704
  64   37135.9    269.3   0.000883427   0.00783  -0.05741  -0.06629  -0.01186
  65   37231.0    268.6   0.009435493   0.08343  -0.03284   0.11147   0.26444
  66   37241.0    268.5   0.018302206   0.16179   0.03413  -0.17242  -0.36180
  67   37580.3    266.1   0.002605586   0.02283  -0.08914   0.09051   0.08178
  68   37592.5    266.0   0.004183537   0.03664   0.08576  -0.07681  -0.15292
  69   37833.0    264.3   0.159223749   1.38552   0.81002   0.35591   0.77635
  70   38009.0    263.1   0.021792409   0.18875  -0.40569  -0.15308   0.02706
  71   38061.5    262.7   0.000557576   0.00482   0.05618  -0.00173   0.04079
  72   38266.4    261.3   0.000612875   0.00527  -0.07041  -0.01698   0.00521
  73   38371.9    260.6   0.065058928   0.55817   0.73890  -0.09989   0.04716
  74   38519.4    259.6   0.042202550   0.36069   0.38578  -0.39992   0.22788
  75   38540.0    259.5   0.045875742   0.39187  -0.35446   0.45476   0.24377
  76   38933.1    256.9   0.217100599   1.83577   1.23416  -0.33557   0.44721
  77   39057.2    256.0   0.192954725   1.62641  -1.25689  -0.20000   0.08150
  78   39083.2    255.9   0.109307744   0.92074  -0.74052   0.58462   0.17490
  79   39364.4    254.0   0.000218017   0.00182  -0.04257  -0.00063   0.00328
  80   39474.3    253.3   0.021490224   0.17923  -0.34044  -0.10921  -0.22672
  81   39594.2    252.6   0.024582134   0.20439  -0.27370  -0.35625  -0.05063
  82   39624.5    252.4   0.022916035   0.19039  -0.36535   0.20535  -0.12141
  83   39732.7    251.7   0.018754946   0.15540   0.20156  -0.00936   0.33865
  84   39967.5    250.2   0.373880829   3.07965   1.54227   0.78254   0.29782
  85   40215.4    248.7   0.304181775   2.49010   0.97028   1.12627   0.52931

FINAL SINGLE POINT ENERGY     -3657.421201620669

DIPOLE MOMENT
-------------
                                X             Y             Z
Electronic contribution:     16.40385     -30.77764       6.50004
Nuclear contribution   :    -15.86578      31.45683      -3.85649
                        -----------------------------------------
Total Dipole Moment    :      0.53807       0.67919       2.64354
                        -----------------------------------------
Magnitude (a.u.)       :      2.78193
Magnitude (Debye)      :      7.07111

Rotational constants in cm-1:     0.001490     0.000365     0.000308
Rotational constants in MHz :    44.665076    10.946755     9.225567

                             ****ORCA TERMINATED NORMALLY****
TOTAL RUN TIME: 0 days 0 hours 10 minutes 51 seconds 149 msec
