                         Program Version 4.2.0 -  RELEASE  -
|  1> # ORCA input file
|  2> # SCF done       -182.146070921934          0.000736601467
|  3> ! CAM-B3LYP def2-SVP def2/J RIJCOSX Grid4 TightSCF
|  4> %maxcore 5000
|  5> %tddft
|  6>     Mode sTDDFT
|  7>     Ethresh 5.0
|  8>     maxcore 5000
|  9> end
| 10>
| 11> %pal
| 12>   nprocs 6
| 13>   end
| 14> * xyz 0 1
| 15>    C       -1.86083        -0.93600         1.16751
| 16>    C       -1.72194        -1.01705        -0.21242
| 17>    C       -0.57833        -1.65640        -0.82130
| 18>    N       -0.36756        -1.48065        -2.13773
| 19>    C       -1.29058        -0.91794        -2.88177
| 20>    C       -2.57416        -0.60094        -2.30277
| 21>    N       -2.72481        -0.58579        -1.00832
| 22>    C       -3.71241        -0.40289        -3.12251
| 23>    N       -4.64838        -0.36587        -3.78217
| 24>    C       -0.97671        -0.59770        -4.22320
| 25>    N       -0.71880        -0.32069        -5.30589
| 26>    C        0.34365        -2.39485        -0.04623
| 27>    C        0.19790        -2.30412         1.35018
| 28>    C       -0.88711        -1.54748         1.94901
| 29>    N       -0.84009        -1.59799         3.28676
| 30>    S        0.40964        -2.49566         3.72400
| 31>    N        0.95984        -2.88562         2.27585
| 32>    C        1.37360        -3.18197        -0.65787
| 33>    N        2.56428        -3.36640        -0.12801
| 34>    C        3.27835        -4.05105        -1.04881
| 35>    C        2.48457        -4.29008        -2.26460
| 36>    C        3.27787        -5.01288        -3.27265
| 37>    O        2.95688        -5.32695        -4.39844
| 38>    C        4.55808        -5.22601        -2.57252
| 39>    C        4.51755        -4.61752        -1.22521
| 40>    N        5.68551        -4.83050        -0.57085
| 41>    C        6.42419        -5.52298        -1.40246
| 42>    C        5.77905        -5.81304        -2.66724
| 43>    C        1.24065        -3.79010        -2.00653
| 44>    C        0.03690        -3.76656        -2.76872
| 45>    C        0.01446        -3.70061        -4.12741
| 46>    C       -1.15420        -3.42389        -4.86748
| 47>    N       -1.09859        -3.15931        -6.21400
| 48>    C       -2.31843        -2.72542        -6.62451
| 49>    C       -3.03601        -2.25602        -7.70865
| 50>    C       -4.34720        -2.02979        -7.23944
| 51>    N       -4.43018        -2.38100        -5.91108
| 52>    C       -3.19967        -2.77552        -5.50147
| 53>    C       -2.47544        -3.21303        -4.40551
| 54>    C       -5.43542        -1.56000        -8.00354
| 55>    C       -6.74562        -1.60281        -7.62557
| 56>    C       -7.82540        -1.15804        -8.42267
| 57>    N       -9.03628        -1.69534        -8.28937
| 58>    C       -9.79205        -1.15288        -9.25409
| 59>    C       -9.02962        -0.18050       -10.05714
| 60>    C       -9.88613         0.42169       -11.09598
| 61>    O       -9.58628         1.24598       -11.93291
| 62>    C      -11.17990        -0.23816       -10.86334
| 63>    C      -11.08183        -1.19192        -9.74014
| 64>    N      -12.27297        -1.78801        -9.51287
| 65>    C      -13.09163        -1.26906       -10.40164
| 66>    C      -12.47779        -0.29186       -11.26908
| 67>    C       -7.77488        -0.13937        -9.50479
| 68>    C       -6.68195         0.74424        -9.71661
| 69>    C       -6.51921         1.52855       -10.81064
| 70>    C       -5.43951         2.44313       -11.01400
| 71>    C       -4.34237         2.65524       -10.13726
| 72>    C       -3.34963         3.67782       -10.40011
| 73>    N       -2.35486         3.89866        -9.51136
| 74>    C       -2.29409         3.17659        -8.42715
| 75>    C       -3.23827         2.11890        -8.19543
| 76>    N       -4.21027         1.89167        -9.04390
| 77>    C       -3.16672         1.28940        -7.05126
| 78>    N       -3.14554         0.61476        -6.12512
| 79>    C       -1.28042         3.42690        -7.46609
| 80>    N       -0.49004         3.60181        -6.65621
| 81>    C       -3.38961         4.46599       -11.54448
| 82>    C       -4.42757         4.24336       -12.43964
| 83>    C       -5.44210         3.24329       -12.17668
| 84>    N       -6.34857         3.19778       -13.15608
| 85>    S       -5.97472         4.28058       -14.26756
| 86>    N       -4.65043         4.87937       -13.59852
| 87>    H       -2.71820        -0.45291         1.60515
| 88>    H        7.42068        -5.82045        -1.12574
| 89>    H        6.21083        -6.37039        -3.47495
| 90>    H       -0.89102        -3.83099        -2.21662
| 91>    H        0.95156        -3.72896        -4.66583
| 92>    H       -0.24720        -3.15534        -6.75040
| 93>    H       -2.70022        -2.08898        -8.71217
| 94>    H       -5.19329        -2.12140        -5.30667
| 95>    H       -2.83383        -3.39671        -3.41214
| 96>    H       -5.17923        -1.21119        -8.99395
| 97>    H       -7.03304        -2.10196        -6.71048
| 98>    H      -14.12068        -1.58228       -10.43687
| 99>    H      -12.97284         0.24847       -12.05150
|100>    H       -5.96130         0.80247        -8.91506
|101>    H       -7.24985         1.50312       -11.60962
|102>    H       -2.64541         5.22569       -11.71082
|103> *
|104>
|105>                          ****END OF INPUT****

CARTESIAN COORDINATES (ANGSTROEM)
---------------------------------
  C     -1.860830   -0.936000    1.167510
  C     -1.721940   -1.017050   -0.212420
  C     -0.578330   -1.656400   -0.821300
  N     -0.367560   -1.480650   -2.137730
  C     -1.290580   -0.917940   -2.881770
  C     -2.574160   -0.600940   -2.302770
  N     -2.724810   -0.585790   -1.008320
  C     -3.712410   -0.402890   -3.122510
  N     -4.648380   -0.365870   -3.782170
  C     -0.976710   -0.597700   -4.223200
  N     -0.718800   -0.320690   -5.305890
  C      0.343650   -2.394850   -0.046230
  C      0.197900   -2.304120    1.350180
  C     -0.887110   -1.547480    1.949010
  N     -0.840090   -1.597990    3.286760
  S      0.409640   -2.495660    3.724000
  N      0.959840   -2.885620    2.275850
  C      1.373600   -3.181970   -0.657870
  N      2.564280   -3.366400   -0.128010
  C      3.278350   -4.051050   -1.048810
  C      2.484570   -4.290080   -2.264600
  C      3.277870   -5.012880   -3.272650
  O      2.956880   -5.326950   -4.398440
  C      4.558080   -5.226010   -2.572520
  C      4.517550   -4.617520   -1.225210
  N      5.685510   -4.830500   -0.570850
  C      6.424190   -5.522980   -1.402460
  C      5.779050   -5.813040   -2.667240
  C      1.240650   -3.790100   -2.006530
  C      0.036900   -3.766560   -2.768720
  C      0.014460   -3.700610   -4.127410
  C     -1.154200   -3.423890   -4.867480
  N     -1.098590   -3.159310   -6.214000
  C     -2.318430   -2.725420   -6.624510
  C     -3.036010   -2.256020   -7.708650
  C     -4.347200   -2.029790   -7.239440
  N     -4.430180   -2.381000   -5.911080
  C     -3.199670   -2.775520   -5.501470
  C     -2.475440   -3.213030   -4.405510
  C     -5.435420   -1.560000   -8.003540
  C     -6.745620   -1.602810   -7.625570
  C     -7.825400   -1.158040   -8.422670
  N     -9.036280   -1.695340   -8.289370
  C     -9.792050   -1.152880   -9.254090
  C     -9.029620   -0.180500  -10.057140
  C     -9.886130    0.421690  -11.095980
  O     -9.586280    1.245980  -11.932910
  C    -11.179900   -0.238160  -10.863340
  C    -11.081830   -1.191920   -9.740140
  N    -12.272970   -1.788010   -9.512870
  C    -13.091630   -1.269060  -10.401640
  C    -12.477790   -0.291860  -11.269080
  C     -7.774880   -0.139370   -9.504790
  C     -6.681950    0.744240   -9.716610
  C     -6.519210    1.528550  -10.810640
  C     -5.439510    2.443130  -11.014000
  C     -4.342370    2.655240  -10.137260
  C     -3.349630    3.677820  -10.400110
  N     -2.354860    3.898660   -9.511360
  C     -2.294090    3.176590   -8.427150
  C     -3.238270    2.118900   -8.195430
  N     -4.210270    1.891670   -9.043900
  C     -3.166720    1.289400   -7.051260
  N     -3.145540    0.614760   -6.125120
  C     -1.280420    3.426900   -7.466090
  N     -0.490040    3.601810   -6.656210
  C     -3.389610    4.465990  -11.544480
  C     -4.427570    4.243360  -12.439640
  C     -5.442100    3.243290  -12.176680
  N     -6.348570    3.197780  -13.156080
  S     -5.974720    4.280580  -14.267560
  N     -4.650430    4.879370  -13.598520
  H     -2.718200   -0.452910    1.605150
  H      7.420680   -5.820450   -1.125740
  H      6.210830   -6.370390   -3.474950
  H     -0.891020   -3.830990   -2.216620
  H      0.951560   -3.728960   -4.665830
  H     -0.247200   -3.155340   -6.750400
  H     -2.700220   -2.088980   -8.712170
  H     -5.193290   -2.121400   -5.306670
  H     -2.833830   -3.396710   -3.412140
  H     -5.179230   -1.211190   -8.993950
  H     -7.033040   -2.101960   -6.710480
  H    -14.120680   -1.582280  -10.436870
  H    -12.972840    0.248470  -12.051500
  H     -5.961300    0.802470   -8.915060
  H     -7.249850    1.503120  -11.609620
  H     -2.645410    5.225690  -11.710820

 Total Charge           Charge          ....    0
 Multiplicity           Mult            ....    1
 Number of Electrons    NEL             ....  490
 Basis Dimension        Dim             .... 1096

ORBITAL ENERGIES
----------------

  NO   OCC          E(Eh)            E(eV)
   0   2.0000     -89.049116     -2423.1496
   1   2.0000     -89.045533     -2423.0521
   2   2.0000     -19.211300      -522.7661
   3   2.0000     -19.201761      -522.5065
   4   2.0000     -14.470883      -393.7727
   5   2.0000     -14.465434      -393.6245
   6   2.0000     -14.463603      -393.5747
   7   2.0000     -14.463432      -393.5700
   8   2.0000     -14.462893      -393.5553
   9   2.0000     -14.461148      -393.5078
  10   2.0000     -14.456019      -393.3683
  11   2.0000     -14.451799      -393.2534
  12   2.0000     -14.451069      -393.2336
  13   2.0000     -14.448377      -393.1603
  14   2.0000     -14.437841      -392.8736
  15   2.0000     -14.429663      -392.6511
  16   2.0000     -14.429330      -392.6420
  17   2.0000     -14.424329      -392.5059
  18   2.0000     -14.415110      -392.2551
  19   2.0000     -14.404821      -391.9751
  20   2.0000     -14.394049      -391.6820
  21   2.0000     -14.391640      -391.6164
  22   2.0000     -10.387477      -282.6576
  23   2.0000     -10.383725      -282.5555
  24   2.0000     -10.382541      -282.5233
  25   2.0000     -10.381450      -282.4936
  26   2.0000     -10.371093      -282.2118
  27   2.0000     -10.362014      -281.9647
  28   2.0000     -10.359766      -281.9036
  29   2.0000     -10.353177      -281.7243
  30   2.0000     -10.349432      -281.6223
  31   2.0000     -10.349311      -281.6191
  32   2.0000     -10.347302      -281.5644
  33   2.0000     -10.347109      -281.5592
  34   2.0000     -10.346880      -281.5529
  35   2.0000     -10.339977      -281.3651
  36   2.0000     -10.339688      -281.3572
  37   2.0000     -10.332980      -281.1747
  38   2.0000     -10.332543      -281.1628
  39   2.0000     -10.331447      -281.1330
  40   2.0000     -10.328178      -281.0440
  41   2.0000     -10.323507      -280.9169
  42   2.0000     -10.323155      -280.9073
  43   2.0000     -10.322732      -280.8958
  44   2.0000     -10.322717      -280.8954
  45   2.0000     -10.322656      -280.8938
  46   2.0000     -10.321513      -280.8626
  47   2.0000     -10.321247      -280.8554
  48   2.0000     -10.320589      -280.8375
  49   2.0000     -10.319537      -280.8089
  50   2.0000     -10.317793      -280.7614
  51   2.0000     -10.310400      -280.5602
  52   2.0000     -10.309505      -280.5359
  53   2.0000     -10.309299      -280.5303
  54   2.0000     -10.308193      -280.5002
  55   2.0000     -10.306557      -280.4557
  56   2.0000     -10.305271      -280.4207
  57   2.0000     -10.302593      -280.3478
  58   2.0000     -10.299217      -280.2559
  59   2.0000     -10.296227      -280.1746
  60   2.0000     -10.292512      -280.0735
  61   2.0000     -10.290277      -280.0127
  62   2.0000     -10.287527      -279.9378
  63   2.0000     -10.286649      -279.9139
  64   2.0000     -10.285886      -279.8932
  65   2.0000     -10.285777      -279.8902
  66   2.0000     -10.285252      -279.8759
  67   2.0000     -10.283766      -279.8355
  68   2.0000     -10.283468      -279.8274
  69   2.0000     -10.281443      -279.7723
  70   2.0000     -10.276005      -279.6243
  71   2.0000     -10.275206      -279.6026
  72   2.0000      -8.140528      -221.5150
  73   2.0000      -8.136852      -221.4150
  74   2.0000      -6.111359      -166.2985
  75   2.0000      -6.107678      -166.1984
  76   2.0000      -6.103846      -166.0941
  77   2.0000      -6.103504      -166.0848
  78   2.0000      -6.100160      -165.9938
  79   2.0000      -6.099873      -165.9860
  80   2.0000      -1.145822       -31.1794
  81   2.0000      -1.140770       -31.0419
  82   2.0000      -1.125363       -30.6227
  83   2.0000      -1.124838       -30.6084
  84   2.0000      -1.119962       -30.4757
  85   2.0000      -1.116080       -30.3701
  86   2.0000      -1.103345       -30.0235
  87   2.0000      -1.081054       -29.4170
  88   2.0000      -1.066454       -29.0197
  89   2.0000      -1.065007       -28.9803
  90   2.0000      -1.060270       -28.8514
  91   2.0000      -1.049822       -28.5671
  92   2.0000      -1.046881       -28.4871
  93   2.0000      -1.045185       -28.4409
  94   2.0000      -1.018386       -27.7117
  95   2.0000      -1.013168       -27.5697
  96   2.0000      -1.004912       -27.3450
  97   2.0000      -1.002746       -27.2861
  98   2.0000      -0.996936       -27.1280
  99   2.0000      -0.992547       -27.0086
 100   2.0000      -0.981082       -26.6966
 101   2.0000      -0.974747       -26.5242
 102   2.0000      -0.935736       -25.4627
 103   2.0000      -0.927697       -25.2439
 104   2.0000      -0.926082       -25.2000
 105   2.0000      -0.918917       -25.0050
 106   2.0000      -0.909649       -24.7528
 107   2.0000      -0.906749       -24.6739
 108   2.0000      -0.903671       -24.5901
 109   2.0000      -0.896442       -24.3934
 110   2.0000      -0.883459       -24.0401
 111   2.0000      -0.878426       -23.9032
 112   2.0000      -0.873096       -23.7582
 113   2.0000      -0.858481       -23.3605
 114   2.0000      -0.854777       -23.2597
 115   2.0000      -0.844494       -22.9798
 116   2.0000      -0.836238       -22.7552
 117   2.0000      -0.834125       -22.6977
 118   2.0000      -0.822829       -22.3903
 119   2.0000      -0.809546       -22.0289
 120   2.0000      -0.807717       -21.9791
 121   2.0000      -0.796559       -21.6755
 122   2.0000      -0.786168       -21.3927
 123   2.0000      -0.773519       -21.0485
 124   2.0000      -0.757690       -20.6178
 125   2.0000      -0.750270       -20.4159
 126   2.0000      -0.742881       -20.2148
 127   2.0000      -0.738580       -20.0978
 128   2.0000      -0.729031       -19.8379
 129   2.0000      -0.724906       -19.7257
 130   2.0000      -0.717038       -19.5116
 131   2.0000      -0.707315       -19.2470
 132   2.0000      -0.706426       -19.2228
 133   2.0000      -0.701348       -19.0847
 134   2.0000      -0.699908       -19.0455
 135   2.0000      -0.694164       -18.8892
 136   2.0000      -0.692385       -18.8407
 137   2.0000      -0.689957       -18.7747
 138   2.0000      -0.671605       -18.2753
 139   2.0000      -0.668618       -18.1940
 140   2.0000      -0.660722       -17.9792
 141   2.0000      -0.654239       -17.8028
 142   2.0000      -0.652070       -17.7437
 143   2.0000      -0.650257       -17.6944
 144   2.0000      -0.643904       -17.5215
 145   2.0000      -0.637639       -17.3510
 146   2.0000      -0.632651       -17.2153
 147   2.0000      -0.625363       -17.0170
 148   2.0000      -0.624801       -17.0017
 149   2.0000      -0.623620       -16.9696
 150   2.0000      -0.611983       -16.6529
 151   2.0000      -0.610073       -16.6009
 152   2.0000      -0.607176       -16.5221
 153   2.0000      -0.598462       -16.2850
 154   2.0000      -0.588472       -16.0131
 155   2.0000      -0.584291       -15.8994
 156   2.0000      -0.578177       -15.7330
 157   2.0000      -0.576742       -15.6940
 158   2.0000      -0.574743       -15.6396
 159   2.0000      -0.573217       -15.5980
 160   2.0000      -0.564127       -15.3507
 161   2.0000      -0.561859       -15.2889
 162   2.0000      -0.558418       -15.1953
 163   2.0000      -0.555482       -15.1154
 164   2.0000      -0.552381       -15.0311
 165   2.0000      -0.549216       -14.9449
 166   2.0000      -0.544460       -14.8155
 167   2.0000      -0.544302       -14.8112
 168   2.0000      -0.542654       -14.7664
 169   2.0000      -0.538661       -14.6577
 170   2.0000      -0.535693       -14.5769
 171   2.0000      -0.533310       -14.5121
 172   2.0000      -0.531667       -14.4674
 173   2.0000      -0.529071       -14.3968
 174   2.0000      -0.524882       -14.2828
 175   2.0000      -0.521781       -14.1984
 176   2.0000      -0.520708       -14.1692
 177   2.0000      -0.516624       -14.0581
 178   2.0000      -0.513190       -13.9646
 179   2.0000      -0.501910       -13.6577
 180   2.0000      -0.500638       -13.6231
 181   2.0000      -0.495826       -13.4921
 182   2.0000      -0.493418       -13.4266
 183   2.0000      -0.489531       -13.3208
 184   2.0000      -0.486861       -13.2482
 185   2.0000      -0.486191       -13.2299
 186   2.0000      -0.484221       -13.1763
 187   2.0000      -0.483812       -13.1652
 188   2.0000      -0.480656       -13.0793
 189   2.0000      -0.479825       -13.0567
 190   2.0000      -0.478041       -13.0082
 191   2.0000      -0.474504       -12.9119
 192   2.0000      -0.473613       -12.8877
 193   2.0000      -0.472183       -12.8488
 194   2.0000      -0.470117       -12.7925
 195   2.0000      -0.466330       -12.6895
 196   2.0000      -0.465244       -12.6599
 197   2.0000      -0.463491       -12.6122
 198   2.0000      -0.462044       -12.5729
 199   2.0000      -0.459344       -12.4994
 200   2.0000      -0.456520       -12.4225
 201   2.0000      -0.454489       -12.3673
 202   2.0000      -0.452986       -12.3264
 203   2.0000      -0.452424       -12.3111
 204   2.0000      -0.447694       -12.1824
 205   2.0000      -0.446192       -12.1415
 206   2.0000      -0.443681       -12.0732
 207   2.0000      -0.442810       -12.0495
 208   2.0000      -0.437373       -11.9015
 209   2.0000      -0.432501       -11.7689
 210   2.0000      -0.428338       -11.6557
 211   2.0000      -0.424401       -11.5485
 212   2.0000      -0.420926       -11.4540
 213   2.0000      -0.416752       -11.3404
 214   2.0000      -0.415699       -11.3117
 215   2.0000      -0.415261       -11.2998
 216   2.0000      -0.411868       -11.2075
 217   2.0000      -0.410161       -11.1610
 218   2.0000      -0.404482       -11.0065
 219   2.0000      -0.396277       -10.7832
 220   2.0000      -0.392257       -10.6739
 221   2.0000      -0.387552       -10.5458
 222   2.0000      -0.386114       -10.5067
 223   2.0000      -0.379732       -10.3330
 224   2.0000      -0.367578       -10.0023
 225   2.0000      -0.357151        -9.7186
 226   2.0000      -0.355239        -9.6665
 227   2.0000      -0.352718        -9.5980
 228   2.0000      -0.352510        -9.5923
 229   2.0000      -0.347663        -9.4604
 230   2.0000      -0.346907        -9.4398
 231   2.0000      -0.345995        -9.4150
 232   2.0000      -0.344168        -9.3653
 233   2.0000      -0.340397        -9.2627
 234   2.0000      -0.333921        -9.0864
 235   2.0000      -0.330262        -8.9869
 236   2.0000      -0.329119        -8.9558
 237   2.0000      -0.325702        -8.8628
 238   2.0000      -0.319247        -8.6872
 239   2.0000      -0.318788        -8.6747
 240   2.0000      -0.302586        -8.2338
 241   2.0000      -0.299004        -8.1363
 242   2.0000      -0.294266        -8.0074
 243   2.0000      -0.268601        -7.3090
 244   2.0000      -0.233173        -6.3450
 245   0.0000      -0.133221        -3.6251
 246   0.0000      -0.121805        -3.3145
 247   0.0000      -0.103259        -2.8098
 248   0.0000      -0.097215        -2.6454
 249   0.0000      -0.057540        -1.5657

MULLIKEN ATOMIC CHARGES
-----------------------
   0 C :   -0.052194
   1 C :    0.012305
   2 C :   -0.072734
   3 N :    0.029935
   4 C :   -0.161321
   5 C :   -0.152298
   6 N :    0.035092
   7 C :   -0.107853
   8 N :    0.164228
   9 C :   -0.115840
  10 N :    0.189575
  11 C :    0.122410
  12 C :   -0.016695
  13 C :    0.085386
  14 N :   -0.267189
  15 S :    0.552705
  16 N :   -0.225911
  17 C :   -0.087377
  18 N :    0.003169
  19 C :    0.086324
  20 C :   -0.175295
  21 C :    0.204882
  22 O :   -0.138444
  23 C :   -0.030048
  24 C :   -0.037540
  25 N :   -0.052610
  26 C :    0.087464
  27 C :   -0.090471
  28 C :    0.067738
  29 C :   -0.015960
  30 C :    0.038817
  31 C :    0.069015
  32 N :   -0.004409
  33 C :    0.141298
  34 C :   -0.151467
  35 C :    0.067726
  36 N :   -0.009980
  37 C :    0.155619
  38 C :   -0.198589
  39 C :    0.046276
  40 C :   -0.029349
  41 C :    0.043418
  42 N :   -0.042463
  43 C :    0.062385
  44 C :   -0.142337
  45 C :    0.206950
  46 O :   -0.138779
  47 C :   -0.028692
  48 C :   -0.032709
  49 N :   -0.059589
  50 C :    0.084400
  51 C :   -0.098060
  52 C :    0.034717
  53 C :   -0.027541
  54 C :   -0.077752
  55 C :    0.135490
  56 C :   -0.059047
  57 C :    0.026742
  58 N :    0.059670
  59 C :   -0.137077
  60 C :   -0.135731
  61 N :    0.026772
  62 C :   -0.193337
  63 N :    0.246070
  64 C :   -0.214861
  65 N :    0.238003
  66 C :   -0.084952
  67 C :    0.114666
  68 C :   -0.041561
  69 N :   -0.256964
  70 S :    0.555122
  71 N :   -0.273940
  72 H :   -0.007459
  73 H :    0.008112
  74 H :   -0.005776
  75 H :    0.004646
  76 H :   -0.003193
  77 H :    0.134091
  78 H :   -0.028313
  79 H :    0.141661
  80 H :   -0.024165
  81 H :    0.005064
  82 H :   -0.002570
  83 H :    0.002099
  84 H :   -0.012359
  85 H :    0.027489
  86 H :    0.021491
  87 H :   -0.016224
Sum of atomic charges:   -0.0000000

LOEWDIN ATOMIC CHARGES
----------------------
   0 C :    0.025436
   1 C :   -0.020145
   2 C :    0.006192
   3 N :   -0.001279
   4 C :   -0.024911
   5 C :   -0.024951
   6 N :   -0.005231
   7 C :   -0.011913
   8 N :   -0.020369
   9 C :   -0.029631
  10 N :   -0.020416
  11 C :   -0.043262
  12 C :   -0.030495
  13 C :   -0.055231
  14 N :   -0.284742
  15 S :    0.698226
  16 N :   -0.264270
  17 C :    0.073625
  18 N :   -0.070372
  19 C :    0.049375
  20 C :   -0.058685
  21 C :    0.068173
  22 O :   -0.145998
  23 C :   -0.042690
  24 C :    0.021245
  25 N :   -0.094373
  26 C :    0.071189
  27 C :   -0.032927
  28 C :   -0.018728
  29 C :   -0.008104
  30 C :   -0.007639
  31 C :    0.020064
  32 N :    0.090530
  33 C :   -0.004084
  34 C :   -0.060779
  35 C :    0.005023
  36 N :    0.089586
  37 C :    0.002401
  38 C :   -0.089358
  39 C :    0.022782
  40 C :   -0.054528
  41 C :    0.070127
  42 N :   -0.111954
  43 C :    0.044775
  44 C :   -0.029333
  45 C :    0.064029
  46 O :   -0.143759
  47 C :   -0.046645
  48 C :    0.011458
  49 N :   -0.099442
  50 C :    0.062970
  51 C :   -0.044903
  52 C :   -0.036729
  53 C :    0.001696
  54 C :   -0.004691
  55 C :   -0.000910
  56 C :   -0.014928
  57 C :   -0.008533
  58 N :    0.001669
  59 C :   -0.028481
  60 C :   -0.031417
  61 N :    0.007667
  62 C :   -0.030308
  63 N :    0.000394
  64 C :   -0.034109
  65 N :   -0.004077
  66 C :   -0.009842
  67 C :   -0.048029
  68 C :   -0.045092
  69 N :   -0.270942
  70 S :    0.697405
  71 N :   -0.291989
  72 H :    0.051681
  73 H :    0.023174
  74 H :    0.034117
  75 H :    0.026374
  76 H :    0.037225
  77 H :    0.097897
  78 H :    0.028506
  79 H :    0.086844
  80 H :    0.023748
  81 H :    0.041972
  82 H :    0.037162
  83 H :    0.020604
  84 H :    0.031276
  85 H :    0.027739
  86 H :    0.039073
  87 H :    0.047800

  Mayer bond orders larger than 0.100000
B(  0-C ,  1-C ) :   1.3116 B(  0-C , 11-C ) :   0.1344 B(  0-C , 13-C ) :   1.1781
B(  0-C , 72-H ) :   1.0567 B(  1-C ,  2-C ) :   1.1213 B(  1-C ,  6-N ) :   1.3141
B(  2-C ,  3-N ) :   1.3831 B(  2-C , 11-C ) :   1.3394 B(  3-N ,  4-C ) :   1.7030
B(  4-C ,  5-C ) :   1.1591 B(  4-C ,  9-C ) :   1.1375 B(  5-C ,  6-N ) :   1.7947
B(  5-C ,  7-C ) :   1.1207 B(  7-C ,  8-N ) :   2.9676 B(  9-C , 10-N ) :   2.9574
B( 11-C , 12-C ) :   1.2543 B( 11-C , 17-C ) :   0.9792 B( 12-C , 13-C ) :   1.1140
B( 12-C , 16-N ) :   1.5493 B( 13-C , 14-N ) :   1.4619 B( 14-N , 15-S ) :   1.3133
B( 14-N , 16-N ) :   0.1561 B( 15-S , 16-N ) :   1.2920 B( 17-C , 18-N ) :   1.6934
B( 17-C , 19-C ) :   0.1358 B( 17-C , 28-C ) :   1.0500 B( 18-N , 19-C ) :   1.3093
B( 19-C , 20-C ) :   1.0481 B( 19-C , 24-C ) :   1.4286 B( 20-C , 21-C ) :   0.8928
B( 20-C , 28-C ) :   1.5986 B( 21-C , 22-O ) :   2.2560 B( 21-C , 23-C ) :   0.9059
B( 23-C , 24-C ) :   1.0625 B( 23-C , 27-C ) :   1.6121 B( 24-C , 25-N ) :   1.3075
B( 25-N , 26-C ) :   1.6643 B( 26-C , 27-C ) :   1.0671 B( 26-C , 73-H ) :   0.9893
B( 27-C , 74-H ) :   1.0100 B( 28-C , 29-C ) :   1.0841 B( 29-C , 30-C ) :   1.6446
B( 29-C , 75-H ) :   0.9243 B( 30-C , 31-C ) :   1.1556 B( 30-C , 76-H ) :   0.9672
B( 31-C , 32-N ) :   1.2154 B( 31-C , 38-C ) :   1.2870 B( 32-N , 33-C ) :   1.1524
B( 32-N , 77-H ) :   0.9311 B( 33-C , 34-C ) :   1.2874 B( 33-C , 37-C ) :   1.2860
B( 34-C , 35-C ) :   1.3025 B( 34-C , 78-H ) :   1.0418 B( 35-C , 36-N ) :   1.2052
B( 35-C , 39-C ) :   1.2152 B( 36-N , 37-C ) :   1.1969 B( 36-N , 79-H ) :   0.9089
B( 37-C , 38-C ) :   1.2714 B( 38-C , 80-H ) :   1.0262 B( 39-C , 40-C ) :   1.5226
B( 39-C , 81-H ) :   0.9535 B( 40-C , 41-C ) :   1.2001 B( 40-C , 82-H ) :   0.9543
B( 41-C , 42-N ) :   1.5334 B( 41-C , 43-C ) :   0.1063 B( 41-C , 52-C ) :   1.0033
B( 42-N , 43-C ) :   1.3884 B( 43-C , 44-C ) :   1.0499 B( 43-C , 48-C ) :   1.3731
B( 44-C , 45-C ) :   0.8888 B( 44-C , 52-C ) :   1.5646 B( 45-C , 46-O ) :   2.2179
B( 45-C , 47-C ) :   0.9272 B( 47-C , 48-C ) :   1.0756 B( 47-C , 51-C ) :   1.5737
B( 48-C , 49-N ) :   1.3389 B( 49-N , 50-C ) :   1.6287 B( 50-C , 51-C ) :   1.0978
B( 50-C , 83-H ) :   0.9894 B( 51-C , 84-H ) :   1.0115 B( 52-C , 53-C ) :   1.0832
B( 53-C , 54-C ) :   1.6085 B( 53-C , 85-H ) :   0.9437 B( 54-C , 55-C ) :   1.1707
B( 54-C , 86-H ) :   0.9667 B( 55-C , 56-C ) :   1.2257 B( 55-C , 66-C ) :   0.1370
B( 55-C , 68-C ) :   1.2076 B( 56-C , 57-C ) :   1.1280 B( 56-C , 61-N ) :   1.4199
B( 57-C , 58-N ) :   1.3378 B( 57-C , 66-C ) :   1.3096 B( 58-N , 59-C ) :   1.7840
B( 59-C , 60-C ) :   1.1849 B( 59-C , 64-C ) :   1.1662 B( 60-C , 61-N ) :   1.7310
B( 60-C , 62-C ) :   1.1629 B( 62-C , 63-N ) :   2.9620 B( 64-C , 65-N ) :   3.0464
B( 66-C , 67-C ) :   1.1851 B( 66-C , 87-H ) :   1.0551 B( 67-C , 68-C ) :   1.1182
B( 67-C , 71-N ) :   1.4538 B( 68-C , 69-N ) :   1.5217 B( 69-N , 70-S ) :   1.3071
B( 69-N , 71-N ) :   0.1607 B( 70-S , 71-N ) :   1.3062

-----------------------------------------------------------------------------
         ABSORPTION SPECTRUM VIA TRANSITION ELECTRIC DIPOLE MOMENTS
-----------------------------------------------------------------------------
State   Energy  Wavelength   fosc         T2         TX        TY        TZ
        (cm-1)    (nm)                  (au**2)     (au)      (au)      (au)
-----------------------------------------------------------------------------
   0    7588.5   1317.8   0.343532209  14.90351   2.71397  -0.23554   2.73540
   1   11053.5    904.7   0.048480146   1.44391  -1.16865  -0.03502  -0.27739
   2   13796.7    724.8   0.480302738  11.46081  -2.50676   1.76170  -1.43992
   3   14720.9    679.3   0.125481054   2.80621   0.67699   1.11514  -1.05088
   4   16416.0    609.2   0.991916927  19.89218   4.15664   0.41820   1.56192
   5   18193.5    549.6   0.030056852   0.54388  -0.62105   0.11922  -0.37943
   6   19859.1    503.5   0.326645263   5.41492   2.03024  -1.06914  -0.38727
   7   20022.1    499.4   0.032827447   0.53976   0.12003   0.02110   0.72451
   8   21179.7    472.1   0.001413347   0.02197  -0.08065  -0.05399   0.11202
   9   21231.8    471.0   0.020227741   0.31364  -0.27696   0.30580   0.37872
  10   21245.8    470.7   0.006437944   0.09976  -0.25557   0.18541  -0.00794
  11   21789.6    458.9   0.191422607   2.89214  -0.94229   1.09306   0.89969
  12   22007.2    454.4   0.111133858   1.66248   1.22158  -0.37020   0.18212
  13   23481.8    425.9   0.174878286   2.45178  -0.97339   0.53902  -1.10170
  14   24132.2    414.4   0.027898145   0.38059   0.54677   0.08819   0.27176
  15   24356.4    410.6   0.000958815   0.01296   0.10191  -0.01703  -0.04779
  16   24614.3    406.3   0.005876690   0.07860   0.04038   0.15429   0.23057
  17   24793.6    403.3   0.055829816   0.74131  -0.69402   0.44034   0.25640
  18   25086.1    398.6   0.041033390   0.53849   0.40826  -0.59205  -0.14595
  19   25155.8    397.5   0.074745939   0.97819  -0.89311   0.40598   0.12546
  20   25286.7    395.5   0.002581095   0.03360   0.15269  -0.05836   0.08297
  21   25367.0    394.2   0.021806551   0.28300  -0.46198   0.23053   0.12818
  22   25568.7    391.1   0.003877590   0.04993   0.05182  -0.18626  -0.11202
  23   25781.8    387.9   0.039238718   0.50105   0.62459  -0.33140  -0.03332
  24   26201.0    381.7   0.002560185   0.03217  -0.08520  -0.13280   0.08528
  25   26294.6    380.3   0.001481114   0.01854  -0.06354   0.05122  -0.10901
  26   26787.3    373.3   0.053543963   0.65805  -0.59391   0.05393  -0.54991
  27   27218.8    367.4   0.032053056   0.38768  -0.11489  -0.28694   0.54051
  28   27399.2    365.0   0.043435729   0.52190   0.06495   0.47969  -0.53626
  29   27504.9    363.6   0.092154764   1.10302  -0.57331   0.44678  -0.75810
  30   27723.7    360.7   0.034301506   0.40732   0.01620   0.41353   0.48585
  31   28001.2    357.1   0.022585231   0.26554  -0.51098  -0.04952  -0.04459
  32   28219.7    354.4   0.067368672   0.78593  -0.40520  -0.40621   0.67582
  33   28288.2    353.5   0.035177280   0.40939  -0.56551  -0.29922  -0.00714
  34   28786.5    347.4   0.046024620   0.52635  -0.69872  -0.12923  -0.14643
  35   29114.3    343.5   0.078718087   0.89011   0.82168  -0.22962   0.40277
  36   29161.2    342.9   0.020274474   0.22889  -0.07868  -0.19100   0.43153
  37   29444.9    339.6   0.035048009   0.39186  -0.53125   0.21245  -0.25396
  38   29821.7    335.3   0.163776001   1.80798  -1.15294  -0.67602   0.14731
  39   30015.4    333.2   0.184194194   2.02026  -1.08338  -0.18119  -0.90206
  40   30041.8    332.9   0.045469839   0.49828  -0.65438   0.07367  -0.25425
  41   30619.1    326.6   0.138391713   1.48797   1.01000  -0.57222   0.37475
  42   30939.1    323.2   0.061271569   0.65197   0.68599  -0.33762   0.25962
  43   31218.6    320.3   0.016454008   0.17351   0.12401  -0.17966   0.35476
  44   31263.9    319.9   0.102869484   1.08323  -0.94797  -0.12644  -0.41060
  45   31306.7    319.4   0.000214435   0.00225   0.00053   0.01645  -0.04454
  46   31904.2    313.4   0.051803926   0.53455  -0.70100   0.19971  -0.05713
  47   32031.9    312.2   0.051947696   0.53390  -0.70990  -0.05833  -0.16290
  48   32196.5    310.6   0.023645372   0.24178  -0.40184   0.23799   0.15382
  49   32380.2    308.8   0.125906113   1.28010   0.33358  -0.47032   0.97346
  50   32463.2    308.0   0.043910632   0.44530  -0.20893   0.42197   0.47285
  51   32686.8    305.9   0.176782841   1.78050  -0.99567   0.37195  -0.80671
  52   32922.1    303.7   0.247127099   2.47120  -1.17599   0.47479  -0.92888
  53   33077.0    302.3   0.090902980   0.90475  -0.22115  -0.20320  -0.90253
  54   33246.5    300.8   0.143389142   1.41986  -0.63713   0.01519  -1.00682
  55   33276.4    300.5   0.038346273   0.37937  -0.46474   0.08303  -0.39559
  56   33668.2    297.0   0.091472372   0.89443  -0.28784   0.13099  -0.89130
  57   33875.0    295.2   0.125177047   1.21652   0.58871  -0.28427   0.88833
  58   34202.4    292.4   0.419647953   4.03929   0.42933  -0.83239   1.77823
  59   34287.5    291.7   0.023907628   0.22955  -0.40249   0.15282   0.21023
  60   34500.4    289.9   0.105345395   1.00523  -0.43997   0.27305  -0.85855
  61   34869.5    286.8   0.049937318   0.47147  -0.33653  -0.12759   0.58475
  62   35014.4    285.6   0.019539569   0.18371   0.04133  -0.28883   0.31398
  63   35328.0    283.1   0.019566514   0.18233   0.19883   0.24222  -0.29006
  64   35495.5    281.7   0.004460563   0.04137   0.10239   0.10110  -0.14375
  65   35582.1    281.0   0.094405495   0.87346   0.44675   0.35855  -0.73845
  66   35763.3    279.6   0.114673485   1.05560   0.62232  -0.31004   0.75644
  67   36050.1    277.4   0.067703182   0.61827  -0.20631  -0.22207   0.72553
  68   36192.0    276.3   0.022243038   0.20233  -0.09015   0.21114  -0.38681
  69   36383.5    274.8   0.017389135   0.15734  -0.23355   0.15090  -0.28289
  70   36697.6    272.5   0.009487642   0.08511  -0.02129   0.28771   0.04337
  71   36981.5    270.4   0.038327606   0.34119   0.08560  -0.26410   0.51393
  72   37011.7    270.2   0.005709460   0.05078  -0.22367  -0.02736  -0.00279
  73   37127.9    269.3   0.001901848   0.01686  -0.11703   0.03383   0.04499
  74   37287.3    268.2   0.028064005   0.24778   0.39420   0.03222  -0.30224
  75   37411.8    267.3   0.017271826   0.15199   0.18661  -0.31113   0.14269
  76   37499.0    266.7   0.037217553   0.32674   0.26066  -0.10319   0.49815
  77   37533.7    266.4   0.014684731   0.12880  -0.04095  -0.12516   0.33385
  78   37761.4    264.8   0.041530675   0.36207  -0.39094   0.44224   0.11690
  79   37828.4    264.4   0.007466347   0.06498   0.18799  -0.15516   0.07459
  80   37933.9    263.6   0.062942834   0.54625  -0.55240   0.36584  -0.32752
  81   38073.9    262.6   0.010813256   0.09350  -0.23555   0.06058   0.18533
  82   38191.4    261.8   0.120045487   1.03480   0.71173  -0.59702   0.41449
  83   38698.1    258.4   0.028642989   0.24367   0.24047   0.20781   0.37770
  84   38824.9    257.6   0.016090455   0.13644  -0.01695   0.04503   0.36623
  85   38896.1    257.1   0.006414123   0.05429  -0.05923   0.02765  -0.22364
  86   39042.2    256.1   0.259875755   2.19133  -0.52125   0.30042  -1.35254
  87   39152.7    255.4   0.252593955   2.12392   0.48673  -0.22062   1.35585
  88   39326.9    254.3   0.002216657   0.01856   0.12053  -0.03542  -0.05268
  89   39645.5    252.2   0.095805399   0.79556  -0.53305   0.49138  -0.51958
  90   39728.1    251.7   0.084466886   0.69995  -0.50328   0.33524  -0.57816
  91   39837.2    251.0   0.052491142   0.43378  -0.56904   0.27267  -0.18877
  92   39897.6    250.6   0.252273503   2.08162   1.18610  -0.41899   0.70656
  93   40086.2    249.5   0.097498417   0.80071   0.80513  -0.24752   0.30201
  94   40217.9    248.6   0.004270600   0.03496  -0.18660  -0.00993  -0.00638

FINAL SINGLE POINT ENERGY     -3842.927002342005

DIPOLE MOMENT
-------------
                                X             Y             Z
Electronic contribution:      8.62726      14.28333      11.26550
Nuclear contribution   :     -7.84958     -14.55655     -11.18938
                        -----------------------------------------
Total Dipole Moment    :      0.77768      -0.27322       0.07612
                        -----------------------------------------
Magnitude (a.u.)       :      0.82779
Magnitude (Debye)      :      2.10407

Rotational constants in cm-1:     0.001692     0.000398     0.000368
Rotational constants in MHz :    50.739086    11.919225    11.043392

                             ****ORCA TERMINATED NORMALLY****
TOTAL RUN TIME: 0 days 0 hours 14 minutes 56 seconds 858 msec
