                         Program Version 4.2.0 -  RELEASE  -
|  1> # ORCA input file
|  2> # SCF done       -205.343517998983          0.000997354076
|  3> ! CAM-B3LYP def2-SVP def2/J RIJCOSX Grid4 TightSCF
|  4> %maxcore 5000
|  5> %tddft
|  6>     Mode sTDDFT
|  7>     Ethresh 5.0
|  8>     maxcore 5000
|  9> end
| 10>
| 11> %pal
| 12>   nprocs 6
| 13>   end
| 14> * xyz 0 1
| 15>    C       -0.44299         1.10078         2.18259
| 16>    C        0.81295         0.51105         2.29720
| 17>    C        0.99275        -0.90986         2.12600
| 18>    N        2.22464        -1.45476         2.19786
| 19>    C        3.23255        -0.68023         2.48952
| 20>    C        3.04799         0.73456         2.70958
| 21>    N        1.87612         1.28969         2.58818
| 22>    C        4.17140         1.53553         3.04467
| 23>    N        5.10166         2.14578         3.31354
| 24>    C        4.52977        -1.24754         2.57979
| 25>    N        5.58278        -1.68817         2.66786
| 26>    C       -0.09669        -1.75235         1.87197
| 27>    C       -1.35589        -1.16137         1.77760
| 28>    C       -1.52352         0.27186         1.92109
| 29>    N       -2.81124         0.62458         1.78525
| 30>    S       -3.68167        -0.68005         1.51863
| 31>    N       -2.52453        -1.78122         1.56366
| 32>    C        0.09379        -3.19269         1.72154
| 33>    C        0.69819        -3.96419         2.71923
| 34>    C        1.11139        -3.42907         4.03608
| 35>    O        0.86947        -2.35597         4.50432
| 36>    S        2.01016        -4.69716         4.91595
| 37>    C        1.70389        -5.94272         3.65282
| 38>    O        2.12789        -7.05311         3.72880
| 39>    C        0.91320        -5.32984         2.56182
| 40>    C        0.46203        -6.03404         1.43230
| 41>    C       -0.16162        -5.25723         0.44234
| 42>    C       -0.30266        -3.87633         0.57010
| 43>    C       -0.88658        -3.20635        -0.61286
| 44>    O       -0.95372        -2.03511        -0.83847
| 45>    S       -1.45913        -4.45617        -1.75413
| 46>    C       -0.77414        -5.80931        -0.78326
| 47>    O       -0.84047        -6.94581        -1.13618
| 48>    C        0.58884        -7.47877         1.34444
| 49>    S       -0.19512        -8.43871         2.55690
| 50>    C        0.41406        -9.89309         1.83956
| 51>    C        1.17867        -9.63648         0.73074
| 52>    C        1.26794        -8.25301         0.43916
| 53>    C        2.04957        -7.74210        -0.72717
| 54>    C        3.02210        -8.80334        -1.22759
| 55>    C        2.27537       -10.11562        -1.46521
| 56>    O        3.14970       -10.98901        -2.14730
| 57>    C        2.53927       -12.11924        -2.71650
| 58>    C        1.83548       -10.68367        -0.10706
| 59>    C        0.06378       -11.15993         2.46060
| 60>    C       -1.27201       -11.58096         2.56418
| 61>    C       -2.40415       -10.88623         1.91212
| 62>    O       -2.37457        -9.94483         1.18271
| 63>    S       -3.93186       -11.72740         2.35689
| 64>    C       -3.09709       -12.93602         3.37521
| 65>    O       -3.67837       -13.72565         4.05884
| 66>    C       -1.63602       -12.73222         3.25620
| 67>    C       -0.68252       -13.58164         3.82588
| 68>    C        0.65233       -13.19798         3.67658
| 69>    C        1.01555       -12.00874         3.04805
| 70>    C        2.46226       -11.71227         3.11675
| 71>    O        3.04815       -10.76224         2.70144
| 72>    S        3.29358       -13.06600         3.96726
| 73>    C        1.79209       -14.01513         4.15011
| 74>    O        1.77248       -15.13744         4.55980
| 75>    C       -1.06058       -14.80543         4.52836
| 76>    C       -1.81405       -15.79644         3.88747
| 77>    C       -2.20834       -16.99857         4.58050
| 78>    N       -2.97379       -17.91377         3.94981
| 79>    C       -3.34080       -17.68747         2.72080
| 80>    C       -2.90282       -16.50740         2.01401
| 81>    N       -2.15597       -15.61035         2.59592
| 82>    C       -3.27672       -16.31226         0.65951
| 83>    N       -3.58986       -16.17380        -0.43317
| 84>    C       -4.17113       -18.62596         2.05325
| 85>    N       -4.83647       -19.35863         1.47812
| 86>    C       -1.82588       -17.23283         5.89856
| 87>    C       -1.07017       -16.25903         6.53391
| 88>    C       -0.69518       -15.03430         5.85414
| 89>    N        0.00289       -14.21452         6.65193
| 90>    S        0.18573       -14.92384         8.07215
| 91>    N       -0.60741       -16.27435         7.79360
| 92>    H       -0.55920         2.16394         2.31007
| 93>    H        2.58162        -6.82702        -0.45823
| 94>    H        1.34610        -7.49898        -1.52982
| 95>    H        3.81136        -8.97639        -0.49539
| 96>    H        3.48663        -8.48289        -2.15970
| 97>    H        1.38432        -9.92436        -2.08724
| 98>    H        3.29957       -12.59732        -3.33117
| 99>    H        1.68760       -11.83562        -3.34657
|100>    H        2.19564       -12.83088        -1.95712
|101>    H        2.73766       -11.03590         0.40293
|102>    H        1.16305       -11.53532        -0.23639
|103>    H       -2.12559       -18.13770         6.39999
|104> *
|105>
|106>                          ****END OF INPUT****

CARTESIAN COORDINATES (ANGSTROEM)
---------------------------------
  C     -0.442990    1.100780    2.182590
  C      0.812950    0.511050    2.297200
  C      0.992750   -0.909860    2.126000
  N      2.224640   -1.454760    2.197860
  C      3.232550   -0.680230    2.489520
  C      3.047990    0.734560    2.709580
  N      1.876120    1.289690    2.588180
  C      4.171400    1.535530    3.044670
  N      5.101660    2.145780    3.313540
  C      4.529770   -1.247540    2.579790
  N      5.582780   -1.688170    2.667860
  C     -0.096690   -1.752350    1.871970
  C     -1.355890   -1.161370    1.777600
  C     -1.523520    0.271860    1.921090
  N     -2.811240    0.624580    1.785250
  S     -3.681670   -0.680050    1.518630
  N     -2.524530   -1.781220    1.563660
  C      0.093790   -3.192690    1.721540
  C      0.698190   -3.964190    2.719230
  C      1.111390   -3.429070    4.036080
  O      0.869470   -2.355970    4.504320
  S      2.010160   -4.697160    4.915950
  C      1.703890   -5.942720    3.652820
  O      2.127890   -7.053110    3.728800
  C      0.913200   -5.329840    2.561820
  C      0.462030   -6.034040    1.432300
  C     -0.161620   -5.257230    0.442340
  C     -0.302660   -3.876330    0.570100
  C     -0.886580   -3.206350   -0.612860
  O     -0.953720   -2.035110   -0.838470
  S     -1.459130   -4.456170   -1.754130
  C     -0.774140   -5.809310   -0.783260
  O     -0.840470   -6.945810   -1.136180
  C      0.588840   -7.478770    1.344440
  S     -0.195120   -8.438710    2.556900
  C      0.414060   -9.893090    1.839560
  C      1.178670   -9.636480    0.730740
  C      1.267940   -8.253010    0.439160
  C      2.049570   -7.742100   -0.727170
  C      3.022100   -8.803340   -1.227590
  C      2.275370  -10.115620   -1.465210
  O      3.149700  -10.989010   -2.147300
  C      2.539270  -12.119240   -2.716500
  C      1.835480  -10.683670   -0.107060
  C      0.063780  -11.159930    2.460600
  C     -1.272010  -11.580960    2.564180
  C     -2.404150  -10.886230    1.912120
  O     -2.374570   -9.944830    1.182710
  S     -3.931860  -11.727400    2.356890
  C     -3.097090  -12.936020    3.375210
  O     -3.678370  -13.725650    4.058840
  C     -1.636020  -12.732220    3.256200
  C     -0.682520  -13.581640    3.825880
  C      0.652330  -13.197980    3.676580
  C      1.015550  -12.008740    3.048050
  C      2.462260  -11.712270    3.116750
  O      3.048150  -10.762240    2.701440
  S      3.293580  -13.066000    3.967260
  C      1.792090  -14.015130    4.150110
  O      1.772480  -15.137440    4.559800
  C     -1.060580  -14.805430    4.528360
  C     -1.814050  -15.796440    3.887470
  C     -2.208340  -16.998570    4.580500
  N     -2.973790  -17.913770    3.949810
  C     -3.340800  -17.687470    2.720800
  C     -2.902820  -16.507400    2.014010
  N     -2.155970  -15.610350    2.595920
  C     -3.276720  -16.312260    0.659510
  N     -3.589860  -16.173800   -0.433170
  C     -4.171130  -18.625960    2.053250
  N     -4.836470  -19.358630    1.478120
  C     -1.825880  -17.232830    5.898560
  C     -1.070170  -16.259030    6.533910
  C     -0.695180  -15.034300    5.854140
  N      0.002890  -14.214520    6.651930
  S      0.185730  -14.923840    8.072150
  N     -0.607410  -16.274350    7.793600
  H     -0.559200    2.163940    2.310070
  H      2.581620   -6.827020   -0.458230
  H      1.346100   -7.498980   -1.529820
  H      3.811360   -8.976390   -0.495390
  H      3.486630   -8.482890   -2.159700
  H      1.384320   -9.924360   -2.087240
  H      3.299570  -12.597320   -3.331170
  H      1.687600  -11.835620   -3.346570
  H      2.195640  -12.830880   -1.957120
  H      2.737660  -11.035900    0.402930
  H      1.163050  -11.535320   -0.236390
  H     -2.125590  -18.137700    6.399990

 Total Charge           Charge          ....    0
 Multiplicity           Mult            ....    1
 Number of Electrons    NEL             ....  574
 Basis Dimension        Dim             .... 1166

ORBITAL ENERGIES
----------------

  NO   OCC          E(Eh)            E(eV)
   0   2.0000     -89.060857     -2423.4691
   1   2.0000     -89.060661     -2423.4638
   2   2.0000     -88.963978     -2420.8329
   3   2.0000     -88.963175     -2420.8111
   4   2.0000     -88.963094     -2420.8089
   5   2.0000     -88.963056     -2420.8078
   6   2.0000     -88.962526     -2420.7934
   7   2.0000     -19.256121      -523.9857
   8   2.0000     -19.255792      -523.9767
   9   2.0000     -19.255598      -523.9714
  10   2.0000     -19.255235      -523.9616
  11   2.0000     -19.255072      -523.9572
  12   2.0000     -19.254849      -523.9511
  13   2.0000     -19.253515      -523.9148
  14   2.0000     -19.252608      -523.8901
  15   2.0000     -19.209628      -522.7206
  16   2.0000     -14.474283      -393.8653
  17   2.0000     -14.473669      -393.8486
  18   2.0000     -14.471286      -393.7837
  19   2.0000     -14.470702      -393.7678
  20   2.0000     -14.463785      -393.5796
  21   2.0000     -14.463467      -393.5709
  22   2.0000     -14.463252      -393.5651
  23   2.0000     -14.462871      -393.5547
  24   2.0000     -14.439541      -392.9199
  25   2.0000     -14.438659      -392.8959
  26   2.0000     -14.435602      -392.8127
  27   2.0000     -14.435092      -392.7988
  28   2.0000     -10.419814      -283.5376
  29   2.0000     -10.419133      -283.5190
  30   2.0000     -10.418838      -283.5110
  31   2.0000     -10.418796      -283.5099
  32   2.0000     -10.417599      -283.4773
  33   2.0000     -10.417351      -283.4705
  34   2.0000     -10.416331      -283.4428
  35   2.0000     -10.415651      -283.4243
  36   2.0000     -10.394189      -282.8402
  37   2.0000     -10.393654      -282.8257
  38   2.0000     -10.391041      -282.7546
  39   2.0000     -10.390541      -282.7410
  40   2.0000     -10.359958      -281.9088
  41   2.0000     -10.359608      -281.8993
  42   2.0000     -10.357218      -281.8342
  43   2.0000     -10.356741      -281.8212
  44   2.0000     -10.354696      -281.7656
  45   2.0000     -10.354347      -281.7561
  46   2.0000     -10.352759      -281.7129
  47   2.0000     -10.352470      -281.7050
  48   2.0000     -10.352360      -281.7020
  49   2.0000     -10.352045      -281.6935
  50   2.0000     -10.351693      -281.6839
  51   2.0000     -10.351003      -281.6651
  52   2.0000     -10.343996      -281.4744
  53   2.0000     -10.343528      -281.4617
  54   2.0000     -10.343496      -281.4608
  55   2.0000     -10.343234      -281.4537
  56   2.0000     -10.341751      -281.4133
  57   2.0000     -10.341380      -281.4033
  58   2.0000     -10.341291      -281.4008
  59   2.0000     -10.340869      -281.3894
  60   2.0000     -10.333984      -281.2020
  61   2.0000     -10.333608      -281.1918
  62   2.0000     -10.332252      -281.1549
  63   2.0000     -10.331256      -281.1278
  64   2.0000     -10.328485      -281.0524
  65   2.0000     -10.327980      -281.0386
  66   2.0000     -10.321354      -280.8583
  67   2.0000     -10.320966      -280.8478
  68   2.0000     -10.316803      -280.7345
  69   2.0000     -10.312430      -280.6155
  70   2.0000     -10.311861      -280.6000
  71   2.0000     -10.306980      -280.4672
  72   2.0000     -10.288508      -279.9645
  73   2.0000     -10.287413      -279.9347
  74   2.0000     -10.274794      -279.5914
  75   2.0000     -10.272450      -279.5276
  76   2.0000     -10.261643      -279.2335
  77   2.0000      -8.152007      -221.8274
  78   2.0000      -8.151716      -221.8195
  79   2.0000      -8.062447      -219.3903
  80   2.0000      -8.062348      -219.3876
  81   2.0000      -8.062291      -219.3861
  82   2.0000      -8.061719      -219.3705
  83   2.0000      -8.059329      -219.3055
  84   2.0000      -6.122738      -166.6082
  85   2.0000      -6.122463      -166.6007
  86   2.0000      -6.115513      -166.4116
  87   2.0000      -6.115258      -166.4046
  88   2.0000      -6.114947      -166.3962
  89   2.0000      -6.114649      -166.3881
  90   2.0000      -6.031286      -164.1196
  91   2.0000      -6.031149      -164.1159
  92   2.0000      -6.031137      -164.1156
  93   2.0000      -6.030542      -164.0994
  94   2.0000      -6.028797      -164.0519
  95   2.0000      -6.028045      -164.0315
  96   2.0000      -6.027944      -164.0287
  97   2.0000      -6.027887      -164.0272
  98   2.0000      -6.027311      -164.0115
  99   2.0000      -6.024575      -163.9370
 100   2.0000      -6.023499      -163.9077
 101   2.0000      -6.023430      -163.9059
 102   2.0000      -6.023339      -163.9034
 103   2.0000      -6.022806      -163.8889
 104   2.0000      -6.021140      -163.8436
 105   2.0000      -1.181892       -32.1609
 106   2.0000      -1.181752       -32.1571
 107   2.0000      -1.181114       -32.1397
 108   2.0000      -1.180600       -32.1258
 109   2.0000      -1.177558       -32.0430
 110   2.0000      -1.177503       -32.0415
 111   2.0000      -1.176709       -32.0199
 112   2.0000      -1.176082       -32.0028
 113   2.0000      -1.154518       -31.4160
 114   2.0000      -1.154227       -31.4081
 115   2.0000      -1.130471       -30.7617
 116   2.0000      -1.129918       -30.7466
 117   2.0000      -1.112552       -30.2741
 118   2.0000      -1.058550       -28.8046
 119   2.0000      -1.058029       -28.7904
 120   2.0000      -1.038539       -28.2601
 121   2.0000      -1.036904       -28.2156
 122   2.0000      -1.022041       -27.8111
 123   2.0000      -1.021336       -27.7920
 124   2.0000      -1.011456       -27.5231
 125   2.0000      -1.010863       -27.5070
 126   2.0000      -1.006869       -27.3983
 127   2.0000      -1.005689       -27.3662
 128   2.0000      -0.999797       -27.2059
 129   2.0000      -0.988943       -26.9105
 130   2.0000      -0.987345       -26.8670
 131   2.0000      -0.979882       -26.6640
 132   2.0000      -0.979612       -26.6566
 133   2.0000      -0.941015       -25.6063
 134   2.0000      -0.932937       -25.3865
 135   2.0000      -0.930834       -25.3293
 136   2.0000      -0.926185       -25.2028
 137   2.0000      -0.916002       -24.9257
 138   2.0000      -0.915539       -24.9131
 139   2.0000      -0.908209       -24.7136
 140   2.0000      -0.883727       -24.0474
 141   2.0000      -0.875627       -23.8270
 142   2.0000      -0.865521       -23.5520
 143   2.0000      -0.865093       -23.5404
 144   2.0000      -0.855306       -23.2741
 145   2.0000      -0.843424       -22.9507
 146   2.0000      -0.842898       -22.9364
 147   2.0000      -0.832661       -22.6578
 148   2.0000      -0.816590       -22.2206
 149   2.0000      -0.811782       -22.0897
 150   2.0000      -0.808721       -22.0064
 151   2.0000      -0.806672       -21.9507
 152   2.0000      -0.801742       -21.8165
 153   2.0000      -0.781950       -21.2780
 154   2.0000      -0.768146       -20.9023
 155   2.0000      -0.761267       -20.7151
 156   2.0000      -0.755254       -20.5515
 157   2.0000      -0.754077       -20.5195
 158   2.0000      -0.738528       -20.0964
 159   2.0000      -0.737913       -20.0796
 160   2.0000      -0.736840       -20.0504
 161   2.0000      -0.720251       -19.5990
 162   2.0000      -0.713422       -19.4132
 163   2.0000      -0.712926       -19.3997
 164   2.0000      -0.710092       -19.3226
 165   2.0000      -0.702696       -19.1213
 166   2.0000      -0.694981       -18.9114
 167   2.0000      -0.684501       -18.6262
 168   2.0000      -0.679466       -18.4892
 169   2.0000      -0.670641       -18.2491
 170   2.0000      -0.669878       -18.2283
 171   2.0000      -0.661391       -17.9974
 172   2.0000      -0.661020       -17.9873
 173   2.0000      -0.654688       -17.8150
 174   2.0000      -0.643767       -17.5178
 175   2.0000      -0.643454       -17.5093
 176   2.0000      -0.643092       -17.4994
 177   2.0000      -0.638118       -17.3641
 178   2.0000      -0.636379       -17.3168
 179   2.0000      -0.633109       -17.2278
 180   2.0000      -0.627933       -17.0869
 181   2.0000      -0.621337       -16.9074
 182   2.0000      -0.620527       -16.8854
 183   2.0000      -0.615751       -16.7554
 184   2.0000      -0.610266       -16.6062
 185   2.0000      -0.607677       -16.5357
 186   2.0000      -0.594270       -16.1709
 187   2.0000      -0.589963       -16.0537
 188   2.0000      -0.589592       -16.0436
 189   2.0000      -0.580329       -15.7916
 190   2.0000      -0.580113       -15.7857
 191   2.0000      -0.577203       -15.7065
 192   2.0000      -0.574522       -15.6335
 193   2.0000      -0.571373       -15.5479
 194   2.0000      -0.570989       -15.5374
 195   2.0000      -0.568630       -15.4732
 196   2.0000      -0.563282       -15.3277
 197   2.0000      -0.561857       -15.2889
 198   2.0000      -0.556633       -15.1468
 199   2.0000      -0.555608       -15.1189
 200   2.0000      -0.553537       -15.0625
 201   2.0000      -0.553393       -15.0586
 202   2.0000      -0.552727       -15.0405
 203   2.0000      -0.549851       -14.9622
 204   2.0000      -0.548437       -14.9237
 205   2.0000      -0.548255       -14.9188
 206   2.0000      -0.544860       -14.8264
 207   2.0000      -0.544364       -14.8129
 208   2.0000      -0.543681       -14.7943
 209   2.0000      -0.540082       -14.6964
 210   2.0000      -0.538680       -14.6582
 211   2.0000      -0.537433       -14.6243
 212   2.0000      -0.534570       -14.5464
 213   2.0000      -0.533873       -14.5274
 214   2.0000      -0.525019       -14.2865
 215   2.0000      -0.524155       -14.2630
 216   2.0000      -0.521265       -14.1843
 217   2.0000      -0.518356       -14.1052
 218   2.0000      -0.517967       -14.0946
 219   2.0000      -0.507225       -13.8023
 220   2.0000      -0.506345       -13.7783
 221   2.0000      -0.497448       -13.5362
 222   2.0000      -0.496225       -13.5030
 223   2.0000      -0.494928       -13.4677
 224   2.0000      -0.493078       -13.4173
 225   2.0000      -0.491807       -13.3827
 226   2.0000      -0.490514       -13.3476
 227   2.0000      -0.488005       -13.2793
 228   2.0000      -0.487425       -13.2635
 229   2.0000      -0.484122       -13.1736
 230   2.0000      -0.483247       -13.1498
 231   2.0000      -0.481493       -13.1021
 232   2.0000      -0.479876       -13.0581
 233   2.0000      -0.475072       -12.9274
 234   2.0000      -0.473105       -12.8738
 235   2.0000      -0.470761       -12.8100
 236   2.0000      -0.463987       -12.6257
 237   2.0000      -0.462996       -12.5988
 238   2.0000      -0.459842       -12.5129
 239   2.0000      -0.459280       -12.4976
 240   2.0000      -0.452310       -12.3080
 241   2.0000      -0.451564       -12.2877
 242   2.0000      -0.448309       -12.1991
 243   2.0000      -0.447872       -12.1872
 244   2.0000      -0.446661       -12.1543
 245   2.0000      -0.445805       -12.1310
 246   2.0000      -0.443154       -12.0588
 247   2.0000      -0.435932       -11.8623
 248   2.0000      -0.430838       -11.7237
 249   2.0000      -0.430259       -11.7080
 250   2.0000      -0.427615       -11.6360
 251   2.0000      -0.425741       -11.5850
 252   2.0000      -0.424663       -11.5557
 253   2.0000      -0.423213       -11.5162
 254   2.0000      -0.422416       -11.4945
 255   2.0000      -0.420614       -11.4455
 256   2.0000      -0.420060       -11.4304
 257   2.0000      -0.414592       -11.2816
 258   2.0000      -0.407178       -11.0799
 259   2.0000      -0.397257       -10.8099
 260   2.0000      -0.396583       -10.7916
 261   2.0000      -0.389447       -10.5974
 262   2.0000      -0.388584       -10.5739
 263   2.0000      -0.388204       -10.5636
 264   2.0000      -0.387764       -10.5516
 265   2.0000      -0.384552       -10.4642
 266   2.0000      -0.378489       -10.2992
 267   2.0000      -0.375249       -10.2111
 268   2.0000      -0.374545       -10.1919
 269   2.0000      -0.372463       -10.1352
 270   2.0000      -0.371675       -10.1138
 271   2.0000      -0.369178       -10.0458
 272   2.0000      -0.366588        -9.9754
 273   2.0000      -0.366081        -9.9616
 274   2.0000      -0.365286        -9.9399
 275   2.0000      -0.362992        -9.8775
 276   2.0000      -0.360343        -9.8054
 277   2.0000      -0.355726        -9.6798
 278   2.0000      -0.355318        -9.6687
 279   2.0000      -0.351549        -9.5661
 280   2.0000      -0.350616        -9.5407
 281   2.0000      -0.350119        -9.5272
 282   2.0000      -0.327159        -8.9025
 283   2.0000      -0.311259        -8.4698
 284   2.0000      -0.310482        -8.4486
 285   2.0000      -0.308462        -8.3937
 286   2.0000      -0.292714        -7.9651
 287   0.0000      -0.127127        -3.4593
 288   0.0000      -0.126721        -3.4483
 289   0.0000      -0.108829        -2.9614
 290   0.0000      -0.108439        -2.9508
 291   0.0000      -0.075433        -2.0526

MULLIKEN ATOMIC CHARGES
-----------------------
   0 C :   -0.086441
   1 C :    0.023781
   2 C :   -0.032582
   3 N :    0.044022
   4 C :   -0.120263
   5 C :   -0.144520
   6 N :    0.063452
   7 C :   -0.198969
   8 N :    0.237368
   9 C :   -0.207792
  10 N :    0.248399
  11 C :    0.038369
  12 C :   -0.003411
  13 C :    0.121297
  14 N :   -0.262695
  15 S :    0.568644
  16 N :   -0.275526
  17 C :    0.002349
  18 C :    0.060238
  19 C :    0.044425
  20 O :   -0.134225
  21 S :    0.035891
  22 C :    0.036458
  23 O :   -0.096294
  24 C :    0.019257
  25 C :    0.005909
  26 C :    0.057859
  27 C :    0.044276
  28 C :    0.048589
  29 O :   -0.129249
  30 S :    0.030426
  31 C :    0.036131
  32 O :   -0.106296
  33 C :   -0.219229
  34 S :    0.181198
  35 C :   -0.216471
  36 C :    0.004274
  37 C :   -0.016040
  38 C :    0.122704
  39 C :    0.067095
  40 C :    0.051575
  41 O :   -0.370455
  42 C :    0.193714
  43 C :    0.172272
  44 C :   -0.009287
  45 C :    0.024326
  46 C :    0.035089
  47 O :   -0.096998
  48 S :    0.034728
  49 C :    0.042721
  50 O :   -0.132587
  51 C :    0.064587
  52 C :   -0.002737
  53 C :    0.048121
  54 C :    0.055558
  55 C :    0.036990
  56 O :   -0.100950
  57 S :    0.032471
  58 C :    0.045281
  59 O :   -0.128791
  60 C :    0.035019
  61 C :   -0.023267
  62 C :    0.015350
  63 N :    0.065043
  64 C :   -0.145354
  65 C :   -0.121797
  66 N :    0.045560
  67 C :   -0.205527
  68 N :    0.247094
  69 C :   -0.198679
  70 N :    0.237264
  71 C :   -0.085610
  72 C :    0.125627
  73 C :   -0.006758
  74 N :   -0.273226
  75 S :    0.571201
  76 N :   -0.264382
  77 H :   -0.009827
  78 H :    0.007855
  79 H :    0.028283
  80 H :    0.016686
  81 H :    0.006054
  82 H :   -0.006268
  83 H :    0.029464
  84 H :    0.001496
  85 H :    0.000923
  86 H :    0.026459
  87 H :    0.003859
  88 H :   -0.010579
Sum of atomic charges:   -0.0000000

LOEWDIN ATOMIC CHARGES
----------------------
   0 C :    0.020564
   1 C :   -0.007836
   2 C :    0.006044
   3 N :   -0.005712
   4 C :   -0.018234
   5 C :   -0.025516
   6 N :    0.008342
   7 C :   -0.036055
   8 N :    0.001289
   9 C :   -0.037803
  10 N :    0.003103
  11 C :   -0.015863
  12 C :   -0.033167
  13 C :   -0.043324
  14 N :   -0.280451
  15 S :    0.714280
  16 N :   -0.297671
  17 C :    0.038888
  18 C :   -0.034812
  19 C :   -0.046499
  20 O :   -0.119909
  21 S :    0.318331
  22 C :   -0.049562
  23 O :   -0.093647
  24 C :   -0.052603
  25 C :    0.020334
  26 C :   -0.049725
  27 C :   -0.037012
  28 C :   -0.044212
  29 O :   -0.114207
  30 S :    0.314055
  31 C :   -0.040003
  32 O :   -0.089981
  33 C :   -0.181898
  34 S :    0.468957
  35 C :   -0.180335
  36 C :   -0.027058
  37 C :   -0.026001
  38 C :   -0.030011
  39 C :   -0.025343
  40 C :    0.067740
  41 O :   -0.168243
  42 C :    0.068019
  43 C :   -0.041848
  44 C :    0.019240
  45 C :   -0.052548
  46 C :   -0.049496
  47 O :   -0.093838
  48 S :    0.317417
  49 C :   -0.045968
  50 O :   -0.118905
  51 C :   -0.035428
  52 C :    0.039336
  53 C :   -0.036789
  54 C :   -0.048490
  55 C :   -0.040337
  56 O :   -0.086160
  57 S :    0.315724
  58 C :   -0.045143
  59 O :   -0.114790
  60 C :   -0.015796
  61 C :    0.005874
  62 C :   -0.008192
  63 N :    0.008781
  64 C :   -0.025797
  65 C :   -0.018794
  66 N :   -0.005684
  67 C :   -0.037436
  68 N :    0.001883
  69 C :   -0.035886
  70 N :    0.001032
  71 C :    0.020720
  72 C :   -0.043056
  73 C :   -0.033520
  74 N :   -0.297756
  75 S :    0.715277
  76 N :   -0.280538
  77 H :    0.052315
  78 H :    0.030925
  79 H :    0.032066
  80 H :    0.028967
  81 H :    0.028675
  82 H :    0.007679
  83 H :    0.024325
  84 H :    0.007524
  85 H :    0.002762
  86 H :    0.035455
  87 H :    0.026783
  88 H :    0.052179

  Mayer bond orders larger than 0.100000
B(  0-C ,  1-C ) :   1.2789 B(  0-C , 11-C ) :   0.1524 B(  0-C , 13-C ) :   1.1707
B(  0-C , 77-H ) :   1.0653 B(  1-C ,  2-C ) :   1.1336 B(  1-C ,  6-N ) :   1.3388
B(  2-C ,  3-N ) :   1.4199 B(  2-C , 11-C ) :   1.3809 B(  3-N ,  4-C ) :   1.7468
B(  4-C ,  5-C ) :   1.1751 B(  4-C ,  9-C ) :   1.1497 B(  5-C ,  6-N ) :   1.7941
B(  5-C ,  7-C ) :   1.1487 B(  7-C ,  8-N ) :   3.0498 B(  9-C , 10-N ) :   3.0526
B( 11-C , 12-C ) :   1.3319 B( 11-C , 17-C ) :   0.9233 B( 12-C , 13-C ) :   1.1169
B( 12-C , 16-N ) :   1.4924 B( 13-C , 14-N ) :   1.4374 B( 14-N , 15-S ) :   1.3395
B( 14-N , 16-N ) :   0.1633 B( 15-S , 16-N ) :   1.3023 B( 17-C , 18-C ) :   1.4281
B( 17-C , 27-C ) :   1.4432 B( 18-C , 19-C ) :   0.8228 B( 18-C , 24-C ) :   1.3229
B( 19-C , 20-O ) :   2.1682 B( 19-C , 21-S ) :   1.0459 B( 20-O , 21-S ) :   0.1107
B( 21-S , 22-C ) :   1.0150 B( 21-S , 23-O ) :   0.1069 B( 22-C , 23-O ) :   2.2068
B( 22-C , 24-C ) :   0.8347 B( 24-C , 25-C ) :   1.3865 B( 25-C , 26-C ) :   1.4101
B( 25-C , 33-C ) :   0.9954 B( 26-C , 27-C ) :   1.2992 B( 26-C , 31-C ) :   0.8307
B( 27-C , 28-C ) :   0.8266 B( 28-C , 29-O ) :   2.1753 B( 28-C , 30-S ) :   1.0378
B( 29-O , 30-S ) :   0.1091 B( 30-S , 31-C ) :   1.0223 B( 30-S , 32-O ) :   0.1080
B( 31-C , 32-O ) :   2.1777 B( 33-C , 34-S ) :   1.1289 B( 33-C , 35-C ) :   0.1274
B( 33-C , 37-C ) :   1.5854 B( 34-S , 35-C ) :   1.1317 B( 35-C , 36-C ) :   1.5831
B( 35-C , 44-C ) :   0.9912 B( 36-C , 37-C ) :   1.2937 B( 36-C , 43-C ) :   1.0493
B( 37-C , 38-C ) :   1.0526 B( 38-C , 39-C ) :   1.0828 B( 38-C , 78-H ) :   0.9085
B( 38-C , 79-H ) :   0.8916 B( 39-C , 40-C ) :   1.0327 B( 39-C , 80-H ) :   0.9397
B( 39-C , 81-H ) :   0.9270 B( 40-C , 41-O ) :   1.0436 B( 40-C , 43-C ) :   1.0488
B( 40-C , 82-H ) :   0.9373 B( 41-O , 42-C ) :   0.9931 B( 42-C , 83-H ) :   0.9829
B( 42-C , 84-H ) :   0.9631 B( 42-C , 85-H ) :   0.9662 B( 43-C , 86-H ) :   0.8702
B( 43-C , 87-H ) :   0.8999 B( 44-C , 45-C ) :   1.3926 B( 44-C , 54-C ) :   1.4124
B( 45-C , 46-C ) :   0.8335 B( 45-C , 51-C ) :   1.3180 B( 46-C , 47-O ) :   2.2079
B( 46-C , 48-S ) :   1.0162 B( 47-O , 48-S ) :   0.1073 B( 48-S , 49-C ) :   1.0440
B( 48-S , 50-O ) :   0.1106 B( 49-C , 50-O ) :   2.1696 B( 49-C , 51-C ) :   0.8232
B( 51-C , 52-C ) :   1.4300 B( 52-C , 53-C ) :   1.4422 B( 52-C , 60-C ) :   0.9218
B( 53-C , 54-C ) :   1.3002 B( 53-C , 58-C ) :   0.8257 B( 54-C , 55-C ) :   0.8295
B( 55-C , 56-O ) :   2.1862 B( 55-C , 57-S ) :   1.0207 B( 56-O , 57-S ) :   0.1083
B( 57-S , 58-C ) :   1.0407 B( 57-S , 59-O ) :   0.1095 B( 58-C , 59-O ) :   2.1752
B( 60-C , 61-C ) :   1.3817 B( 60-C , 71-C ) :   0.1536 B( 60-C , 73-C ) :   1.3323
B( 61-C , 62-C ) :   1.1309 B( 61-C , 66-N ) :   1.4215 B( 62-C , 63-N ) :   1.3431
B( 62-C , 71-C ) :   1.2787 B( 63-N , 64-C ) :   1.7938 B( 64-C , 65-C ) :   1.1744
B( 64-C , 69-C ) :   1.1498 B( 65-C , 66-N ) :   1.7485 B( 65-C , 67-C ) :   1.1478
B( 67-C , 68-N ) :   3.0538 B( 69-C , 70-N ) :   3.0503 B( 71-C , 72-C ) :   1.1713
B( 71-C , 88-H ) :   1.0654 B( 72-C , 73-C ) :   1.1163 B( 72-C , 76-N ) :   1.4362
B( 73-C , 74-N ) :   1.4965 B( 74-N , 75-S ) :   1.3009 B( 74-N , 76-N ) :   0.1633
B( 75-S , 76-N ) :   1.3397

-----------------------------------------------------------------------------
         ABSORPTION SPECTRUM VIA TRANSITION ELECTRIC DIPOLE MOMENTS
-----------------------------------------------------------------------------
State   Energy  Wavelength   fosc         T2         TX        TY        TZ
        (cm-1)    (nm)                  (au**2)     (au)      (au)      (au)
-----------------------------------------------------------------------------
   0   19745.7    506.4   0.005566461   0.09281   0.30075  -0.03617   0.03241
   1   19829.1    504.3   0.007419515   0.12318   0.16016   0.00162   0.31229
   2   22014.0    454.3   0.411915601   6.16007   0.29946   2.44786  -0.27999
   3   22252.8    449.4   0.044760807   0.66220  -0.45047  -0.15219   0.66039
   4   22783.9    438.9   0.002552415   0.03688   0.03546  -0.14216   0.12415
   5   22881.2    437.0   0.000539282   0.00776   0.06420  -0.05201   0.03053
   6   23365.8    428.0   0.002012371   0.02835   0.01798   0.08879  -0.14194
   7   23409.8    427.2   0.017506033   0.24619   0.22806  -0.37318   0.23433
   8   23842.5    419.4   0.001601749   0.02212   0.12374  -0.07217  -0.03997
   9   23888.8    418.6   0.007748708   0.10679   0.15971  -0.20579   0.19730
  10   26696.8    374.6   0.003183773   0.03926  -0.18212  -0.00301  -0.07800
  11   26742.3    373.9   0.002253510   0.02774  -0.08408  -0.02768  -0.14109
  12   27225.6    367.3   0.008545152   0.10333  -0.01278   0.26077   0.18752
  13   27246.1    367.0   0.216433355   2.61514  -0.16845  -1.56367   0.37642
  14   27268.0    366.7   0.020019023   0.24169   0.20581  -0.42640   0.13236
  15   28120.1    355.6   0.013871037   0.16239   0.20179  -0.22410  -0.26730
  16   29134.8    343.2   0.039876871   0.45059  -0.34336  -0.37844  -0.43530
  17   29193.5    342.5   0.054417178   0.61366   0.75092   0.22176  -0.02440
  18   29550.4    338.4   0.353710408   3.94057   1.39731   0.27035   1.38384
  19   29570.2    338.2   0.136568308   1.52045  -1.03682   0.28296   0.60447
  20   30109.9    332.1   0.001709043   0.01869   0.02952  -0.01725  -0.13235
  21   30129.7    331.9   0.007265361   0.07938  -0.19788   0.04907  -0.19447
  22   31013.6    322.4   0.044695049   0.47444  -0.09013  -0.60459  -0.31747
  23   31054.4    322.0   0.141185192   1.49672   0.62050   1.05364   0.03946
  24   31275.0    319.7   0.003960266   0.04169   0.14604   0.03255  -0.13892
  25   31340.8    319.1   0.006527868   0.06857   0.08057   0.23101   0.09334
  26   31560.9    316.8   0.009217775   0.09615   0.15848   0.26328  -0.04146
  27   31624.1    316.2   0.003500342   0.03644  -0.02132  -0.14815  -0.11848
  28   31726.8    315.2   0.013719872   0.14236   0.02995  -0.35812   0.11497
  29   31854.0    313.9   0.008007653   0.08276  -0.16745   0.14031   0.18717
  30   31893.7    313.5   0.004653015   0.04803   0.18420   0.11732   0.01830
  31   32002.5    312.5   0.027455279   0.28243  -0.09936  -0.49763   0.15789
  32   32034.2    312.2   0.001914857   0.01968  -0.05696   0.07329   0.10518
  33   32243.5    310.1   0.003896292   0.03978   0.05668   0.15313   0.11454
  34   32465.9    308.0   0.003901851   0.03957  -0.02840  -0.19437   0.03130
  35   32582.3    306.9   0.002091131   0.02113   0.07520   0.12120  -0.02799
  36   32619.2    306.6   0.019094437   0.19271  -0.17465   0.29230  -0.27708
  37   32656.1    306.2   0.000439150   0.00443  -0.05959  -0.01825  -0.02329
  38   32761.5    305.2   0.034178740   0.34345  -0.45021  -0.37498  -0.01230
  39   32793.7    304.9   0.026954947   0.27060   0.12045   0.45954   0.21194
  40   33452.6    298.9   0.009124883   0.08980  -0.26327  -0.09303  -0.10878
  41   33523.8    298.3   0.022587114   0.22181  -0.35867  -0.09752  -0.28923
  42   33784.8    296.0   0.000286165   0.00279  -0.00721  -0.04233   0.03073
  43   34209.6    292.3   0.002177173   0.02095  -0.02383   0.14177   0.01690
  44   34240.8    292.0   0.000570551   0.00549   0.03464   0.06529   0.00478
  45   34379.7    290.9   0.001273991   0.01220  -0.08587  -0.01233   0.06837
  46   34429.8    290.4   0.001384738   0.01324  -0.08287  -0.07911  -0.01075
  47   34510.4    289.8   0.000961664   0.00917  -0.00178   0.03156  -0.09041
  48   34558.6    289.4   0.001705023   0.01624  -0.01597   0.09999   0.07739
  49   34617.4    288.9   0.001996878   0.01899   0.09761   0.09722  -0.00337
  50   35049.1    285.3   0.010442504   0.09809   0.09798  -0.20613  -0.21447
  51   35170.3    284.3   0.009286222   0.08692  -0.20058  -0.19322   0.09674
  52   35592.2    281.0   0.027749057   0.25667   0.25551   0.41745  -0.13083
  53   35665.7    280.4   0.019652090   0.18140  -0.06584   0.36026   0.21744
  54   35920.2    278.4   0.018270545   0.16745   0.26418  -0.08557  -0.30056
  55   35956.7    278.1   0.005469085   0.05007  -0.03268   0.21015  -0.06960
  56   35988.1    277.9   0.037558823   0.34358   0.46942   0.03551   0.34924
  57   36034.7    277.5   0.000634499   0.00580   0.02866  -0.00060   0.07053
  58   36396.1    274.8   0.001092163   0.00988  -0.00388   0.07229  -0.06810
  59   36421.7    274.6   0.006286550   0.05682   0.04399  -0.22399   0.06868
  60   36721.9    272.3   0.001038284   0.00931  -0.06166   0.02631   0.06938
  61   36803.9    271.7   0.000487450   0.00436  -0.00694  -0.05576   0.03468
  62   37534.0    266.4   0.039052591   0.34253   0.53744  -0.13190  -0.19051
  63   37583.6    266.1   0.060313560   0.52831  -0.40137   0.01172  -0.60587
  64   38240.1    261.5   0.035732911   0.30763  -0.52131  -0.02246   0.18804
  65   38297.5    261.1   0.034001477   0.29228  -0.12481  -0.25015  -0.46274
  66   38633.6    258.8   0.000411529   0.00351  -0.04035  -0.03865   0.01960
  67   39047.9    256.1   0.021323688   0.17978  -0.35374   0.17609   0.15375
  68   39099.1    255.8   0.008595645   0.07237   0.16873  -0.17811  -0.11038
  69   39159.9    255.4   0.027202624   0.22869  -0.20539   0.22615   0.36791
  70   39197.6    255.1   0.038327319   0.32190  -0.20305   0.39476  -0.35333
  71   39274.2    254.6   0.103447329   0.86714  -0.58525   0.19544  -0.69744
  72   39331.6    254.2   0.037028022   0.30993  -0.49775  -0.19073  -0.16061
  73   39610.4    252.5   0.134066886   1.11426  -0.23873  -0.46448  -0.91735
  74   39628.0    252.3   0.318767705   2.64818  -1.60068  -0.26926  -0.11622
  75   39696.5    251.9   0.033554974   0.27828   0.05858  -0.21931  -0.47618
  76   39794.5    251.3   0.107259816   0.88734  -0.70463   0.01878  -0.62488
  77   39920.9    250.5   0.228303931   1.88273  -0.09818   0.56552   1.24631
  78   40020.6    249.9   0.951125893   7.82403   2.36715   0.84233   1.22927
  79   40079.4    249.5   0.370433845   3.04274  -1.60362  -0.46540  -0.50452
  80   40271.5    248.3   0.262475956   2.14569  -0.41286  -0.54379  -1.29597

FINAL SINGLE POINT ENERGY     -5990.989812668457

DIPOLE MOMENT
-------------
                                X             Y             Z
Electronic contribution:    -21.63492      14.50685      34.68522
Nuclear contribution   :     20.28337     -14.20071     -33.42757
                        -----------------------------------------
Total Dipole Moment    :     -1.35154       0.30613       1.25765
                        -----------------------------------------
Magnitude (a.u.)       :      1.87138
Magnitude (Debye)      :      4.75668

Rotational constants in cm-1:     0.001530     0.000361     0.000347
Rotational constants in MHz :    45.870847    10.821565    10.407912

                             ****ORCA TERMINATED NORMALLY****
TOTAL RUN TIME: 0 days 0 hours 10 minutes 9 seconds 976 msec
