                         Program Version 4.2.0 -  RELEASE  -
|  1> # ORCA input file
|  2> # SCF done       -197.990391864027          0.000404377513
|  3> ! CAM-B3LYP def2-SVP def2/J RIJCOSX Grid4 TightSCF
|  4> %maxcore 5000
|  5> %tddft
|  6>     Mode sTDDFT
|  7>     Ethresh 5.0
|  8>     maxcore 5000
|  9> end
| 10>
| 11> %pal
| 12>   nprocs 6
| 13>   end
| 14> * xyz 0 1
| 15>    C      -11.18962        -0.49365        -3.24321
| 16>    C       -9.86952        -0.09179        -3.27186
| 17>    C       -8.91346        -0.44874        -2.22918
| 18>    N       -7.66226         0.01508        -2.33066
| 19>    C       -7.31031         0.77063        -3.36596
| 20>    C       -8.25296         1.08444        -4.39329
| 21>    N       -9.48443         0.66083        -4.32971
| 22>    C       -7.82659         1.86575        -5.49792
| 23>    N       -7.42636         2.49778        -6.36565
| 24>    C       -6.00815         1.28653        -3.48643
| 25>    N       -4.96835         1.74764        -3.65972
| 26>    C       -9.30925        -1.26353        -1.12609
| 27>    C      -10.68197        -1.65446        -1.12104
| 28>    C      -11.60507        -1.27116        -2.16731
| 29>    N      -12.83255        -1.74861        -1.96197
| 30>    S      -12.83041        -2.59492        -0.59218
| 31>    N      -11.28540        -2.39880        -0.19755
| 32>    C       -8.49456        -1.72589        -0.04890
| 33>    O       -9.11922        -2.46735         0.90314
| 34>    C       -8.21663        -2.84890         1.82218
| 35>    C       -6.97759        -2.37920         1.51151
| 36>    O       -5.79813        -2.53384         2.17008
| 37>    C       -5.86573        -3.26845         3.37090
| 38>    C       -7.12740        -1.63564         0.29458
| 39>    N       -6.17199        -0.97118        -0.38487
| 40>    C       -4.84886        -0.91083        -0.10871
| 41>    C       -4.04106        -0.14881        -0.88503
| 42>    C       -2.63161         0.05099        -0.79490
| 43>    C       -2.06412         0.93830        -1.69438
| 44>    C       -0.68663         1.18479        -1.67936
| 45>    C        0.10983         2.01798        -2.46068
| 46>    C       -0.28926         3.01748        -3.48332
| 47>    C       -1.38138         2.54811        -4.46067
| 48>    N       -1.19561         3.22978        -5.73624
| 49>    C       -0.74719         4.32858        -2.76351
| 50>    N        0.31184         5.12399        -2.20287
| 51>    C        1.45355         1.89145        -1.96017
| 52>    C        2.60082         2.47985        -2.35460
| 53>    C        3.84888         2.33104        -1.55405
| 54>    C        3.80133         1.25240        -0.52363
| 55>    C        2.66220         0.61800        -0.18991
| 56>    C        1.44671         0.93122        -0.84961
| 57>    C        0.14487         0.49885        -0.69666
| 58>    C       -0.45915        -0.40824         0.20781
| 59>    C       -1.79815        -0.62106         0.15940
| 60>    C        3.89649         3.70152        -0.90686
| 61>    C        4.43466         4.76871        -1.50353
| 62>    C        4.42389         6.09018        -0.94849
| 63>    O        3.91140         6.31203         0.28484
| 64>    C        4.10726         7.61203         0.59333
| 65>    C        4.73782         8.25414        -0.43233
| 66>    O        5.14869         9.53779        -0.56979
| 67>    C        4.88036        10.38476         0.52481
| 68>    C        4.93411         7.27455        -1.45519
| 69>    N        5.57132         7.53263        -2.65470
| 70>    C        5.23102         7.07286        -3.88596
| 71>    C        4.08264         6.42712        -4.20311
| 72>    C        3.75538         5.92773        -5.49811
| 73>    C        4.69864         5.68545        -6.53379
| 74>    C        4.27391         5.26664        -7.85523
| 75>    N        5.19115         5.08758        -8.83191
| 76>    C        6.45371         5.27143        -8.55600
| 77>    C        6.88054         5.61579        -7.22971
| 78>    N        6.00317         5.81222        -6.26983
| 79>    C        8.25542         5.74294        -6.92852
| 80>    N        9.37410         5.85599        -6.70207
| 81>    C        7.42423         5.10778        -9.57725
| 82>    N        8.24234         4.98934       -10.37036
| 83>    C        2.93689         5.05430        -8.16126
| 84>    C        2.00694         5.24812        -7.14933
| 85>    C        2.41209         5.66401        -5.82842
| 86>    N        1.35022         5.81418        -5.01758
| 87>    S        0.01409         5.46030        -5.83100
| 88>    N        0.67340         5.10782        -7.23966
| 89>    H      -11.86306        -0.20768        -4.03182
| 90>    H       -8.58393        -3.44087         2.63575
| 91>    H       -6.20820        -4.29139         3.18878
| 92>    H       -6.53494        -2.78709         4.09010
| 93>    H       -4.85284        -3.28658         3.76853
| 94>    H       -6.54527        -0.46591        -1.21574
| 95>    H       -4.50375        -1.48121         0.73854
| 96>    H       -4.51732         0.39319        -1.69019
| 97>    H       -2.70093         1.44217        -2.40316
| 98>    H        0.59258         3.26683        -4.08376
| 99>    H       -2.36700         2.81063        -4.07586
|100>    H       -1.33415         1.45653        -4.56749
|101>    H       -0.50732         2.76088        -6.31426
|102>    H       -2.06015         3.29338        -6.25913
|103>    H       -1.44016         4.05605        -1.96249
|104>    H       -1.27811         4.94939        -3.48855
|105>    H        0.86969         4.58926        -1.54648
|106>    H        0.91359         5.47951        -2.94062
|107>    H        2.64802         3.16008        -3.19412
|108>    H        4.72080         2.21199        -2.20550
|109>    H        4.73160         1.03547        -0.02147
|110>    H        2.65900        -0.14083         0.57917
|111>    H        0.15744        -0.92145         0.93168
|112>    H       -2.26080        -1.31216         0.84684
|113>    H        3.38048         3.79719         0.03645
|114>    H        4.93748         4.67724        -2.45555
|115>    H        3.75045         7.94150         1.54743
|116>    H        5.27241        11.36231         0.25188
|117>    H        5.37889        10.02656         1.43047
|118>    H        3.80496        10.45747         0.71085
|119>    H        6.23339         8.29525        -2.61292
|120>    H        5.96431         7.27824        -4.65206
|121>    H        3.30017         6.34209        -3.46140
|122>    H        2.64380         4.76821        -9.15645
|123> *
|124>
|125>                          ****END OF INPUT****

CARTESIAN COORDINATES (ANGSTROEM)
---------------------------------
  C    -11.189620   -0.493650   -3.243210
  C     -9.869520   -0.091790   -3.271860
  C     -8.913460   -0.448740   -2.229180
  N     -7.662260    0.015080   -2.330660
  C     -7.310310    0.770630   -3.365960
  C     -8.252960    1.084440   -4.393290
  N     -9.484430    0.660830   -4.329710
  C     -7.826590    1.865750   -5.497920
  N     -7.426360    2.497780   -6.365650
  C     -6.008150    1.286530   -3.486430
  N     -4.968350    1.747640   -3.659720
  C     -9.309250   -1.263530   -1.126090
  C    -10.681970   -1.654460   -1.121040
  C    -11.605070   -1.271160   -2.167310
  N    -12.832550   -1.748610   -1.961970
  S    -12.830410   -2.594920   -0.592180
  N    -11.285400   -2.398800   -0.197550
  C     -8.494560   -1.725890   -0.048900
  O     -9.119220   -2.467350    0.903140
  C     -8.216630   -2.848900    1.822180
  C     -6.977590   -2.379200    1.511510
  O     -5.798130   -2.533840    2.170080
  C     -5.865730   -3.268450    3.370900
  C     -7.127400   -1.635640    0.294580
  N     -6.171990   -0.971180   -0.384870
  C     -4.848860   -0.910830   -0.108710
  C     -4.041060   -0.148810   -0.885030
  C     -2.631610    0.050990   -0.794900
  C     -2.064120    0.938300   -1.694380
  C     -0.686630    1.184790   -1.679360
  C      0.109830    2.017980   -2.460680
  C     -0.289260    3.017480   -3.483320
  C     -1.381380    2.548110   -4.460670
  N     -1.195610    3.229780   -5.736240
  C     -0.747190    4.328580   -2.763510
  N      0.311840    5.123990   -2.202870
  C      1.453550    1.891450   -1.960170
  C      2.600820    2.479850   -2.354600
  C      3.848880    2.331040   -1.554050
  C      3.801330    1.252400   -0.523630
  C      2.662200    0.618000   -0.189910
  C      1.446710    0.931220   -0.849610
  C      0.144870    0.498850   -0.696660
  C     -0.459150   -0.408240    0.207810
  C     -1.798150   -0.621060    0.159400
  C      3.896490    3.701520   -0.906860
  C      4.434660    4.768710   -1.503530
  C      4.423890    6.090180   -0.948490
  O      3.911400    6.312030    0.284840
  C      4.107260    7.612030    0.593330
  C      4.737820    8.254140   -0.432330
  O      5.148690    9.537790   -0.569790
  C      4.880360   10.384760    0.524810
  C      4.934110    7.274550   -1.455190
  N      5.571320    7.532630   -2.654700
  C      5.231020    7.072860   -3.885960
  C      4.082640    6.427120   -4.203110
  C      3.755380    5.927730   -5.498110
  C      4.698640    5.685450   -6.533790
  C      4.273910    5.266640   -7.855230
  N      5.191150    5.087580   -8.831910
  C      6.453710    5.271430   -8.556000
  C      6.880540    5.615790   -7.229710
  N      6.003170    5.812220   -6.269830
  C      8.255420    5.742940   -6.928520
  N      9.374100    5.855990   -6.702070
  C      7.424230    5.107780   -9.577250
  N      8.242340    4.989340  -10.370360
  C      2.936890    5.054300   -8.161260
  C      2.006940    5.248120   -7.149330
  C      2.412090    5.664010   -5.828420
  N      1.350220    5.814180   -5.017580
  S      0.014090    5.460300   -5.831000
  N      0.673400    5.107820   -7.239660
  H    -11.863060   -0.207680   -4.031820
  H     -8.583930   -3.440870    2.635750
  H     -6.208200   -4.291390    3.188780
  H     -6.534940   -2.787090    4.090100
  H     -4.852840   -3.286580    3.768530
  H     -6.545270   -0.465910   -1.215740
  H     -4.503750   -1.481210    0.738540
  H     -4.517320    0.393190   -1.690190
  H     -2.700930    1.442170   -2.403160
  H      0.592580    3.266830   -4.083760
  H     -2.367000    2.810630   -4.075860
  H     -1.334150    1.456530   -4.567490
  H     -0.507320    2.760880   -6.314260
  H     -2.060150    3.293380   -6.259130
  H     -1.440160    4.056050   -1.962490
  H     -1.278110    4.949390   -3.488550
  H      0.869690    4.589260   -1.546480
  H      0.913590    5.479510   -2.940620
  H      2.648020    3.160080   -3.194120
  H      4.720800    2.211990   -2.205500
  H      4.731600    1.035470   -0.021470
  H      2.659000   -0.140830    0.579170
  H      0.157440   -0.921450    0.931680
  H     -2.260800   -1.312160    0.846840
  H      3.380480    3.797190    0.036450
  H      4.937480    4.677240   -2.455550
  H      3.750450    7.941500    1.547430
  H      5.272410   11.362310    0.251880
  H      5.378890   10.026560    1.430470
  H      3.804960   10.457470    0.710850
  H      6.233390    8.295250   -2.612920
  H      5.964310    7.278240   -4.652060
  H      3.300170    6.342090   -3.461400
  H      2.643800    4.768210   -9.156450

 Total Charge           Charge          ....    0
 Multiplicity           Mult            ....    1
 Number of Electrons    NEL             ....  522
 Basis Dimension        Dim             .... 1214

ORBITAL ENERGIES
----------------

  NO   OCC          E(Eh)            E(eV)
   0   2.0000     -89.031829     -2422.6792
   1   2.0000     -89.024809     -2422.4882
   2   2.0000     -19.290324      -524.9164
   3   2.0000     -19.286962      -524.8249
   4   2.0000     -19.272826      -524.4403
   5   2.0000     -19.259920      -524.0891
   6   2.0000     -14.472982      -393.8298
   7   2.0000     -14.460074      -393.4786
   8   2.0000     -14.459235      -393.4558
   9   2.0000     -14.447612      -393.1395
  10   2.0000     -14.445757      -393.0890
  11   2.0000     -14.438786      -392.8993
  12   2.0000     -14.438741      -392.8981
  13   2.0000     -14.435398      -392.8071
  14   2.0000     -14.432393      -392.7254
  15   2.0000     -14.431779      -392.7087
  16   2.0000     -14.426827      -392.5739
  17   2.0000     -14.421965      -392.4416
  18   2.0000     -14.413629      -392.2148
  19   2.0000     -14.412781      -392.1917
  20   2.0000     -14.403209      -391.9312
  21   2.0000     -14.353899      -390.5895
  22   2.0000     -10.375237      -282.3245
  23   2.0000     -10.370248      -282.1888
  24   2.0000     -10.361585      -281.9531
  25   2.0000     -10.356741      -281.8213
  26   2.0000     -10.352272      -281.6996
  27   2.0000     -10.351477      -281.6780
  28   2.0000     -10.349836      -281.6334
  29   2.0000     -10.347614      -281.5729
  30   2.0000     -10.344672      -281.4928
  31   2.0000     -10.343331      -281.4564
  32   2.0000     -10.337732      -281.3040
  33   2.0000     -10.333626      -281.1923
  34   2.0000     -10.333368      -281.1852
  35   2.0000     -10.332268      -281.1553
  36   2.0000     -10.332127      -281.1515
  37   2.0000     -10.330961      -281.1197
  38   2.0000     -10.330508      -281.1074
  39   2.0000     -10.327309      -281.0204
  40   2.0000     -10.324957      -280.9564
  41   2.0000     -10.324406      -280.9414
  42   2.0000     -10.322914      -280.9008
  43   2.0000     -10.320720      -280.8411
  44   2.0000     -10.320223      -280.8275
  45   2.0000     -10.318358      -280.7768
  46   2.0000     -10.316455      -280.7250
  47   2.0000     -10.314576      -280.6739
  48   2.0000     -10.308266      -280.5022
  49   2.0000     -10.307973      -280.4942
  50   2.0000     -10.307350      -280.4773
  51   2.0000     -10.304967      -280.4124
  52   2.0000     -10.300040      -280.2783
  53   2.0000     -10.291715      -280.0518
  54   2.0000     -10.285855      -279.8923
  55   2.0000     -10.284354      -279.8515
  56   2.0000     -10.281202      -279.7657
  57   2.0000     -10.279378      -279.7161
  58   2.0000     -10.272792      -279.5369
  59   2.0000     -10.271134      -279.4918
  60   2.0000     -10.271126      -279.4916
  61   2.0000     -10.268450      -279.4187
  62   2.0000     -10.266346      -279.3615
  63   2.0000     -10.265575      -279.3405
  64   2.0000     -10.265330      -279.3338
  65   2.0000     -10.264758      -279.3183
  66   2.0000     -10.263173      -279.2751
  67   2.0000     -10.262730      -279.2631
  68   2.0000     -10.258092      -279.1369
  69   2.0000     -10.257632      -279.1244
  70   2.0000     -10.256843      -279.1029
  71   2.0000     -10.256316      -279.0885
  72   2.0000     -10.256047      -279.0812
  73   2.0000     -10.254072      -279.0275
  74   2.0000      -8.119840      -220.9521
  75   2.0000      -8.116642      -220.8651
  76   2.0000      -6.090429      -165.7290
  77   2.0000      -6.087749      -165.6561
  78   2.0000      -6.084480      -165.5671
  79   2.0000      -6.082148      -165.5037
  80   2.0000      -6.080006      -165.4454
  81   2.0000      -6.079251      -165.4248
  82   2.0000      -1.220211       -33.2036
  83   2.0000      -1.206414       -32.8282
  84   2.0000      -1.173274       -31.9264
  85   2.0000      -1.160632       -31.5824
  86   2.0000      -1.124871       -30.6093
  87   2.0000      -1.118317       -30.4310
  88   2.0000      -1.114241       -30.3200
  89   2.0000      -1.098619       -29.8950
  90   2.0000      -1.067199       -29.0400
  91   2.0000      -1.054854       -28.7040
  92   2.0000      -1.040276       -28.3074
  93   2.0000      -1.026084       -27.9212
  94   2.0000      -1.017487       -27.6872
  95   2.0000      -1.002688       -27.2845
  96   2.0000      -0.997060       -27.1314
  97   2.0000      -0.987450       -26.8699
  98   2.0000      -0.982403       -26.7326
  99   2.0000      -0.981108       -26.6973
 100   2.0000      -0.974357       -26.5136
 101   2.0000      -0.969543       -26.3826
 102   2.0000      -0.966765       -26.3070
 103   2.0000      -0.953810       -25.9545
 104   2.0000      -0.943913       -25.6852
 105   2.0000      -0.941348       -25.6154
 106   2.0000      -0.919398       -25.0181
 107   2.0000      -0.906787       -24.6749
 108   2.0000      -0.904229       -24.6053
 109   2.0000      -0.900913       -24.5151
 110   2.0000      -0.890592       -24.2342
 111   2.0000      -0.887306       -24.1448
 112   2.0000      -0.885787       -24.1035
 113   2.0000      -0.875635       -23.8272
 114   2.0000      -0.867767       -23.6132
 115   2.0000      -0.853302       -23.2195
 116   2.0000      -0.839713       -22.8498
 117   2.0000      -0.833026       -22.6678
 118   2.0000      -0.826323       -22.4854
 119   2.0000      -0.824795       -22.4438
 120   2.0000      -0.822614       -22.3845
 121   2.0000      -0.818892       -22.2832
 122   2.0000      -0.810125       -22.0446
 123   2.0000      -0.807303       -21.9678
 124   2.0000      -0.801306       -21.8046
 125   2.0000      -0.789050       -21.4711
 126   2.0000      -0.781433       -21.2639
 127   2.0000      -0.776372       -21.1262
 128   2.0000      -0.754254       -20.5243
 129   2.0000      -0.748504       -20.3678
 130   2.0000      -0.741013       -20.1640
 131   2.0000      -0.734007       -19.9734
 132   2.0000      -0.720766       -19.6130
 133   2.0000      -0.718665       -19.5559
 134   2.0000      -0.711730       -19.3672
 135   2.0000      -0.708194       -19.2710
 136   2.0000      -0.700873       -19.0717
 137   2.0000      -0.695323       -18.9207
 138   2.0000      -0.689675       -18.7670
 139   2.0000      -0.687384       -18.7047
 140   2.0000      -0.683609       -18.6019
 141   2.0000      -0.680975       -18.5303
 142   2.0000      -0.676417       -18.4062
 143   2.0000      -0.673335       -18.3224
 144   2.0000      -0.665609       -18.1121
 145   2.0000      -0.659247       -17.9390
 146   2.0000      -0.655021       -17.8240
 147   2.0000      -0.650201       -17.6929
 148   2.0000      -0.642935       -17.4952
 149   2.0000      -0.640287       -17.4231
 150   2.0000      -0.637047       -17.3349
 151   2.0000      -0.630095       -17.1458
 152   2.0000      -0.627058       -17.0631
 153   2.0000      -0.623955       -16.9787
 154   2.0000      -0.618698       -16.8356
 155   2.0000      -0.609300       -16.5799
 156   2.0000      -0.605918       -16.4879
 157   2.0000      -0.603712       -16.4278
 158   2.0000      -0.593047       -16.1376
 159   2.0000      -0.589210       -16.0332
 160   2.0000      -0.589052       -16.0289
 161   2.0000      -0.588235       -16.0067
 162   2.0000      -0.583935       -15.8897
 163   2.0000      -0.577583       -15.7168
 164   2.0000      -0.575571       -15.6621
 165   2.0000      -0.572043       -15.5661
 166   2.0000      -0.570928       -15.5357
 167   2.0000      -0.569096       -15.4859
 168   2.0000      -0.563301       -15.3282
 169   2.0000      -0.561629       -15.2827
 170   2.0000      -0.558032       -15.1848
 171   2.0000      -0.556064       -15.1313
 172   2.0000      -0.554173       -15.0798
 173   2.0000      -0.550549       -14.9812
 174   2.0000      -0.547654       -14.9024
 175   2.0000      -0.541795       -14.7430
 176   2.0000      -0.541644       -14.7389
 177   2.0000      -0.537488       -14.6258
 178   2.0000      -0.536703       -14.6044
 179   2.0000      -0.533965       -14.5299
 180   2.0000      -0.530820       -14.4444
 181   2.0000      -0.529428       -14.4065
 182   2.0000      -0.524323       -14.2676
 183   2.0000      -0.522165       -14.2088
 184   2.0000      -0.519791       -14.1442
 185   2.0000      -0.516641       -14.0585
 186   2.0000      -0.513404       -13.9704
 187   2.0000      -0.512571       -13.9478
 188   2.0000      -0.508302       -13.8316
 189   2.0000      -0.507063       -13.7979
 190   2.0000      -0.502472       -13.6729
 191   2.0000      -0.499383       -13.5889
 192   2.0000      -0.495463       -13.4822
 193   2.0000      -0.491549       -13.3757
 194   2.0000      -0.487539       -13.2666
 195   2.0000      -0.484587       -13.1863
 196   2.0000      -0.483142       -13.1470
 197   2.0000      -0.480587       -13.0774
 198   2.0000      -0.479214       -13.0401
 199   2.0000      -0.476146       -12.9566
 200   2.0000      -0.471497       -12.8301
 201   2.0000      -0.469832       -12.7848
 202   2.0000      -0.468635       -12.7522
 203   2.0000      -0.466423       -12.6920
 204   2.0000      -0.465462       -12.6659
 205   2.0000      -0.462918       -12.5966
 206   2.0000      -0.459304       -12.4983
 207   2.0000      -0.459027       -12.4908
 208   2.0000      -0.455014       -12.3816
 209   2.0000      -0.453111       -12.3298
 210   2.0000      -0.452692       -12.3184
 211   2.0000      -0.451075       -12.2744
 212   2.0000      -0.445225       -12.1152
 213   2.0000      -0.443340       -12.0639
 214   2.0000      -0.441943       -12.0259
 215   2.0000      -0.441011       -12.0005
 216   2.0000      -0.440819       -11.9953
 217   2.0000      -0.439180       -11.9507
 218   2.0000      -0.436663       -11.8822
 219   2.0000      -0.433285       -11.7903
 220   2.0000      -0.432244       -11.7620
 221   2.0000      -0.430013       -11.7012
 222   2.0000      -0.428256       -11.6534
 223   2.0000      -0.424707       -11.5569
 224   2.0000      -0.423400       -11.5213
 225   2.0000      -0.420552       -11.4438
 226   2.0000      -0.418108       -11.3773
 227   2.0000      -0.417986       -11.3740
 228   2.0000      -0.415455       -11.3051
 229   2.0000      -0.412312       -11.2196
 230   2.0000      -0.407574       -11.0907
 231   2.0000      -0.406539       -11.0625
 232   2.0000      -0.402317       -10.9476
 233   2.0000      -0.401377       -10.9220
 234   2.0000      -0.397833       -10.8256
 235   2.0000      -0.397075       -10.8050
 236   2.0000      -0.393057       -10.6956
 237   2.0000      -0.392548       -10.6818
 238   2.0000      -0.389575       -10.6009
 239   2.0000      -0.383792       -10.4435
 240   2.0000      -0.377691       -10.2775
 241   2.0000      -0.361935        -9.8488
 242   2.0000      -0.361139        -9.8271
 243   2.0000      -0.360456        -9.8085
 244   2.0000      -0.359872        -9.7926
 245   2.0000      -0.357706        -9.7337
 246   2.0000      -0.346638        -9.4325
 247   2.0000      -0.341848        -9.3022
 248   2.0000      -0.341516        -9.2931
 249   2.0000      -0.336453        -9.1553
 250   2.0000      -0.335919        -9.1408
 251   2.0000      -0.324047        -8.8178
 252   2.0000      -0.312592        -8.5061
 253   2.0000      -0.306694        -8.3456
 254   2.0000      -0.292506        -7.9595
 255   2.0000      -0.279973        -7.6184
 256   2.0000      -0.276230        -7.5166
 257   2.0000      -0.271540        -7.3890
 258   2.0000      -0.240834        -6.5534
 259   2.0000      -0.240088        -6.5331
 260   2.0000      -0.208144        -5.6639
 261   0.0000      -0.112056        -3.0492
 262   0.0000      -0.087813        -2.3895
 263   0.0000      -0.062145        -1.6910
 264   0.0000      -0.046336        -1.2609
 265   0.0000      -0.032754        -0.8913

MULLIKEN ATOMIC CHARGES
-----------------------
   0 C :   -0.113374
   1 C :    0.017310
   2 C :   -0.013197
   3 N :   -0.059006
   4 C :   -0.066229
   5 C :   -0.159401
   6 N :    0.045717
   7 C :   -0.201594
   8 N :    0.228573
   9 C :   -0.209362
  10 N :    0.178406
  11 C :    0.137798
  12 C :   -0.050136
  13 C :    0.100395
  14 N :   -0.274648
  15 S :    0.506016
  16 N :   -0.252002
  17 C :   -0.013753
  18 O :   -0.181128
  19 C :    0.018942
  20 C :    0.168919
  21 O :   -0.323139
  22 C :    0.178516
  23 C :    0.019342
  24 N :    0.041008
  25 C :    0.049020
  26 C :    0.008172
  27 C :    0.133519
  28 C :   -0.116514
  29 C :    0.059132
  30 C :   -0.022011
  31 C :   -0.061667
  32 C :    0.103573
  33 N :   -0.234054
  34 C :    0.138312
  35 N :   -0.223385
  36 C :    0.074285
  37 C :   -0.122516
  38 C :    0.115122
  39 C :   -0.033018
  40 C :    0.010441
  41 C :    0.021871
  42 C :    0.035904
  43 C :   -0.002148
  44 C :   -0.020256
  45 C :   -0.054212
  46 C :   -0.023483
  47 C :    0.062021
  48 O :   -0.199235
  49 C :   -0.018752
  50 C :    0.207302
  51 O :   -0.318791
  52 C :    0.180502
  53 C :    0.043594
  54 N :   -0.023881
  55 C :    0.100928
  56 C :   -0.153537
  57 C :    0.138287
  58 C :   -0.089254
  59 C :    0.043513
  60 N :    0.048136
  61 C :   -0.149026
  62 C :   -0.146249
  63 N :    0.015144
  64 C :   -0.217656
  65 N :    0.218076
  66 C :   -0.203684
  67 N :    0.223622
  68 C :   -0.117987
  69 C :    0.100691
  70 C :   -0.017953
  71 N :   -0.314092
  72 S :    0.583613
  73 N :   -0.290928
  74 H :   -0.028543
  75 H :    0.006576
  76 H :    0.026494
  77 H :    0.026859
  78 H :    0.046805
  79 H :    0.142828
  80 H :    0.019081
  81 H :   -0.063461
  82 H :   -0.038609
  83 H :   -0.041082
  84 H :    0.036993
  85 H :    0.010777
  86 H :    0.117008
  87 H :    0.118798
  88 H :    0.001498
  89 H :   -0.001342
  90 H :    0.090360
  91 H :    0.094478
  92 H :   -0.004265
  93 H :    0.019654
  94 H :   -0.011025
  95 H :   -0.035993
  96 H :   -0.042178
  97 H :   -0.042005
  98 H :    0.025045
  99 H :    0.017010
 100 H :   -0.001537
 101 H :    0.041269
 102 H :    0.022952
 103 H :    0.027357
 104 H :    0.141700
 105 H :    0.029077
 106 H :    0.016483
 107 H :   -0.033527
Sum of atomic charges:   -0.0000000

LOEWDIN ATOMIC CHARGES
----------------------
   0 C :   -0.047990
   1 C :   -0.004756
   2 C :   -0.011690
   3 N :    0.004275
   4 C :   -0.066383
   5 C :   -0.026274
   6 N :   -0.012033
   7 C :   -0.030904
   8 N :   -0.012501
   9 C :   -0.028003
  10 N :   -0.037481
  11 C :   -0.022798
  12 C :   -0.052498
  13 C :   -0.046128
  14 N :   -0.297869
  15 S :    0.643478
  16 N :   -0.272177
  17 C :    0.005163
  18 O :    0.022999
  19 C :    0.019361
  20 C :   -0.016732
  21 O :   -0.103203
  22 C :    0.082594
  23 C :    0.010061
  24 N :    0.086345
  25 C :    0.013236
  26 C :   -0.051942
  27 C :   -0.025640
  28 C :   -0.014815
  29 C :   -0.024930
  30 C :   -0.036243
  31 C :   -0.060559
  32 C :    0.028775
  33 N :   -0.091412
  34 C :    0.023851
  35 N :   -0.112084
  36 C :   -0.028294
  37 C :    0.070126
  38 C :   -0.027356
  39 C :   -0.036851
  40 C :   -0.016794
  41 C :   -0.042180
  42 C :   -0.029068
  43 C :   -0.009153
  44 C :   -0.029399
  45 C :    0.012907
  46 C :   -0.047276
  47 C :    0.011675
  48 O :    0.012477
  49 C :   -0.018415
  50 C :   -0.007500
  51 O :   -0.110242
  52 C :    0.082677
  53 C :   -0.041539
  54 N :    0.045871
  55 C :    0.070474
  56 C :   -0.111167
  57 C :    0.001625
  58 C :   -0.028914
  59 C :   -0.007556
  60 N :   -0.008217
  61 C :   -0.033624
  62 C :   -0.056047
  63 N :   -0.000350
  64 C :   -0.040466
  65 N :   -0.027854
  66 C :   -0.033394
  67 N :   -0.015705
  68 C :   -0.045933
  69 C :   -0.045026
  70 C :   -0.062935
  71 N :   -0.302020
  72 S :    0.779888
  73 N :   -0.324436
  74 H :    0.043783
  75 H :    0.027837
  76 H :    0.017185
  77 H :    0.017526
  78 H :    0.032540
  79 H :    0.049163
  80 H :    0.022798
  81 H :    0.026973
  82 H :    0.026143
  83 H :    0.009631
  84 H :    0.024644
  85 H :    0.013077
  86 H :    0.058030
  87 H :    0.064774
  88 H :    0.021139
  89 H :    0.003435
  90 H :    0.045182
  91 H :    0.029886
  92 H :    0.027941
  93 H :    0.047365
  94 H :    0.024504
  95 H :    0.028519
  96 H :    0.025275
  97 H :    0.021936
  98 H :    0.033028
  99 H :    0.038570
 100 H :    0.021155
 101 H :    0.030008
 102 H :    0.015762
 103 H :    0.017603
 104 H :    0.096232
 105 H :    0.029775
 106 H :    0.034372
 107 H :    0.041105

  Mayer bond orders larger than 0.100000
B(  0-C ,  1-C ) :   1.3644 B(  0-C , 13-C ) :   1.1272 B(  0-C , 74-H ) :   1.0631
B(  1-C ,  2-C ) :   1.0876 B(  1-C ,  6-N ) :   1.3167 B(  2-C ,  3-N ) :   1.4447
B(  2-C , 11-C ) :   1.2327 B(  3-N ,  4-C ) :   1.5643 B(  3-N , 79-H ) :   0.1721
B(  4-C ,  5-C ) :   1.2266 B(  4-C ,  9-C ) :   1.1393 B(  5-C ,  6-N ) :   1.7781
B(  5-C ,  7-C ) :   1.1597 B(  7-C ,  8-N ) :   3.0519 B(  9-C , 10-N ) :   2.9442
B( 11-C , 12-C ) :   1.1799 B( 11-C , 17-C ) :   1.1861 B( 12-C , 13-C ) :   1.1272
B( 12-C , 16-N ) :   1.5586 B( 13-C , 14-N ) :   1.5144 B( 14-N , 15-S ) :   1.2501
B( 14-N , 16-N ) :   0.1430 B( 15-S , 16-N ) :   1.2729 B( 17-C , 18-O ) :   1.1726
B( 17-C , 23-C ) :   1.2740 B( 18-O , 19-C ) :   1.1158 B( 19-C , 20-C ) :   1.4429
B( 19-C , 75-H ) :   1.0355 B( 20-C , 21-O ) :   1.1059 B( 20-C , 23-C ) :   1.2442
B( 21-O , 22-C ) :   0.9525 B( 22-C , 76-H ) :   0.9681 B( 22-C , 77-H ) :   0.9676
B( 22-C , 78-H ) :   0.9814 B( 23-C , 24-N ) :   1.3338 B( 24-N , 25-C ) :   1.1474
B( 24-N , 79-H ) :   0.8053 B( 25-C , 26-C ) :   1.5802 B( 25-C , 80-H ) :   0.9626
B( 26-C , 27-C ) :   1.1575 B( 26-C , 81-H ) :   0.9675 B( 27-C , 28-C ) :   1.4654
B( 27-C , 44-C ) :   1.1164 B( 28-C , 29-C ) :   1.1340 B( 28-C , 82-H ) :   1.0015
B( 29-C , 30-C ) :   1.4449 B( 29-C , 42-C ) :   1.1235 B( 30-C , 31-C ) :   1.0263
B( 30-C , 36-C ) :   1.1329 B( 31-C , 32-C ) :   1.0001 B( 31-C , 34-C ) :   0.9823
B( 31-C , 83-H ) :   0.8931 B( 32-C , 33-N ) :   1.0713 B( 32-C , 84-H ) :   0.9326
B( 32-C , 85-H ) :   0.9593 B( 33-N , 86-H ) :   0.9574 B( 33-N , 87-H ) :   0.9605
B( 34-C , 35-N ) :   1.1500 B( 34-C , 88-H ) :   0.9358 B( 34-C , 89-H ) :   0.9436
B( 35-N , 90-H ) :   0.9788 B( 35-N , 91-H ) :   0.9616 B( 36-C , 37-C ) :   1.6284
B( 36-C , 41-C ) :   1.0561 B( 37-C , 38-C ) :   0.9852 B( 37-C , 92-H ) :   0.9634
B( 38-C , 39-C ) :   0.9878 B( 38-C , 45-C ) :   0.9368 B( 38-C , 93-H ) :   0.8933
B( 39-C , 40-C ) :   1.7283 B( 39-C , 94-H ) :   0.9766 B( 40-C , 41-C ) :   1.1244
B( 40-C , 95-H ) :   0.9890 B( 41-C , 42-C ) :   1.4331 B( 42-C , 43-C ) :   1.1371
B( 43-C , 44-C ) :   1.6210 B( 43-C , 96-H ) :   0.9889 B( 44-C , 97-H ) :   0.9827
B( 45-C , 46-C ) :   1.7528 B( 45-C , 98-H ) :   0.9771 B( 46-C , 47-C ) :   1.1381
B( 46-C , 99-H ) :   0.9570 B( 47-C , 48-O ) :   1.1608 B( 47-C , 53-C ) :   1.4334
B( 48-O , 49-C ) :   1.0980 B( 49-C , 50-C ) :   1.4404 B( 49-C ,100-H ) :   1.0293
B( 50-C , 51-O ) :   1.1586 B( 50-C , 53-C ) :   1.2719 B( 51-O , 52-C ) :   0.9563
B( 52-C ,101-H ) :   0.9825 B( 52-C ,102-H ) :   0.9684 B( 52-C ,103-H ) :   0.9685
B( 53-C , 54-N ) :   1.0997 B( 54-N , 55-C ) :   1.2177 B( 54-N ,104-H ) :   0.9172
B( 55-C , 56-C ) :   1.5729 B( 55-C ,105-H ) :   0.9468 B( 56-C , 57-C ) :   1.2346
B( 56-C ,106-H ) :   0.9505 B( 57-C , 58-C ) :   1.1904 B( 57-C , 68-C ) :   0.1189
B( 57-C , 70-C ) :   1.2375 B( 58-C , 59-C ) :   1.1259 B( 58-C , 63-N ) :   1.4438
B( 59-C , 60-N ) :   1.3443 B( 59-C , 68-C ) :   1.3042 B( 60-N , 61-C ) :   1.7731
B( 61-C , 62-C ) :   1.2076 B( 61-C , 66-C ) :   1.1492 B( 62-C , 63-N ) :   1.6876
B( 62-C , 64-C ) :   1.1537 B( 64-C , 65-N ) :   3.0464 B( 66-C , 67-N ) :   3.0539
B( 68-C , 69-C ) :   1.1927 B( 68-C ,107-H ) :   1.0580 B( 69-C , 70-C ) :   1.1382
B( 69-C , 73-N ) :   1.4263 B( 70-C , 71-N ) :   1.4311 B( 71-N , 72-S ) :   1.3172
B( 71-N , 73-N ) :   0.1298 B( 72-S , 73-N ) :   1.3308

-----------------------------------------------------------------------------
         ABSORPTION SPECTRUM VIA TRANSITION ELECTRIC DIPOLE MOMENTS
-----------------------------------------------------------------------------
State   Energy  Wavelength   fosc         T2         TX        TY        TZ
        (cm-1)    (nm)                  (au**2)     (au)      (au)      (au)
-----------------------------------------------------------------------------
   0    7603.2   1315.2   0.301731848  13.06477  -3.51482  -0.55525  -0.63444
   1   12906.4    774.8   0.118656364   3.02664   0.71457  -0.81784   1.35911
   2   13367.3    748.1   0.003079328   0.07584  -0.05567  -0.11145  -0.24559
   3   14371.1    695.8   0.018857614   0.43199   0.13815  -0.60286   0.22239
   4   15423.1    648.4   0.221693953   4.73215  -0.25349  -0.36302  -2.12981
   5   19329.7    517.3   0.110431008   1.88079   0.92512   0.87603  -0.50746
   6   19774.0    505.7   0.040143901   0.66835  -0.45949  -0.34956   0.57881
   7   20537.3    486.9   0.007252390   0.11626  -0.07203   0.18533  -0.27698
   8   22852.5    437.6   0.536597114   7.73020  -2.52025  -1.12917   0.32174
   9   23297.2    429.2   0.007248989   0.10244   0.28185  -0.09568   0.11765
  10   23529.3    425.0   0.002232949   0.03124  -0.10556  -0.12534  -0.06625
  11   23582.5    424.0   0.015088323   0.21063   0.35479  -0.29089  -0.01187
  12   23858.7    419.1   0.098264962   1.35590  -0.82349  -0.68848   0.45141
  13   24222.0    412.8   0.022083312   0.30014   0.50120  -0.21881   0.03256
  14   24622.4    406.1   0.004153122   0.05553   0.13457  -0.17897   0.07342
  15   25755.8    388.3   0.034977837   0.44709   0.51711   0.37504   0.19757
  16   26207.1    381.6   0.035987961   0.45208  -0.55578  -0.37141   0.07242
  17   26937.0    371.2   0.044323496   0.54170   0.60607   0.34716  -0.23209
  18   27204.6    367.6   0.231720129   2.80412   1.63990   0.33887   0.00133
  19   27489.1    363.8   0.063039286   0.75496   0.70831   0.44403  -0.23685
  20   27637.7    361.8   0.021627118   0.25762   0.15486   0.46813  -0.12039
  21   28270.2    353.7   0.058351119   0.67951  -0.63537  -0.03179   0.52422
  22   28467.0    351.3   0.024697601   0.28562  -0.39714  -0.32994   0.13797
  23   28553.6    350.2   0.012112133   0.13965   0.31065   0.19116  -0.08126
  24   28937.8    345.6   0.006125465   0.06969  -0.14502  -0.22054   0.00423
  25   29058.4    344.1   0.583071763   6.60580  -2.21617  -0.28493   1.27012
  26   29285.6    341.5   0.324477307   3.64759   1.74764   0.50857   0.57855
  27   29785.5    335.7   0.097475274   1.07737   0.65141   0.52508  -0.61426
  28   29955.4    333.8   0.061337252   0.67410   0.33041   0.56752   0.49281
  29   30088.0    332.4   0.263999503   2.88858   1.38766   0.97804  -0.08015
  30   30119.0    332.0   0.012029162   0.13148  -0.29375  -0.21231   0.01109
  31   30806.9    324.6   0.083233332   0.88946   0.52352  -0.37060   0.69140
  32   31287.7    319.6   0.283216679   2.98003   1.51592   0.29499  -0.77136
  33   31699.4    315.5   0.318984583   3.31279   1.40025   0.92599  -0.70330
  34   32134.8    311.2   0.051906910   0.53177  -0.67778  -0.20562   0.17351
  35   32200.0    310.6   0.052105846   0.53273  -0.61669  -0.37802   0.09760
  36   32803.9    304.8   0.080008833   0.80295   0.01491   0.64005  -0.62695
  37   33511.2    298.4   0.035250747   0.34630  -0.57769  -0.10151   0.04770
  38   33668.9    297.0   0.013285363   0.12990   0.34686   0.09690   0.01413
  39   34115.5    293.1   0.012016070   0.11595  -0.29367  -0.16298   0.05614
  40   34178.4    292.6   0.008724556   0.08404   0.09650   0.15366  -0.22608
  41   34552.1    289.4   0.000468838   0.00447  -0.03025   0.05863  -0.01069
  42   35402.1    282.5   1.324684668  12.31855   2.77252   1.70972  -1.30710
  43   35734.9    279.8   0.026219997   0.24155   0.22302  -0.43428  -0.05672
  44   35961.2    278.1   0.001982452   0.01815  -0.09022  -0.09869  -0.01641
  45   36073.5    277.2   0.000815174   0.00744   0.06825   0.05268   0.00235
  46   36401.9    274.7   0.138656321   1.25398   0.70060   0.73165  -0.47732
  47   36754.7    272.1   0.257132843   2.30314  -1.18479  -0.68094   0.66010
  48   36955.0    270.6   0.028801243   0.25657   0.37712   0.20824  -0.26644
  49   37214.6    268.7   0.079781742   0.70577   0.42976   0.27805  -0.66616
  50   37437.7    267.1   0.010394802   0.09141   0.10245  -0.27282  -0.08050
  51   37907.0    263.8   0.006316586   0.05486  -0.17726  -0.08691   0.12603
  52   37944.0    263.5   0.002881777   0.02500  -0.12098  -0.03424  -0.09589
  53   38212.8    261.7   0.003074252   0.02649   0.14849  -0.00098   0.06660
  54   38709.3    258.3   0.006834720   0.05813   0.13181  -0.01482   0.20133
  55   38789.1    257.8   0.200851140   1.70467  -1.05991  -0.59367  -0.47835
  56   38981.1    256.5   0.115638953   0.97662   0.96304  -0.18935  -0.11538
  57   39048.3    256.1   0.039923512   0.33659   0.33791  -0.38206  -0.27647
  58   39279.2    254.6   0.079381946   0.66533  -0.73448   0.33846   0.10639
  59   39428.0    253.6   0.338326466   2.82492   1.51020  -0.30052  -0.67373
  60   39743.4    251.6   0.009100106   0.07538  -0.24744  -0.11027   0.04464
  61   39854.3    250.9   0.015940831   0.13168  -0.27975  -0.23079  -0.01241

FINAL SINGLE POINT ENERGY     -3970.817711273883

DIPOLE MOMENT
-------------
                                X             Y             Z
Electronic contribution:    -39.85125     -12.34286     -36.57727
Nuclear contribution   :     37.27944      10.97969      42.21795
                        -----------------------------------------
Total Dipole Moment    :     -2.57180      -1.36318       5.64069
                        -----------------------------------------
Magnitude (a.u.)       :      6.34742
Magnitude (Debye)      :     16.13387

Rotational constants in cm-1:     0.001637     0.000320     0.000293
Rotational constants in MHz :    49.090820     9.582268     8.789992

                             ****ORCA TERMINATED NORMALLY****
TOTAL RUN TIME: 0 days 0 hours 12 minutes 3 seconds 946 msec
