                         Program Version 4.2.0 -  RELEASE  -
|  1> # ORCA input file
|  2> # SCF done       -188.753423428190          0.000819309022
|  3> ! CAM-B3LYP def2-SVP def2/J RIJCOSX Grid4 TightSCF
|  4> %maxcore 5000
|  5> %tddft
|  6>     Mode sTDDFT
|  7>     Ethresh 5.0
|  8>     maxcore 5000
|  9> end
| 10>
| 11> %pal
| 12>   nprocs 6
| 13>   end
| 14> * xyz 0 1
| 15>    C        8.26273        -0.01334         5.47974
| 16>    C        7.22418        -0.92762         5.56616
| 17>    C        7.19793        -2.12994         4.75876
| 18>    N        6.23842        -3.03853         4.97877
| 19>    C        5.28787        -2.80010         5.84734
| 20>    C        5.23559        -1.53369         6.53272
| 21>    N        6.19445        -0.66507         6.40319
| 22>    C        4.13306        -1.25597         7.38171
| 23>    N        3.22344        -1.08274         8.05497
| 24>    C        4.32873        -3.80487         6.10804
| 25>    N        3.54550        -4.61134         6.33590
| 26>    C        8.19394        -2.38694         3.77983
| 27>    C        9.26103        -1.46702         3.74040
| 28>    C        9.29106        -0.29082         4.58491
| 29>    N       10.38258         0.45048         4.35788
| 30>    S       11.25824        -0.25016         3.21724
| 31>    N       10.32628        -1.52083         2.93525
| 32>    C        8.15735        -3.53574         2.93306
| 33>    C        9.23674        -4.26886         2.49347
| 34>    C        8.74602        -5.46856         1.89385
| 35>    C        9.53840        -6.46583         1.31699
| 36>    N       10.18244        -7.29862         0.85661
| 37>    C        7.35706        -5.49152         1.98895
| 38>    C        6.94369        -4.28811         2.58997
| 39>    C        5.64869        -3.80002         2.74654
| 40>    C        4.42556        -4.58714         3.02448
| 41>    C        3.36107        -3.70307         2.99988
| 42>    C        3.85945        -2.40400         2.70030
| 43>    C        5.24120        -2.45575         2.57593
| 44>    C        3.07517        -1.24927         2.57541
| 45>    N        2.44246        -0.29602         2.48448
| 46>    C        4.45517        -5.92974         3.43094
| 47>    C        3.36345        -6.64731         3.84602
| 48>    C        3.41469        -7.98131         4.27193
| 49>    N        2.27966        -8.64693         4.68707
| 50>    C        2.61645        -9.91476         5.03388
| 51>    C        2.11992       -11.11621         5.49377
| 52>    C        3.22507       -11.99774         5.56442
| 53>    N        4.36225       -11.33015         5.15839
| 54>    C        4.02669       -10.05771         4.82273
| 55>    C        4.52200        -8.86319         4.34925
| 56>    C        3.28130       -13.34246         5.96650
| 57>    C        2.18891       -14.10811         6.27327
| 58>    C        2.19662       -15.45541         6.67822
| 59>    C        1.12906       -16.31675         6.49989
| 60>    C        1.55970       -17.63989         6.79518
| 61>    C        0.80419       -18.80856         6.64066
| 62>    N        0.23012       -19.78791         6.46806
| 63>    C        2.89362       -17.61287         7.17479
| 64>    C        3.34631       -16.27207         7.13833
| 65>    C        4.59309       -15.82986         7.56136
| 66>    C        5.84691       -16.61728         7.57695
| 67>    C        6.77022       -15.90026         8.30335
| 68>    C        6.16728       -14.67198         8.71853
| 69>    C        4.86902       -14.61436         8.23540
| 70>    C        6.80053       -13.68163         9.47893
| 71>    N        7.32354       -12.85838        10.08534
| 72>    C        6.09477       -17.80628         6.84643
| 73>    C        5.32101       -18.20579         5.80092
| 74>    C        5.33488       -19.46789         5.15219
| 75>    C        4.22521       -19.80096         4.32961
| 76>    C        4.11550       -21.07968         3.67314
| 77>    N        3.02598       -21.35856         2.92115
| 78>    C        2.07586       -20.46901         2.83509
| 79>    C        2.17597       -19.20292         3.50834
| 80>    N        3.23745       -18.90061         4.21633
| 81>    C        1.14450       -18.23721         3.42442
| 82>    N        0.32449       -17.43890         3.36147
| 83>    C        0.92857       -20.74195         2.04479
| 84>    N       -0.00594       -20.91080         1.40530
| 85>    C        5.10940       -22.04309         3.80290
| 86>    C        6.20033       -21.74115         4.61067
| 87>    C        6.31432       -20.47079         5.30108
| 88>    N        7.43043       -20.40572         6.03066
| 89>    S        8.24364       -21.78000         5.86348
| 90>    N        7.24646       -22.53670         4.87154
| 91>    H        8.25328         0.88471         6.07271
| 92>    H       10.27191        -4.02006         2.62409
| 93>    H        6.71490        -6.23403         1.55292
| 94>    H        2.32802        -3.92172         3.18997
| 95>    H        5.88220        -1.63274         2.31870
| 96>    H        5.42283        -6.40833         3.44918
| 97>    H        2.39549        -6.16724         3.86409
| 98>    H        1.37022        -8.22297         4.75864
| 99>    H        1.11059       -11.36018         5.75422
|100>    H        5.28154       -11.73710         5.12630
|101>    H        5.53214        -8.62353         4.08784
|102>    H        4.26457       -13.79286         5.99276
|103>    H        1.20646       -13.68506         6.10909
|104>    H        0.15493       -16.05845         6.13065
|105>    H        3.45599       -18.45344         7.53317
|106>    H        7.79127       -16.17502         8.49053
|107>    H        4.15125       -13.84744         8.45844
|108>    H        6.94900       -18.40385         7.13663
|109>    H        4.54637       -17.54616         5.43633
|110>    H        5.01987       -22.99351         3.30566
|111> *
|112>
|113>                          ****END OF INPUT****

CARTESIAN COORDINATES (ANGSTROEM)
---------------------------------
  C      8.262730   -0.013340    5.479740
  C      7.224180   -0.927620    5.566160
  C      7.197930   -2.129940    4.758760
  N      6.238420   -3.038530    4.978770
  C      5.287870   -2.800100    5.847340
  C      5.235590   -1.533690    6.532720
  N      6.194450   -0.665070    6.403190
  C      4.133060   -1.255970    7.381710
  N      3.223440   -1.082740    8.054970
  C      4.328730   -3.804870    6.108040
  N      3.545500   -4.611340    6.335900
  C      8.193940   -2.386940    3.779830
  C      9.261030   -1.467020    3.740400
  C      9.291060   -0.290820    4.584910
  N     10.382580    0.450480    4.357880
  S     11.258240   -0.250160    3.217240
  N     10.326280   -1.520830    2.935250
  C      8.157350   -3.535740    2.933060
  C      9.236740   -4.268860    2.493470
  C      8.746020   -5.468560    1.893850
  C      9.538400   -6.465830    1.316990
  N     10.182440   -7.298620    0.856610
  C      7.357060   -5.491520    1.988950
  C      6.943690   -4.288110    2.589970
  C      5.648690   -3.800020    2.746540
  C      4.425560   -4.587140    3.024480
  C      3.361070   -3.703070    2.999880
  C      3.859450   -2.404000    2.700300
  C      5.241200   -2.455750    2.575930
  C      3.075170   -1.249270    2.575410
  N      2.442460   -0.296020    2.484480
  C      4.455170   -5.929740    3.430940
  C      3.363450   -6.647310    3.846020
  C      3.414690   -7.981310    4.271930
  N      2.279660   -8.646930    4.687070
  C      2.616450   -9.914760    5.033880
  C      2.119920  -11.116210    5.493770
  C      3.225070  -11.997740    5.564420
  N      4.362250  -11.330150    5.158390
  C      4.026690  -10.057710    4.822730
  C      4.522000   -8.863190    4.349250
  C      3.281300  -13.342460    5.966500
  C      2.188910  -14.108110    6.273270
  C      2.196620  -15.455410    6.678220
  C      1.129060  -16.316750    6.499890
  C      1.559700  -17.639890    6.795180
  C      0.804190  -18.808560    6.640660
  N      0.230120  -19.787910    6.468060
  C      2.893620  -17.612870    7.174790
  C      3.346310  -16.272070    7.138330
  C      4.593090  -15.829860    7.561360
  C      5.846910  -16.617280    7.576950
  C      6.770220  -15.900260    8.303350
  C      6.167280  -14.671980    8.718530
  C      4.869020  -14.614360    8.235400
  C      6.800530  -13.681630    9.478930
  N      7.323540  -12.858380   10.085340
  C      6.094770  -17.806280    6.846430
  C      5.321010  -18.205790    5.800920
  C      5.334880  -19.467890    5.152190
  C      4.225210  -19.800960    4.329610
  C      4.115500  -21.079680    3.673140
  N      3.025980  -21.358560    2.921150
  C      2.075860  -20.469010    2.835090
  C      2.175970  -19.202920    3.508340
  N      3.237450  -18.900610    4.216330
  C      1.144500  -18.237210    3.424420
  N      0.324490  -17.438900    3.361470
  C      0.928570  -20.741950    2.044790
  N     -0.005940  -20.910800    1.405300
  C      5.109400  -22.043090    3.802900
  C      6.200330  -21.741150    4.610670
  C      6.314320  -20.470790    5.301080
  N      7.430430  -20.405720    6.030660
  S      8.243640  -21.780000    5.863480
  N      7.246460  -22.536700    4.871540
  H      8.253280    0.884710    6.072710
  H     10.271910   -4.020060    2.624090
  H      6.714900   -6.234030    1.552920
  H      2.328020   -3.921720    3.189970
  H      5.882200   -1.632740    2.318700
  H      5.422830   -6.408330    3.449180
  H      2.395490   -6.167240    3.864090
  H      1.370220   -8.222970    4.758640
  H      1.110590  -11.360180    5.754220
  H      5.281540  -11.737100    5.126300
  H      5.532140   -8.623530    4.087840
  H      4.264570  -13.792860    5.992760
  H      1.206460  -13.685060    6.109090
  H      0.154930  -16.058450    6.130650
  H      3.455990  -18.453440    7.533170
  H      7.791270  -16.175020    8.490530
  H      4.151250  -13.847440    8.458440
  H      6.949000  -18.403850    7.136630
  H      4.546370  -17.546160    5.436330
  H      5.019870  -22.993510    3.305660

 Total Charge           Charge          ....    0
 Multiplicity           Mult            ....    1
 Number of Electrons    NEL             ....  514
 Basis Dimension        Dim             .... 1172

ORBITAL ENERGIES
----------------

  NO   OCC          E(Eh)            E(eV)
   0   2.0000     -89.056875     -2423.3608
   1   2.0000     -89.050158     -2423.1780
   2   2.0000     -14.483706      -394.1217
   3   2.0000     -14.482546      -394.0901
   4   2.0000     -14.470405      -393.7597
   5   2.0000     -14.468679      -393.7128
   6   2.0000     -14.465241      -393.6192
   7   2.0000     -14.464917      -393.6104
   8   2.0000     -14.461798      -393.5255
   9   2.0000     -14.460118      -393.4798
  10   2.0000     -14.458322      -393.4309
  11   2.0000     -14.454371      -393.3234
  12   2.0000     -14.436170      -392.8281
  13   2.0000     -14.432970      -392.7411
  14   2.0000     -14.432054      -392.7161
  15   2.0000     -14.430609      -392.6768
  16   2.0000     -14.420695      -392.4071
  17   2.0000     -14.418178      -392.3386
  18   2.0000     -14.416787      -392.3007
  19   2.0000     -14.405760      -392.0007
  20   2.0000     -10.387615      -282.6614
  21   2.0000     -10.385944      -282.6159
  22   2.0000     -10.383721      -282.5554
  23   2.0000     -10.380084      -282.4565
  24   2.0000     -10.355079      -281.7760
  25   2.0000     -10.353483      -281.7326
  26   2.0000     -10.352565      -281.7076
  27   2.0000     -10.352273      -281.6997
  28   2.0000     -10.350922      -281.6629
  29   2.0000     -10.348536      -281.5980
  30   2.0000     -10.346211      -281.5347
  31   2.0000     -10.344796      -281.4962
  32   2.0000     -10.337931      -281.3094
  33   2.0000     -10.336787      -281.2783
  34   2.0000     -10.334522      -281.2166
  35   2.0000     -10.332976      -281.1746
  36   2.0000     -10.332031      -281.1489
  37   2.0000     -10.330400      -281.1045
  38   2.0000     -10.330307      -281.1019
  39   2.0000     -10.329989      -281.0933
  40   2.0000     -10.329351      -281.0759
  41   2.0000     -10.328851      -281.0623
  42   2.0000     -10.328392      -281.0498
  43   2.0000     -10.328087      -281.0415
  44   2.0000     -10.325726      -280.9773
  45   2.0000     -10.324758      -280.9510
  46   2.0000     -10.324040      -280.9314
  47   2.0000     -10.323348      -280.9126
  48   2.0000     -10.318689      -280.7858
  49   2.0000     -10.316902      -280.7372
  50   2.0000     -10.314012      -280.6585
  51   2.0000     -10.313727      -280.6508
  52   2.0000     -10.311185      -280.5816
  53   2.0000     -10.309988      -280.5490
  54   2.0000     -10.308238      -280.5014
  55   2.0000     -10.308146      -280.4989
  56   2.0000     -10.307803      -280.4896
  57   2.0000     -10.307647      -280.4853
  58   2.0000     -10.307398      -280.4786
  59   2.0000     -10.307207      -280.4734
  60   2.0000     -10.307111      -280.4707
  61   2.0000     -10.305726      -280.4331
  62   2.0000     -10.304312      -280.3946
  63   2.0000     -10.304245      -280.3928
  64   2.0000     -10.303334      -280.3680
  65   2.0000     -10.299515      -280.2641
  66   2.0000     -10.298591      -280.2389
  67   2.0000     -10.297050      -280.1970
  68   2.0000     -10.297000      -280.1956
  69   2.0000     -10.296031      -280.1693
  70   2.0000     -10.294604      -280.1304
  71   2.0000     -10.294296      -280.1220
  72   2.0000     -10.292926      -280.0847
  73   2.0000     -10.291179      -280.0372
  74   2.0000     -10.287895      -279.9478
  75   2.0000     -10.285428      -279.8807
  76   2.0000      -8.148211      -221.7241
  77   2.0000      -8.141551      -221.5429
  78   2.0000      -6.119141      -166.5103
  79   2.0000      -6.112424      -166.3275
  80   2.0000      -6.111375      -166.2990
  81   2.0000      -6.111264      -166.2960
  82   2.0000      -6.104733      -166.1182
  83   2.0000      -6.104630      -166.1154
  84   2.0000      -1.151789       -31.3418
  85   2.0000      -1.145781       -31.1783
  86   2.0000      -1.125578       -30.6285
  87   2.0000      -1.122859       -30.5545
  88   2.0000      -1.116861       -30.3913
  89   2.0000      -1.080086       -29.3906
  90   2.0000      -1.052573       -28.6420
  91   2.0000      -1.050608       -28.5885
  92   2.0000      -1.023280       -27.8449
  93   2.0000      -1.018855       -27.7245
  94   2.0000      -1.017329       -27.6829
  95   2.0000      -1.013332       -27.5742
  96   2.0000      -1.009907       -27.4810
  97   2.0000      -1.007900       -27.4264
  98   2.0000      -1.006147       -27.3786
  99   2.0000      -1.004297       -27.3283
 100   2.0000      -1.003366       -27.3030
 101   2.0000      -0.997619       -27.1466
 102   2.0000      -0.996234       -27.1089
 103   2.0000      -0.989245       -26.9187
 104   2.0000      -0.986739       -26.8505
 105   2.0000      -0.983559       -26.7640
 106   2.0000      -0.982020       -26.7221
 107   2.0000      -0.970208       -26.4007
 108   2.0000      -0.928478       -25.2652
 109   2.0000      -0.923651       -25.1338
 110   2.0000      -0.921908       -25.0864
 111   2.0000      -0.912175       -24.8216
 112   2.0000      -0.909187       -24.7402
 113   2.0000      -0.894290       -24.3349
 114   2.0000      -0.891914       -24.2702
 115   2.0000      -0.891063       -24.2470
 116   2.0000      -0.887552       -24.1515
 117   2.0000      -0.878186       -23.8967
 118   2.0000      -0.875184       -23.8150
 119   2.0000      -0.854512       -23.2524
 120   2.0000      -0.842094       -22.9146
 121   2.0000      -0.839062       -22.8320
 122   2.0000      -0.833398       -22.6779
 123   2.0000      -0.826906       -22.5013
 124   2.0000      -0.826272       -22.4840
 125   2.0000      -0.810491       -22.0546
 126   2.0000      -0.802300       -21.8317
 127   2.0000      -0.798763       -21.7354
 128   2.0000      -0.794459       -21.6183
 129   2.0000      -0.787994       -21.4424
 130   2.0000      -0.764505       -20.8032
 131   2.0000      -0.759614       -20.6702
 132   2.0000      -0.748320       -20.3628
 133   2.0000      -0.739774       -20.1303
 134   2.0000      -0.729560       -19.8523
 135   2.0000      -0.729364       -19.8470
 136   2.0000      -0.723298       -19.6819
 137   2.0000      -0.719240       -19.5715
 138   2.0000      -0.711490       -19.3606
 139   2.0000      -0.710339       -19.3293
 140   2.0000      -0.709703       -19.3120
 141   2.0000      -0.704264       -19.1640
 142   2.0000      -0.698221       -18.9995
 143   2.0000      -0.693505       -18.8712
 144   2.0000      -0.686887       -18.6911
 145   2.0000      -0.682172       -18.5628
 146   2.0000      -0.676827       -18.4174
 147   2.0000      -0.668796       -18.1989
 148   2.0000      -0.659246       -17.9390
 149   2.0000      -0.653808       -17.7910
 150   2.0000      -0.651003       -17.7147
 151   2.0000      -0.647656       -17.6236
 152   2.0000      -0.637661       -17.3516
 153   2.0000      -0.636157       -17.3107
 154   2.0000      -0.634303       -17.2603
 155   2.0000      -0.631869       -17.1940
 156   2.0000      -0.626550       -17.0493
 157   2.0000      -0.619678       -16.8623
 158   2.0000      -0.613819       -16.7029
 159   2.0000      -0.603879       -16.4324
 160   2.0000      -0.600780       -16.3481
 161   2.0000      -0.594999       -16.1907
 162   2.0000      -0.594823       -16.1860
 163   2.0000      -0.587476       -15.9860
 164   2.0000      -0.584611       -15.9081
 165   2.0000      -0.581483       -15.8230
 166   2.0000      -0.579132       -15.7590
 167   2.0000      -0.576129       -15.6773
 168   2.0000      -0.564753       -15.3677
 169   2.0000      -0.562434       -15.3046
 170   2.0000      -0.561021       -15.2661
 171   2.0000      -0.555676       -15.1207
 172   2.0000      -0.550049       -14.9676
 173   2.0000      -0.548779       -14.9330
 174   2.0000      -0.544240       -14.8095
 175   2.0000      -0.540463       -14.7067
 176   2.0000      -0.538118       -14.6429
 177   2.0000      -0.535136       -14.5618
 178   2.0000      -0.528176       -14.3724
 179   2.0000      -0.525037       -14.2870
 180   2.0000      -0.524336       -14.2679
 181   2.0000      -0.522098       -14.2070
 182   2.0000      -0.519166       -14.1272
 183   2.0000      -0.516577       -14.0568
 184   2.0000      -0.512488       -13.9455
 185   2.0000      -0.510589       -13.8938
 186   2.0000      -0.507792       -13.8177
 187   2.0000      -0.506750       -13.7894
 188   2.0000      -0.506428       -13.7806
 189   2.0000      -0.504177       -13.7194
 190   2.0000      -0.502141       -13.6640
 191   2.0000      -0.500136       -13.6094
 192   2.0000      -0.498632       -13.5685
 193   2.0000      -0.497317       -13.5327
 194   2.0000      -0.494479       -13.4554
 195   2.0000      -0.492285       -13.3957
 196   2.0000      -0.490959       -13.3597
 197   2.0000      -0.487420       -13.2634
 198   2.0000      -0.486251       -13.2316
 199   2.0000      -0.484825       -13.1928
 200   2.0000      -0.480614       -13.0782
 201   2.0000      -0.476294       -12.9606
 202   2.0000      -0.474540       -12.9129
 203   2.0000      -0.470547       -12.8042
 204   2.0000      -0.466011       -12.6808
 205   2.0000      -0.462698       -12.5907
 206   2.0000      -0.462600       -12.5880
 207   2.0000      -0.457316       -12.4442
 208   2.0000      -0.456441       -12.4204
 209   2.0000      -0.455637       -12.3985
 210   2.0000      -0.455140       -12.3850
 211   2.0000      -0.453312       -12.3352
 212   2.0000      -0.452037       -12.3006
 213   2.0000      -0.449611       -12.2345
 214   2.0000      -0.448790       -12.2122
 215   2.0000      -0.447745       -12.1838
 216   2.0000      -0.446859       -12.1597
 217   2.0000      -0.445461       -12.1216
 218   2.0000      -0.443269       -12.0620
 219   2.0000      -0.442402       -12.0384
 220   2.0000      -0.442293       -12.0354
 221   2.0000      -0.435734       -11.8569
 222   2.0000      -0.435265       -11.8442
 223   2.0000      -0.434668       -11.8279
 224   2.0000      -0.426433       -11.6038
 225   2.0000      -0.426172       -11.5967
 226   2.0000      -0.425680       -11.5833
 227   2.0000      -0.420679       -11.4473
 228   2.0000      -0.419812       -11.4237
 229   2.0000      -0.418419       -11.3858
 230   2.0000      -0.416128       -11.3234
 231   2.0000      -0.415878       -11.3166
 232   2.0000      -0.415510       -11.3066
 233   2.0000      -0.414301       -11.2737
 234   2.0000      -0.413318       -11.2470
 235   2.0000      -0.408879       -11.1262
 236   2.0000      -0.406438       -11.0597
 237   2.0000      -0.405602       -11.0370
 238   2.0000      -0.395086       -10.7508
 239   2.0000      -0.392399       -10.6777
 240   2.0000      -0.386294       -10.5116
 241   2.0000      -0.383699       -10.4410
 242   2.0000      -0.367535       -10.0011
 243   2.0000      -0.366297        -9.9674
 244   2.0000      -0.359108        -9.7718
 245   2.0000      -0.354723        -9.6525
 246   2.0000      -0.350119        -9.5272
 247   2.0000      -0.337616        -9.1870
 248   2.0000      -0.334859        -9.1120
 249   2.0000      -0.329691        -8.9713
 250   2.0000      -0.322242        -8.7687
 251   2.0000      -0.313205        -8.5227
 252   2.0000      -0.309013        -8.4087
 253   2.0000      -0.287098        -7.8123
 254   2.0000      -0.276646        -7.5279
 255   2.0000      -0.270401        -7.3580
 256   2.0000      -0.227476        -6.1899
 257   0.0000      -0.147790        -4.0216
 258   0.0000      -0.134023        -3.6469
 259   0.0000      -0.122118        -3.3230
 260   0.0000      -0.117491        -3.1971
 261   0.0000      -0.058441        -1.5903

MULLIKEN ATOMIC CHARGES
-----------------------
   0 C :   -0.087977
   1 C :    0.031700
   2 C :   -0.095726
   3 N :    0.039655
   4 C :   -0.142550
   5 C :   -0.140894
   6 N :    0.060861
   7 C :   -0.203105
   8 N :    0.231272
   9 C :   -0.184292
  10 N :    0.221094
  11 C :    0.184757
  12 C :   -0.053822
  13 C :    0.102743
  14 N :   -0.267846
  15 S :    0.549418
  16 N :   -0.269929
  17 C :   -0.033132
  18 C :   -0.010230
  19 C :   -0.116716
  20 C :   -0.136831
  21 N :    0.133826
  22 C :   -0.040141
  23 C :    0.071141
  24 C :    0.063567
  25 C :    0.102208
  26 C :   -0.060480
  27 C :   -0.083819
  28 C :   -0.042714
  29 C :   -0.135436
  30 N :    0.160086
  31 C :   -0.036872
  32 C :    0.047678
  33 C :    0.106459
  34 N :   -0.028757
  35 C :    0.144787
  36 C :   -0.166142
  37 C :    0.103529
  38 N :   -0.032021
  39 C :    0.139166
  40 C :   -0.161709
  41 C :   -0.019864
  42 C :   -0.019184
  43 C :    0.097730
  44 C :   -0.007985
  45 C :   -0.093448
  46 C :   -0.135855
  47 N :    0.145366
  48 C :   -0.019805
  49 C :    0.033183
  50 C :    0.031848
  51 C :    0.082554
  52 C :   -0.005684
  53 C :   -0.112416
  54 C :   -0.041468
  55 C :   -0.131129
  56 N :    0.142718
  57 C :    0.026694
  58 C :   -0.113970
  59 C :    0.121431
  60 C :   -0.048994
  61 C :    0.029859
  62 N :    0.059981
  63 C :   -0.121860
  64 C :   -0.141245
  65 N :    0.038369
  66 C :   -0.196201
  67 N :    0.230246
  68 C :   -0.207885
  69 N :    0.236126
  70 C :   -0.079049
  71 C :    0.110471
  72 C :   -0.025040
  73 N :   -0.286853
  74 S :    0.552472
  75 N :   -0.265022
  76 H :   -0.015723
  77 H :   -0.003662
  78 H :   -0.004499
  79 H :   -0.015195
  80 H :   -0.009780
  81 H :   -0.015077
  82 H :   -0.018092
  83 H :    0.132597
  84 H :   -0.020635
  85 H :    0.131772
  86 H :   -0.015435
  87 H :   -0.001318
  88 H :   -0.004314
  89 H :   -0.002972
  90 H :    0.001798
  91 H :   -0.007944
  92 H :    0.011860
  93 H :    0.011839
  94 H :    0.030942
  95 H :   -0.015059
Sum of atomic charges:   -0.0000000

LOEWDIN ATOMIC CHARGES
----------------------
   0 C :   -0.011783
   1 C :   -0.008753
   2 C :   -0.012411
   3 N :    0.024289
   4 C :   -0.041354
   5 C :   -0.022387
   6 N :   -0.000742
   7 C :   -0.033758
   8 N :   -0.003105
   9 C :   -0.029316
  10 N :   -0.026854
  11 C :    0.003928
  12 C :   -0.047024
  13 C :   -0.046303
  14 N :   -0.285597
  15 S :    0.689458
  16 N :   -0.280179
  17 C :   -0.040008
  18 C :    0.028579
  19 C :   -0.074370
  20 C :   -0.033391
  21 N :   -0.057872
  22 C :   -0.007350
  23 C :    0.007649
  24 C :    0.083303
  25 C :   -0.015045
  26 C :   -0.038182
  27 C :   -0.033605
  28 C :   -0.055336
  29 C :   -0.029553
  30 N :   -0.034586
  31 C :   -0.016498
  32 C :    0.010335
  33 C :    0.016251
  34 N :    0.076530
  35 C :    0.004431
  36 C :   -0.083237
  37 C :    0.018598
  38 N :    0.073690
  39 C :   -0.003002
  40 C :   -0.068765
  41 C :   -0.033596
  42 C :    0.003487
  43 C :   -0.028721
  44 C :   -0.003328
  45 C :   -0.047669
  46 C :   -0.027122
  47 N :   -0.046161
  48 C :   -0.012279
  49 C :    0.052275
  50 C :    0.026019
  51 C :   -0.034552
  52 C :    0.006790
  53 C :   -0.064684
  54 C :   -0.007704
  55 C :   -0.033777
  56 N :   -0.044513
  57 C :    0.019028
  58 C :   -0.020691
  59 C :   -0.009151
  60 C :   -0.009344
  61 C :   -0.008532
  62 N :    0.000114
  63 C :   -0.018632
  64 C :   -0.030737
  65 N :    0.004169
  66 C :   -0.029541
  67 N :   -0.014888
  68 C :   -0.032789
  69 N :    0.000177
  70 C :   -0.005633
  71 C :   -0.046074
  72 C :   -0.044335
  73 N :   -0.286297
  74 S :    0.690024
  75 N :   -0.280994
  76 H :    0.048651
  77 H :    0.032630
  78 H :    0.032470
  79 H :    0.027812
  80 H :    0.030158
  81 H :    0.030401
  82 H :    0.033637
  83 H :    0.096715
  84 H :    0.028968
  85 H :    0.095546
  86 H :    0.030951
  87 H :    0.032120
  88 H :    0.039223
  89 H :    0.035378
  90 H :    0.034517
  91 H :    0.034548
  92 H :    0.037335
  93 H :    0.037205
  94 H :    0.035072
  95 H :    0.049650

  Mayer bond orders larger than 0.100000
B(  0-C ,  1-C ) :   1.3219 B(  0-C , 11-C ) :   0.1313 B(  0-C , 13-C ) :   1.1651
B(  0-C , 76-H ) :   1.0592 B(  1-C ,  2-C ) :   1.1178 B(  1-C ,  6-N ) :   1.3212
B(  2-C ,  3-N ) :   1.4022 B(  2-C , 11-C ) :   1.2801 B(  3-N ,  4-C ) :   1.7138
B(  4-C ,  5-C ) :   1.1687 B(  4-C ,  9-C ) :   1.1648 B(  5-C ,  6-N ) :   1.8053
B(  5-C ,  7-C ) :   1.1515 B(  7-C ,  8-N ) :   3.0483 B(  9-C , 10-N ) :   3.0071
B( 11-C , 12-C ) :   1.2458 B( 11-C , 17-C ) :   1.0386 B( 12-C , 13-C ) :   1.1206
B( 12-C , 16-N ) :   1.5177 B( 13-C , 14-N ) :   1.4625 B( 14-N , 15-S ) :   1.3063
B( 14-N , 16-N ) :   0.1579 B( 15-S , 16-N ) :   1.2944 B( 17-C , 18-C ) :   1.5319
B( 17-C , 23-C ) :   1.1160 B( 18-C , 19-C ) :   1.1683 B( 18-C , 77-H ) :   1.0175
B( 19-C , 20-C ) :   1.0612 B( 19-C , 22-C ) :   1.4827 B( 20-C , 21-N ) :   3.0357
B( 22-C , 23-C ) :   1.2045 B( 22-C , 78-H ) :   1.0175 B( 23-C , 24-C ) :   1.2946
B( 24-C , 25-C ) :   1.0378 B( 24-C , 28-C ) :   1.1685 B( 25-C , 26-C ) :   1.4609
B( 25-C , 31-C ) :   1.1948 B( 26-C , 27-C ) :   1.1831 B( 26-C , 79-H ) :   1.0155
B( 27-C , 28-C ) :   1.5063 B( 27-C , 29-C ) :   1.0584 B( 28-C , 80-H ) :   1.0130
B( 29-C , 30-N ) :   3.0444 B( 31-C , 32-C ) :   1.5259 B( 31-C , 81-H ) :   0.9689
B( 32-C , 33-C ) :   1.1916 B( 32-C , 82-H ) :   0.9672 B( 33-C , 34-N ) :   1.1636
B( 33-C , 40-C ) :   1.3114 B( 34-N , 35-C ) :   1.1793 B( 34-N , 83-H ) :   0.9340
B( 35-C , 36-C ) :   1.3020 B( 35-C , 39-C ) :   1.2424 B( 36-C , 37-C ) :   1.3413
B( 36-C , 84-H ) :   1.0318 B( 37-C , 38-N ) :   1.1756 B( 37-C , 41-C ) :   1.1651
B( 38-N , 39-C ) :   1.1648 B( 38-N , 85-H ) :   0.9338 B( 39-C , 40-C ) :   1.3208
B( 40-C , 86-H ) :   1.0326 B( 41-C , 42-C ) :   1.5631 B( 41-C , 87-H ) :   0.9546
B( 42-C , 43-C ) :   1.1855 B( 42-C , 88-H ) :   0.9668 B( 43-C , 44-C ) :   1.4900
B( 43-C , 49-C ) :   1.0223 B( 44-C , 45-C ) :   1.1575 B( 44-C , 89-H ) :   1.0215
B( 45-C , 46-C ) :   1.0696 B( 45-C , 48-C ) :   1.5203 B( 46-C , 47-N ) :   3.0176
B( 48-C , 49-C ) :   1.1932 B( 48-C , 90-H ) :   1.0032 B( 49-C , 50-C ) :   1.3846
B( 50-C , 51-C ) :   1.0475 B( 50-C , 54-C ) :   1.1644 B( 51-C , 52-C ) :   1.5188
B( 51-C , 57-C ) :   1.1255 B( 52-C , 53-C ) :   1.1493 B( 52-C , 91-H ) :   1.0225
B( 53-C , 54-C ) :   1.5279 B( 53-C , 55-C ) :   1.0615 B( 54-C , 92-H ) :   1.0198
B( 55-C , 56-N ) :   3.0400 B( 57-C , 58-C ) :   1.5751 B( 57-C , 93-H ) :   0.9610
B( 58-C , 59-C ) :   1.2347 B( 58-C , 94-H ) :   0.9249 B( 59-C , 60-C ) :   1.2512
B( 59-C , 70-C ) :   0.1366 B( 59-C , 72-C ) :   1.1860 B( 60-C , 61-C ) :   1.1384
B( 60-C , 65-N ) :   1.4278 B( 61-C , 62-N ) :   1.3305 B( 61-C , 70-C ) :   1.3141
B( 62-N , 63-C ) :   1.7923 B( 63-C , 64-C ) :   1.1805 B( 63-C , 68-C ) :   1.1607
B( 64-C , 65-N ) :   1.7357 B( 64-C , 66-C ) :   1.1675 B( 66-C , 67-N ) :   3.0042
B( 68-C , 69-N ) :   3.0451 B( 70-C , 71-C ) :   1.1746 B( 70-C , 95-H ) :   1.0567
B( 71-C , 72-C ) :   1.1236 B( 71-C , 75-N ) :   1.4569 B( 72-C , 73-N ) :   1.5018
B( 73-N , 74-S ) :   1.2807 B( 73-N , 75-N ) :   0.1578 B( 74-S , 75-N ) :   1.3158

-----------------------------------------------------------------------------
         ABSORPTION SPECTRUM VIA TRANSITION ELECTRIC DIPOLE MOMENTS
-----------------------------------------------------------------------------
State   Energy  Wavelength   fosc         T2         TX        TY        TZ
        (cm-1)    (nm)                  (au**2)     (au)      (au)      (au)
-----------------------------------------------------------------------------
   0    2576.5   3881.3   0.137313844  17.54544  -0.73870  -3.99820   1.00707
   1    5284.9   1892.2   0.029965076   1.86661   1.33935  -0.26342  -0.05803
   2    9527.0   1049.6   0.001087224   0.03757  -0.07455   0.04966   0.17189
   3   10294.4    971.4   0.008281713   0.26485   0.41009   0.16268  -0.26497
   4   10870.1    920.0   0.007255474   0.21974   0.38700  -0.26451   0.00056
   5   11188.5    893.8   0.061304076   1.80382  -0.09519   0.65167   1.17050
   6   14656.7    682.3   0.003944231   0.08859  -0.14066   0.13246  -0.22641
   7   16095.5    621.3   0.055024899   1.12546   0.11234  -0.31550  -1.00663
   8   16097.8    621.2   0.503782158  10.30273   0.89059   2.97260   0.82050
   9   16707.5    598.5   0.374680303   7.38288   0.12425   2.32175  -1.40603
  10   20613.9    485.1   0.004911486   0.07844   0.02787   0.27815  -0.01711
  11   21008.6    476.0   0.118888882   1.86303   0.79602  -0.43126  -1.02147
  12   21228.3    471.1   0.005407363   0.08386  -0.18463  -0.15388   0.16153
  13   21253.4    470.5   0.136348448   2.11201   1.13641   0.10178  -0.90012
  14   21889.0    456.8   0.014314641   0.21529  -0.42641   0.15458  -0.09785
  15   22068.0    453.1   0.143587229   2.14204  -0.00247  -1.46214   0.06466
  16   22279.5    448.8   0.008698670   0.12854  -0.32361  -0.09432  -0.12212
  17   22471.9    445.0   0.081961600   1.20073   0.76395   0.01886   0.78534
  18   22938.6    435.9   0.634658651   9.10853  -0.46608   2.92672  -0.57063
  19   23400.3    427.3   0.007690696   0.10820   0.24339  -0.21948  -0.02807
  20   23760.7    420.9   0.063822800   0.88429  -0.53967   0.69871  -0.32380
  21   23987.8    416.9   0.043956625   0.60327  -0.58945  -0.46229  -0.20521
  22   24157.9    413.9   0.037065875   0.50512   0.64405   0.14279  -0.26442
  23   25223.3    396.5   0.163270165   2.13099   1.10013   0.95714   0.06765
  24   25899.5    386.1   0.042510728   0.54036   0.43727   0.58886  -0.04902
  25   26384.5    379.0   0.002206805   0.02754  -0.04986   0.10245  -0.12063
  26   26951.7    371.0   0.005615241   0.06859   0.26141   0.01343   0.00852
  27   27011.9    370.2   0.008664782   0.10560  -0.13058  -0.29206  -0.05703
  28   27110.1    368.9   0.043478435   0.52798   0.30988   0.65692  -0.02028
  29   27408.2    364.9   0.001350988   0.01623  -0.08405  -0.00800  -0.09539
  30   27895.5    358.5   0.011089496   0.13087  -0.19562  -0.28622   0.10337
  31   27987.0    357.3   0.221540351   2.60599  -0.38622  -1.56516  -0.08416
  32   28287.3    353.5   0.004982276   0.05798   0.05460  -0.23143   0.03797
  33   28518.8    350.6   0.040706147   0.46990  -0.34046   0.53837  -0.25326
  34   28724.3    348.1   0.137198389   1.57244  -0.85526  -0.69165  -0.60215
  35   28872.1    346.4   0.035830269   0.40855   0.52396   0.35698  -0.08109
  36   29075.1    343.9   0.018219084   0.20629   0.33056  -0.30593  -0.05854
  37   29328.7    341.0   0.023519694   0.26401   0.43905  -0.24142   0.11385
  38   29499.2    339.0   0.055827187   0.62303  -0.19630   0.75217   0.13691
  39   29942.5    334.0   0.029131036   0.32029  -0.51795  -0.00983  -0.22785
  40   30477.3    328.1   0.117008096   1.26391  -0.46861   0.98419  -0.27510
  41   30570.8    327.1   0.014213353   0.15306   0.02491   0.38881  -0.03562
  42   31261.5    319.9   0.026646376   0.28061   0.05797  -0.51202  -0.12282
  43   31316.2    319.3   0.102957494   1.08234  -0.32251   0.97917   0.13986
  44   31455.8    317.9   0.023445448   0.24538   0.28473  -0.38862   0.11524
  45   31666.5    315.8   0.014944995   0.15537   0.15025   0.33757   0.13728
  46   31716.2    315.3   0.050112180   0.52016  -0.21768  -0.54124  -0.42407
  47   32022.6    312.3   0.000693011   0.00712   0.07261   0.03043   0.03042
  48   32154.5    311.0   0.006416583   0.06570   0.13747   0.21004  -0.05177
  49   32398.2    308.7   0.024195852   0.24586   0.41575   0.24664   0.11039
  50   32466.3    308.0   0.005895442   0.05978  -0.06133  -0.09972   0.21465
  51   32562.1    307.1   0.026818378   0.27114  -0.16489   0.46133   0.17643
  52   32689.9    305.9   0.034299945   0.34543  -0.48876  -0.16949  -0.27894
  53   33207.7    301.1   0.018542438   0.18382  -0.25186   0.34466   0.03996
  54   33268.9    300.6   0.020535578   0.20321  -0.07440  -0.43604   0.08686
  55   33627.6    297.4   0.035648756   0.34900   0.38977  -0.30329   0.32417
  56   34004.4    294.1   0.004660420   0.04512   0.06940   0.06317   0.19056
  57   34085.0    293.4   0.011635273   0.11238  -0.16157  -0.28333  -0.07747
  58   34455.4    290.2   0.055948231   0.53457  -0.12319  -0.71339   0.10232
  59   34596.6    289.0   0.402864295   3.83355   0.36705   0.43130  -1.87425
  60   34636.8    288.7   1.398844265  13.29559   3.64225  -0.12380   0.11939
  61   34814.3    287.2   0.042714544   0.40392  -0.59483  -0.06971   0.21270
  62   35240.5    283.8   0.002209383   0.02064   0.01280  -0.07404  -0.12245
  63   35790.0    279.4   0.311970398   2.86964  -1.44706  -0.27344   0.83719
  64   36098.3    277.0   0.326180898   2.97473  -1.50589  -0.74933  -0.38147
  65   36469.3    274.2   0.071502262   0.64546  -0.55662  -0.21808  -0.53673
  66   37223.0    268.7   0.292823303   2.58982   0.28858   1.34025   0.84277
  67   37390.9    267.4   0.014348433   0.12633   0.30467   0.11186   0.14489
  68   37541.0    266.4   0.291887160   2.55968  -1.44766   0.06574  -0.67796
  69   37721.3    265.1   0.058075049   0.50685   0.15873   0.68285   0.12398
  70   38146.5    262.1   0.000137056   0.00118  -0.02339  -0.01445  -0.02066
  71   38225.2    261.6   0.009455671   0.08144   0.25047  -0.08076   0.11035
  72   38303.3    261.1   0.064125915   0.55115   0.53088   0.00603  -0.51893
  73   38403.0    260.4   0.003393660   0.02909   0.11513  -0.07827  -0.09855
  74   38574.5    259.2   0.034255013   0.29235   0.05995   0.48569   0.22991
  75   38903.7    257.0   0.122052158   1.03283  -0.33327  -0.76261  -0.58326
  76   39171.7    255.3   0.072351968   0.60807  -0.56216  -0.30109  -0.44876
  77   39315.5    254.4   0.065093068   0.54506  -0.20156  -0.64609  -0.29497
  78   39509.5    253.1   0.001342093   0.01118   0.08866  -0.02573  -0.05158
  79   39557.8    252.8   0.011684961   0.09725  -0.13183  -0.28252  -0.00714
  80   39695.6    251.9   0.054450914   0.45158  -0.63975   0.08481   0.18737
  81   39977.1    250.1   0.004118986   0.03392  -0.16747  -0.07585   0.01103
  82   40068.9    249.6   0.149503978   1.22835   0.73966   0.80951  -0.16110
  83   40185.2    248.8   0.022486487   0.18422  -0.30482   0.16215   0.25496

FINAL SINGLE POINT ENERGY     -3923.301607207093

DIPOLE MOMENT
-------------
                                X             Y             Z
Electronic contribution:     13.95804       2.85855      -3.83273
Nuclear contribution   :    -11.18546      -4.24050       4.14026
                        -----------------------------------------
Total Dipole Moment    :      2.77258      -1.38195       0.30754
                        -----------------------------------------
Magnitude (a.u.)       :      3.11313
Magnitude (Debye)      :      7.91294

Rotational constants in cm-1:     0.001619     0.000254     0.000244
Rotational constants in MHz :    48.537965     7.617373     7.306855

                             ****ORCA TERMINATED NORMALLY****
TOTAL RUN TIME: 0 days 0 hours 16 minutes 20 seconds 690 msec
