                         Program Version 4.2.0 -  RELEASE  -
|  1> # ORCA input file
|  2> # SCF done       -205.335431971333          0.000249309133
|  3> ! CAM-B3LYP def2-SVP def2/J RIJCOSX Grid4 TightSCF
|  4> %maxcore 5000
|  5> %tddft
|  6>     Mode sTDDFT
|  7>     Ethresh 5.0
|  8>     maxcore 5000
|  9> end
| 10>
| 11> %pal
| 12>   nprocs 6
| 13>   end
| 14> * xyz 0 1
| 15>    C       -2.99287        -3.88737         6.84564
| 16>    C       -1.76337        -4.03946         6.21700
| 17>    C       -1.66104        -4.63046         4.90453
| 18>    N       -0.46673        -4.75785         4.31752
| 19>    C        0.60995        -4.34537         4.94174
| 20>    C        0.50781        -3.76421         6.25378
| 21>    N       -0.64401        -3.62494         6.84998
| 22>    C        1.68781        -3.32867         6.91372
| 23>    N        2.65800        -2.98759         7.41626
| 24>    C        1.87114        -4.46929         4.31104
| 25>    N        2.90594        -4.55048         3.82654
| 26>    C       -2.79651        -5.08414         4.19001
| 27>    C       -4.03825        -4.91906         4.84208
| 28>    C       -4.12207        -4.32374         6.16209
| 29>    N       -5.38897        -4.26473         6.59363
| 30>    S       -6.35178        -4.88121         5.47819
| 31>    N       -5.24404        -5.26130         4.38420
| 32>    C       -2.66243        -5.65754         2.89942
| 33>    C       -3.69560        -6.09611         2.07646
| 34>    C       -3.22257        -6.59619         0.87502
| 35>    C       -1.80966        -6.54975         0.77852
| 36>    S       -1.07880        -5.87310         2.16997
| 37>    C       -1.43063        -7.06879        -0.47602
| 38>    C       -2.60219        -7.43938        -1.18129
| 39>    C       -3.76160        -7.15835        -0.35047
| 40>    C       -5.07256        -7.37578        -0.65853
| 41>    C       -5.47189        -7.92893        -1.89389
| 42>    N       -5.80420        -8.37765        -2.89536
| 43>    C       -6.11735        -7.06241         0.23684
| 44>    N       -6.97262        -6.81095         0.95790
| 45>    C       -2.33566        -7.94809        -2.43948
| 46>    C       -0.96813        -7.98129        -2.70833
| 47>    S       -0.00383        -7.37666        -1.36939
| 48>    C       -0.35462        -8.42127        -3.90495
| 49>    C        1.05431        -8.44971        -4.03576
| 50>    C        1.70708        -8.86812        -5.24670
| 51>    N        3.04247        -8.87364        -5.30965
| 52>    C        3.74912        -8.50194        -4.26867
| 53>    C        3.09927        -8.08953        -3.06167
| 54>    N        1.78971        -8.07403        -2.98440
| 55>    C        3.86417        -7.69846        -1.93416
| 56>    N        4.50749        -7.39168        -1.03820
| 57>    C        5.16406        -8.51177        -4.35319
| 58>    N        6.30821        -8.50833        -4.39408
| 59>    C        0.98620        -9.26836        -6.39695
| 60>    C       -0.42408        -9.25745        -6.26542
| 61>    C       -1.08014        -8.84804        -5.04417
| 62>    N       -2.40636        -8.92125        -5.15646
| 63>    S       -2.79459        -9.44530        -6.62047
| 64>    N       -1.30877        -9.60780        -7.19891
| 65>    C        1.65654        -9.63641        -7.58736
| 66>    C        1.06383        -9.97869        -8.80193
| 67>    C        2.00562       -10.27041        -9.77185
| 68>    C        3.33675       -10.16348        -9.29867
| 69>    S        3.41176        -9.68246        -7.65799
| 70>    C        4.21359       -10.47873       -10.35634
| 71>    C        3.44089       -10.77932       -11.50543
| 72>    C        2.03272       -10.65706       -11.17302
| 73>    C        0.96419       -10.85429       -11.99773
| 74>    C        1.11682       -11.22524       -13.35072
| 75>    N        1.23097       -11.52648       -14.45113
| 76>    C       -0.36606       -10.69687       -11.55370
| 77>    N       -1.44943       -10.56827       -11.20087
| 78>    C        4.21758       -11.09689       -12.60689
| 79>    C        5.57745       -11.05190       -12.31403
| 80>    S        5.89537       -10.60883       -10.64397
| 81>    C        6.64367       -11.31917       -13.21077
| 82>    C        7.98915       -11.28353       -12.77027
| 83>    C        9.09633       -11.54911       -13.65679
| 84>    N       10.35892       -11.50275       -13.17809
| 85>    C       10.54750       -11.22149       -11.91838
| 86>    C        9.44413       -10.96096       -11.03274
| 87>    N        8.21356       -10.99810       -11.48364
| 88>    C        9.67720       -10.66958        -9.66725
| 89>    N        9.90029       -10.44109        -8.56717
| 90>    C       11.87249       -11.17499       -11.40863
| 91>    N       12.92652       -11.13087       -10.96456
| 92>    C        8.89060       -11.85242       -14.99682
| 93>    C        7.57752       -11.89464       -15.45156
| 94>    C        6.45238       -11.63353       -14.57420
| 95>    N        5.29257       -11.72884       -15.22725
| 96>    S        5.57833       -12.10239       -16.75929
| 97>    N        7.17316       -12.16716       -16.69934
| 98>    H       -3.05822        -3.44708         7.82543
| 99>    H       -4.72600        -6.03338         2.37547
|100>    H       -3.06296        -8.28551        -3.15485
|101>    H       -0.00317        -9.99817        -8.92713
|102>    H        3.85518       -11.35267       -13.58584
|103>    H        9.72335       -12.04577       -15.65047
|104> *
|105>
|106>                          ****END OF INPUT****

CARTESIAN COORDINATES (ANGSTROEM)
---------------------------------
  C     -2.992870   -3.887370    6.845640
  C     -1.763370   -4.039460    6.217000
  C     -1.661040   -4.630460    4.904530
  N     -0.466730   -4.757850    4.317520
  C      0.609950   -4.345370    4.941740
  C      0.507810   -3.764210    6.253780
  N     -0.644010   -3.624940    6.849980
  C      1.687810   -3.328670    6.913720
  N      2.658000   -2.987590    7.416260
  C      1.871140   -4.469290    4.311040
  N      2.905940   -4.550480    3.826540
  C     -2.796510   -5.084140    4.190010
  C     -4.038250   -4.919060    4.842080
  C     -4.122070   -4.323740    6.162090
  N     -5.388970   -4.264730    6.593630
  S     -6.351780   -4.881210    5.478190
  N     -5.244040   -5.261300    4.384200
  C     -2.662430   -5.657540    2.899420
  C     -3.695600   -6.096110    2.076460
  C     -3.222570   -6.596190    0.875020
  C     -1.809660   -6.549750    0.778520
  S     -1.078800   -5.873100    2.169970
  C     -1.430630   -7.068790   -0.476020
  C     -2.602190   -7.439380   -1.181290
  C     -3.761600   -7.158350   -0.350470
  C     -5.072560   -7.375780   -0.658530
  C     -5.471890   -7.928930   -1.893890
  N     -5.804200   -8.377650   -2.895360
  C     -6.117350   -7.062410    0.236840
  N     -6.972620   -6.810950    0.957900
  C     -2.335660   -7.948090   -2.439480
  C     -0.968130   -7.981290   -2.708330
  S     -0.003830   -7.376660   -1.369390
  C     -0.354620   -8.421270   -3.904950
  C      1.054310   -8.449710   -4.035760
  C      1.707080   -8.868120   -5.246700
  N      3.042470   -8.873640   -5.309650
  C      3.749120   -8.501940   -4.268670
  C      3.099270   -8.089530   -3.061670
  N      1.789710   -8.074030   -2.984400
  C      3.864170   -7.698460   -1.934160
  N      4.507490   -7.391680   -1.038200
  C      5.164060   -8.511770   -4.353190
  N      6.308210   -8.508330   -4.394080
  C      0.986200   -9.268360   -6.396950
  C     -0.424080   -9.257450   -6.265420
  C     -1.080140   -8.848040   -5.044170
  N     -2.406360   -8.921250   -5.156460
  S     -2.794590   -9.445300   -6.620470
  N     -1.308770   -9.607800   -7.198910
  C      1.656540   -9.636410   -7.587360
  C      1.063830   -9.978690   -8.801930
  C      2.005620  -10.270410   -9.771850
  C      3.336750  -10.163480   -9.298670
  S      3.411760   -9.682460   -7.657990
  C      4.213590  -10.478730  -10.356340
  C      3.440890  -10.779320  -11.505430
  C      2.032720  -10.657060  -11.173020
  C      0.964190  -10.854290  -11.997730
  C      1.116820  -11.225240  -13.350720
  N      1.230970  -11.526480  -14.451130
  C     -0.366060  -10.696870  -11.553700
  N     -1.449430  -10.568270  -11.200870
  C      4.217580  -11.096890  -12.606890
  C      5.577450  -11.051900  -12.314030
  S      5.895370  -10.608830  -10.643970
  C      6.643670  -11.319170  -13.210770
  C      7.989150  -11.283530  -12.770270
  C      9.096330  -11.549110  -13.656790
  N     10.358920  -11.502750  -13.178090
  C     10.547500  -11.221490  -11.918380
  C      9.444130  -10.960960  -11.032740
  N      8.213560  -10.998100  -11.483640
  C      9.677200  -10.669580   -9.667250
  N      9.900290  -10.441090   -8.567170
  C     11.872490  -11.174990  -11.408630
  N     12.926520  -11.130870  -10.964560
  C      8.890600  -11.852420  -14.996820
  C      7.577520  -11.894640  -15.451560
  C      6.452380  -11.633530  -14.574200
  N      5.292570  -11.728840  -15.227250
  S      5.578330  -12.102390  -16.759290
  N      7.173160  -12.167160  -16.699340
  H     -3.058220   -3.447080    7.825430
  H     -4.726000   -6.033380    2.375470
  H     -3.062960   -8.285510   -3.154850
  H     -0.003170   -9.998170   -8.927130
  H      3.855180  -11.352670  -13.585840
  H      9.723350  -12.045770  -15.650470

 Total Charge           Charge          ....    0
 Multiplicity           Mult            ....    1
 Number of Electrons    NEL             ....  596
 Basis Dimension        Dim             .... 1220

ORBITAL ENERGIES
----------------

  NO   OCC          E(Eh)            E(eV)
   0   2.0000     -89.059757     -2423.4392
   1   2.0000     -89.056243     -2423.3436
   2   2.0000     -89.056119     -2423.3402
   3   2.0000     -88.992742     -2421.6156
   4   2.0000     -88.992574     -2421.6110
   5   2.0000     -88.992294     -2421.6034
   6   2.0000     -88.992208     -2421.6011
   7   2.0000     -14.483428      -394.1141
   8   2.0000     -14.483283      -394.1102
   9   2.0000     -14.478052      -393.9678
  10   2.0000     -14.478013      -393.9668
  11   2.0000     -14.469737      -393.7416
  12   2.0000     -14.469711      -393.7409
  13   2.0000     -14.468011      -393.6946
  14   2.0000     -14.467941      -393.6927
  15   2.0000     -14.464046      -393.5867
  16   2.0000     -14.463989      -393.5852
  17   2.0000     -14.460394      -393.4873
  18   2.0000     -14.460334      -393.4857
  19   2.0000     -14.442327      -392.9957
  20   2.0000     -14.442234      -392.9932
  21   2.0000     -14.437635      -392.8680
  22   2.0000     -14.437500      -392.8644
  23   2.0000     -14.435425      -392.8079
  24   2.0000     -14.435396      -392.8071
  25   2.0000     -14.433791      -392.7634
  26   2.0000     -14.433771      -392.7629
  27   2.0000     -14.433650      -392.7596
  28   2.0000     -14.433624      -392.7589
  29   2.0000     -10.400938      -283.0239
  30   2.0000     -10.400689      -283.0171
  31   2.0000     -10.393184      -282.8129
  32   2.0000     -10.393151      -282.8120
  33   2.0000     -10.391719      -282.7730
  34   2.0000     -10.391700      -282.7725
  35   2.0000     -10.368030      -282.1285
  36   2.0000     -10.368021      -282.1282
  37   2.0000     -10.365126      -282.0494
  38   2.0000     -10.364866      -282.0423
  39   2.0000     -10.360468      -281.9227
  40   2.0000     -10.360227      -281.9161
  41   2.0000     -10.357767      -281.8492
  42   2.0000     -10.357761      -281.8490
  43   2.0000     -10.356430      -281.8128
  44   2.0000     -10.356382      -281.8115
  45   2.0000     -10.355654      -281.7917
  46   2.0000     -10.355640      -281.7913
  47   2.0000     -10.354838      -281.7695
  48   2.0000     -10.354779      -281.7679
  49   2.0000     -10.351507      -281.6788
  50   2.0000     -10.351481      -281.6781
  51   2.0000     -10.339501      -281.3521
  52   2.0000     -10.339495      -281.3520
  53   2.0000     -10.337160      -281.2884
  54   2.0000     -10.336995      -281.2839
  55   2.0000     -10.335090      -281.2321
  56   2.0000     -10.335004      -281.2298
  57   2.0000     -10.334737      -281.2225
  58   2.0000     -10.334606      -281.2189
  59   2.0000     -10.334212      -281.2082
  60   2.0000     -10.334183      -281.2074
  61   2.0000     -10.334033      -281.2033
  62   2.0000     -10.333954      -281.2012
  63   2.0000     -10.333521      -281.1894
  64   2.0000     -10.333499      -281.1888
  65   2.0000     -10.332801      -281.1698
  66   2.0000     -10.332758      -281.1686
  67   2.0000     -10.332604      -281.1644
  68   2.0000     -10.332577      -281.1637
  69   2.0000     -10.330667      -281.1117
  70   2.0000     -10.330499      -281.1072
  71   2.0000     -10.328202      -281.0447
  72   2.0000     -10.328169      -281.0438
  73   2.0000     -10.310480      -280.5624
  74   2.0000     -10.310426      -280.5610
  75   2.0000     -10.308794      -280.5166
  76   2.0000     -10.308764      -280.5157
  77   2.0000     -10.307908      -280.4924
  78   2.0000     -10.307876      -280.4916
  79   2.0000     -10.306684      -280.4591
  80   2.0000     -10.306665      -280.4586
  81   2.0000     -10.306017      -280.4410
  82   2.0000     -10.305933      -280.4387
  83   2.0000      -8.150673      -221.7911
  84   2.0000      -8.147416      -221.7024
  85   2.0000      -8.147367      -221.7011
  86   2.0000      -8.085263      -220.0112
  87   2.0000      -8.085194      -220.0093
  88   2.0000      -8.084746      -219.9971
  89   2.0000      -8.084705      -219.9960
  90   2.0000      -6.121757      -166.5815
  91   2.0000      -6.118346      -166.4887
  92   2.0000      -6.118288      -166.4871
  93   2.0000      -6.113818      -166.3655
  94   2.0000      -6.113607      -166.3597
  95   2.0000      -6.110621      -166.2785
  96   2.0000      -6.110533      -166.2761
  97   2.0000      -6.110432      -166.2733
  98   2.0000      -6.110400      -166.2725
  99   2.0000      -6.054770      -164.7587
 100   2.0000      -6.054707      -164.7570
 101   2.0000      -6.054254      -164.7446
 102   2.0000      -6.054245      -164.7444
 103   2.0000      -6.050003      -164.6290
 104   2.0000      -6.049932      -164.6270
 105   2.0000      -6.049467      -164.6144
 106   2.0000      -6.049403      -164.6126
 107   2.0000      -6.047752      -164.5677
 108   2.0000      -6.047650      -164.5649
 109   2.0000      -6.047267      -164.5545
 110   2.0000      -6.047198      -164.5526
 111   2.0000      -1.157712       -31.5029
 112   2.0000      -1.151994       -31.3473
 113   2.0000      -1.151968       -31.3467
 114   2.0000      -1.142488       -31.0887
 115   2.0000      -1.132162       -30.8077
 116   2.0000      -1.132134       -30.8069
 117   2.0000      -1.071201       -29.1489
 118   2.0000      -1.060049       -28.8454
 119   2.0000      -1.060030       -28.8449
 120   2.0000      -1.047846       -28.5133
 121   2.0000      -1.047276       -28.4978
 122   2.0000      -1.028539       -27.9880
 123   2.0000      -1.025583       -27.9075
 124   2.0000      -1.025235       -27.8981
 125   2.0000      -1.021844       -27.8058
 126   2.0000      -1.021562       -27.7981
 127   2.0000      -1.018018       -27.7017
 128   2.0000      -1.013677       -27.5836
 129   2.0000      -1.012235       -27.5443
 130   2.0000      -1.011033       -27.5116
 131   2.0000      -1.010961       -27.5096
 132   2.0000      -1.010766       -27.5043
 133   2.0000      -1.008747       -27.4494
 134   2.0000      -1.006397       -27.3855
 135   2.0000      -1.002879       -27.2897
 136   2.0000      -0.997226       -27.1359
 137   2.0000      -0.991535       -26.9810
 138   2.0000      -0.983296       -26.7568
 139   2.0000      -0.979268       -26.6472
 140   2.0000      -0.961223       -26.1562
 141   2.0000      -0.958227       -26.0747
 142   2.0000      -0.928058       -25.2538
 143   2.0000      -0.926298       -25.2059
 144   2.0000      -0.919078       -25.0094
 145   2.0000      -0.916665       -24.9437
 146   2.0000      -0.916083       -24.9279
 147   2.0000      -0.904491       -24.6125
 148   2.0000      -0.890198       -24.2235
 149   2.0000      -0.884407       -24.0659
 150   2.0000      -0.871579       -23.7169
 151   2.0000      -0.868612       -23.6361
 152   2.0000      -0.859311       -23.3830
 153   2.0000      -0.859284       -23.3823
 154   2.0000      -0.852285       -23.1919
 155   2.0000      -0.843813       -22.9613
 156   2.0000      -0.843719       -22.9588
 157   2.0000      -0.825519       -22.4635
 158   2.0000      -0.825366       -22.4593
 159   2.0000      -0.811385       -22.0789
 160   2.0000      -0.804751       -21.8984
 161   2.0000      -0.788998       -21.4697
 162   2.0000      -0.788268       -21.4499
 163   2.0000      -0.782123       -21.2826
 164   2.0000      -0.770077       -20.9549
 165   2.0000      -0.753347       -20.4996
 166   2.0000      -0.752865       -20.4865
 167   2.0000      -0.744760       -20.2660
 168   2.0000      -0.735736       -20.0204
 169   2.0000      -0.727751       -19.8031
 170   2.0000      -0.723026       -19.6745
 171   2.0000      -0.712607       -19.3910
 172   2.0000      -0.712358       -19.3842
 173   2.0000      -0.707930       -19.2638
 174   2.0000      -0.705254       -19.1909
 175   2.0000      -0.699835       -19.0435
 176   2.0000      -0.699647       -19.0384
 177   2.0000      -0.690727       -18.7956
 178   2.0000      -0.687110       -18.6972
 179   2.0000      -0.684375       -18.6228
 180   2.0000      -0.675110       -18.3707
 181   2.0000      -0.671880       -18.2828
 182   2.0000      -0.662115       -18.0171
 183   2.0000      -0.661422       -17.9982
 184   2.0000      -0.656288       -17.8585
 185   2.0000      -0.651852       -17.7378
 186   2.0000      -0.642908       -17.4944
 187   2.0000      -0.639849       -17.4112
 188   2.0000      -0.634939       -17.2776
 189   2.0000      -0.632455       -17.2100
 190   2.0000      -0.631320       -17.1791
 191   2.0000      -0.629189       -17.1211
 192   2.0000      -0.619368       -16.8539
 193   2.0000      -0.618337       -16.8258
 194   2.0000      -0.612600       -16.6697
 195   2.0000      -0.605684       -16.4815
 196   2.0000      -0.599327       -16.3085
 197   2.0000      -0.595248       -16.1975
 198   2.0000      -0.589634       -16.0448
 199   2.0000      -0.589616       -16.0443
 200   2.0000      -0.581138       -15.8136
 201   2.0000      -0.573437       -15.6040
 202   2.0000      -0.571563       -15.5530
 203   2.0000      -0.566443       -15.4137
 204   2.0000      -0.566437       -15.4135
 205   2.0000      -0.565345       -15.3838
 206   2.0000      -0.554616       -15.0919
 207   2.0000      -0.551497       -15.0070
 208   2.0000      -0.550307       -14.9746
 209   2.0000      -0.547876       -14.9085
 210   2.0000      -0.546729       -14.8772
 211   2.0000      -0.543840       -14.7986
 212   2.0000      -0.540402       -14.7051
 213   2.0000      -0.539373       -14.6771
 214   2.0000      -0.527595       -14.3566
 215   2.0000      -0.527183       -14.3454
 216   2.0000      -0.516262       -14.0482
 217   2.0000      -0.511101       -13.9078
 218   2.0000      -0.510375       -13.8880
 219   2.0000      -0.507998       -13.8233
 220   2.0000      -0.502083       -13.6624
 221   2.0000      -0.501998       -13.6601
 222   2.0000      -0.500287       -13.6135
 223   2.0000      -0.499257       -13.5855
 224   2.0000      -0.498547       -13.5662
 225   2.0000      -0.496160       -13.5012
 226   2.0000      -0.494679       -13.4609
 227   2.0000      -0.493983       -13.4420
 228   2.0000      -0.493820       -13.4375
 229   2.0000      -0.488810       -13.3012
 230   2.0000      -0.488354       -13.2888
 231   2.0000      -0.488191       -13.2844
 232   2.0000      -0.483587       -13.1591
 233   2.0000      -0.480753       -13.0820
 234   2.0000      -0.477012       -12.9802
 235   2.0000      -0.476030       -12.9534
 236   2.0000      -0.474868       -12.9218
 237   2.0000      -0.473600       -12.8873
 238   2.0000      -0.470466       -12.8020
 239   2.0000      -0.465282       -12.6610
 240   2.0000      -0.465185       -12.6583
 241   2.0000      -0.464203       -12.6316
 242   2.0000      -0.463572       -12.6144
 243   2.0000      -0.461244       -12.5511
 244   2.0000      -0.461152       -12.5486
 245   2.0000      -0.460056       -12.5188
 246   2.0000      -0.460042       -12.5184
 247   2.0000      -0.459204       -12.4956
 248   2.0000      -0.459175       -12.4948
 249   2.0000      -0.458967       -12.4891
 250   2.0000      -0.455604       -12.3976
 251   2.0000      -0.450996       -12.2722
 252   2.0000      -0.450960       -12.2712
 253   2.0000      -0.450132       -12.2487
 254   2.0000      -0.445003       -12.1092
 255   2.0000      -0.443986       -12.0815
 256   2.0000      -0.442818       -12.0497
 257   2.0000      -0.442678       -12.0459
 258   2.0000      -0.442439       -12.0394
 259   2.0000      -0.439913       -11.9706
 260   2.0000      -0.436698       -11.8832
 261   2.0000      -0.436629       -11.8813
 262   2.0000      -0.434249       -11.8165
 263   2.0000      -0.432284       -11.7630
 264   2.0000      -0.432079       -11.7575
 265   2.0000      -0.431549       -11.7430
 266   2.0000      -0.427658       -11.6372
 267   2.0000      -0.426607       -11.6086
 268   2.0000      -0.424021       -11.5382
 269   2.0000      -0.422716       -11.5027
 270   2.0000      -0.422163       -11.4877
 271   2.0000      -0.421792       -11.4775
 272   2.0000      -0.421685       -11.4746
 273   2.0000      -0.412018       -11.2116
 274   2.0000      -0.411178       -11.1887
 275   2.0000      -0.410613       -11.1733
 276   2.0000      -0.409602       -11.1458
 277   2.0000      -0.400300       -10.8927
 278   2.0000      -0.392949       -10.6927
 279   2.0000      -0.390632       -10.6296
 280   2.0000      -0.390522       -10.6266
 281   2.0000      -0.386967       -10.5299
 282   2.0000      -0.378829       -10.3084
 283   2.0000      -0.369136       -10.0447
 284   2.0000      -0.365174        -9.9369
 285   2.0000      -0.364108        -9.9079
 286   2.0000      -0.362104        -9.8534
 287   2.0000      -0.356887        -9.7114
 288   2.0000      -0.356851        -9.7104
 289   2.0000      -0.352427        -9.5900
 290   2.0000      -0.351301        -9.5594
 291   2.0000      -0.348551        -9.4846
 292   2.0000      -0.330362        -8.9896
 293   2.0000      -0.325755        -8.8642
 294   2.0000      -0.324935        -8.8419
 295   2.0000      -0.301513        -8.2046
 296   2.0000      -0.273326        -7.4376
 297   2.0000      -0.243252        -6.6192
 298   0.0000      -0.150935        -4.1072
 299   0.0000      -0.131007        -3.5649
 300   0.0000      -0.123988        -3.3739
 301   0.0000      -0.104679        -2.8485
 302   0.0000      -0.102547        -2.7904

MULLIKEN ATOMIC CHARGES
-----------------------
   0 C :   -0.075060
   1 C :    0.020678
   2 C :   -0.056060
   3 N :   -0.012876
   4 C :   -0.093511
   5 C :   -0.155850
   6 N :    0.061753
   7 C :   -0.204726
   8 N :    0.243279
   9 C :   -0.229200
  10 N :    0.250608
  11 C :    0.210376
  12 C :   -0.041431
  13 C :    0.099942
  14 N :   -0.267716
  15 S :    0.570224
  16 N :   -0.284209
  17 C :   -0.172407
  18 C :   -0.061300
  19 C :    0.040679
  20 C :   -0.062593
  21 S :    0.220660
  22 C :   -0.068954
  23 C :    0.040308
  24 C :    0.314191
  25 C :   -0.306579
  26 C :   -0.188286
  27 N :    0.173802
  28 C :   -0.189186
  29 N :    0.170777
  30 C :   -0.064454
  31 C :   -0.176147
  32 S :    0.217600
  33 C :    0.184488
  34 C :   -0.057175
  35 C :   -0.064680
  36 N :   -0.001379
  37 C :   -0.094557
  38 C :   -0.099999
  39 N :   -0.002043
  40 C :   -0.241633
  41 N :    0.261952
  42 C :   -0.247334
  43 N :    0.262460
  44 C :    0.189872
  45 C :   -0.005810
  46 C :   -0.013049
  47 N :   -0.282830
  48 S :    0.588701
  49 N :   -0.286430
  50 C :   -0.176332
  51 C :   -0.071664
  52 C :    0.044147
  53 C :   -0.066762
  54 S :    0.217392
  55 C :   -0.065029
  56 C :    0.035871
  57 C :    0.314110
  58 C :   -0.304469
  59 C :   -0.188329
  60 N :    0.173157
  61 C :   -0.188052
  62 N :    0.170664
  63 C :   -0.055680
  64 C :   -0.173931
  65 S :    0.219966
  66 C :    0.212107
  67 C :   -0.055967
  68 C :    0.021561
  69 N :    0.062195
  70 C :   -0.152937
  71 C :   -0.091051
  72 N :   -0.011208
  73 C :   -0.233035
  74 N :    0.251285
  75 C :   -0.206808
  76 N :    0.242668
  77 C :   -0.078081
  78 C :    0.099089
  79 C :   -0.043191
  80 N :   -0.281614
  81 S :    0.568949
  82 N :   -0.268105
  83 H :   -0.016596
  84 H :    0.024248
  85 H :    0.025019
  86 H :    0.023817
  87 H :    0.023088
  88 H :   -0.015381
Sum of atomic charges:   -0.0000000

LOEWDIN ATOMIC CHARGES
----------------------
   0 C :   -0.012839
   1 C :   -0.008098
   2 C :   -0.021665
   3 N :   -0.020139
   4 C :   -0.024522
   5 C :   -0.023152
   6 N :    0.004456
   7 C :   -0.035824
   8 N :    0.002489
   9 C :   -0.042162
  10 N :    0.004976
  11 C :   -0.019146
  12 C :   -0.042584
  13 C :   -0.044105
  14 N :   -0.282486
  15 S :    0.702845
  16 N :   -0.277988
  17 C :   -0.168354
  18 C :   -0.002103
  19 C :   -0.070172
  20 C :   -0.172259
  21 S :    0.520024
  22 C :   -0.176709
  23 C :   -0.066115
  24 C :    0.079616
  25 C :   -0.103156
  26 C :   -0.016677
  27 N :   -0.033922
  28 C :   -0.016890
  29 N :   -0.033217
  30 C :   -0.007357
  31 C :   -0.162463
  32 S :    0.516078
  33 C :   -0.039429
  34 C :   -0.013749
  35 C :   -0.014063
  36 N :   -0.017069
  37 C :   -0.018490
  38 C :   -0.018696
  39 N :   -0.016984
  40 C :   -0.041945
  41 N :    0.010681
  42 C :   -0.041922
  43 N :    0.010613
  44 C :   -0.039148
  45 C :   -0.036393
  46 C :   -0.036737
  47 N :   -0.270362
  48 S :    0.706409
  49 N :   -0.270632
  50 C :   -0.162626
  51 C :   -0.007512
  52 C :   -0.066158
  53 C :   -0.176553
  54 S :    0.516252
  55 C :   -0.172344
  56 C :   -0.070126
  57 C :    0.079672
  58 C :   -0.103167
  59 C :   -0.017101
  60 N :   -0.033121
  61 C :   -0.016523
  62 N :   -0.034144
  63 C :   -0.001907
  64 C :   -0.168263
  65 S :    0.519915
  66 C :   -0.019111
  67 C :   -0.021656
  68 C :   -0.008046
  69 N :    0.004374
  70 C :   -0.023038
  71 C :   -0.024446
  72 N :   -0.020089
  73 C :   -0.042248
  74 N :    0.005004
  75 C :   -0.035757
  76 N :    0.002491
  77 C :   -0.013027
  78 C :   -0.044175
  79 C :   -0.042625
  80 N :   -0.277548
  81 S :    0.702546
  82 N :   -0.282502
  83 H :    0.049256
  84 H :    0.039537
  85 H :    0.038866
  86 H :    0.038679
  87 H :    0.039333
  88 H :    0.049422

  Mayer bond orders larger than 0.100000
B(  0-C ,  1-C ) :   1.3168 B(  0-C , 11-C ) :   0.1290 B(  0-C , 13-C ) :   1.1781
B(  0-C , 83-H ) :   1.0570 B(  1-C ,  2-C ) :   1.1275 B(  1-C ,  6-N ) :   1.3366
B(  2-C ,  3-N ) :   1.3962 B(  2-C , 11-C ) :   1.2447 B(  3-N ,  4-C ) :   1.7009
B(  4-C ,  5-C ) :   1.1928 B(  4-C ,  9-C ) :   1.1548 B(  5-C ,  6-N ) :   1.7847
B(  5-C ,  7-C ) :   1.1593 B(  7-C ,  8-N ) :   3.0534 B(  9-C , 10-N ) :   3.0380
B( 11-C , 12-C ) :   1.2147 B( 11-C , 17-C ) :   1.2051 B( 12-C , 13-C ) :   1.1172
B( 12-C , 16-N ) :   1.5064 B( 13-C , 14-N ) :   1.4578 B( 14-N , 15-S ) :   1.3138
B( 14-N , 16-N ) :   0.1548 B( 15-S , 16-N ) :   1.2841 B( 17-C , 18-C ) :   1.3986
B( 17-C , 21-S ) :   1.0870 B( 18-C , 19-C ) :   1.2893 B( 18-C , 84-H ) :   0.9836
B( 19-C , 20-C ) :   1.3740 B( 19-C , 24-C ) :   0.9891 B( 20-C , 21-S ) :   1.0921
B( 20-C , 22-C ) :   1.2251 B( 22-C , 23-C ) :   1.3777 B( 22-C , 32-S ) :   1.0868
B( 23-C , 24-C ) :   0.9875 B( 23-C , 30-C ) :   1.2949 B( 24-C , 25-C ) :   1.7076
B( 25-C , 26-C ) :   1.1389 B( 25-C , 28-C ) :   1.1388 B( 26-C , 27-N ) :   2.9863
B( 28-C , 29-N ) :   2.9857 B( 30-C , 31-C ) :   1.3890 B( 30-C , 85-H ) :   0.9811
B( 31-C , 32-S ) :   1.0900 B( 31-C , 33-C ) :   1.2252 B( 33-C , 34-C ) :   1.2465
B( 33-C , 44-C ) :   0.1222 B( 33-C , 46-C ) :   1.1910 B( 34-C , 35-C ) :   1.1106
B( 34-C , 39-N ) :   1.4079 B( 35-C , 36-N ) :   1.4120 B( 35-C , 44-C ) :   1.2436
B( 36-N , 37-C ) :   1.6891 B( 37-C , 38-C ) :   1.2229 B( 37-C , 42-C ) :   1.1666
B( 38-C , 39-N ) :   1.6932 B( 38-C , 40-C ) :   1.1628 B( 40-C , 41-N ) :   3.0416
B( 42-C , 43-N ) :   3.0408 B( 44-C , 45-C ) :   1.1922 B( 44-C , 50-C ) :   1.2244
B( 45-C , 46-C ) :   1.0986 B( 45-C , 49-N ) :   1.5158 B( 46-C , 47-N ) :   1.5204
B( 47-N , 48-S ) :   1.2839 B( 47-N , 49-N ) :   0.1453 B( 48-S , 49-N ) :   1.2839
B( 50-C , 51-C ) :   1.3879 B( 50-C , 54-S ) :   1.0893 B( 51-C , 52-C ) :   1.2958
B( 51-C , 86-H ) :   0.9823 B( 52-C , 53-C ) :   1.3770 B( 52-C , 57-C ) :   0.9853
B( 53-C , 54-S ) :   1.0862 B( 53-C , 55-C ) :   1.2267 B( 55-C , 56-C ) :   1.3748
B( 55-C , 65-S ) :   1.0913 B( 56-C , 57-C ) :   0.9901 B( 56-C , 63-C ) :   1.2924
B( 57-C , 58-C ) :   1.7098 B( 58-C , 59-C ) :   1.1371 B( 58-C , 61-C ) :   1.1381
B( 59-C , 60-N ) :   2.9871 B( 61-C , 62-N ) :   2.9851 B( 63-C , 64-C ) :   1.4013
B( 63-C , 87-H ) :   0.9811 B( 64-C , 65-S ) :   1.0869 B( 64-C , 66-C ) :   1.2030
B( 66-C , 67-C ) :   1.2472 B( 66-C , 77-C ) :   0.1278 B( 66-C , 79-C ) :   1.2153
B( 67-C , 68-C ) :   1.1276 B( 67-C , 72-N ) :   1.3963 B( 68-C , 69-N ) :   1.3365
B( 68-C , 77-C ) :   1.3143 B( 69-N , 70-C ) :   1.7845 B( 70-C , 71-C ) :   1.1927
B( 70-C , 75-C ) :   1.1589 B( 71-C , 72-N ) :   1.7009 B( 71-C , 73-C ) :   1.1566
B( 73-C , 74-N ) :   3.0385 B( 75-C , 76-N ) :   3.0529 B( 77-C , 78-C ) :   1.1788
B( 77-C , 88-H ) :   1.0578 B( 78-C , 79-C ) :   1.1179 B( 78-C , 82-N ) :   1.4579
B( 79-C , 80-N ) :   1.5069 B( 80-N , 81-S ) :   1.2852 B( 80-N , 82-N ) :   0.1548
B( 81-S , 82-N ) :   1.3141

-----------------------------------------------------------------------------
         ABSORPTION SPECTRUM VIA TRANSITION ELECTRIC DIPOLE MOMENTS
-----------------------------------------------------------------------------
State   Energy  Wavelength   fosc         T2         TX        TY        TZ
        (cm-1)    (nm)                  (au**2)     (au)      (au)      (au)
-----------------------------------------------------------------------------
   0    6178.9   1618.4   0.827803953  44.10529   3.01988  -2.01723  -5.56025
   1   11302.2    884.8   0.082482880   2.40258  -1.36118  -0.45357  -0.58655
   2   12212.9    818.8   0.212856671   5.73778   1.10001  -0.82014  -1.96345
   3   14250.6    701.7   0.010040207   0.23195  -0.42500  -0.06873  -0.21586
   4   14298.4    699.4   0.082294810   1.89479   0.57002  -0.47913  -1.15771
   5   14324.4    698.1   0.036354807   0.83553  -0.84728  -0.23485  -0.24997
   6   18989.7    526.6   0.002259455   0.03917   0.08675  -0.12315  -0.12837
   7   20495.0    487.9   0.029598310   0.47544  -0.62049  -0.07819  -0.29037
   8   20907.3    478.3   0.197676628   3.11266  -0.79811   0.51484   1.48682
   9   22789.4    438.8   0.033501525   0.48396  -0.62076  -0.07515  -0.30490
  10   22900.7    436.7   0.000202561   0.00291   0.00285  -0.05340   0.00720
  11   23027.7    434.3   0.015618590   0.22329   0.41966   0.07884   0.20238
  12   23921.0    418.0   0.091963951   1.26565   0.50739  -0.29235  -0.96059
  13   24164.1    413.8   0.063988239   0.87178   0.41766  -0.31894  -0.77176
  14   24226.6    412.8   0.003872217   0.05262  -0.21524  -0.02459  -0.07539
  15   25164.2    397.4   0.000898107   0.01175   0.00902  -0.03481   0.10226
  16   25209.5    396.7   0.026588806   0.34722  -0.52911  -0.09810  -0.24008
  17   25742.3    388.5   0.010555240   0.13499  -0.29903  -0.06046  -0.20473
  18   25778.0    387.9   0.005545753   0.07083   0.17879   0.08732  -0.17673
  19   26181.5    381.9   0.020327097   0.25560   0.45351   0.09519   0.20215
  20   26275.2    380.6   0.001811295   0.02269   0.02593   0.14735  -0.01760
  21   26297.4    380.3   0.025679149   0.32147   0.25372  -0.25634  -0.43748
  22   26661.9    375.1   0.080847557   0.99828   0.44377  -0.32039  -0.83588
  23   26744.7    373.9   0.004832257   0.05948  -0.23161  -0.04400  -0.06249
  24   27343.4    365.7   0.030979867   0.37299   0.54476   0.11166   0.25251
  25   28361.8    352.6   0.454425073   5.27478   1.03941  -0.68876  -1.92873
  26   28556.2    350.2   0.012119251   0.13972  -0.33839  -0.11571  -0.10873
  27   29198.6    342.5   0.010749997   0.12121  -0.32224  -0.07841  -0.10593
  28   29243.2    342.0   0.103624107   1.16657  -0.47953   0.34086   0.90578
  29   29492.0    339.1   0.146344864   1.63361  -0.58252   0.38966   1.06885
  30   30350.0    329.5   0.012598093   0.13665  -0.32470  -0.08321  -0.15589
  31   30464.3    328.3   0.086289544   0.93249   0.43538  -0.36964  -0.77865
  32   30727.5    325.4   0.029323258   0.31417   0.10664   0.18094   0.51967
  33   30752.5    325.2   0.154428892   1.65319   0.70189  -0.36702  -1.01284
  34   30966.4    322.9   0.261592873   2.78106  -1.48535  -0.25092  -0.71543
  35   31396.9    318.5   0.256376141   2.68823   1.02623  -0.10930  -1.27402
  36   31416.7    318.3   0.847164817   8.87734  -2.56337  -0.45325  -1.44949
  37   31574.7    316.7   0.045186233   0.47113   0.62823   0.10632   0.25525
  38   31643.4    316.0   0.005642696   0.05871  -0.10323   0.02384   0.21790
  39   31884.0    313.6   0.019324771   0.19953   0.41394   0.04871   0.16067
  40   32032.3    312.2   0.161805156   1.66295  -0.56950   0.20532   1.13862
  41   32176.9    310.8   0.153404134   1.56953   0.56858  -0.28250  -1.08002
  42   32932.7    303.7   0.008987110   0.08984   0.13276   0.26214  -0.05913
  43   33029.3    302.8   1.007606692  10.04308   2.82167   0.50123   1.35278
  44   33315.9    300.2   0.008859118   0.08754   0.27520   0.03201   0.10383
  45   33401.4    299.4   0.012013917   0.11841  -0.28910  -0.08418  -0.16658
  46   33437.8    299.1   0.525640949   5.17520   2.03398   0.39628   0.93866
  47   34223.8    292.2   0.014737561   0.14177  -0.32844  -0.13634  -0.12372
  48   34485.6    290.0   0.147442673   1.40754   0.53222  -0.39757  -0.98297
  49   34823.2    287.2   0.085565925   0.80892  -0.79974  -0.21699  -0.34966
  50   35297.8    283.3   0.009944037   0.09274  -0.11551   0.10848   0.26006
  51   35367.4    282.7   0.026192099   0.24381   0.44951   0.06198   0.19470
  52   35695.6    280.1   0.000113985   0.00105  -0.01722   0.01767  -0.02103
  53   35785.5    279.4   0.006229258   0.05731   0.08815  -0.20624  -0.08366
  54   36008.8    277.7   0.151375316   1.38395  -1.03836  -0.16615  -0.52741
  55   36168.4    276.5   0.273518797   2.48963   0.77088  -0.35701  -1.32963
  56   36205.4    276.2   0.074593972   0.67828   0.70009   0.11465   0.41833
  57   36303.3    275.5   0.007388962   0.06701   0.24307   0.01239   0.08814
  58   36492.8    274.0   0.057653773   0.52011   0.31468  -0.28911  -0.58095
  59   36882.7    271.1   0.273617186   2.44228   1.39409   0.32540   0.62684
  60   36975.1    270.5   0.001011062   0.00900  -0.00949  -0.01482   0.09323
  61   37203.0    268.8   0.121619119   1.07622  -0.88788  -0.16468  -0.51066
  62   37228.0    268.6   0.426550110   3.77204   1.91940   0.26806   0.12677
  63   37229.0    268.6   0.301356110   2.66486   0.83453   0.19496   1.38940
  64   37494.7    266.7   0.056551688   0.49654  -0.62912  -0.02665  -0.31628
  65   37671.3    265.5   0.019028914   0.16629   0.18908  -0.21638  -0.28935
  66   37809.0    264.5   0.002426073   0.02112  -0.02060   0.14302   0.01566
  67   37960.7    263.4   0.000437659   0.00380   0.05079  -0.00672   0.03421
  68   38052.1    262.8   0.000012805   0.00011   0.00266   0.00128   0.01010
  69   38345.1    260.8   0.203781762   1.74957   1.17813   0.22294   0.55846
  70   38599.5    259.1   0.095140589   0.81145  -0.40709   0.20584   0.77676
  71   39272.3    254.6   0.158194629   1.32612  -0.52411   0.31057   0.97722
  72   39423.0    253.7   0.000290291   0.00242  -0.01246   0.02757   0.03884
  73   39466.7    253.4   0.006305000   0.05259   0.20603   0.04590   0.08965
  74   39680.6    252.0   0.001039816   0.00863  -0.04082   0.02585   0.07933
  75   39889.2    250.7   0.008445043   0.06970  -0.10683   0.07328   0.23003
  76   39948.3    250.3   0.123909111   1.02113  -0.90372  -0.11301  -0.43778
  77   40218.8    248.6   0.136051653   1.11365  -0.94163  -0.16012  -0.44872

FINAL SINGLE POINT ENERGY     -6047.994776466486

DIPOLE MOMENT
-------------
                                X             Y             Z
Electronic contribution:      2.45252       0.10531       1.28532
Nuclear contribution   :     -5.75950      -0.64256      -2.86496
                        -----------------------------------------
Total Dipole Moment    :     -3.30698      -0.53725      -1.57964
                        -----------------------------------------
Magnitude (a.u.)       :      3.70405
Magnitude (Debye)      :      9.41496

Rotational constants in cm-1:     0.001415     0.000203     0.000178
Rotational constants in MHz :    42.412907     6.100116     5.347421

                             ****ORCA TERMINATED NORMALLY****
TOTAL RUN TIME: 0 days 0 hours 11 minutes 15 seconds 404 msec
