                         Program Version 4.2.0 -  RELEASE  -
|  1> # ORCA input file
|  2> # SCF done       -176.249805136924          0.000634920028
|  3> ! CAM-B3LYP def2-SVP def2/J RIJCOSX Grid4 TightSCF
|  4> %maxcore 5000
|  5> %tddft
|  6>     Mode sTDDFT
|  7>     Ethresh 5.0
|  8>     maxcore 5000
|  9> end
| 10>
| 11> %pal
| 12>   nprocs 6
| 13>   end
| 14> * xyz 0 1
| 15>    C       -0.99622       -10.67827         9.48292
| 16>    C       -1.83877        -9.57715         9.35798
| 17>    C       -1.96667        -8.85750         8.11218
| 18>    N       -2.79972        -7.80482         8.02673
| 19>    C       -3.47605        -7.44483         9.08560
| 20>    C       -3.34844        -8.16212        10.32917
| 21>    N       -2.55188        -9.18830        10.43746
| 22>    C       -4.10466        -7.74275        11.45515
| 23>    N       -4.73082        -7.37264        12.33905
| 24>    C       -4.34427        -6.32666         9.00576
| 25>    N       -5.05089        -5.42597         8.97944
| 26>    C       -1.26132        -9.26033         6.95852
| 27>    C       -0.39671       -10.35670         7.10570
| 28>    C       -0.26623       -11.06035         8.36687
| 29>    N        0.62636       -12.05745         8.28281
| 30>    S        1.23421       -12.08409         6.80686
| 31>    N        0.42140       -10.85991         6.17484
| 32>    C       -1.40981        -8.59242         5.69758
| 33>    C       -1.59366        -7.14748         5.49527
| 34>    N       -1.62824        -6.78723         4.24792
| 35>    C       -1.50403        -7.93464         3.52419
| 36>    C       -1.35893        -9.10009         4.42376
| 37>    C       -1.30580       -10.31152         3.63903
| 38>    S       -1.33646       -11.87087         4.16490
| 39>    C       -1.33657        -9.85648         2.28033
| 40>    C       -1.46649        -8.39459         2.23525
| 41>    N       -1.50621        -7.95963         0.93705
| 42>    C       -1.40805        -9.02637         0.20434
| 43>    C       -1.30108       -10.28156         0.96612
| 44>    C       -1.17159       -11.60187         0.49039
| 45>    C       -1.04240       -11.97695        -0.81238
| 46>    C       -0.87275       -13.32743        -1.18093
| 47>    O       -0.88594       -14.30717        -0.24368
| 48>    C       -0.65313       -15.49272        -0.85927
| 49>    C       -0.48358       -15.27438        -2.23112
| 50>    C       -0.63245       -13.89202        -2.43944
| 51>    O       -0.55478       -13.22061        -3.59977
| 52>    O       -0.22434       -16.16437        -3.21208
| 53>    C       -0.59942       -16.70090        -0.14023
| 54>    C       -0.81368       -16.80513         1.20135
| 55>    C       -0.71263       -18.01604         1.91704
| 56>    C       -1.02041       -18.12662         3.35006
| 57>    N       -0.84004       -19.30789         3.85438
| 58>    C       -0.39672       -20.08091         2.82002
| 59>    C       -0.32567       -19.30201         1.56890
| 60>    C        0.19771       -20.13170         0.52062
| 61>    S        0.60158       -19.71884        -1.02474
| 62>    C        0.41554       -21.41857         1.14070
| 63>    C        0.06114       -21.34540         2.57041
| 64>    N        0.34482       -22.52106         3.19656
| 65>    C        0.87529       -23.28531         2.29034
| 66>    C        0.95734       -22.66683         0.95974
| 67>    C        1.47159       -23.29104        -0.22502
| 68>    C        2.59647       -24.14132        -0.18745
| 69>    C        3.13765       -24.72238        -1.39354
| 70>    N        4.23520       -25.50795        -1.32883
| 71>    C        4.78854       -25.72101        -0.16783
| 72>    C        4.25123       -25.13529         1.03463
| 73>    N        3.19133       -24.37159         0.99679
| 74>    C        4.87802       -25.38931         2.28088
| 75>    N        5.40983       -25.61853         3.26895
| 76>    C        5.94311       -26.54292        -0.08410
| 77>    N        6.87432       -27.19958         0.02572
| 78>    C        2.56021       -24.48916        -2.63834
| 79>    C        1.43153       -23.68317        -2.68480
| 80>    C        0.88632       -23.08212        -1.48296
| 81>    N       -0.21888       -22.37514        -1.74242
| 82>    S       -0.51865       -22.44344        -3.31193
| 83>    N        0.70520       -23.36442        -3.76573
| 84>    H       -0.92027       -11.20237        10.42046
| 85>    H       -1.67147        -6.42248         6.28464
| 86>    H       -1.41307        -8.94779        -0.86867
| 87>    H       -1.15295       -12.37380         1.24880
| 88>    H       -1.03525       -11.26337        -1.62163
| 89>    H       -0.36827       -13.84853        -4.31108
| 90>    H       -0.09890       -17.04806        -2.84298
| 91>    H       -0.35987       -17.59258        -0.70473
| 92>    H       -1.07368       -15.92025         1.76591
| 93>    H       -1.37526       -17.31409         3.96092
| 94>    H        1.19041       -24.28594         2.52277
| 95>    H        2.98348       -24.92818        -3.52575
| 96> *
| 97>
| 98>                          ****END OF INPUT****

CARTESIAN COORDINATES (ANGSTROEM)
---------------------------------
  C     -0.996220  -10.678270    9.482920
  C     -1.838770   -9.577150    9.357980
  C     -1.966670   -8.857500    8.112180
  N     -2.799720   -7.804820    8.026730
  C     -3.476050   -7.444830    9.085600
  C     -3.348440   -8.162120   10.329170
  N     -2.551880   -9.188300   10.437460
  C     -4.104660   -7.742750   11.455150
  N     -4.730820   -7.372640   12.339050
  C     -4.344270   -6.326660    9.005760
  N     -5.050890   -5.425970    8.979440
  C     -1.261320   -9.260330    6.958520
  C     -0.396710  -10.356700    7.105700
  C     -0.266230  -11.060350    8.366870
  N      0.626360  -12.057450    8.282810
  S      1.234210  -12.084090    6.806860
  N      0.421400  -10.859910    6.174840
  C     -1.409810   -8.592420    5.697580
  C     -1.593660   -7.147480    5.495270
  N     -1.628240   -6.787230    4.247920
  C     -1.504030   -7.934640    3.524190
  C     -1.358930   -9.100090    4.423760
  C     -1.305800  -10.311520    3.639030
  S     -1.336460  -11.870870    4.164900
  C     -1.336570   -9.856480    2.280330
  C     -1.466490   -8.394590    2.235250
  N     -1.506210   -7.959630    0.937050
  C     -1.408050   -9.026370    0.204340
  C     -1.301080  -10.281560    0.966120
  C     -1.171590  -11.601870    0.490390
  C     -1.042400  -11.976950   -0.812380
  C     -0.872750  -13.327430   -1.180930
  O     -0.885940  -14.307170   -0.243680
  C     -0.653130  -15.492720   -0.859270
  C     -0.483580  -15.274380   -2.231120
  C     -0.632450  -13.892020   -2.439440
  O     -0.554780  -13.220610   -3.599770
  O     -0.224340  -16.164370   -3.212080
  C     -0.599420  -16.700900   -0.140230
  C     -0.813680  -16.805130    1.201350
  C     -0.712630  -18.016040    1.917040
  C     -1.020410  -18.126620    3.350060
  N     -0.840040  -19.307890    3.854380
  C     -0.396720  -20.080910    2.820020
  C     -0.325670  -19.302010    1.568900
  C      0.197710  -20.131700    0.520620
  S      0.601580  -19.718840   -1.024740
  C      0.415540  -21.418570    1.140700
  C      0.061140  -21.345400    2.570410
  N      0.344820  -22.521060    3.196560
  C      0.875290  -23.285310    2.290340
  C      0.957340  -22.666830    0.959740
  C      1.471590  -23.291040   -0.225020
  C      2.596470  -24.141320   -0.187450
  C      3.137650  -24.722380   -1.393540
  N      4.235200  -25.507950   -1.328830
  C      4.788540  -25.721010   -0.167830
  C      4.251230  -25.135290    1.034630
  N      3.191330  -24.371590    0.996790
  C      4.878020  -25.389310    2.280880
  N      5.409830  -25.618530    3.268950
  C      5.943110  -26.542920   -0.084100
  N      6.874320  -27.199580    0.025720
  C      2.560210  -24.489160   -2.638340
  C      1.431530  -23.683170   -2.684800
  C      0.886320  -23.082120   -1.482960
  N     -0.218880  -22.375140   -1.742420
  S     -0.518650  -22.443440   -3.311930
  N      0.705200  -23.364420   -3.765730
  H     -0.920270  -11.202370   10.420460
  H     -1.671470   -6.422480    6.284640
  H     -1.413070   -8.947790   -0.868670
  H     -1.152950  -12.373800    1.248800
  H     -1.035250  -11.263370   -1.621630
  H     -0.368270  -13.848530   -4.311080
  H     -0.098900  -17.048060   -2.842980
  H     -0.359870  -17.592580   -0.704730
  H     -1.073680  -15.920250    1.765910
  H     -1.375260  -17.314090    3.960920
  H      1.190410  -24.285940    2.522770
  H      2.983480  -24.928180   -3.525750

 Total Charge           Charge          ....    0
 Multiplicity           Mult            ....    1
 Number of Electrons    NEL             ....  488
 Basis Dimension        Dim             .... 1042

ORBITAL ENERGIES
----------------

  NO   OCC          E(Eh)            E(eV)
   0   2.0000     -89.059313     -2423.4271
   1   2.0000     -89.054573     -2423.2981
   2   2.0000     -88.913296     -2419.4538
   3   2.0000     -88.904889     -2419.2250
   4   2.0000     -19.306403      -525.3539
   5   2.0000     -19.287236      -524.8324
   6   2.0000     -19.278412      -524.5923
   7   2.0000     -14.476317      -393.9206
   8   2.0000     -14.473218      -393.8363
   9   2.0000     -14.472649      -393.8208
  10   2.0000     -14.469268      -393.7288
  11   2.0000     -14.463910      -393.5830
  12   2.0000     -14.462093      -393.5336
  13   2.0000     -14.458789      -393.4437
  14   2.0000     -14.457152      -393.3991
  15   2.0000     -14.438982      -392.9047
  16   2.0000     -14.437767      -392.8716
  17   2.0000     -14.435670      -392.8146
  18   2.0000     -14.434342      -392.7784
  19   2.0000     -14.425385      -392.5347
  20   2.0000     -14.422173      -392.4473
  21   2.0000     -14.418112      -392.3368
  22   2.0000     -14.415520      -392.2663
  23   2.0000     -10.394764      -282.8559
  24   2.0000     -10.393462      -282.8205
  25   2.0000     -10.390946      -282.7520
  26   2.0000     -10.389513      -282.7130
  27   2.0000     -10.363886      -282.0157
  28   2.0000     -10.362717      -281.9839
  29   2.0000     -10.360050      -281.9113
  30   2.0000     -10.359719      -281.9023
  31   2.0000     -10.358813      -281.8776
  32   2.0000     -10.355863      -281.7974
  33   2.0000     -10.353961      -281.7456
  34   2.0000     -10.353591      -281.7355
  35   2.0000     -10.352955      -281.7182
  36   2.0000     -10.352563      -281.7076
  37   2.0000     -10.351530      -281.6795
  38   2.0000     -10.348947      -281.6092
  39   2.0000     -10.348217      -281.5893
  40   2.0000     -10.344372      -281.4847
  41   2.0000     -10.343178      -281.4522
  42   2.0000     -10.341855      -281.4162
  43   2.0000     -10.339213      -281.3443
  44   2.0000     -10.336381      -281.2672
  45   2.0000     -10.335841      -281.2525
  46   2.0000     -10.335584      -281.2455
  47   2.0000     -10.334946      -281.2282
  48   2.0000     -10.332632      -281.1652
  49   2.0000     -10.332193      -281.1533
  50   2.0000     -10.331772      -281.1418
  51   2.0000     -10.331577      -281.1365
  52   2.0000     -10.330529      -281.1080
  53   2.0000     -10.328362      -281.0490
  54   2.0000     -10.327187      -281.0170
  55   2.0000     -10.321106      -280.8516
  56   2.0000     -10.319274      -280.8017
  57   2.0000     -10.316651      -280.7304
  58   2.0000     -10.315225      -280.6916
  59   2.0000     -10.315044      -280.6866
  60   2.0000     -10.309532      -280.5366
  61   2.0000     -10.308911      -280.5197
  62   2.0000     -10.306734      -280.4605
  63   2.0000     -10.306627      -280.4576
  64   2.0000     -10.304656      -280.4039
  65   2.0000     -10.299004      -280.2502
  66   2.0000     -10.296241      -280.1750
  67   2.0000     -10.294914      -280.1389
  68   2.0000     -10.294108      -280.1169
  69   2.0000      -8.150497      -221.7863
  70   2.0000      -8.145699      -221.6557
  71   2.0000      -8.008765      -217.9296
  72   2.0000      -8.000466      -217.7037
  73   2.0000      -6.121279      -166.5685
  74   2.0000      -6.116478      -166.4378
  75   2.0000      -6.113885      -166.3673
  76   2.0000      -6.113506      -166.3570
  77   2.0000      -6.109107      -166.2372
  78   2.0000      -6.108689      -166.2259
  79   2.0000      -5.977524      -162.6567
  80   2.0000      -5.976836      -162.6380
  81   2.0000      -5.969201      -162.4302
  82   2.0000      -5.969006      -162.4249
  83   2.0000      -5.968674      -162.4159
  84   2.0000      -5.959835      -162.1754
  85   2.0000      -1.229065       -33.4446
  86   2.0000      -1.183002       -32.1911
  87   2.0000      -1.166364       -31.7384
  88   2.0000      -1.153242       -31.3813
  89   2.0000      -1.148525       -31.2530
  90   2.0000      -1.132504       -30.8170
  91   2.0000      -1.128621       -30.7113
  92   2.0000      -1.090831       -29.6830
  93   2.0000      -1.087443       -29.5908
  94   2.0000      -1.071660       -29.1614
  95   2.0000      -1.068446       -29.0739
  96   2.0000      -1.059084       -28.8191
  97   2.0000      -1.055298       -28.7161
  98   2.0000      -1.022901       -27.8345
  99   2.0000      -1.019537       -27.7430
 100   2.0000      -1.012400       -27.5488
 101   2.0000      -1.009076       -27.4584
 102   2.0000      -1.005505       -27.3612
 103   2.0000      -1.000838       -27.2342
 104   2.0000      -0.988671       -26.9031
 105   2.0000      -0.984459       -26.7885
 106   2.0000      -0.971135       -26.4259
 107   2.0000      -0.967166       -26.3179
 108   2.0000      -0.941941       -25.6315
 109   2.0000      -0.924033       -25.1442
 110   2.0000      -0.918672       -24.9983
 111   2.0000      -0.914903       -24.8958
 112   2.0000      -0.912715       -24.8362
 113   2.0000      -0.910230       -24.7686
 114   2.0000      -0.908601       -24.7243
 115   2.0000      -0.890445       -24.2302
 116   2.0000      -0.869188       -23.6518
 117   2.0000      -0.864616       -23.5274
 118   2.0000      -0.859709       -23.3939
 119   2.0000      -0.853873       -23.2351
 120   2.0000      -0.847048       -23.0494
 121   2.0000      -0.842578       -22.9277
 122   2.0000      -0.838246       -22.8098
 123   2.0000      -0.811663       -22.0865
 124   2.0000      -0.806584       -21.9483
 125   2.0000      -0.802494       -21.8370
 126   2.0000      -0.791450       -21.5365
 127   2.0000      -0.781485       -21.2653
 128   2.0000      -0.766601       -20.8603
 129   2.0000      -0.756282       -20.5795
 130   2.0000      -0.752471       -20.4758
 131   2.0000      -0.745434       -20.2843
 132   2.0000      -0.742313       -20.1994
 133   2.0000      -0.728082       -19.8121
 134   2.0000      -0.725883       -19.7523
 135   2.0000      -0.723391       -19.6845
 136   2.0000      -0.716194       -19.4886
 137   2.0000      -0.711538       -19.3619
 138   2.0000      -0.708295       -19.2737
 139   2.0000      -0.706283       -19.2189
 140   2.0000      -0.699998       -19.0479
 141   2.0000      -0.695656       -18.9298
 142   2.0000      -0.692128       -18.8338
 143   2.0000      -0.688116       -18.7246
 144   2.0000      -0.665147       -18.0996
 145   2.0000      -0.661114       -17.9898
 146   2.0000      -0.658581       -17.9209
 147   2.0000      -0.651647       -17.7322
 148   2.0000      -0.647125       -17.6092
 149   2.0000      -0.641740       -17.4626
 150   2.0000      -0.639173       -17.3928
 151   2.0000      -0.628497       -17.1023
 152   2.0000      -0.621704       -16.9174
 153   2.0000      -0.617407       -16.8005
 154   2.0000      -0.611559       -16.6414
 155   2.0000      -0.610185       -16.6040
 156   2.0000      -0.607612       -16.5340
 157   2.0000      -0.596280       -16.2256
 158   2.0000      -0.591782       -16.1032
 159   2.0000      -0.588775       -16.0214
 160   2.0000      -0.587535       -15.9876
 161   2.0000      -0.585056       -15.9202
 162   2.0000      -0.577872       -15.7247
 163   2.0000      -0.576576       -15.6894
 164   2.0000      -0.570001       -15.5105
 165   2.0000      -0.567417       -15.4402
 166   2.0000      -0.564683       -15.3658
 167   2.0000      -0.560690       -15.2571
 168   2.0000      -0.551409       -15.0046
 169   2.0000      -0.551202       -14.9990
 170   2.0000      -0.547741       -14.9048
 171   2.0000      -0.547146       -14.8886
 172   2.0000      -0.545470       -14.8430
 173   2.0000      -0.543477       -14.7888
 174   2.0000      -0.538426       -14.6513
 175   2.0000      -0.536475       -14.5982
 176   2.0000      -0.529999       -14.4220
 177   2.0000      -0.521859       -14.2005
 178   2.0000      -0.510820       -13.9001
 179   2.0000      -0.510018       -13.8783
 180   2.0000      -0.507868       -13.8198
 181   2.0000      -0.502907       -13.6848
 182   2.0000      -0.501536       -13.6475
 183   2.0000      -0.499252       -13.5853
 184   2.0000      -0.497191       -13.5293
 185   2.0000      -0.496345       -13.5062
 186   2.0000      -0.494669       -13.4606
 187   2.0000      -0.493364       -13.4251
 188   2.0000      -0.491891       -13.3850
 189   2.0000      -0.489685       -13.3250
 190   2.0000      -0.489436       -13.3182
 191   2.0000      -0.488094       -13.2817
 192   2.0000      -0.484817       -13.1925
 193   2.0000      -0.482960       -13.1420
 194   2.0000      -0.481513       -13.1026
 195   2.0000      -0.471820       -12.8389
 196   2.0000      -0.467589       -12.7238
 197   2.0000      -0.463410       -12.6100
 198   2.0000      -0.461349       -12.5539
 199   2.0000      -0.460293       -12.5252
 200   2.0000      -0.458134       -12.4665
 201   2.0000      -0.456887       -12.4325
 202   2.0000      -0.452870       -12.3232
 203   2.0000      -0.449698       -12.2369
 204   2.0000      -0.449589       -12.2339
 205   2.0000      -0.449254       -12.2248
 206   2.0000      -0.447813       -12.1856
 207   2.0000      -0.445554       -12.1241
 208   2.0000      -0.444063       -12.0836
 209   2.0000      -0.443213       -12.0604
 210   2.0000      -0.439775       -11.9669
 211   2.0000      -0.435053       -11.8384
 212   2.0000      -0.430076       -11.7030
 213   2.0000      -0.427465       -11.6319
 214   2.0000      -0.425872       -11.5886
 215   2.0000      -0.424071       -11.5396
 216   2.0000      -0.423009       -11.5107
 217   2.0000      -0.421621       -11.4729
 218   2.0000      -0.420769       -11.4497
 219   2.0000      -0.419292       -11.4095
 220   2.0000      -0.416509       -11.3338
 221   2.0000      -0.407473       -11.0879
 222   2.0000      -0.394169       -10.7259
 223   2.0000      -0.388613       -10.5747
 224   2.0000      -0.374360       -10.1868
 225   2.0000      -0.370548       -10.0831
 226   2.0000      -0.363729        -9.8976
 227   2.0000      -0.361322        -9.8321
 228   2.0000      -0.359453        -9.7812
 229   2.0000      -0.358442        -9.7537
 230   2.0000      -0.357717        -9.7340
 231   2.0000      -0.354942        -9.6585
 232   2.0000      -0.354203        -9.6384
 233   2.0000      -0.351868        -9.5748
 234   2.0000      -0.351208        -9.5568
 235   2.0000      -0.336588        -9.1590
 236   2.0000      -0.323485        -8.8025
 237   2.0000      -0.317172        -8.6307
 238   2.0000      -0.304980        -8.2989
 239   2.0000      -0.301684        -8.2092
 240   2.0000      -0.296060        -8.0562
 241   2.0000      -0.293354        -7.9826
 242   2.0000      -0.285274        -7.7627
 243   2.0000      -0.248567        -6.7639
 244   0.0000      -0.134415        -3.6576
 245   0.0000      -0.129913        -3.5351
 246   0.0000      -0.119759        -3.2588
 247   0.0000      -0.105721        -2.8768
 248   0.0000      -0.089348        -2.4313

MULLIKEN ATOMIC CHARGES
-----------------------
   0 C :   -0.067624
   1 C :    0.006541
   2 C :   -0.057819
   3 N :    0.052380
   4 C :   -0.128907
   5 C :   -0.149938
   6 N :    0.059220
   7 C :   -0.196254
   8 N :    0.237395
   9 C :   -0.204951
  10 N :    0.244397
  11 C :    0.143533
  12 C :   -0.028957
  13 C :    0.102226
  14 N :   -0.265374
  15 S :    0.561426
  16 N :   -0.250588
  17 C :   -0.098267
  18 C :    0.084390
  19 N :   -0.020638
  20 C :   -0.011229
  21 C :    0.016586
  22 C :    0.005748
  23 S :   -0.149374
  24 C :   -0.010095
  25 C :    0.027881
  26 N :   -0.026120
  27 C :    0.061714
  28 C :    0.023180
  29 C :   -0.031823
  30 C :   -0.021777
  31 C :    0.083817
  32 O :   -0.214157
  33 C :    0.103585
  34 C :    0.089947
  35 C :    0.093203
  36 O :   -0.164433
  37 O :   -0.185632
  38 C :    0.009192
  39 C :   -0.040517
  40 C :    0.029472
  41 C :    0.062353
  42 N :   -0.020970
  43 C :    0.012288
  44 C :   -0.026510
  45 C :    0.017349
  46 S :   -0.175432
  47 C :    0.012017
  48 C :   -0.004668
  49 N :   -0.017481
  50 C :    0.083730
  51 C :   -0.099337
  52 C :    0.142409
  53 C :   -0.051732
  54 C :    0.007174
  55 N :    0.057364
  56 C :   -0.146794
  57 C :   -0.131852
  58 N :    0.051193
  59 C :   -0.199577
  60 N :    0.244703
  61 C :   -0.198128
  62 N :    0.239497
  63 C :   -0.071831
  64 C :    0.110701
  65 C :   -0.030265
  66 N :   -0.245510
  67 S :    0.554635
  68 N :   -0.269256
  69 H :   -0.011201
  70 H :    0.008982
  71 H :    0.012812
  72 H :    0.009066
  73 H :    0.008585
  74 H :    0.199575
  75 H :    0.198326
  76 H :   -0.042894
  77 H :   -0.006117
  78 H :    0.012020
  79 H :    0.005043
  80 H :   -0.011626
Sum of atomic charges:   -0.0000000

LOEWDIN ATOMIC CHARGES
----------------------
   0 C :    0.010353
   1 C :   -0.011948
   2 C :   -0.006428
   3 N :    0.003383
   4 C :   -0.024776
   5 C :   -0.026588
   6 N :    0.004995
   7 C :   -0.035987
   8 N :    0.001402
   9 C :   -0.038397
  10 N :    0.003003
  11 C :   -0.008372
  12 C :   -0.041652
  13 C :   -0.046511
  14 N :   -0.287017
  15 S :    0.706711
  16 N :   -0.272188
  17 C :   -0.037412
  18 C :    0.092790
  19 N :   -0.080473
  20 C :    0.031518
  21 C :   -0.008432
  22 C :   -0.138342
  23 S :    0.045077
  24 C :   -0.043167
  25 C :    0.044195
  26 N :   -0.076158
  27 C :    0.092483
  28 C :   -0.037741
  29 C :   -0.014026
  30 C :   -0.016551
  31 C :    0.014822
  32 O :    0.009612
  33 C :   -0.010033
  34 C :   -0.001626
  35 C :   -0.001370
  36 O :   -0.038039
  37 O :   -0.046947
  38 C :   -0.006218
  39 C :   -0.038922
  40 C :   -0.027034
  41 C :    0.092733
  42 N :   -0.071513
  43 C :    0.047699
  44 C :   -0.060601
  45 C :   -0.125783
  46 S :    0.038562
  47 C :   -0.012803
  48 C :    0.024295
  49 N :   -0.076905
  50 C :    0.088569
  51 C :   -0.032885
  52 C :   -0.008714
  53 C :   -0.005728
  54 C :   -0.012023
  55 N :    0.004758
  56 C :   -0.025687
  57 C :   -0.024068
  58 N :    0.004281
  59 C :   -0.038239
  60 N :    0.004547
  61 C :   -0.036183
  62 N :    0.002606
  63 C :    0.010506
  64 C :   -0.046385
  65 C :   -0.042491
  66 N :   -0.272181
  67 S :    0.701700
  68 N :   -0.287610
  69 H :    0.051125
  70 H :    0.024349
  71 H :    0.025279
  72 H :    0.030975
  73 H :    0.040395
  74 H :    0.108778
  75 H :    0.102686
  76 H :    0.001069
  77 H :    0.034111
  78 H :    0.028020
  79 H :    0.023783
  80 H :    0.050985

  Mayer bond orders larger than 0.100000
B(  0-C ,  1-C ) :   1.2923 B(  0-C , 11-C ) :   0.1413 B(  0-C , 13-C ) :   1.1832
B(  0-C , 69-H ) :   1.0615 B(  1-C ,  2-C ) :   1.1289 B(  1-C ,  6-N ) :   1.3382
B(  2-C ,  3-N ) :   1.4282 B(  2-C , 11-C ) :   1.3132 B(  3-N ,  4-C ) :   1.7530
B(  4-C ,  5-C ) :   1.1821 B(  4-C ,  9-C ) :   1.1474 B(  5-C ,  6-N ) :   1.7908
B(  5-C ,  7-C ) :   1.1471 B(  7-C ,  8-N ) :   3.0523 B(  9-C , 10-N ) :   3.0489
B( 11-C , 12-C ) :   1.2818 B( 11-C , 17-C ) :   0.9902 B( 12-C , 13-C ) :   1.1039
B( 12-C , 16-N ) :   1.4873 B( 13-C , 14-N ) :   1.4504 B( 14-N , 15-S ) :   1.3189
B( 14-N , 16-N ) :   0.1583 B( 15-S , 16-N ) :   1.3012 B( 17-C , 18-C ) :   1.0380
B( 17-C , 21-C ) :   1.5900 B( 18-C , 19-N ) :   1.7186 B( 18-C , 70-H ) :   0.9894
B( 19-N , 20-C ) :   1.2737 B( 20-C , 21-C ) :   1.0609 B( 20-C , 25-C ) :   1.5154
B( 21-C , 22-C ) :   1.0253 B( 22-C , 23-S ) :   1.6608 B( 22-C , 24-C ) :   1.0544
B( 24-C , 25-C ) :   1.0683 B( 24-C , 28-C ) :   1.4821 B( 25-C , 26-N ) :   1.2469
B( 26-N , 27-C ) :   1.7460 B( 27-C , 28-C ) :   0.9979 B( 27-C , 71-H ) :   0.9880
B( 28-C , 29-C ) :   1.1235 B( 29-C , 30-C ) :   1.5598 B( 29-C , 72-H ) :   0.9790
B( 30-C , 31-C ) :   1.2052 B( 30-C , 73-H ) :   0.9688 B( 31-C , 32-O ) :   1.1274
B( 31-C , 33-C ) :   0.1066 B( 31-C , 35-C ) :   1.3440 B( 32-O , 33-C ) :   1.1178
B( 33-C , 34-C ) :   1.2642 B( 33-C , 38-C ) :   1.2170 B( 34-C , 35-C ) :   1.2453
B( 34-C , 37-O ) :   1.2588 B( 35-C , 36-O ) :   1.2891 B( 36-O , 74-H ) :   0.9494
B( 37-O , 75-H ) :   0.9481 B( 38-C , 39-C ) :   1.5626 B( 38-C , 76-H ) :   0.9155
B( 39-C , 40-C ) :   1.1466 B( 39-C , 77-H ) :   0.9867 B( 40-C , 41-C ) :   1.0090
B( 40-C , 44-C ) :   1.4261 B( 41-C , 42-N ) :   1.7315 B( 41-C , 78-H ) :   0.9916
B( 42-N , 43-C ) :   1.2589 B( 43-C , 44-C ) :   1.0713 B( 43-C , 48-C ) :   1.5163
B( 44-C , 45-C ) :   1.0905 B( 45-C , 46-S ) :   1.6090 B( 45-C , 47-C ) :   1.0391
B( 46-S , 76-H ) :   0.1288 B( 47-C , 48-C ) :   1.0615 B( 47-C , 51-C ) :   1.5906
B( 48-C , 49-N ) :   1.2772 B( 49-N , 50-C ) :   1.7252 B( 50-C , 51-C ) :   1.0408
B( 50-C , 79-H ) :   0.9906 B( 51-C , 52-C ) :   0.9822 B( 52-C , 53-C ) :   1.3170
B( 52-C , 63-C ) :   0.1418 B( 52-C , 65-C ) :   1.2837 B( 53-C , 54-C ) :   1.1285
B( 53-C , 58-N ) :   1.4245 B( 54-C , 55-N ) :   1.3391 B( 54-C , 63-C ) :   1.2934
B( 55-N , 56-C ) :   1.7900 B( 56-C , 57-C ) :   1.1800 B( 56-C , 61-C ) :   1.1495
B( 57-C , 58-N ) :   1.7559 B( 57-C , 59-C ) :   1.1469 B( 59-C , 60-N ) :   3.0472
B( 61-C , 62-N ) :   3.0519 B( 63-C , 64-C ) :   1.1786 B( 63-C , 80-H ) :   1.0633
B( 64-C , 65-C ) :   1.1050 B( 64-C , 68-N ) :   1.4475 B( 65-C , 66-N ) :   1.4901
B( 66-N , 67-S ) :   1.3018 B( 66-N , 68-N ) :   0.1597 B( 67-S , 68-N ) :   1.3177

-----------------------------------------------------------------------------
         ABSORPTION SPECTRUM VIA TRANSITION ELECTRIC DIPOLE MOMENTS
-----------------------------------------------------------------------------
State   Energy  Wavelength   fosc         T2         TX        TY        TZ
        (cm-1)    (nm)                  (au**2)     (au)      (au)      (au)
-----------------------------------------------------------------------------
   0   10931.6    914.8   0.198628972   5.98183  -0.48752   2.36063   0.41422
   1   11755.3    850.7   0.067636256   1.89419  -0.19061   1.10618   0.79638
   2   13437.7    744.2   0.397691070   9.74309   0.48208  -2.71448  -1.46365
   3   14216.6    703.4   0.342656298   7.93484   0.59557  -2.74603  -0.19867
   4   14692.2    680.6   0.040143475   0.89951  -0.00723   0.94782   0.03308
   5   16338.8    612.0   0.030464601   0.61384   0.16053  -0.58019   0.50144
   6   17139.3    583.5   0.073573145   1.41319  -0.07413   0.44674   1.09914
   7   17374.4    575.6   0.013145337   0.24908  -0.02158   0.04131   0.49690
   8   18692.7    535.0   0.253391538   4.46267   0.69931  -1.57464  -1.22235
   9   19170.5    521.6   0.152646227   2.62137  -0.51844   1.06824  -1.10066
  10   19697.9    507.7   0.105758891   1.76755  -0.34990  -0.40284   1.21772
  11   20525.8    487.2   0.055083872   0.88349   0.10238  -0.16587   0.91951
  12   20688.4    483.4   0.021585688   0.34349   0.02704   0.03123   0.58462
  13   21311.7    469.2   0.078235041   1.20853  -0.26951   0.37458   0.99779
  14   21564.7    463.7   0.021037573   0.32117  -0.15479   0.54001   0.07482
  15   21803.3    458.6   0.025994934   0.39250  -0.11662   0.42589   0.44443
  16   21924.2    456.1   0.045796843   0.68768   0.09391  -0.40767  -0.71601
  17   22035.9    453.8   0.018387311   0.27470  -0.01261   0.06607  -0.51979
  18   23350.4    428.3   0.027541636   0.38830   0.24571  -0.52809   0.22147
  19   23854.0    419.2   0.016203765   0.22363   0.19629  -0.35041   0.24963
  20   24454.0    408.9   0.082920286   1.11631   0.00695   0.25627  -1.02499
  21   24958.2    400.7   0.006421652   0.08470   0.14870  -0.15544   0.19604
  22   25238.5    396.2   0.022673865   0.29576   0.00003   0.50969  -0.18968
  23   25349.4    394.5   0.005520296   0.07169  -0.08230  -0.04515  -0.25076
  24   25545.4    391.5   0.031074365   0.40047   0.03600   0.61541  -0.14297
  25   25913.3    385.9   0.003096091   0.03933   0.08105  -0.12768   0.12831
  26   26166.4    382.2   0.059060350   0.74307   0.11794   0.06199  -0.85165
  27   26525.7    377.0   0.037116322   0.46065   0.04695  -0.14740   0.66085
  28   26731.2    374.1   0.007094693   0.08738  -0.01415   0.12740  -0.26635
  29   27122.4    368.7   0.032248984   0.39144   0.14016   0.39656   0.46318
  30   27227.4    367.3   0.013510057   0.16335  -0.22985   0.01402  -0.33215
  31   27430.4    364.6   0.001469015   0.01763   0.03046  -0.12450   0.03469
  32   27581.9    362.6   0.069479130   0.82929  -0.15116   0.54604   0.71294
  33   27898.2    358.4   0.065504796   0.77299   0.27592  -0.63962   0.53641
  34   28502.7    350.8   0.004496901   0.05194   0.16117  -0.13962   0.08043
  35   28738.6    348.0   0.068808827   0.78823  -0.24769   0.13863  -0.84123
  36   29169.2    342.8   0.027543294   0.31086  -0.14573   0.12228  -0.52409
  37   29483.2    339.2   0.221991287   2.47877  -0.84075   0.95948   0.92267
  38   29724.2    336.4   0.173851161   1.92550  -1.07419   0.60576  -0.63613
  39   29804.2    335.5   0.126248086   1.39451  -0.83862   0.59609   0.57957
  40   30007.5    333.2   0.036217315   0.39734  -0.24904   0.56636  -0.12066
  41   30367.2    329.3   0.003782805   0.04101   0.02381   0.15491   0.12824
  42   30611.3    326.7   0.054047817   0.58126  -0.19265   0.42986   0.59947
  43   30679.0    326.0   0.005134508   0.05510  -0.07604  -0.15650  -0.15756
  44   30849.6    324.2   0.025089938   0.26775  -0.07986   0.43031   0.27606
  45   30976.4    322.8   0.153279972   1.62903   0.35103  -1.22288   0.10186
  46   31178.4    320.7   0.033390792   0.35257  -0.08759   0.56947   0.14356
  47   31557.8    316.9   0.011127007   0.11608  -0.20172  -0.10744  -0.25267
  48   31677.5    315.7   0.011952848   0.12422   0.00946  -0.33334   0.11409
  49   31718.2    315.3   0.046926466   0.48706   0.18373  -0.46387  -0.48798
  50   31939.6    313.1   0.026724559   0.27546   0.09269  -0.39624   0.33146
  51   32010.2    312.4   0.003026241   0.03112   0.14381  -0.09196  -0.04457
  52   32243.5    310.1   0.000188898   0.00193   0.03969   0.01843  -0.00376
  53   32409.3    308.6   0.012986363   0.13191   0.13315  -0.32637  -0.08758
  54   32597.1    306.8   0.099451283   1.00440   0.08944  -0.25099   0.96613
  55   32660.3    306.2   0.020824569   0.20991  -0.07649   0.09580   0.44145
  56   32932.7    303.7   0.039927436   0.39914  -0.36139   0.50802  -0.10221
  57   33069.9    302.4   0.025808263   0.25692  -0.07043  -0.00767   0.50190
  58   33318.5    300.1   0.010394991   0.10271   0.05540  -0.31145   0.05139
  59   33516.0    298.4   0.035897666   0.35261  -0.10499   0.20737   0.54642
  60   33793.2    295.9   0.043921388   0.42788   0.00838   0.34520  -0.55556
  61   33837.3    295.5   0.012411234   0.12075  -0.13002  -0.11463   0.30118
  62   34004.1    294.1   0.013382555   0.12956  -0.09119   0.31827   0.14126
  63   34076.6    293.5   0.004592289   0.04437   0.12056   0.07048   0.15768
  64   34351.1    291.1   0.020715690   0.19853  -0.18687  -0.29558   0.27612
  65   34391.6    290.8   0.006609236   0.06327  -0.00283   0.25018   0.02589
  66   34815.8    287.2   0.033332676   0.31519   0.10436   0.05030  -0.54933
  67   34859.9    286.9   0.056975349   0.53807   0.52705  -0.32530   0.39302
  68   34993.9    285.8   0.178815341   1.68224   0.82719  -0.86632  -0.49749
  69   35264.4    283.6   0.060676110   0.56644  -0.73252   0.09160   0.14651
  70   35722.7    279.9   0.243488697   2.24393  -0.91363   0.79558  -0.88106
  71   35816.4    279.2   0.015515725   0.14262   0.12317  -0.35579  -0.02930
  72   35895.6    278.6   0.029770038   0.27303   0.21718  -0.14194  -0.45356
  73   35925.0    278.4   0.040121546   0.36767   0.26955  -0.30342  -0.45049
  74   36158.4    276.6   0.044948501   0.40924  -0.25850   0.21069  -0.54592
  75   36308.0    275.4   0.019079319   0.17300  -0.21627   0.31927   0.15585
  76   36443.8    274.4   0.046067794   0.41615  -0.09994   0.55748  -0.30883
  77   36519.6    273.8   0.004389720   0.03957  -0.00465   0.02584   0.19719
  78   36717.9    272.3   0.026623544   0.23871  -0.27082   0.39349   0.10259
  79   36769.5    272.0   0.134137054   1.20098  -0.47517   0.93053   0.33060
  80   37086.1    269.6   0.285179816   2.53153   0.48158  -0.98192  -1.15562
  81   37322.2    267.9   0.261799481   2.30928  -0.70206  -0.09194   1.34460
  82   37650.2    265.6   0.486824220   4.25677  -0.95882   1.82538  -0.07378
  83   37790.7    264.6   0.428816355   3.73562   0.94080  -0.71354   1.53015
  84   38038.4    262.9   0.298192396   2.58077  -1.54508   0.36899  -0.23947
  85   38195.3    261.8   0.094928883   0.81821  -0.71313   0.39305   0.39392
  86   38417.8    260.3   0.307150003   2.63205   0.98664  -0.40678   1.22193
  87   38485.3    259.8   0.027745075   0.23734  -0.08221  -0.34614   0.33281
  88   38543.6    259.4   0.308770368   2.63730  -1.36956   0.72295   0.48883
  89   38652.5    258.7   0.067694596   0.57657  -0.31818  -0.41584   0.54992
  90   38741.0    258.1   0.067989131   0.57776   0.32799   0.19115  -0.65851
  91   39414.5    253.7   0.000828725   0.00692  -0.07360  -0.00670   0.03820
  92   39625.8    252.4   0.006745905   0.05605  -0.23142  -0.03479   0.03575
  93   39724.6    251.7   0.011916443   0.09876  -0.08645   0.28111  -0.11071
  94   39816.0    251.2   0.024521126   0.20275   0.20786  -0.11440   0.38270
  95   39923.7    250.5   0.046141264   0.38048  -0.34332   0.31192   0.40660
  96   40126.5    249.2   0.004988095   0.04092  -0.06196   0.18752   0.04384
  97   40186.7    248.8   0.047290262   0.38740  -0.04699   0.62035   0.01895
  98   40219.1    248.6   0.024433399   0.20000  -0.28899   0.05424   0.33696
  99   40294.0    248.2   0.080963629   0.66149  -0.17605  -0.01710   0.79386

FINAL SINGLE POINT ENERGY     -4450.207991573322

DIPOLE MOMENT
-------------
                                X             Y             Z
Electronic contribution:      3.90277      -8.69657      13.28334
Nuclear contribution   :     -3.74649       7.59769     -17.46279
                        -----------------------------------------
Total Dipole Moment    :      0.15628      -1.09887      -4.17945
                        -----------------------------------------
Magnitude (a.u.)       :      4.32432
Magnitude (Debye)      :     10.99155

Rotational constants in cm-1:     0.001682     0.000305     0.000272
Rotational constants in MHz :    50.423668     9.147623     8.141469

                             ****ORCA TERMINATED NORMALLY****
TOTAL RUN TIME: 0 days 0 hours 8 minutes 47 seconds 447 msec
