                         Program Version 4.2.0 -  RELEASE  -
|  1> # ORCA input file
|  2> # SCF done       -156.706531807518          0.000397865985
|  3> ! CAM-B3LYP def2-SVP def2/J RIJCOSX Grid4 TightSCF
|  4> %maxcore 5000
|  5> %tddft
|  6>     Mode sTDDFT
|  7>     Ethresh 5.0
|  8>     maxcore 5000
|  9> end
| 10>
| 11> %pal
| 12>   nprocs 6
| 13>   end
| 14> * xyz 0 1
| 15>    C        5.43410        -4.25102        -1.38048
| 16>    C        4.65936        -3.32837        -0.68212
| 17>    C        3.22983        -3.48412        -0.55253
| 18>    N        2.51504        -2.58223         0.14441
| 19>    C        3.13420        -1.56735         0.68725
| 20>    C        4.56061        -1.40831         0.55387
| 21>    N        5.27643        -2.27052        -0.11213
| 22>    C        5.19570        -0.29233         1.15989
| 23>    N        5.66964         0.62067         1.66227
| 24>    C        2.38575        -0.60911         1.41714
| 25>    N        1.81318         0.18491         2.01121
| 26>    C        2.56146        -4.59559        -1.10776
| 27>    C        3.35150        -5.50807        -1.82393
| 28>    C        4.78416        -5.33071        -1.96028
| 29>    N        5.33053        -6.30715        -2.69976
| 30>    S        4.17802        -7.30392        -3.17406
| 31>    N        2.92360        -6.58855        -2.48617
| 32>    C        1.14851        -4.78878        -0.95435
| 33>    C        0.12613        -3.73109        -0.97021
| 34>    N       -1.09172        -4.17009        -0.87132
| 35>    C       -0.99020        -5.52360        -0.75517
| 36>    C        0.42406        -5.94631        -0.81923
| 37>    C        0.51647        -7.36907        -0.59555
| 38>    S        1.89820        -8.23665        -0.38162
| 39>    C       -0.84829        -7.80837        -0.47108
| 40>    C       -1.75069        -6.64332        -0.56863
| 41>    N       -3.05347        -7.02114        -0.41344
| 42>    C       -3.02264        -8.30099        -0.21628
| 43>    C       -1.67291        -8.88908        -0.22430
| 44>    C       -1.41077       -10.26059        -0.00992
| 45>    C       -0.19177       -10.92642        -0.03623
| 46>    C       -0.29634       -12.27890         0.23947
| 47>    C       -1.59930       -12.69473         0.48302
| 48>    S       -2.70889       -11.35971         0.35834
| 49>    C       -2.06735       -13.98719         0.80886
| 50>    C       -3.48199       -14.30724         1.06337
| 51>    N       -3.70842       -15.54739         1.36052
| 52>    C       -2.48747       -16.15829         1.33615
| 53>    C       -1.42231       -15.19490         0.99231
| 54>    C       -0.15667       -15.87827         0.94439
| 55>    S        1.29531       -15.31169         0.41681
| 56>    C       -0.45768       -17.23526         1.33270
| 57>    C       -1.91550       -17.38501         1.52199
| 58>    N       -2.23114       -18.67791         1.81265
| 59>    C       -1.10805       -19.32865         1.79618
| 60>    C        0.06789       -18.49039         1.51230
| 61>    C        1.43218       -18.93257         1.50193
| 62>    C        1.80308       -20.20983         1.02987
| 63>    C        3.18669       -20.62050         0.98807
| 64>    N        3.51451       -21.83755         0.50227
| 65>    C        2.56468       -22.62178         0.07551
| 66>    C        1.18396       -22.21025         0.11481
| 67>    N        0.84304       -21.03631         0.57712
| 68>    C        0.17454       -23.09099        -0.35042
| 69>    N       -0.61407       -23.82956        -0.72987
| 70>    C        2.89416       -23.90398        -0.43769
| 71>    N        3.11784       -24.94511        -0.85779
| 72>    C        4.20974       -19.78786         1.43435
| 73>    C        3.85541       -18.54410         1.93599
| 74>    C        2.47133       -18.11298         1.97009
| 75>    N        2.34643       -16.90305         2.52641
| 76>    S        3.79833       -16.36703         2.93167
| 77>    N        4.67203       -17.61278         2.45006
| 78>    H        6.49945        -4.11662        -1.46105
| 79>    H        0.33056        -2.68157        -1.07805
| 80>    H       -3.93001        -8.86074        -0.06591
| 81>    H        0.73386       -10.42058        -0.24568
| 82>    H        0.53673       -12.95869         0.26388
| 83>    H       -4.28604       -13.59271         1.01647
| 84>    H       -1.07502       -20.38316         2.00035
| 85>    H        5.23509       -20.11367         1.38971
| 86> *
| 87>
| 88>                          ****END OF INPUT****

CARTESIAN COORDINATES (ANGSTROEM)
---------------------------------
  C      5.434100   -4.251020   -1.380480
  C      4.659360   -3.328370   -0.682120
  C      3.229830   -3.484120   -0.552530
  N      2.515040   -2.582230    0.144410
  C      3.134200   -1.567350    0.687250
  C      4.560610   -1.408310    0.553870
  N      5.276430   -2.270520   -0.112130
  C      5.195700   -0.292330    1.159890
  N      5.669640    0.620670    1.662270
  C      2.385750   -0.609110    1.417140
  N      1.813180    0.184910    2.011210
  C      2.561460   -4.595590   -1.107760
  C      3.351500   -5.508070   -1.823930
  C      4.784160   -5.330710   -1.960280
  N      5.330530   -6.307150   -2.699760
  S      4.178020   -7.303920   -3.174060
  N      2.923600   -6.588550   -2.486170
  C      1.148510   -4.788780   -0.954350
  C      0.126130   -3.731090   -0.970210
  N     -1.091720   -4.170090   -0.871320
  C     -0.990200   -5.523600   -0.755170
  C      0.424060   -5.946310   -0.819230
  C      0.516470   -7.369070   -0.595550
  S      1.898200   -8.236650   -0.381620
  C     -0.848290   -7.808370   -0.471080
  C     -1.750690   -6.643320   -0.568630
  N     -3.053470   -7.021140   -0.413440
  C     -3.022640   -8.300990   -0.216280
  C     -1.672910   -8.889080   -0.224300
  C     -1.410770  -10.260590   -0.009920
  C     -0.191770  -10.926420   -0.036230
  C     -0.296340  -12.278900    0.239470
  C     -1.599300  -12.694730    0.483020
  S     -2.708890  -11.359710    0.358340
  C     -2.067350  -13.987190    0.808860
  C     -3.481990  -14.307240    1.063370
  N     -3.708420  -15.547390    1.360520
  C     -2.487470  -16.158290    1.336150
  C     -1.422310  -15.194900    0.992310
  C     -0.156670  -15.878270    0.944390
  S      1.295310  -15.311690    0.416810
  C     -0.457680  -17.235260    1.332700
  C     -1.915500  -17.385010    1.521990
  N     -2.231140  -18.677910    1.812650
  C     -1.108050  -19.328650    1.796180
  C      0.067890  -18.490390    1.512300
  C      1.432180  -18.932570    1.501930
  C      1.803080  -20.209830    1.029870
  C      3.186690  -20.620500    0.988070
  N      3.514510  -21.837550    0.502270
  C      2.564680  -22.621780    0.075510
  C      1.183960  -22.210250    0.114810
  N      0.843040  -21.036310    0.577120
  C      0.174540  -23.090990   -0.350420
  N     -0.614070  -23.829560   -0.729870
  C      2.894160  -23.903980   -0.437690
  N      3.117840  -24.945110   -0.857790
  C      4.209740  -19.787860    1.434350
  C      3.855410  -18.544100    1.935990
  C      2.471330  -18.112980    1.970090
  N      2.346430  -16.903050    2.526410
  S      3.798330  -16.367030    2.931670
  N      4.672030  -17.612780    2.450060
  H      6.499450   -4.116620   -1.461050
  H      0.330560   -2.681570   -1.078050
  H     -3.930010   -8.860740   -0.065910
  H      0.733860  -10.420580   -0.245680
  H      0.536730  -12.958690    0.263880
  H     -4.286040  -13.592710    1.016470
  H     -1.075020  -20.383160    2.000350
  H      5.235090  -20.113670    1.389710

 Total Charge           Charge          ....    0
 Multiplicity           Mult            ....    1
 Number of Electrons    NEL             ....  452
 Basis Dimension        Dim             ....  942

ORBITAL ENERGIES
----------------

  NO   OCC          E(Eh)            E(eV)
   0   2.0000     -89.060280     -2423.4534
   1   2.0000     -89.060161     -2423.4502
   2   2.0000     -88.982167     -2421.3279
   3   2.0000     -88.914358     -2419.4827
   4   2.0000     -88.913940     -2419.4713
   5   2.0000     -14.477681      -393.9577
   6   2.0000     -14.477535      -393.9537
   7   2.0000     -14.474257      -393.8646
   8   2.0000     -14.474218      -393.8635
   9   2.0000     -14.464240      -393.5920
  10   2.0000     -14.464119      -393.5887
  11   2.0000     -14.462652      -393.5488
  12   2.0000     -14.462636      -393.5483
  13   2.0000     -14.440204      -392.9379
  14   2.0000     -14.440087      -392.9347
  15   2.0000     -14.438510      -392.8918
  16   2.0000     -14.438467      -392.8907
  17   2.0000     -14.429852      -392.6562
  18   2.0000     -14.429645      -392.6506
  19   2.0000     -14.422375      -392.4528
  20   2.0000     -14.422293      -392.4506
  21   2.0000     -10.396208      -282.8952
  22   2.0000     -10.396144      -282.8935
  23   2.0000     -10.394403      -282.8461
  24   2.0000     -10.394357      -282.8448
  25   2.0000     -10.364402      -282.0297
  26   2.0000     -10.364255      -282.0257
  27   2.0000     -10.361153      -281.9413
  28   2.0000     -10.361140      -281.9410
  29   2.0000     -10.354395      -281.7574
  30   2.0000     -10.354318      -281.7553
  31   2.0000     -10.354306      -281.7550
  32   2.0000     -10.354291      -281.7546
  33   2.0000     -10.353868      -281.7431
  34   2.0000     -10.353755      -281.7400
  35   2.0000     -10.349371      -281.6207
  36   2.0000     -10.349288      -281.6185
  37   2.0000     -10.343447      -281.4595
  38   2.0000     -10.343289      -281.4552
  39   2.0000     -10.342468      -281.4329
  40   2.0000     -10.342170      -281.4247
  41   2.0000     -10.339948      -281.3643
  42   2.0000     -10.339837      -281.3613
  43   2.0000     -10.337031      -281.2849
  44   2.0000     -10.336847      -281.2799
  45   2.0000     -10.332702      -281.1671
  46   2.0000     -10.332614      -281.1647
  47   2.0000     -10.331254      -281.1277
  48   2.0000     -10.331205      -281.1264
  49   2.0000     -10.330301      -281.1018
  50   2.0000     -10.330167      -281.0981
  51   2.0000     -10.325270      -280.9649
  52   2.0000     -10.325105      -280.9604
  53   2.0000     -10.322499      -280.8895
  54   2.0000     -10.322469      -280.8887
  55   2.0000     -10.322412      -280.8871
  56   2.0000     -10.322289      -280.8838
  57   2.0000     -10.313552      -280.6460
  58   2.0000     -10.313439      -280.6430
  59   2.0000     -10.309029      -280.5229
  60   2.0000     -10.308997      -280.5221
  61   2.0000     -10.289777      -279.9991
  62   2.0000     -10.289377      -279.9882
  63   2.0000      -8.151295      -221.8080
  64   2.0000      -8.151253      -221.8069
  65   2.0000      -8.077613      -219.8030
  66   2.0000      -8.009767      -217.9568
  67   2.0000      -8.009520      -217.9501
  68   2.0000      -6.122060      -166.5897
  69   2.0000      -6.122022      -166.5887
  70   2.0000      -6.114758      -166.3910
  71   2.0000      -6.114697      -166.3894
  72   2.0000      -6.114284      -166.3781
  73   2.0000      -6.114226      -166.3765
  74   2.0000      -6.046810      -164.5421
  75   2.0000      -6.042772      -164.4322
  76   2.0000      -6.039866      -164.3531
  77   2.0000      -5.978499      -162.6832
  78   2.0000      -5.978306      -162.6780
  79   2.0000      -5.978259      -162.6767
  80   2.0000      -5.978034      -162.6706
  81   2.0000      -5.969180      -162.4296
  82   2.0000      -5.968873      -162.4213
  83   2.0000      -1.153974       -31.4012
  84   2.0000      -1.153961       -31.4009
  85   2.0000      -1.133720       -30.8501
  86   2.0000      -1.133692       -30.8493
  87   2.0000      -1.096313       -29.8322
  88   2.0000      -1.096108       -29.8266
  89   2.0000      -1.076995       -29.3065
  90   2.0000      -1.076786       -29.3008
  91   2.0000      -1.060372       -28.8542
  92   2.0000      -1.060344       -28.8534
  93   2.0000      -1.023909       -27.8620
  94   2.0000      -1.023890       -27.8615
  95   2.0000      -1.013319       -27.5738
  96   2.0000      -1.013299       -27.5733
  97   2.0000      -1.007215       -27.4077
  98   2.0000      -1.006272       -27.3820
  99   2.0000      -1.006191       -27.3799
 100   2.0000      -0.989761       -26.9328
 101   2.0000      -0.989754       -26.9326
 102   2.0000      -0.975213       -26.5369
 103   2.0000      -0.974879       -26.5278
 104   2.0000      -0.921037       -25.0627
 105   2.0000      -0.920207       -25.0401
 106   2.0000      -0.919687       -25.0260
 107   2.0000      -0.914448       -24.8834
 108   2.0000      -0.914442       -24.8832
 109   2.0000      -0.887285       -24.1443
 110   2.0000      -0.871871       -23.7248
 111   2.0000      -0.871005       -23.7012
 112   2.0000      -0.858976       -23.3739
 113   2.0000      -0.857401       -23.3311
 114   2.0000      -0.849485       -23.1157
 115   2.0000      -0.844085       -22.9687
 116   2.0000      -0.842883       -22.9360
 117   2.0000      -0.818697       -22.2779
 118   2.0000      -0.807791       -21.9811
 119   2.0000      -0.807767       -21.9805
 120   2.0000      -0.791521       -21.5384
 121   2.0000      -0.788279       -21.4502
 122   2.0000      -0.764881       -20.8135
 123   2.0000      -0.759075       -20.6555
 124   2.0000      -0.752356       -20.4726
 125   2.0000      -0.747027       -20.3276
 126   2.0000      -0.729920       -19.8621
 127   2.0000      -0.729048       -19.8384
 128   2.0000      -0.718727       -19.5576
 129   2.0000      -0.717939       -19.5361
 130   2.0000      -0.709123       -19.2962
 131   2.0000      -0.707053       -19.2399
 132   2.0000      -0.703949       -19.1554
 133   2.0000      -0.694040       -18.8858
 134   2.0000      -0.693163       -18.8619
 135   2.0000      -0.682019       -18.5587
 136   2.0000      -0.666350       -18.1323
 137   2.0000      -0.664156       -18.0726
 138   2.0000      -0.657307       -17.8862
 139   2.0000      -0.650350       -17.6969
 140   2.0000      -0.644498       -17.5377
 141   2.0000      -0.641675       -17.4609
 142   2.0000      -0.630253       -17.1501
 143   2.0000      -0.619501       -16.8575
 144   2.0000      -0.617905       -16.8140
 145   2.0000      -0.613195       -16.6859
 146   2.0000      -0.612810       -16.6754
 147   2.0000      -0.601903       -16.3786
 148   2.0000      -0.594200       -16.1690
 149   2.0000      -0.591486       -16.0952
 150   2.0000      -0.582265       -15.8442
 151   2.0000      -0.580299       -15.7907
 152   2.0000      -0.578696       -15.7471
 153   2.0000      -0.574966       -15.6456
 154   2.0000      -0.567997       -15.4560
 155   2.0000      -0.567548       -15.4438
 156   2.0000      -0.560740       -15.2585
 157   2.0000      -0.557091       -15.1592
 158   2.0000      -0.555678       -15.1208
 159   2.0000      -0.550347       -14.9757
 160   2.0000      -0.549230       -14.9453
 161   2.0000      -0.543705       -14.7950
 162   2.0000      -0.540734       -14.7141
 163   2.0000      -0.536328       -14.5942
 164   2.0000      -0.523959       -14.2576
 165   2.0000      -0.515172       -14.0185
 166   2.0000      -0.510992       -13.9048
 167   2.0000      -0.509294       -13.8586
 168   2.0000      -0.506270       -13.7763
 169   2.0000      -0.504218       -13.7205
 170   2.0000      -0.501721       -13.6525
 171   2.0000      -0.495979       -13.4963
 172   2.0000      -0.494887       -13.4666
 173   2.0000      -0.494316       -13.4510
 174   2.0000      -0.493530       -13.4296
 175   2.0000      -0.492808       -13.4100
 176   2.0000      -0.491623       -13.3777
 177   2.0000      -0.489443       -13.3184
 178   2.0000      -0.486525       -13.2390
 179   2.0000      -0.478617       -13.0238
 180   2.0000      -0.468355       -12.7446
 181   2.0000      -0.464403       -12.6370
 182   2.0000      -0.464360       -12.6359
 183   2.0000      -0.462109       -12.5746
 184   2.0000      -0.462105       -12.5745
 185   2.0000      -0.460240       -12.5238
 186   2.0000      -0.456884       -12.4325
 187   2.0000      -0.453849       -12.3499
 188   2.0000      -0.453829       -12.3493
 189   2.0000      -0.450797       -12.2668
 190   2.0000      -0.449755       -12.2384
 191   2.0000      -0.448986       -12.2175
 192   2.0000      -0.448636       -12.2080
 193   2.0000      -0.442896       -12.0518
 194   2.0000      -0.441422       -12.0117
 195   2.0000      -0.439615       -11.9625
 196   2.0000      -0.429499       -11.6873
 197   2.0000      -0.429180       -11.6786
 198   2.0000      -0.427015       -11.6197
 199   2.0000      -0.426944       -11.6177
 200   2.0000      -0.424110       -11.5406
 201   2.0000      -0.424010       -11.5379
 202   2.0000      -0.422114       -11.4863
 203   2.0000      -0.421669       -11.4742
 204   2.0000      -0.402519       -10.9531
 205   2.0000      -0.394806       -10.7432
 206   2.0000      -0.393475       -10.7070
 207   2.0000      -0.375814       -10.2264
 208   2.0000      -0.375317       -10.2129
 209   2.0000      -0.368998       -10.0409
 210   2.0000      -0.367402        -9.9975
 211   2.0000      -0.365280        -9.9398
 212   2.0000      -0.364995        -9.9320
 213   2.0000      -0.360151        -9.8002
 214   2.0000      -0.359890        -9.7931
 215   2.0000      -0.357863        -9.7379
 216   2.0000      -0.357711        -9.7338
 217   2.0000      -0.346623        -9.4321
 218   2.0000      -0.344442        -9.3727
 219   2.0000      -0.325605        -8.8602
 220   2.0000      -0.323288        -8.7971
 221   2.0000      -0.306526        -8.3410
 222   2.0000      -0.305142        -8.3033
 223   2.0000      -0.293358        -7.9827
 224   2.0000      -0.292484        -7.9589
 225   2.0000      -0.273920        -7.4537
 226   0.0000      -0.136621        -3.7176
 227   0.0000      -0.135390        -3.6841
 228   0.0000      -0.123365        -3.3569
 229   0.0000      -0.108987        -2.9657
 230   0.0000      -0.092473        -2.5163

MULLIKEN ATOMIC CHARGES
-----------------------
   0 C :   -0.071235
   1 C :    0.002186
   2 C :   -0.049507
   3 N :    0.053617
   4 C :   -0.129741
   5 C :   -0.151185
   6 N :    0.060932
   7 C :   -0.198037
   8 N :    0.242861
   9 C :   -0.203428
  10 N :    0.246165
  11 C :    0.137714
  12 C :   -0.029764
  13 C :    0.111895
  14 N :   -0.268523
  15 S :    0.563884
  16 N :   -0.250571
  17 C :   -0.099587
  18 C :    0.089366
  19 N :   -0.018777
  20 C :   -0.001135
  21 C :    0.018446
  22 C :   -0.000429
  23 S :   -0.121890
  24 C :   -0.037599
  25 C :    0.012447
  26 N :   -0.015197
  27 C :    0.049018
  28 C :    0.060594
  29 C :   -0.086191
  30 C :    0.034914
  31 C :    0.035630
  32 C :   -0.086420
  33 S :    0.105575
  34 C :    0.064599
  35 C :    0.043988
  36 N :   -0.012509
  37 C :    0.018333
  38 C :   -0.037858
  39 C :   -0.003946
  40 S :   -0.119994
  41 C :    0.017538
  42 C :   -0.009078
  43 N :   -0.018223
  44 C :    0.087248
  45 C :   -0.092496
  46 C :    0.141479
  47 C :   -0.049606
  48 C :    0.007127
  49 N :    0.058333
  50 C :   -0.148576
  51 C :   -0.128239
  52 N :    0.047765
  53 C :   -0.202269
  54 N :    0.244080
  55 C :   -0.197857
  56 N :    0.243497
  57 C :   -0.076006
  58 C :    0.116057
  59 C :   -0.032481
  60 N :   -0.251930
  61 S :    0.563899
  62 N :   -0.267824
  63 H :   -0.009074
  64 H :    0.010547
  65 H :    0.018964
  66 H :   -0.026346
  67 H :   -0.026171
  68 H :    0.020402
  69 H :    0.010663
  70 H :   -0.010062
Sum of atomic charges:   -0.0000000

LOEWDIN ATOMIC CHARGES
----------------------
   0 C :    0.012517
   1 C :   -0.012248
   2 C :   -0.005079
   3 N :    0.002701
   4 C :   -0.023221
   5 C :   -0.025977
   6 N :    0.005707
   7 C :   -0.036383
   8 N :    0.003241
   9 C :   -0.038633
  10 N :    0.005331
  11 C :   -0.010718
  12 C :   -0.041499
  13 C :   -0.046332
  14 N :   -0.286554
  15 S :    0.709160
  16 N :   -0.273964
  17 C :   -0.033715
  18 C :    0.097035
  19 N :   -0.078633
  20 C :    0.035651
  21 C :   -0.010480
  22 C :   -0.136624
  23 S :    0.080521
  24 C :   -0.039812
  25 C :    0.042353
  26 N :   -0.068877
  27 C :    0.082045
  28 C :   -0.048732
  29 C :   -0.164043
  30 C :   -0.026378
  31 C :   -0.026793
  32 C :   -0.163653
  33 S :    0.437717
  34 C :   -0.049274
  35 C :    0.081631
  36 N :   -0.068964
  37 C :    0.042399
  38 C :   -0.039012
  39 C :   -0.137036
  40 S :    0.082100
  41 C :   -0.010283
  42 C :    0.035485
  43 N :   -0.078661
  44 C :    0.096939
  45 C :   -0.033736
  46 C :   -0.010574
  47 C :   -0.004639
  48 C :   -0.012044
  49 N :    0.005449
  50 C :   -0.025730
  51 C :   -0.022977
  52 N :    0.002386
  53 C :   -0.038570
  54 N :    0.005324
  55 C :   -0.036365
  56 N :    0.003330
  57 C :    0.012842
  58 C :   -0.046316
  59 C :   -0.041373
  60 N :   -0.274218
  61 S :    0.708800
  62 N :   -0.286252
  63 H :    0.051774
  64 H :    0.025507
  65 H :    0.023010
  66 H :    0.011659
  67 H :    0.011625
  68 H :    0.023176
  69 H :    0.025293
  70 H :    0.051664

  Mayer bond orders larger than 0.100000
B(  0-C ,  1-C ) :   1.2890 B(  0-C , 11-C ) :   0.1422 B(  0-C , 13-C ) :   1.1826
B(  0-C , 63-H ) :   1.0627 B(  1-C ,  2-C ) :   1.1300 B(  1-C ,  6-N ) :   1.3424
B(  2-C ,  3-N ) :   1.4252 B(  2-C , 11-C ) :   1.3145 B(  3-N ,  4-C ) :   1.7558
B(  4-C ,  5-C ) :   1.1816 B(  4-C ,  9-C ) :   1.1457 B(  5-C ,  6-N ) :   1.7889
B(  5-C ,  7-C ) :   1.1514 B(  7-C ,  8-N ) :   3.0527 B(  9-C , 10-N ) :   3.0490
B( 11-C , 12-C ) :   1.2829 B( 11-C , 17-C ) :   0.9910 B( 12-C , 13-C ) :   1.1053
B( 12-C , 16-N ) :   1.4876 B( 13-C , 14-N ) :   1.4444 B( 14-N , 15-S ) :   1.3222
B( 14-N , 16-N ) :   0.1586 B( 15-S , 16-N ) :   1.3017 B( 17-C , 18-C ) :   1.0343
B( 17-C , 21-C ) :   1.5932 B( 18-C , 19-N ) :   1.7223 B( 18-C , 64-H ) :   0.9901
B( 19-N , 20-C ) :   1.2735 B( 20-C , 21-C ) :   1.0567 B( 20-C , 25-C ) :   1.5194
B( 21-C , 22-C ) :   1.0268 B( 22-C , 23-S ) :   1.6734 B( 22-C , 24-C ) :   1.0592
B( 23-S , 66-H ) :   0.1070 B( 24-C , 25-C ) :   1.0655 B( 24-C , 28-C ) :   1.5191
B( 25-C , 26-N ) :   1.2572 B( 26-N , 27-C ) :   1.7442 B( 27-C , 28-C ) :   1.0162
B( 27-C , 65-H ) :   0.9833 B( 28-C , 29-C ) :   1.1247 B( 29-C , 30-C ) :   1.4473
B( 29-C , 32-C ) :   0.1015 B( 29-C , 33-S ) :   1.1109 B( 30-C , 31-C ) :   1.2908
B( 30-C , 66-H ) :   0.9719 B( 31-C , 32-C ) :   1.4470 B( 31-C , 67-H ) :   0.9720
B( 32-C , 33-S ) :   1.1126 B( 32-C , 34-C ) :   1.1227 B( 34-C , 35-C ) :   1.0139
B( 34-C , 38-C ) :   1.5203 B( 35-C , 36-N ) :   1.7448 B( 35-C , 68-H ) :   0.9835
B( 36-N , 37-C ) :   1.2556 B( 37-C , 38-C ) :   1.0673 B( 37-C , 42-C ) :   1.5199
B( 38-C , 39-C ) :   1.0579 B( 39-C , 40-S ) :   1.6740 B( 39-C , 41-C ) :   1.0265
B( 40-S , 67-H ) :   0.1080 B( 41-C , 42-C ) :   1.0587 B( 41-C , 45-C ) :   1.5886
B( 42-C , 43-N ) :   1.2723 B( 43-N , 44-C ) :   1.7223 B( 44-C , 45-C ) :   1.0330
B( 44-C , 69-H ) :   0.9892 B( 45-C , 46-C ) :   0.9935 B( 46-C , 47-C ) :   1.3109
B( 46-C , 57-C ) :   0.1421 B( 46-C , 59-C ) :   1.2811 B( 47-C , 48-C ) :   1.1317
B( 47-C , 52-N ) :   1.4232 B( 48-C , 49-N ) :   1.3415 B( 48-C , 57-C ) :   1.2853
B( 49-N , 50-C ) :   1.7876 B( 50-C , 51-C ) :   1.1826 B( 50-C , 55-C ) :   1.1508
B( 51-C , 52-N ) :   1.7542 B( 51-C , 53-C ) :   1.1451 B( 53-C , 54-N ) :   3.0471
B( 55-C , 56-N ) :   3.0528 B( 57-C , 58-C ) :   1.1782 B( 57-C , 70-H ) :   1.0645
B( 58-C , 59-C ) :   1.1074 B( 58-C , 62-N ) :   1.4445 B( 59-C , 60-N ) :   1.4873
B( 60-N , 61-S ) :   1.3004 B( 60-N , 62-N ) :   0.1583 B( 61-S , 62-N ) :   1.3223

-----------------------------------------------------------------------------
         ABSORPTION SPECTRUM VIA TRANSITION ELECTRIC DIPOLE MOMENTS
-----------------------------------------------------------------------------
State   Energy  Wavelength   fosc         T2         TX        TY        TZ
        (cm-1)    (nm)                  (au**2)     (au)      (au)      (au)
-----------------------------------------------------------------------------
   0   13560.9    737.4   0.006084550   0.14771   0.30454   0.23164  -0.03620
   1   13711.0    729.3   0.004878567   0.11714   0.27226  -0.20739   0.00153
   2   14697.2    680.4   0.423311668   9.48201  -0.27552  -3.03199   0.46163
   3   15219.0    657.1   0.030196806   0.65321   0.73574  -0.33220   0.03923
   4   16511.0    605.7   0.012158586   0.24243  -0.18780   0.44723  -0.08454
   5   16576.3    603.3   0.014515620   0.28829   0.18367   0.48791  -0.12841
   6   18242.6    548.2   0.734482248  13.25473  -0.30820  -3.58570   0.55002
   7   19490.8    513.1   0.239134421   4.03913  -1.99381   0.24106   0.07567
   8   19558.8    511.3   0.025382742   0.42724   0.22641   0.61006   0.06169
   9   20286.2    492.9   0.020712333   0.33613   0.57934  -0.02039  -0.00880
  10   20983.2    476.6   0.047674333   0.74798  -0.80165   0.32321  -0.02958
  11   21015.7    475.8   0.035051823   0.54909  -0.59531  -0.42237   0.12764
  12   21362.9    468.1   0.063948125   0.98547   0.08358   0.98230  -0.11650
  13   21649.7    461.9   0.004084176   0.06211  -0.24206   0.05916   0.00341
  14   22395.1    446.5   0.128891552   1.89473   0.17324  -1.35017   0.20435
  15   22505.0    444.3   0.100825511   1.47491  -1.19972  -0.16121   0.09791
  16   23352.5    428.2   0.197623770   2.78600  -0.16777  -1.64918   0.19511
  17   24274.2    412.0   0.001101095   0.01493   0.00366   0.11885  -0.02817
  18   24283.4    411.8   0.000139834   0.00190   0.01114   0.03940  -0.01481
  19   25228.7    396.4   0.000270140   0.00353   0.05811   0.00544  -0.01090
  20   25292.5    395.4   0.009569038   0.12455  -0.00831   0.27745  -0.21796
  21   25669.9    389.6   0.003582358   0.04594  -0.20456   0.05402  -0.03438
  22   25833.7    387.1   0.066147081   0.84294   0.91337   0.01018  -0.09272
  23   25938.2    385.5   0.025823705   0.32776   0.11022  -0.53424   0.17377
  24   26455.9    378.0   0.003683412   0.04584  -0.02167  -0.17159  -0.12619
  25   26555.2    376.6   0.000303646   0.00376   0.01821  -0.05501  -0.02017
  26   27083.5    369.2   0.005175821   0.06291  -0.23591   0.06097  -0.05951
  27   27140.3    368.5   0.025782962   0.31275  -0.04222  -0.40304   0.38539
  28   27765.8    360.2   0.000968835   0.01149   0.00488  -0.09524  -0.04891
  29   27849.2    359.1   0.003724351   0.04403   0.20796   0.00705   0.02701
  30   27916.0    358.2   0.010050156   0.11852  -0.18024   0.28711  -0.06004
  31   27999.4    357.2   0.140682206   1.65412  -0.12088  -1.26416   0.20347
  32   28618.7    349.4   0.002420043   0.02784  -0.07980   0.14641   0.00600
  33   28661.6    348.9   0.034507672   0.39636   0.62870  -0.01055  -0.03132
  34   29356.2    340.6   0.001007670   0.01130   0.02677   0.10285  -0.00227
  35   29378.6    340.4   0.232767641   2.60835  -0.17918  -1.51864  -0.51959
  36   29746.7    336.2   0.001119999   0.01240   0.04122   0.04197  -0.09453
  37   29900.2    334.4   0.311420051   3.42884  -0.20349  -1.58599  -0.93384
  38   29925.1    334.2   0.004686786   0.05156   0.19516  -0.09968   0.05946
  39   30401.9    328.9   0.039772514   0.43068  -0.05547  -0.64950   0.07586
  40   30439.0    328.5   0.058126557   0.62867   0.78981  -0.06829  -0.01412
  41   31171.3    320.8   0.088853093   0.93841  -0.07822  -0.95240   0.15880
  42   31406.8    318.4   0.004411374   0.04624  -0.21112  -0.04069   0.00339
  43   31558.2    316.9   0.086095488   0.89814  -0.06233  -0.94387   0.05794
  44   32125.1    311.3   0.013267742   0.13597  -0.33801  -0.14330  -0.03438
  45   32208.1    310.5   0.025690753   0.26260   0.03681  -0.50960  -0.03937
  46   32408.9    308.6   0.008327786   0.08459   0.28080  -0.06407  -0.04049
  47   32673.2    306.1   0.003686724   0.03715  -0.00479   0.08175   0.17448
  48   32974.4    303.3   0.070751189   0.70637  -0.84007  -0.02553   0.00271
  49   32991.8    303.1   0.041558979   0.41470  -0.13890   0.62416  -0.07635
  50   33141.8    301.7   0.027780585   0.27596  -0.47968  -0.19205   0.09475
  51   33182.6    301.4   0.016612510   0.16482   0.21816  -0.32552   0.10611
  52   33424.8    299.2   0.000310719   0.00306  -0.04417   0.02963  -0.01523
  53   33749.5    296.3   0.007031375   0.06859  -0.08424  -0.23931   0.06498
  54   34083.5    293.4   0.135757741   1.31128   1.13978  -0.10332  -0.03890
  55   34599.8    289.0   0.088690525   0.84388  -0.90908   0.06616   0.11435
  56   34646.1    288.6   0.008693071   0.08260   0.18447   0.14141   0.16905
  57   34760.8    287.7   0.002806436   0.02658   0.08523  -0.13437   0.03550
  58   34790.5    287.4   0.029695471   0.28100  -0.14533   0.50888   0.03027
  59   34948.1    286.1   0.045323146   0.42695   0.11238   0.63849  -0.08151
  60   35141.4    284.6   0.003491644   0.03271   0.16368  -0.07450   0.01917
  61   35238.0    283.8   0.216651236   2.02407  -0.53267  -1.18683  -0.57599
  62   35292.5    283.3   0.148919313   1.38913  -0.46115   0.93004   0.55811
  63   35332.6    283.0   0.089053638   0.82976  -0.16432  -0.84280  -0.30404
  64   35396.8    282.5   0.015294621   0.14225  -0.12652  -0.35388  -0.03175
  65   35843.0    279.0   0.028955088   0.26595   0.50554   0.06066   0.08184
  66   35875.2    278.7   0.068775002   0.63112  -0.00085   0.79352   0.03801
  67   35993.3    277.8   0.010114527   0.09251   0.02588   0.19876   0.22877
  68   36064.9    277.3   0.005640828   0.05149   0.22302   0.03152  -0.02754
  69   36386.6    274.8   0.064961084   0.58774   0.00371  -0.63439  -0.43043
  70   36491.4    274.0   0.054900293   0.49529   0.21385   0.62660   0.23861
  71   36655.6    272.8   0.029595986   0.26581   0.05767   0.26581   0.43798
  72   36839.0    271.5   0.092605930   0.82757  -0.90847   0.04735  -0.00381
  73   37029.8    270.1   0.072537515   0.64489  -0.08801  -0.77816  -0.17782
  74   37314.9    268.0   0.073654691   0.64982  -0.80362  -0.06298   0.00760
  75   37431.7    267.2   0.023834393   0.20962  -0.14173   0.34258   0.26865
  76   37539.0    266.4   0.006168481   0.05410  -0.17300  -0.14966  -0.04205
  77   37842.2    264.3   0.478951712   4.16669   0.19125   1.72674   1.07167
  78   37897.2    263.9   0.068446637   0.59459  -0.76089  -0.06768   0.10515
  79   38087.3    262.6   0.419288900   3.62417  -0.13218  -1.89553  -0.11693
  80   38325.0    260.9   0.253533803   2.17786   0.24951   1.35672   0.52431
  81   38460.4    260.0   0.089477223   0.76590   0.79365  -0.18655  -0.31815
  82   38781.1    257.9   0.732485406   6.21806  -0.35746  -1.87574  -1.60371
  83   38806.6    257.7   0.051233409   0.43463   0.03809  -0.58319  -0.30508
  84   39249.2    254.8   0.118852278   0.99690   0.97956  -0.14967  -0.12233
  85   39442.8    253.5   0.248608627   2.07503   0.03031   1.11983  -0.90558
  86   39687.1    252.0   0.029736016   0.24667  -0.49007  -0.02340   0.07711
  87   39730.6    251.7   0.107440120   0.89026   0.10339   0.90448   0.24797
  88   39854.7    250.9   0.010519376   0.08689  -0.28101   0.05807   0.06749
  89   39999.8    250.0   0.003994708   0.03288   0.12803  -0.10764  -0.07000
  90   40075.4    249.5   0.036364038   0.29872  -0.54299   0.05777  -0.02352
  91   40105.1    249.3   0.005387974   0.04423   0.11634   0.15167  -0.08769
  92   40148.7    249.1   0.011863028   0.09727   0.30730  -0.00306  -0.05319

FINAL SINGLE POINT ENERGY     -4468.252146842288

DIPOLE MOMENT
-------------
                                X             Y             Z
Electronic contribution:      7.47158      -0.61499      -0.42991
Nuclear contribution   :     -5.80217       0.62272       0.01142
                        -----------------------------------------
Total Dipole Moment    :      1.66940       0.00772      -0.41849
                        -----------------------------------------
Magnitude (a.u.)       :      1.72108
Magnitude (Debye)      :      4.37463

Rotational constants in cm-1:     0.002297     0.000355     0.000325
Rotational constants in MHz :    68.870117    10.631848     9.733068

                             ****ORCA TERMINATED NORMALLY****
TOTAL RUN TIME: 0 days 0 hours 8 minutes 48 seconds 313 msec
