                         Program Version 4.2.0 -  RELEASE  -
|  1> # ORCA input file
|  2> # SCF done       -181.686499806080          0.000612206146
|  3> ! CAM-B3LYP def2-SVP def2/J RIJCOSX Grid4 TightSCF
|  4> %maxcore 5000
|  5> %tddft
|  6>     Mode sTDDFT
|  7>     Ethresh 5.0
|  8>     maxcore 5000
|  9> end
| 10>
| 11> %pal
| 12>   nprocs 6
| 13>   end
| 14> * xyz 0 1
| 15>    C       -2.14411        -5.20528        -8.19265
| 16>    C       -2.44810        -6.23166        -7.30538
| 17>    C       -2.05081        -6.16580        -5.91960
| 18>    N       -2.44282        -7.12547        -5.06750
| 19>    C       -3.10814        -8.15733        -5.52342
| 20>    C       -3.41861        -8.26898        -6.92288
| 21>    N       -3.12140        -7.31237        -7.75935
| 22>    C       -4.09757        -9.42515        -7.38711
| 23>    N       -4.64466       -10.37779        -7.71032
| 24>    C       -3.49561        -9.16088        -4.60129
| 25>    N       -3.78267        -9.98688        -3.85997
| 26>    C       -1.29765        -5.08364        -5.41214
| 27>    C       -1.03842        -4.03329        -6.30764
| 28>    C       -1.45608        -4.10541        -7.69490
| 29>    N       -1.08226        -3.01277        -8.37561
| 30>    S       -0.30556        -2.02578        -7.39020
| 31>    N       -0.38073        -2.89836        -6.04940
| 32>    C       -0.88851        -5.06301        -4.04039
| 33>    C       -0.80071        -3.87191        -3.18952
| 34>    N       -0.63919        -4.13520        -1.92698
| 35>    C       -0.57166        -5.49318        -1.83376
| 36>    C       -0.65680        -6.10564        -3.17482
| 37>    C       -0.54192        -7.53844        -3.06889
| 38>    S       -0.20966        -8.57917        -4.29926
| 39>    C       -0.64665        -7.79419        -1.65859
| 40>    C       -0.61031        -6.50961        -0.91976
| 41>    N       -0.79262        -6.72381         0.41325
| 42>    C       -1.03505        -7.99515         0.53455
| 43>    C       -0.99997        -8.74277        -0.72855
| 44>    C       -1.32169       -10.13170        -0.91170
| 45>    C       -2.35750       -10.74066        -0.15839
| 46>    O       -3.00103        -9.95275         0.73557
| 47>    C       -4.08658       -10.48598         1.45850
| 48>    C       -2.66895       -12.06134        -0.40997
| 49>    C       -1.97753       -12.83554        -1.35216
| 50>    C       -0.95014       -12.21404        -2.11618
| 51>    C       -0.65823       -10.87899        -1.88145
| 52>    O       -0.33410       -12.95757        -3.04642
| 53>    C        0.64356       -12.37841        -3.89750
| 54>    C        1.07997       -13.45781        -4.87505
| 55>    C       -2.35732       -14.21085        -1.48530
| 56>    C       -1.62386       -15.20552        -2.04466
| 57>    C       -2.02867       -16.56106        -2.09162
| 58>    C       -3.36057       -17.13421        -1.83862
| 59>    N       -3.41833       -18.42885        -1.92544
| 60>    C       -2.14604       -18.83608        -2.22353
| 61>    C       -1.25560       -17.67243        -2.35899
| 62>    C        0.07657       -18.10866        -2.64321
| 63>    S        1.36688       -17.19783        -3.10919
| 64>    C        0.00983       -19.54887        -2.57339
| 65>    C       -1.39417       -19.96802        -2.38944
| 66>    N       -1.48981       -21.32872        -2.39545
| 67>    C       -0.27931       -21.76899        -2.56281
| 68>    C        0.73687       -20.71181        -2.65197
| 69>    C        2.15181       -20.92418        -2.69009
| 70>    C        3.04442       -20.01346        -2.08327
| 71>    C        4.47341       -20.21066        -2.13279
| 72>    N        5.29962       -19.30699        -1.56040
| 73>    C        4.77812       -18.28561        -0.93694
| 74>    C        3.35455       -18.13795        -0.80964
| 75>    N        2.53520       -18.98035        -1.39015
| 76>    C        2.80760       -17.07052        -0.05634
| 77>    N        2.38274       -16.19410         0.54743
| 78>    C        5.62885       -17.31924        -0.34011
| 79>    N        6.27491       -16.51286         0.15348
| 80>    C        5.03166       -21.31816        -2.76197
| 81>    C        4.16476       -22.24656        -3.32370
| 82>    C        2.72734       -22.06265        -3.28099
| 83>    N        2.08501       -23.06666        -3.88621
| 84>    S        3.16251       -24.11727        -4.43487
| 85>    N        4.49590       -23.38102        -3.95651
| 86>    H       -2.42537        -5.27620        -9.22954
| 87>    H       -0.87192        -2.86083        -3.54768
| 88>    H       -1.20505        -8.43167         1.50184
| 89>    H       -4.44568        -9.67203         2.08610
| 90>    H       -3.77493       -11.32199         2.09221
| 91>    H       -4.88965       -10.80926         0.79004
| 92>    H       -3.45896       -12.54377         0.14362
| 93>    H        0.11966       -10.38916        -2.44213
| 94>    H        1.49940       -12.03464        -3.30233
| 95>    H        0.21557       -11.52203        -4.43317
| 96>    H        1.48779       -14.30955        -4.33663
| 97>    H        1.83992       -13.06300        -5.54259
| 98>    H        0.22974       -13.79353        -5.46254
| 99>    H       -3.30248       -14.46754        -1.02215
|100>    H       -0.63886       -14.99933        -2.43382
|101>    H       -4.24962       -16.57036        -1.61560
|102>    H       -0.06871       -22.82189        -2.61226
|103>    H        6.10064       -21.43812        -2.80946
|104> *
|105>
|106>                          ****END OF INPUT****

CARTESIAN COORDINATES (ANGSTROEM)
---------------------------------
  C     -2.144110   -5.205280   -8.192650
  C     -2.448100   -6.231660   -7.305380
  C     -2.050810   -6.165800   -5.919600
  N     -2.442820   -7.125470   -5.067500
  C     -3.108140   -8.157330   -5.523420
  C     -3.418610   -8.268980   -6.922880
  N     -3.121400   -7.312370   -7.759350
  C     -4.097570   -9.425150   -7.387110
  N     -4.644660  -10.377790   -7.710320
  C     -3.495610   -9.160880   -4.601290
  N     -3.782670   -9.986880   -3.859970
  C     -1.297650   -5.083640   -5.412140
  C     -1.038420   -4.033290   -6.307640
  C     -1.456080   -4.105410   -7.694900
  N     -1.082260   -3.012770   -8.375610
  S     -0.305560   -2.025780   -7.390200
  N     -0.380730   -2.898360   -6.049400
  C     -0.888510   -5.063010   -4.040390
  C     -0.800710   -3.871910   -3.189520
  N     -0.639190   -4.135200   -1.926980
  C     -0.571660   -5.493180   -1.833760
  C     -0.656800   -6.105640   -3.174820
  C     -0.541920   -7.538440   -3.068890
  S     -0.209660   -8.579170   -4.299260
  C     -0.646650   -7.794190   -1.658590
  C     -0.610310   -6.509610   -0.919760
  N     -0.792620   -6.723810    0.413250
  C     -1.035050   -7.995150    0.534550
  C     -0.999970   -8.742770   -0.728550
  C     -1.321690  -10.131700   -0.911700
  C     -2.357500  -10.740660   -0.158390
  O     -3.001030   -9.952750    0.735570
  C     -4.086580  -10.485980    1.458500
  C     -2.668950  -12.061340   -0.409970
  C     -1.977530  -12.835540   -1.352160
  C     -0.950140  -12.214040   -2.116180
  C     -0.658230  -10.878990   -1.881450
  O     -0.334100  -12.957570   -3.046420
  C      0.643560  -12.378410   -3.897500
  C      1.079970  -13.457810   -4.875050
  C     -2.357320  -14.210850   -1.485300
  C     -1.623860  -15.205520   -2.044660
  C     -2.028670  -16.561060   -2.091620
  C     -3.360570  -17.134210   -1.838620
  N     -3.418330  -18.428850   -1.925440
  C     -2.146040  -18.836080   -2.223530
  C     -1.255600  -17.672430   -2.358990
  C      0.076570  -18.108660   -2.643210
  S      1.366880  -17.197830   -3.109190
  C      0.009830  -19.548870   -2.573390
  C     -1.394170  -19.968020   -2.389440
  N     -1.489810  -21.328720   -2.395450
  C     -0.279310  -21.768990   -2.562810
  C      0.736870  -20.711810   -2.651970
  C      2.151810  -20.924180   -2.690090
  C      3.044420  -20.013460   -2.083270
  C      4.473410  -20.210660   -2.132790
  N      5.299620  -19.306990   -1.560400
  C      4.778120  -18.285610   -0.936940
  C      3.354550  -18.137950   -0.809640
  N      2.535200  -18.980350   -1.390150
  C      2.807600  -17.070520   -0.056340
  N      2.382740  -16.194100    0.547430
  C      5.628850  -17.319240   -0.340110
  N      6.274910  -16.512860    0.153480
  C      5.031660  -21.318160   -2.761970
  C      4.164760  -22.246560   -3.323700
  C      2.727340  -22.062650   -3.280990
  N      2.085010  -23.066660   -3.886210
  S      3.162510  -24.117270   -4.434870
  N      4.495900  -23.381020   -3.956510
  H     -2.425370   -5.276200   -9.229540
  H     -0.871920   -2.860830   -3.547680
  H     -1.205050   -8.431670    1.501840
  H     -4.445680   -9.672030    2.086100
  H     -3.774930  -11.321990    2.092210
  H     -4.889650  -10.809260    0.790040
  H     -3.458960  -12.543770    0.143620
  H      0.119660  -10.389160   -2.442130
  H      1.499400  -12.034640   -3.302330
  H      0.215570  -11.522030   -4.433170
  H      1.487790  -14.309550   -4.336630
  H      1.839920  -13.063000   -5.542590
  H      0.229740  -13.793530   -5.462540
  H     -3.302480  -14.467540   -1.022150
  H     -0.638860  -14.999330   -2.433820
  H     -4.249620  -16.570360   -1.615600
  H     -0.068710  -22.821890   -2.612260
  H      6.100640  -21.438120   -2.809460

 Total Charge           Charge          ....    0
 Multiplicity           Mult            ....    1
 Number of Electrons    NEL             ....  504
 Basis Dimension        Dim             .... 1100

ORBITAL ENERGIES
----------------

  NO   OCC          E(Eh)            E(eV)
   0   2.0000     -89.057050     -2423.3655
   1   2.0000     -89.054098     -2423.2852
   2   2.0000     -88.904348     -2419.2103
   3   2.0000     -88.899411     -2419.0759
   4   2.0000     -19.254055      -523.9295
   5   2.0000     -19.241776      -523.5953
   6   2.0000     -14.464090      -393.5879
   7   2.0000     -14.463621      -393.5751
   8   2.0000     -14.463151      -393.5624
   9   2.0000     -14.461328      -393.5127
  10   2.0000     -14.460837      -393.4994
  11   2.0000     -14.460320      -393.4853
  12   2.0000     -14.459653      -393.4672
  13   2.0000     -14.458743      -393.4424
  14   2.0000     -14.432207      -392.7203
  15   2.0000     -14.430245      -392.6669
  16   2.0000     -14.428476      -392.6188
  17   2.0000     -14.425072      -392.5262
  18   2.0000     -14.415194      -392.2574
  19   2.0000     -14.414428      -392.2365
  20   2.0000     -14.413743      -392.2179
  21   2.0000     -14.410233      -392.1224
  22   2.0000     -10.385427      -282.6018
  23   2.0000     -10.382438      -282.5205
  24   2.0000     -10.381272      -282.4888
  25   2.0000     -10.377826      -282.3950
  26   2.0000     -10.352575      -281.7079
  27   2.0000     -10.352032      -281.6931
  28   2.0000     -10.351730      -281.6849
  29   2.0000     -10.350482      -281.6509
  30   2.0000     -10.349789      -281.6321
  31   2.0000     -10.348692      -281.6022
  32   2.0000     -10.348429      -281.5951
  33   2.0000     -10.347421      -281.5676
  34   2.0000     -10.346409      -281.5401
  35   2.0000     -10.337800      -281.3058
  36   2.0000     -10.335616      -281.2464
  37   2.0000     -10.335352      -281.2392
  38   2.0000     -10.334701      -281.2215
  39   2.0000     -10.333910      -281.2000
  40   2.0000     -10.332058      -281.1496
  41   2.0000     -10.331377      -281.1311
  42   2.0000     -10.330387      -281.1041
  43   2.0000     -10.330079      -281.0957
  44   2.0000     -10.329066      -281.0682
  45   2.0000     -10.328820      -281.0615
  46   2.0000     -10.328020      -281.0397
  47   2.0000     -10.326543      -280.9995
  48   2.0000     -10.325335      -280.9666
  49   2.0000     -10.325053      -280.9590
  50   2.0000     -10.324244      -280.9370
  51   2.0000     -10.321411      -280.8599
  52   2.0000     -10.319045      -280.7955
  53   2.0000     -10.315883      -280.7095
  54   2.0000     -10.314552      -280.6732
  55   2.0000     -10.311870      -280.6002
  56   2.0000     -10.310293      -280.5573
  57   2.0000     -10.307441      -280.4797
  58   2.0000     -10.306927      -280.4657
  59   2.0000     -10.306300      -280.4487
  60   2.0000     -10.300962      -280.3034
  61   2.0000     -10.300008      -280.2775
  62   2.0000     -10.296328      -280.1773
  63   2.0000     -10.288251      -279.9575
  64   2.0000     -10.286354      -279.9059
  65   2.0000     -10.285867      -279.8927
  66   2.0000     -10.284941      -279.8675
  67   2.0000     -10.274848      -279.5928
  68   2.0000     -10.272747      -279.5357
  69   2.0000     -10.269527      -279.4480
  70   2.0000     -10.250806      -278.9386
  71   2.0000      -8.148264      -221.7255
  72   2.0000      -8.145423      -221.6482
  73   2.0000      -7.999740      -217.6840
  74   2.0000      -7.994643      -217.5453
  75   2.0000      -6.119095      -166.5090
  76   2.0000      -6.116285      -166.4326
  77   2.0000      -6.111573      -166.3043
  78   2.0000      -6.111304      -166.2970
  79   2.0000      -6.108679      -166.2256
  80   2.0000      -6.108440      -166.2191
  81   2.0000      -5.968513      -162.4115
  82   2.0000      -5.968051      -162.3989
  83   2.0000      -5.963332      -162.2705
  84   2.0000      -5.963014      -162.2618
  85   2.0000      -5.959297      -162.1607
  86   2.0000      -5.954254      -162.0235
  87   2.0000      -1.159285       -31.5458
  88   2.0000      -1.151717       -31.3398
  89   2.0000      -1.150857       -31.3164
  90   2.0000      -1.149026       -31.2666
  91   2.0000      -1.122664       -30.5493
  92   2.0000      -1.118355       -30.4320
  93   2.0000      -1.084730       -29.5170
  94   2.0000      -1.080878       -29.4122
  95   2.0000      -1.064812       -28.9750
  96   2.0000      -1.061788       -28.8927
  97   2.0000      -1.049211       -28.5505
  98   2.0000      -1.045007       -28.4361
  99   2.0000      -1.015312       -27.6280
 100   2.0000      -1.011444       -27.5228
 101   2.0000      -1.005834       -27.3701
 102   2.0000      -1.002762       -27.2865
 103   2.0000      -1.002314       -27.2744
 104   2.0000      -0.999326       -27.1931
 105   2.0000      -0.982417       -26.7329
 106   2.0000      -0.978946       -26.6385
 107   2.0000      -0.966469       -26.2989
 108   2.0000      -0.961034       -26.1511
 109   2.0000      -0.957148       -26.0453
 110   2.0000      -0.916195       -24.9309
 111   2.0000      -0.911979       -24.8162
 112   2.0000      -0.908640       -24.7254
 113   2.0000      -0.907514       -24.6947
 114   2.0000      -0.903931       -24.5972
 115   2.0000      -0.891932       -24.2707
 116   2.0000      -0.864234       -23.5170
 117   2.0000      -0.859257       -23.3816
 118   2.0000      -0.858037       -23.3484
 119   2.0000      -0.852489       -23.1974
 120   2.0000      -0.846573       -23.0364
 121   2.0000      -0.841680       -22.9033
 122   2.0000      -0.835020       -22.7220
 123   2.0000      -0.831759       -22.6333
 124   2.0000      -0.828706       -22.5502
 125   2.0000      -0.814088       -22.1525
 126   2.0000      -0.802771       -21.8445
 127   2.0000      -0.798501       -21.7283
 128   2.0000      -0.779383       -21.2081
 129   2.0000      -0.778665       -21.1886
 130   2.0000      -0.769697       -20.9445
 131   2.0000      -0.756240       -20.5783
 132   2.0000      -0.749281       -20.3890
 133   2.0000      -0.741957       -20.1897
 134   2.0000      -0.737113       -20.0579
 135   2.0000      -0.723829       -19.6964
 136   2.0000      -0.720886       -19.6163
 137   2.0000      -0.717778       -19.5317
 138   2.0000      -0.714206       -19.4345
 139   2.0000      -0.709896       -19.3172
 140   2.0000      -0.706262       -19.2184
 141   2.0000      -0.699395       -19.0315
 142   2.0000      -0.696450       -18.9514
 143   2.0000      -0.685222       -18.6458
 144   2.0000      -0.681135       -18.5346
 145   2.0000      -0.673281       -18.3209
 146   2.0000      -0.661262       -17.9939
 147   2.0000      -0.656065       -17.8524
 148   2.0000      -0.652665       -17.7599
 149   2.0000      -0.649261       -17.6673
 150   2.0000      -0.645927       -17.5766
 151   2.0000      -0.637656       -17.3515
 152   2.0000      -0.633585       -17.2407
 153   2.0000      -0.632046       -17.1988
 154   2.0000      -0.617961       -16.8156
 155   2.0000      -0.615389       -16.7456
 156   2.0000      -0.611068       -16.6280
 157   2.0000      -0.606992       -16.5171
 158   2.0000      -0.605217       -16.4688
 159   2.0000      -0.599169       -16.3042
 160   2.0000      -0.587284       -15.9808
 161   2.0000      -0.583613       -15.8809
 162   2.0000      -0.580744       -15.8029
 163   2.0000      -0.577764       -15.7217
 164   2.0000      -0.570779       -15.5317
 165   2.0000      -0.566630       -15.4188
 166   2.0000      -0.564537       -15.3618
 167   2.0000      -0.563368       -15.3300
 168   2.0000      -0.560515       -15.2524
 169   2.0000      -0.559903       -15.2357
 170   2.0000      -0.556414       -15.1408
 171   2.0000      -0.552015       -15.0211
 172   2.0000      -0.545635       -14.8475
 173   2.0000      -0.543164       -14.7802
 174   2.0000      -0.541851       -14.7445
 175   2.0000      -0.541295       -14.7294
 176   2.0000      -0.538546       -14.6546
 177   2.0000      -0.534094       -14.5334
 178   2.0000      -0.531658       -14.4672
 179   2.0000      -0.528507       -14.3814
 180   2.0000      -0.522961       -14.2305
 181   2.0000      -0.516317       -14.0497
 182   2.0000      -0.502270       -13.6675
 183   2.0000      -0.499460       -13.5910
 184   2.0000      -0.497411       -13.5353
 185   2.0000      -0.495840       -13.4925
 186   2.0000      -0.494514       -13.4564
 187   2.0000      -0.492309       -13.3964
 188   2.0000      -0.491094       -13.3634
 189   2.0000      -0.490532       -13.3481
 190   2.0000      -0.487433       -13.2637
 191   2.0000      -0.487198       -13.2573
 192   2.0000      -0.484836       -13.1931
 193   2.0000      -0.482658       -13.1338
 194   2.0000      -0.480376       -13.0717
 195   2.0000      -0.476857       -12.9759
 196   2.0000      -0.474871       -12.9219
 197   2.0000      -0.473344       -12.8804
 198   2.0000      -0.470059       -12.7910
 199   2.0000      -0.460832       -12.5399
 200   2.0000      -0.457641       -12.4530
 201   2.0000      -0.455525       -12.3955
 202   2.0000      -0.453876       -12.3506
 203   2.0000      -0.452114       -12.3027
 204   2.0000      -0.450994       -12.2722
 205   2.0000      -0.450434       -12.2569
 206   2.0000      -0.449158       -12.2222
 207   2.0000      -0.445906       -12.1337
 208   2.0000      -0.445101       -12.1118
 209   2.0000      -0.443881       -12.0786
 210   2.0000      -0.443385       -12.0651
 211   2.0000      -0.441544       -12.0150
 212   2.0000      -0.441134       -12.0039
 213   2.0000      -0.440074       -11.9750
 214   2.0000      -0.436905       -11.8888
 215   2.0000      -0.427440       -11.6312
 216   2.0000      -0.425333       -11.5739
 217   2.0000      -0.423601       -11.5268
 218   2.0000      -0.422452       -11.4955
 219   2.0000      -0.420456       -11.4412
 220   2.0000      -0.420330       -11.4378
 221   2.0000      -0.418541       -11.3891
 222   2.0000      -0.416658       -11.3378
 223   2.0000      -0.415371       -11.3028
 224   2.0000      -0.414617       -11.2823
 225   2.0000      -0.406779       -11.0690
 226   2.0000      -0.405752       -11.0411
 227   2.0000      -0.394846       -10.7443
 228   2.0000      -0.393219       -10.7000
 229   2.0000      -0.390320       -10.6212
 230   2.0000      -0.389627       -10.6023
 231   2.0000      -0.378161       -10.2903
 232   2.0000      -0.363360        -9.8875
 233   2.0000      -0.361485        -9.8365
 234   2.0000      -0.359560        -9.7841
 235   2.0000      -0.355993        -9.6871
 236   2.0000      -0.354226        -9.6390
 237   2.0000      -0.352697        -9.5974
 238   2.0000      -0.351533        -9.5657
 239   2.0000      -0.350388        -9.5345
 240   2.0000      -0.348599        -9.4859
 241   2.0000      -0.347498        -9.4559
 242   2.0000      -0.345852        -9.4111
 243   2.0000      -0.318567        -8.6686
 244   2.0000      -0.311717        -8.4822
 245   2.0000      -0.308464        -8.3937
 246   2.0000      -0.294932        -8.0255
 247   2.0000      -0.292834        -7.9684
 248   2.0000      -0.288983        -7.8636
 249   2.0000      -0.281494        -7.6599
 250   2.0000      -0.279635        -7.6093
 251   2.0000      -0.249183        -6.7806
 252   0.0000      -0.126969        -3.4550
 253   0.0000      -0.124901        -3.3987
 254   0.0000      -0.107154        -2.9158
 255   0.0000      -0.098198        -2.6721
 256   0.0000      -0.077855        -2.1185

MULLIKEN ATOMIC CHARGES
-----------------------
   0 C :   -0.071165
   1 C :    0.019150
   2 C :   -0.059395
   3 N :    0.045763
   4 C :   -0.134427
   5 C :   -0.132933
   6 N :    0.055154
   7 C :   -0.206230
   8 N :    0.233903
   9 C :   -0.201623
  10 N :    0.240855
  11 C :    0.149772
  12 C :   -0.029153
  13 C :    0.096930
  14 N :   -0.264374
  15 S :    0.558002
  16 N :   -0.277774
  17 C :   -0.104439
  18 C :    0.076164
  19 N :   -0.032378
  20 C :    0.008462
  21 C :    0.029055
  22 C :    0.010778
  23 S :   -0.146563
  24 C :   -0.004896
  25 C :    0.015572
  26 N :   -0.039111
  27 C :    0.094037
  28 C :   -0.014248
  29 C :    0.045853
  30 C :    0.241117
  31 O :   -0.319870
  32 C :    0.178589
  33 C :   -0.168148
  34 C :    0.102453
  35 C :    0.227244
  36 C :   -0.132865
  37 O :   -0.308031
  38 C :    0.136982
  39 C :    0.021203
  40 C :   -0.015000
  41 C :    0.000528
  42 C :    0.008861
  43 C :    0.063909
  44 N :   -0.030795
  45 C :    0.028665
  46 C :   -0.002349
  47 C :    0.005707
  48 S :   -0.136513
  49 C :    0.026118
  50 C :   -0.010862
  51 N :   -0.026570
  52 C :    0.074044
  53 C :   -0.105079
  54 C :    0.143611
  55 C :   -0.051983
  56 C :    0.017633
  57 N :    0.054251
  58 C :   -0.137178
  59 C :   -0.134629
  60 N :    0.053585
  61 C :   -0.204402
  62 N :    0.242493
  63 C :   -0.203069
  64 N :    0.232412
  65 C :   -0.075119
  66 C :    0.100307
  67 C :   -0.026046
  68 N :   -0.280239
  69 S :    0.557022
  70 N :   -0.265906
  71 H :   -0.012050
  72 H :    0.009848
  73 H :    0.012830
  74 H :    0.040543
  75 H :    0.027823
  76 H :    0.031782
  77 H :   -0.042066
  78 H :   -0.022187
  79 H :    0.020489
  80 H :    0.020085
  81 H :    0.030212
  82 H :    0.012203
  83 H :    0.024881
  84 H :   -0.024372
  85 H :    0.017640
  86 H :    0.013894
  87 H :    0.007974
  88 H :   -0.012356
Sum of atomic charges:   -0.0000000

LOEWDIN ATOMIC CHARGES
----------------------
   0 C :    0.006286
   1 C :   -0.009082
   2 C :   -0.004781
   3 N :    0.013795
   4 C :   -0.032451
   5 C :   -0.023117
   6 N :   -0.002419
   7 C :   -0.034381
   8 N :   -0.002989
   9 C :   -0.041440
  10 N :   -0.008912
  11 C :   -0.006345
  12 C :   -0.042143
  13 C :   -0.048201
  14 N :   -0.281794
  15 S :    0.698574
  16 N :   -0.288269
  17 C :   -0.046114
  18 C :    0.087524
  19 N :   -0.081584
  20 C :    0.025454
  21 C :   -0.001161
  22 C :   -0.125746
  23 S :    0.067360
  24 C :   -0.037937
  25 C :    0.054012
  26 N :   -0.083563
  27 C :    0.107321
  28 C :   -0.012175
  29 C :   -0.041301
  30 C :    0.051438
  31 O :   -0.098185
  32 C :    0.079348
  33 C :   -0.053886
  34 C :   -0.027689
  35 C :    0.060932
  36 C :   -0.037737
  37 O :   -0.079691
  38 C :    0.085435
  39 C :   -0.061795
  40 C :    0.009850
  41 C :   -0.015712
  42 C :   -0.025731
  43 C :    0.096842
  44 N :   -0.079138
  45 C :    0.050295
  46 C :   -0.047507
  47 C :   -0.132111
  48 S :    0.065294
  49 C :   -0.004174
  50 C :    0.026326
  51 N :   -0.082426
  52 C :    0.086917
  53 C :   -0.043069
  54 C :   -0.008507
  55 C :   -0.004898
  56 C :   -0.009278
  57 N :   -0.003813
  58 C :   -0.023261
  59 C :   -0.031829
  60 N :    0.013167
  61 C :   -0.042110
  62 N :   -0.007393
  63 C :   -0.033917
  64 N :   -0.003914
  65 C :    0.006936
  66 C :   -0.049018
  67 C :   -0.041203
  68 N :   -0.287974
  69 S :    0.696787
  70 N :   -0.282176
  71 H :    0.050334
  72 H :    0.023978
  73 H :    0.026889
  74 H :    0.030857
  75 H :    0.016801
  76 H :    0.019577
  77 H :    0.028121
  78 H :    0.021023
  79 H :    0.016015
  80 H :    0.010066
  81 H :    0.024005
  82 H :    0.029441
  83 H :    0.029700
  84 H :    0.025449
  85 H :    0.033272
  86 H :    0.025367
  87 H :    0.023047
  88 H :    0.050211

  Mayer bond orders larger than 0.100000
B(  0-C ,  1-C ) :   1.3014 B(  0-C , 11-C ) :   0.1420 B(  0-C , 13-C ) :   1.1785
B(  0-C , 71-H ) :   1.0598 B(  1-C ,  2-C ) :   1.1199 B(  1-C ,  6-N ) :   1.3310
B(  2-C ,  3-N ) :   1.4268 B(  2-C , 11-C ) :   1.3154 B(  3-N ,  4-C ) :   1.7172
B(  4-C ,  5-C ) :   1.1768 B(  4-C ,  9-C ) :   1.1533 B(  5-C ,  6-N ) :   1.7901
B(  5-C ,  7-C ) :   1.1572 B(  7-C ,  8-N ) :   3.0476 B(  9-C , 10-N ) :   3.0376
B( 11-C , 12-C ) :   1.2550 B( 11-C , 17-C ) :   1.0363 B( 12-C , 13-C ) :   1.1169
B( 12-C , 16-N ) :   1.5030 B( 13-C , 14-N ) :   1.4513 B( 14-N , 15-S ) :   1.3220
B( 14-N , 16-N ) :   0.1605 B( 15-S , 16-N ) :   1.2922 B( 17-C , 18-C ) :   1.0591
B( 17-C , 21-C ) :   1.5540 B( 18-C , 19-N ) :   1.7184 B( 18-C , 72-H ) :   0.9882
B( 19-N , 20-C ) :   1.2830 B( 20-C , 21-C ) :   1.0556 B( 20-C , 25-C ) :   1.5025
B( 21-C , 22-C ) :   1.0191 B( 22-C , 23-S ) :   1.6667 B( 22-C , 24-C ) :   1.0378
B( 24-C , 25-C ) :   1.0313 B( 24-C , 28-C ) :   1.5809 B( 25-C , 26-N ) :   1.2865
B( 26-N , 27-C ) :   1.7118 B( 27-C , 28-C ) :   1.0304 B( 27-C , 73-H ) :   0.9910
B( 28-C , 29-C ) :   1.0040 B( 29-C , 30-C ) :   1.3236 B( 29-C , 36-C ) :   1.3289
B( 30-C , 31-O ) :   1.1566 B( 30-C , 33-C ) :   1.3053 B( 31-O , 32-C ) :   0.9551
B( 32-C , 74-H ) :   0.9782 B( 32-C , 75-H ) :   0.9688 B( 32-C , 76-H ) :   0.9691
B( 33-C , 34-C ) :   1.2802 B( 33-C , 77-H ) :   1.0036 B( 34-C , 35-C ) :   1.3051
B( 34-C , 40-C ) :   1.1162 B( 35-C , 36-C ) :   1.2947 B( 35-C , 37-O ) :   1.1681
B( 36-C , 78-H ) :   0.9857 B( 37-O , 38-C ) :   0.9258 B( 38-C , 39-C ) :   1.0970
B( 38-C , 79-H ) :   0.9498 B( 38-C , 80-H ) :   0.9501 B( 39-C , 81-H ) :   0.9630
B( 39-C , 82-H ) :   0.9589 B( 39-C , 83-H ) :   0.9683 B( 40-C , 41-C ) :   1.6289
B( 40-C , 84-H ) :   0.9710 B( 41-C , 42-C ) :   1.1185 B( 41-C , 85-H ) :   0.9663
B( 42-C , 43-C ) :   0.9973 B( 42-C , 46-C ) :   1.4895 B( 43-C , 44-N ) :   1.7382
B( 43-C , 86-H ) :   0.9871 B( 44-N , 45-C ) :   1.2495 B( 45-C , 46-C ) :   1.0631
B( 45-C , 50-C ) :   1.5179 B( 46-C , 47-C ) :   1.0510 B( 47-C , 48-S ) :   1.6651
B( 47-C , 49-C ) :   1.0217 B( 49-C , 50-C ) :   1.0670 B( 49-C , 53-C ) :   1.5575
B( 50-C , 51-N ) :   1.2714 B( 51-N , 52-C ) :   1.7190 B( 52-C , 53-C ) :   1.0475
B( 52-C , 87-H ) :   0.9870 B( 53-C , 54-C ) :   1.0282 B( 54-C , 55-C ) :   1.3139
B( 54-C , 65-C ) :   0.1440 B( 54-C , 67-C ) :   1.2527 B( 55-C , 56-C ) :   1.1226
B( 55-C , 60-N ) :   1.4176 B( 56-C , 57-N ) :   1.3315 B( 56-C , 65-C ) :   1.3014
B( 57-N , 58-C ) :   1.7875 B( 58-C , 59-C ) :   1.1804 B( 58-C , 63-C ) :   1.1541
B( 59-C , 60-N ) :   1.7155 B( 59-C , 61-C ) :   1.1538 B( 61-C , 62-N ) :   3.0466
B( 63-C , 64-N ) :   3.0495 B( 65-C , 66-C ) :   1.1741 B( 65-C , 88-H ) :   1.0623
B( 66-C , 67-C ) :   1.1181 B( 66-C , 70-N ) :   1.4501 B( 67-C , 68-N ) :   1.5020
B( 68-N , 69-S ) :   1.2908 B( 68-N , 70-N ) :   0.1603 B( 69-S , 70-N ) :   1.3211

-----------------------------------------------------------------------------
         ABSORPTION SPECTRUM VIA TRANSITION ELECTRIC DIPOLE MOMENTS
-----------------------------------------------------------------------------
State   Energy  Wavelength   fosc         T2         TX        TY        TZ
        (cm-1)    (nm)                  (au**2)     (au)      (au)      (au)
-----------------------------------------------------------------------------
   0   11883.3    841.5   0.023339964   0.64660  -0.05890  -0.80098  -0.03955
   1   12437.4    804.0   0.067857606   1.79616   0.10671  -1.28835   0.35343
   2   13838.9    722.6   0.202686600   4.82168   0.89793  -1.96110   0.41171
   3   14109.7    708.7   0.010175128   0.23741   0.10266   0.03824  -0.47477
   4   15714.0    636.4   0.331954385   6.95453  -0.15126   2.59936  -0.41829
   5   17005.6    588.0   0.010455316   0.20240   0.30789   0.12714  -0.30240
   6   17907.6    558.4   0.035366514   0.65018   0.31686  -0.73704   0.08092
   7   18035.3    554.5   0.069322507   1.26540  -0.47543   1.01739   0.06540
   8   18580.9    538.2   0.173955477   3.08211   1.58170  -0.75277   0.11694
   9   18744.4    533.5   0.178219333   3.13010  -0.33032   0.29143  -1.71349
  10   20119.2    497.0   0.075810270   1.24049   0.42402  -1.02962   0.02423
  11   20422.8    489.6   0.071430553   1.15145   1.04384   0.24330   0.05142
  12   20648.2    484.3   0.057358599   0.91452  -0.48045  -0.05971  -0.82470
  13   20967.2    476.9   0.013392835   0.21028   0.02983   0.00552  -0.45756
  14   21161.6    472.6   0.018656203   0.29024   0.49619   0.20105   0.06011
  15   21514.5    464.8   0.041679074   0.63777   0.01204  -0.75172   0.26933
  16   21722.3    460.4   0.008581273   0.13005  -0.35640   0.02462  -0.04923
  17   22081.5    452.9   0.020454079   0.30495  -0.10122  -0.54123   0.04212
  18   22369.6    447.0   0.014204726   0.20905   0.13605  -0.19427   0.39089
  19   23405.0    427.3   0.143770981   2.02226  -0.70432   1.20074   0.29054
  20   24148.1    414.1   0.132908352   1.81194   0.44558  -1.25588  -0.19020
  21   24441.8    409.1   0.008603814   0.11589  -0.09304   0.07574   0.31858
  22   24992.0    400.1   0.008140967   0.10724   0.08334   0.27275  -0.16094
  23   25103.9    398.3   0.048737697   0.63914  -0.18216  -0.77826  -0.01653
  24   25437.3    393.1   0.016650646   0.21549  -0.23113  -0.18203   0.35908
  25   25510.4    392.0   0.022725517   0.29327  -0.02627  -0.46456  -0.27706
  26   25833.3    387.1   0.002025246   0.02581  -0.14375   0.03822  -0.06071
  27   25957.8    385.2   0.000716467   0.00909   0.06413  -0.06646  -0.02359
  28   26104.2    383.1   0.011915855   0.15028  -0.08739  -0.30107  -0.22802
  29   26492.0    377.5   0.065773112   0.81735  -0.32941   0.83913  -0.06859
  30   26689.9    374.7   0.026371982   0.32529   0.51106   0.15775  -0.19805
  31   26840.1    372.6   0.018560315   0.22766  -0.01704  -0.18670  -0.43876
  32   27010.1    370.2   0.065539332   0.79882  -0.28916   0.79344   0.29268
  33   27952.4    357.8   0.059310516   0.69854  -0.44410   0.45155  -0.54536
  34   28218.3    354.4   0.076568166   0.89329   0.58803  -0.72592   0.14334
  35   28681.1    348.7   0.012387342   0.14219  -0.25434   0.15310  -0.23251
  36   28908.6    345.9   0.098702515   1.12403  -0.06587   0.80296   0.68916
  37   29020.8    344.6   0.018294613   0.20753  -0.01963  -0.45476   0.01841
  38   29109.2    343.5   0.057220487   0.64714   0.00094  -0.75593   0.27516
  39   29180.3    342.7   0.029478471   0.33258   0.06246   0.55348  -0.14945
  40   29232.6    342.1   0.088374211   0.99525  -0.57779  -0.65999   0.47521
  41   29469.7    339.3   0.024993758   0.27921  -0.09602   0.48808   0.17824
  42   29577.3    338.1   0.008186686   0.09112  -0.25913  -0.05291  -0.14551
  43   29890.7    334.6   0.023325400   0.25690  -0.14391  -0.22708  -0.42968
  44   29979.8    333.6   0.010410113   0.11431   0.01272  -0.28775   0.17706
  45   30336.1    329.6   0.005814918   0.06310  -0.06024   0.24372  -0.00876
  46   30443.1    328.5   0.044859658   0.48511  -0.13526  -0.08676   0.67771
  47   30607.3    326.7   0.030619587   0.32934   0.40685  -0.37024   0.16350
  48   31098.7    321.6   0.018172728   0.19238   0.14791   0.35143   0.21679
  49   31173.7    320.8   0.057849382   0.61092  -0.69448  -0.35863   0.00201
  50   31563.7    316.8   0.006938072   0.07236  -0.04679  -0.26267   0.03437
  51   31659.4    315.9   0.037937009   0.39449  -0.39662   0.44699  -0.19335
  52   31889.4    313.6   0.104470083   1.07850  -0.14107  -0.99196  -0.27317
  53   31983.9    312.7   0.038031188   0.39146  -0.07253  -0.01983   0.62113
  54   32509.8    307.6   0.017094995   0.17311  -0.15233  -0.31812  -0.22070
  55   32787.7    305.0   0.003966660   0.03983   0.16757  -0.10344  -0.03237
  56   32817.5    304.7   0.035450170   0.35562   0.23392  -0.44931   0.31469
  57   32876.8    304.2   0.028248278   0.28286  -0.41617   0.11826   0.30932
  58   33091.3    302.2   0.094573818   0.94088  -0.62915   0.73153   0.09950
  59   33197.6    301.2   0.016407312   0.16271  -0.14411   0.31810  -0.20188
  60   33325.2    300.1   0.003589655   0.03546   0.08846  -0.16550   0.01568
  61   33520.4    298.3   0.013242186   0.13005   0.31510  -0.16702   0.05359
  62   33566.3    297.9   0.003579174   0.03510   0.03882  -0.15587  -0.09645
  63   33744.7    296.3   0.005263377   0.05135   0.17286   0.06352   0.13203
  64   33831.0    295.6   0.001017457   0.00990  -0.04205  -0.08895  -0.01483
  65   33977.4    294.3   0.028468777   0.27584  -0.22733  -0.34086   0.32859
  66   34186.8    292.5   0.021557025   0.20759   0.26395   0.02889   0.37025
  67   34530.6    289.6   0.047184510   0.44985   0.28624  -0.60439  -0.05134
  68   34852.5    286.9   0.096240447   0.90908   0.22246  -0.84444   0.38277
  69   35066.1    285.2   0.110290855   1.03545  -0.64520  -0.32226   0.71785
  70   35160.1    284.4   0.091639221   0.85804  -0.01852  -0.90334   0.20412
  71   35242.9    283.7   0.089220303   0.83343   0.02033  -0.58487  -0.70067
  72   35364.5    282.8   0.020919412   0.19474   0.36621  -0.12214  -0.21381
  73   35567.8    281.2   0.140945850   1.30458   0.21195   1.12216   0.02012
  74   35764.0    279.6   0.053155098   0.48930   0.02503   0.67057  -0.19750
  75   36208.1    276.2   0.017277571   0.15709   0.19283  -0.30175   0.16987
  76   36349.7    275.1   0.375620104   3.40191   0.79784   1.58662   0.49800
  77   36512.2    273.9   0.363763447   3.27987  -0.80816  -1.44953  -0.72500
  78   36680.0    272.6   0.157611526   1.41460   0.29106   1.04555   0.48653
  79   36841.7    271.4   0.021645367   0.19342  -0.28963  -0.09392   0.31736
  80   36938.9    270.7   0.269937211   2.40577   0.72738   1.10752  -0.80629
  81   37040.9    270.0   0.105185825   0.93487   0.38636   0.74590  -0.47878
  82   37228.6    268.6   0.070237309   0.62111   0.78096   0.08698  -0.06030
  83   37293.9    268.1   0.018335628   0.16186   0.26446   0.28468   0.10427
  84   37694.7    265.3   0.077775569   0.67926  -0.40905   0.16059   0.69725
  85   37735.5    265.0   0.244119694   2.12975  -0.03498  -1.39764  -0.41847
  86   37937.8    263.6   0.144179195   1.25114   0.29207   0.37120  -1.01392
  87   38052.1    262.8   0.006862591   0.05937  -0.12123   0.18905  -0.09454
  88   38098.0    262.5   0.170304661   1.47163   1.04792   0.50763  -0.34031
  89   38521.0    259.6   0.056759971   0.48509   0.43641  -0.47392  -0.26464
  90   38639.7    258.8   0.042847303   0.36506   0.46514   0.17104  -0.34561
  91   38771.5    257.9   0.098143645   0.83335  -0.04297   0.66732   0.62144
  92   39014.6    256.3   0.062550311   0.52781  -0.69254  -0.11749  -0.18548
  93   39054.6    256.1   0.309879766   2.61214   0.65057   1.45524   0.26678
  94   39134.9    255.5   0.313356238   2.63603  -0.29426  -1.55955  -0.34243
  95   39532.7    253.0   0.056568210   0.47108   0.29878   0.43877  -0.43508
  96   39563.4    252.8   0.190189356   1.58259   0.07263  -1.21360  -0.32326
  97   39716.2    251.8   0.043343588   0.35928  -0.03463   0.15428  -0.57817
  98   39872.1    250.8   0.016543328   0.13659  -0.00506   0.03327  -0.36805
  99   40092.1    249.4   0.007686512   0.06312   0.13791   0.04651  -0.20478
 100   40252.7    248.4   0.259172464   2.11967   0.17405  -1.41756  -0.28268

FINAL SINGLE POINT ENERGY     -4492.847934466735

DIPOLE MOMENT
-------------
                                X             Y             Z
Electronic contribution:     14.24401      -3.91633     -15.72828
Nuclear contribution   :    -14.27475       4.45159      14.39871
                        -----------------------------------------
Total Dipole Moment    :     -0.03074       0.53526      -1.32957
                        -----------------------------------------
Magnitude (a.u.)       :      1.43360
Magnitude (Debye)      :      3.64392

Rotational constants in cm-1:     0.001822     0.000344     0.000340
Rotational constants in MHz :    54.624250    10.308747    10.199534

                             ****ORCA TERMINATED NORMALLY****
TOTAL RUN TIME: 0 days 0 hours 17 minutes 17 seconds 529 msec
