                         Program Version 4.2.0 -  RELEASE  -
|  1> # ORCA input file
|  2> # SCF done       -173.734081782450          0.000572081431
|  3> ! CAM-B3LYP def2-SVP def2/J RIJCOSX Grid4 TightSCF
|  4> %maxcore 5000
|  5> %tddft
|  6>     Mode sTDDFT
|  7>     Ethresh 5.0
|  8>     maxcore 5000
|  9> end
| 10>
| 11> %pal
| 12>   nprocs 6
| 13>   end
| 14> * xyz 0 1
| 15>    C       -9.05687        -5.57583        -4.37658
| 16>    C       -8.26338        -4.62343        -5.01003
| 17>    C       -6.84622        -4.52331        -4.75077
| 18>    N       -6.10880        -3.60123        -5.39472
| 19>    C       -6.69618        -2.80343        -6.24774
| 20>    C       -8.11009        -2.90334        -6.50741
| 21>    N       -8.84761        -3.78755        -5.89598
| 22>    C       -8.70967        -2.02355        -7.44673
| 23>    N       -9.15535        -1.29794        -8.21177
| 24>    C       -5.92567        -1.82372        -6.92372
| 25>    N       -5.33576        -1.02014        -7.48735
| 26>    C       -6.20008        -5.41027        -3.86324
| 27>    C       -7.01534        -6.35565        -3.21922
| 28>    C       -8.44071        -6.43158        -3.47489
| 29>    N       -9.02198        -7.39165        -2.74191
| 30>    S       -7.91026        -8.09167        -1.83418
| 31>    N       -6.63192        -7.24897        -2.30083
| 32>    C       -4.78494        -5.37348        -3.63915
| 33>    C       -3.92696        -4.17874        -3.61064
| 34>    N       -2.67850        -4.42946        -3.35630
| 35>    C       -2.58986        -5.78228        -3.21415
| 36>    C       -3.92210        -6.40476        -3.36411
| 37>    C       -3.78914        -7.84128        -3.35745
| 38>    S       -4.91715        -8.93947        -3.83363
| 39>    C       -2.40031        -8.07179        -3.08322
| 40>    C       -1.67625        -6.78636        -3.04352
| 41>    N       -0.33207        -6.99721        -2.92877
| 42>    C       -0.17572        -8.28561        -2.92827
| 43>    C       -1.42839        -9.04633        -3.01272
| 44>    C       -1.55034       -10.45612        -3.00537
| 45>    S       -0.33111       -11.48926        -3.67676
| 46>    C       -1.31547       -12.89719        -3.44789
| 47>    C       -2.50664       -12.58031        -2.78292
| 48>    C       -2.64035       -11.19291        -2.52433
| 49>    O       -3.59547       -10.53939        -1.86118
| 50>    C       -4.69791       -11.23744        -1.32299
| 51>    C       -3.41224       -13.57230        -2.36718
| 52>    N       -4.13147       -14.38776        -1.99867
| 53>    C       -0.87533       -14.13157        -3.98891
| 54>    C       -1.69473       -15.17348        -4.28203
| 55>    C       -1.28714       -16.37679        -4.90629
| 56>    C        0.07016       -16.89688        -5.12854
| 57>    N        0.11299       -18.03937        -5.74544
| 58>    C       -1.18840       -18.37293        -6.00127
| 59>    C       -2.09307       -17.34004        -5.47608
| 60>    C       -3.45968       -17.68502        -5.75262
| 61>    S       -4.80481       -16.90357        -5.21987
| 62>    C       -3.37132       -18.91343        -6.50359
| 63>    C       -1.95544       -19.33740        -6.59813
| 64>    N       -1.85834       -20.52913        -7.24913
| 65>    C       -3.07588       -20.87533        -7.54231
| 66>    C       -4.09492       -19.90128        -7.12333
| 67>    C       -5.50224       -19.97799        -7.39051
| 68>    C       -6.20293       -21.20288        -7.39745
| 69>    C       -7.62862       -21.24908        -7.62324
| 70>    N       -8.27802       -22.43316        -7.59480
| 71>    C       -7.59650       -23.51926        -7.35983
| 72>    C       -6.17423       -23.47234        -7.13184
| 73>    N       -5.52479       -22.33823        -7.15112
| 74>    C       -5.46208       -24.67404        -6.88779
| 75>    N       -4.91908       -25.66434        -6.69877
| 76>    C       -8.26605       -24.77090        -7.32962
| 77>    N       -8.76911       -25.79865        -7.29781
| 78>    C       -8.36758       -20.09512        -7.86987
| 79>    C       -7.68418       -18.88865        -7.90699
| 80>    C       -6.25543       -18.82556        -7.66733
| 81>    N       -5.79077       -17.57753        -7.79239
| 82>    S       -7.01053       -16.60306        -8.14222
| 83>    N       -8.19187       -17.67603        -8.17150
| 84>    H      -10.11040        -5.63638        -4.59075
| 85>    H       -4.27081        -3.17190        -3.76164
| 86>    H        0.80287        -8.72667        -2.84536
| 87>    H       -5.31846       -10.47318        -0.85776
| 88>    H       -4.38066       -11.96319        -0.57020
| 89>    H       -5.26921       -11.74422        -2.10389
| 90>    H        0.17090       -14.17518        -4.26080
| 91>    H       -2.75610       -15.09235        -4.09254
| 92>    H        0.98131       -16.41927        -4.81331
| 93>    H       -3.28064       -21.79036        -8.06742
| 94>    H       -9.43068       -20.15337        -8.03076
| 95> *
| 96>
| 97>                          ****END OF INPUT****

CARTESIAN COORDINATES (ANGSTROEM)
---------------------------------
  C     -9.056870   -5.575830   -4.376580
  C     -8.263380   -4.623430   -5.010030
  C     -6.846220   -4.523310   -4.750770
  N     -6.108800   -3.601230   -5.394720
  C     -6.696180   -2.803430   -6.247740
  C     -8.110090   -2.903340   -6.507410
  N     -8.847610   -3.787550   -5.895980
  C     -8.709670   -2.023550   -7.446730
  N     -9.155350   -1.297940   -8.211770
  C     -5.925670   -1.823720   -6.923720
  N     -5.335760   -1.020140   -7.487350
  C     -6.200080   -5.410270   -3.863240
  C     -7.015340   -6.355650   -3.219220
  C     -8.440710   -6.431580   -3.474890
  N     -9.021980   -7.391650   -2.741910
  S     -7.910260   -8.091670   -1.834180
  N     -6.631920   -7.248970   -2.300830
  C     -4.784940   -5.373480   -3.639150
  C     -3.926960   -4.178740   -3.610640
  N     -2.678500   -4.429460   -3.356300
  C     -2.589860   -5.782280   -3.214150
  C     -3.922100   -6.404760   -3.364110
  C     -3.789140   -7.841280   -3.357450
  S     -4.917150   -8.939470   -3.833630
  C     -2.400310   -8.071790   -3.083220
  C     -1.676250   -6.786360   -3.043520
  N     -0.332070   -6.997210   -2.928770
  C     -0.175720   -8.285610   -2.928270
  C     -1.428390   -9.046330   -3.012720
  C     -1.550340  -10.456120   -3.005370
  S     -0.331110  -11.489260   -3.676760
  C     -1.315470  -12.897190   -3.447890
  C     -2.506640  -12.580310   -2.782920
  C     -2.640350  -11.192910   -2.524330
  O     -3.595470  -10.539390   -1.861180
  C     -4.697910  -11.237440   -1.322990
  C     -3.412240  -13.572300   -2.367180
  N     -4.131470  -14.387760   -1.998670
  C     -0.875330  -14.131570   -3.988910
  C     -1.694730  -15.173480   -4.282030
  C     -1.287140  -16.376790   -4.906290
  C      0.070160  -16.896880   -5.128540
  N      0.112990  -18.039370   -5.745440
  C     -1.188400  -18.372930   -6.001270
  C     -2.093070  -17.340040   -5.476080
  C     -3.459680  -17.685020   -5.752620
  S     -4.804810  -16.903570   -5.219870
  C     -3.371320  -18.913430   -6.503590
  C     -1.955440  -19.337400   -6.598130
  N     -1.858340  -20.529130   -7.249130
  C     -3.075880  -20.875330   -7.542310
  C     -4.094920  -19.901280   -7.123330
  C     -5.502240  -19.977990   -7.390510
  C     -6.202930  -21.202880   -7.397450
  C     -7.628620  -21.249080   -7.623240
  N     -8.278020  -22.433160   -7.594800
  C     -7.596500  -23.519260   -7.359830
  C     -6.174230  -23.472340   -7.131840
  N     -5.524790  -22.338230   -7.151120
  C     -5.462080  -24.674040   -6.887790
  N     -4.919080  -25.664340   -6.698770
  C     -8.266050  -24.770900   -7.329620
  N     -8.769110  -25.798650   -7.297810
  C     -8.367580  -20.095120   -7.869870
  C     -7.684180  -18.888650   -7.906990
  C     -6.255430  -18.825560   -7.667330
  N     -5.790770  -17.577530   -7.792390
  S     -7.010530  -16.603060   -8.142220
  N     -8.191870  -17.676030   -8.171500
  H    -10.110400   -5.636380   -4.590750
  H     -4.270810   -3.171900   -3.761640
  H      0.802870   -8.726670   -2.845360
  H     -5.318460  -10.473180   -0.857760
  H     -4.380660  -11.963190   -0.570200
  H     -5.269210  -11.744220   -2.103890
  H      0.170900  -14.175180   -4.260800
  H     -2.756100  -15.092350   -4.092540
  H      0.981310  -16.419270   -4.813310
  H     -3.280640  -21.790360   -8.067420
  H     -9.430680  -20.153370   -8.030760

 Total Charge           Charge          ....    0
 Multiplicity           Mult            ....    1
 Number of Electrons    NEL             ....  494
 Basis Dimension        Dim             .... 1041

ORBITAL ENERGIES
----------------

  NO   OCC          E(Eh)            E(eV)
   0   2.0000     -89.059758     -2423.4392
   1   2.0000     -89.058594     -2423.4075
   2   2.0000     -88.993770     -2421.6436
   3   2.0000     -88.913411     -2419.4569
   4   2.0000     -88.905805     -2419.2499
   5   2.0000     -19.278352      -524.5906
   6   2.0000     -14.477368      -393.9492
   7   2.0000     -14.475655      -393.9026
   8   2.0000     -14.473761      -393.8511
   9   2.0000     -14.472128      -393.8066
  10   2.0000     -14.463805      -393.5801
  11   2.0000     -14.463199      -393.5637
  12   2.0000     -14.462274      -393.5385
  13   2.0000     -14.460811      -393.4987
  14   2.0000     -14.439903      -392.9297
  15   2.0000     -14.438336      -392.8871
  16   2.0000     -14.438024      -392.8786
  17   2.0000     -14.437038      -392.8518
  18   2.0000     -14.428142      -392.6097
  19   2.0000     -14.425897      -392.5486
  20   2.0000     -14.423494      -392.4832
  21   2.0000     -14.422049      -392.4439
  22   2.0000     -14.418736      -392.3538
  23   2.0000     -10.395869      -282.8860
  24   2.0000     -10.393915      -282.8328
  25   2.0000     -10.393834      -282.8306
  26   2.0000     -10.392465      -282.7933
  27   2.0000     -10.378088      -282.4021
  28   2.0000     -10.364145      -282.0227
  29   2.0000     -10.361860      -281.9605
  30   2.0000     -10.360666      -281.9280
  31   2.0000     -10.358915      -281.8804
  32   2.0000     -10.353791      -281.7410
  33   2.0000     -10.353444      -281.7315
  34   2.0000     -10.352383      -281.7027
  35   2.0000     -10.352046      -281.6935
  36   2.0000     -10.351850      -281.6882
  37   2.0000     -10.351026      -281.6657
  38   2.0000     -10.348500      -281.5970
  39   2.0000     -10.346599      -281.5453
  40   2.0000     -10.345085      -281.5041
  41   2.0000     -10.344508      -281.4884
  42   2.0000     -10.343939      -281.4729
  43   2.0000     -10.343131      -281.4509
  44   2.0000     -10.339496      -281.3520
  45   2.0000     -10.339414      -281.3498
  46   2.0000     -10.339210      -281.3442
  47   2.0000     -10.337093      -281.2866
  48   2.0000     -10.336901      -281.2814
  49   2.0000     -10.334973      -281.2289
  50   2.0000     -10.334839      -281.2253
  51   2.0000     -10.332448      -281.1602
  52   2.0000     -10.331017      -281.1213
  53   2.0000     -10.330792      -281.1151
  54   2.0000     -10.329854      -281.0896
  55   2.0000     -10.327552      -281.0270
  56   2.0000     -10.325460      -280.9700
  57   2.0000     -10.322599      -280.8922
  58   2.0000     -10.322111      -280.8789
  59   2.0000     -10.320223      -280.8276
  60   2.0000     -10.319566      -280.8097
  61   2.0000     -10.317791      -280.7614
  62   2.0000     -10.317706      -280.7591
  63   2.0000     -10.316264      -280.7198
  64   2.0000     -10.314873      -280.6820
  65   2.0000     -10.310083      -280.5516
  66   2.0000     -10.309583      -280.5380
  67   2.0000     -10.308418      -280.5063
  68   2.0000     -10.302746      -280.3520
  69   2.0000      -8.150728      -221.7926
  70   2.0000      -8.149603      -221.7620
  71   2.0000      -8.089395      -220.1236
  72   2.0000      -8.008694      -217.9276
  73   2.0000      -8.001268      -217.7256
  74   2.0000      -6.121492      -166.5743
  75   2.0000      -6.120395      -166.5444
  76   2.0000      -6.114193      -166.3757
  77   2.0000      -6.113734      -166.3632
  78   2.0000      -6.113018      -166.3437
  79   2.0000      -6.112628      -166.3331
  80   2.0000      -6.058569      -164.8620
  81   2.0000      -6.054640      -164.7551
  82   2.0000      -6.051468      -164.6688
  83   2.0000      -5.977632      -162.6596
  84   2.0000      -5.977262      -162.6496
  85   2.0000      -5.970291      -162.4599
  86   2.0000      -5.969794      -162.4463
  87   2.0000      -5.967850      -162.3935
  88   2.0000      -5.960373      -162.1900
  89   2.0000      -1.187056       -32.3014
  90   2.0000      -1.153472       -31.3876
  91   2.0000      -1.152042       -31.3487
  92   2.0000      -1.133244       -30.8371
  93   2.0000      -1.131566       -30.7915
  94   2.0000      -1.095693       -29.8153
  95   2.0000      -1.092132       -29.7184
  96   2.0000      -1.076477       -29.2924
  97   2.0000      -1.072935       -29.1960
  98   2.0000      -1.060040       -28.8452
  99   2.0000      -1.058227       -28.7958
 100   2.0000      -1.026361       -27.9287
 101   2.0000      -1.023576       -27.8529
 102   2.0000      -1.022221       -27.8161
 103   2.0000      -1.012961       -27.5641
 104   2.0000      -1.011746       -27.5310
 105   2.0000      -1.005939       -27.3730
 106   2.0000      -1.004623       -27.3372
 107   2.0000      -1.002988       -27.2927
 108   2.0000      -0.989366       -26.9220
 109   2.0000      -0.987514       -26.8716
 110   2.0000      -0.975400       -26.5420
 111   2.0000      -0.970355       -26.4047
 112   2.0000      -0.940585       -25.5946
 113   2.0000      -0.920087       -25.0368
 114   2.0000      -0.918098       -24.9827
 115   2.0000      -0.914267       -24.8785
 116   2.0000      -0.911903       -24.8141
 117   2.0000      -0.911538       -24.8042
 118   2.0000      -0.885877       -24.1059
 119   2.0000      -0.873559       -23.7707
 120   2.0000      -0.869468       -23.6594
 121   2.0000      -0.865820       -23.5602
 122   2.0000      -0.856433       -23.3047
 123   2.0000      -0.850422       -23.1412
 124   2.0000      -0.844163       -22.9708
 125   2.0000      -0.841832       -22.9074
 126   2.0000      -0.839521       -22.8445
 127   2.0000      -0.807639       -21.9770
 128   2.0000      -0.805856       -21.9284
 129   2.0000      -0.802681       -21.8421
 130   2.0000      -0.791339       -21.5334
 131   2.0000      -0.782694       -21.2982
 132   2.0000      -0.764354       -20.7991
 133   2.0000      -0.757936       -20.6245
 134   2.0000      -0.752664       -20.4810
 135   2.0000      -0.746746       -20.3200
 136   2.0000      -0.735893       -20.0247
 137   2.0000      -0.728980       -19.8366
 138   2.0000      -0.724720       -19.7206
 139   2.0000      -0.718517       -19.5518
 140   2.0000      -0.717058       -19.5121
 141   2.0000      -0.711243       -19.3539
 142   2.0000      -0.707077       -19.2405
 143   2.0000      -0.700886       -19.0721
 144   2.0000      -0.695233       -18.9182
 145   2.0000      -0.692076       -18.8323
 146   2.0000      -0.690845       -18.7988
 147   2.0000      -0.666919       -18.1478
 148   2.0000      -0.664064       -18.0701
 149   2.0000      -0.658611       -17.9217
 150   2.0000      -0.654712       -17.8156
 151   2.0000      -0.646410       -17.5897
 152   2.0000      -0.644054       -17.5256
 153   2.0000      -0.642230       -17.4760
 154   2.0000      -0.631549       -17.1853
 155   2.0000      -0.623755       -16.9732
 156   2.0000      -0.616123       -16.7656
 157   2.0000      -0.612842       -16.6763
 158   2.0000      -0.611268       -16.6334
 159   2.0000      -0.603590       -16.4245
 160   2.0000      -0.593877       -16.1602
 161   2.0000      -0.591889       -16.1061
 162   2.0000      -0.589556       -16.0426
 163   2.0000      -0.585009       -15.9189
 164   2.0000      -0.582615       -15.8538
 165   2.0000      -0.579400       -15.7663
 166   2.0000      -0.570957       -15.5365
 167   2.0000      -0.570152       -15.5146
 168   2.0000      -0.567767       -15.4497
 169   2.0000      -0.565603       -15.3908
 170   2.0000      -0.560798       -15.2601
 171   2.0000      -0.555474       -15.1152
 172   2.0000      -0.551939       -15.0190
 173   2.0000      -0.551091       -14.9960
 174   2.0000      -0.547921       -14.9097
 175   2.0000      -0.546202       -14.8629
 176   2.0000      -0.540480       -14.7072
 177   2.0000      -0.536315       -14.5939
 178   2.0000      -0.532123       -14.4798
 179   2.0000      -0.521976       -14.2037
 180   2.0000      -0.518277       -14.1030
 181   2.0000      -0.513853       -13.9827
 182   2.0000      -0.504398       -13.7254
 183   2.0000      -0.503992       -13.7143
 184   2.0000      -0.502541       -13.6748
 185   2.0000      -0.500636       -13.6230
 186   2.0000      -0.499239       -13.5850
 187   2.0000      -0.496037       -13.4979
 188   2.0000      -0.493870       -13.4389
 189   2.0000      -0.493163       -13.4197
 190   2.0000      -0.492845       -13.4110
 191   2.0000      -0.491533       -13.3753
 192   2.0000      -0.489958       -13.3324
 193   2.0000      -0.485448       -13.2097
 194   2.0000      -0.484814       -13.1925
 195   2.0000      -0.481069       -13.0906
 196   2.0000      -0.466444       -12.6926
 197   2.0000      -0.464112       -12.6291
 198   2.0000      -0.462845       -12.5946
 199   2.0000      -0.461683       -12.5630
 200   2.0000      -0.460734       -12.5372
 201   2.0000      -0.460604       -12.5337
 202   2.0000      -0.460162       -12.5216
 203   2.0000      -0.456473       -12.4213
 204   2.0000      -0.453615       -12.3435
 205   2.0000      -0.453491       -12.3401
 206   2.0000      -0.452249       -12.3063
 207   2.0000      -0.450705       -12.2643
 208   2.0000      -0.449033       -12.2188
 209   2.0000      -0.448439       -12.2027
 210   2.0000      -0.448024       -12.1914
 211   2.0000      -0.446507       -12.1501
 212   2.0000      -0.443412       -12.0658
 213   2.0000      -0.440259       -11.9801
 214   2.0000      -0.435091       -11.8394
 215   2.0000      -0.429147       -11.6777
 216   2.0000      -0.427432       -11.6310
 217   2.0000      -0.426444       -11.6041
 218   2.0000      -0.425141       -11.5687
 219   2.0000      -0.423742       -11.5306
 220   2.0000      -0.422188       -11.4883
 221   2.0000      -0.421669       -11.4742
 222   2.0000      -0.419756       -11.4221
 223   2.0000      -0.413760       -11.2590
 224   2.0000      -0.406249       -11.0546
 225   2.0000      -0.394080       -10.7235
 226   2.0000      -0.392100       -10.6696
 227   2.0000      -0.377420       -10.2701
 228   2.0000      -0.374626       -10.1941
 229   2.0000      -0.372714       -10.1421
 230   2.0000      -0.366530        -9.9738
 231   2.0000      -0.364247        -9.9117
 232   2.0000      -0.363237        -9.8842
 233   2.0000      -0.362004        -9.8506
 234   2.0000      -0.360176        -9.8009
 235   2.0000      -0.357619        -9.7313
 236   2.0000      -0.357589        -9.7305
 237   2.0000      -0.355029        -9.6608
 238   2.0000      -0.336769        -9.1639
 239   2.0000      -0.328113        -8.9284
 240   2.0000      -0.318841        -8.6761
 241   2.0000      -0.314508        -8.5582
 242   2.0000      -0.305034        -8.3004
 243   2.0000      -0.301916        -8.2156
 244   2.0000      -0.291280        -7.9261
 245   2.0000      -0.283701        -7.7199
 246   2.0000      -0.268920        -7.3177
 247   0.0000      -0.135801        -3.6953
 248   0.0000      -0.133295        -3.6271
 249   0.0000      -0.121848        -3.3156
 250   0.0000      -0.109433        -2.9778
 251   0.0000      -0.092856        -2.5267

MULLIKEN ATOMIC CHARGES
-----------------------
   0 C :   -0.070950
   1 C :    0.007017
   2 C :   -0.055693
   3 N :    0.049076
   4 C :   -0.127963
   5 C :   -0.145557
   6 N :    0.057459
   7 C :   -0.197592
   8 N :    0.236979
   9 C :   -0.204834
  10 N :    0.245358
  11 C :    0.154666
  12 C :   -0.031162
  13 C :    0.105690
  14 N :   -0.263593
  15 S :    0.551148
  16 N :   -0.249794
  17 C :   -0.101613
  18 C :    0.087620
  19 N :   -0.025261
  20 C :    0.000329
  21 C :    0.011096
  22 C :    0.004714
  23 S :   -0.150973
  24 C :   -0.013836
  25 C :    0.017631
  26 N :   -0.023063
  27 C :    0.051814
  28 C :    0.036132
  29 C :   -0.219093
  30 S :    0.179335
  31 C :   -0.057566
  32 C :   -0.110601
  33 C :    0.262613
  34 O :   -0.271991
  35 C :    0.182536
  36 C :   -0.254901
  37 N :    0.145532
  38 C :    0.040009
  39 C :   -0.022104
  40 C :   -0.007185
  41 C :    0.062242
  42 N :   -0.020209
  43 C :    0.033473
  44 C :    0.001223
  45 C :   -0.007312
  46 S :   -0.104292
  47 C :    0.020034
  48 C :   -0.012138
  49 N :   -0.023293
  50 C :    0.091171
  51 C :   -0.092601
  52 C :    0.143121
  53 C :   -0.052004
  54 C :    0.003081
  55 N :    0.060740
  56 C :   -0.145788
  57 C :   -0.126609
  58 N :    0.048450
  59 C :   -0.205895
  60 N :    0.246268
  61 C :   -0.199103
  62 N :    0.240241
  63 C :   -0.066781
  64 C :    0.107571
  65 C :   -0.032489
  66 N :   -0.253517
  67 S :    0.564698
  68 N :   -0.263847
  69 H :   -0.011346
  70 H :    0.010151
  71 H :    0.008870
  72 H :    0.027116
  73 H :    0.049953
  74 H :    0.044867
  75 H :   -0.008941
  76 H :    0.026349
  77 H :    0.012768
  78 H :    0.011119
  79 H :   -0.008771
Sum of atomic charges:   -0.0000000

LOEWDIN ATOMIC CHARGES
----------------------
   0 C :    0.009515
   1 C :   -0.011692
   2 C :   -0.006079
   3 N :    0.003233
   4 C :   -0.024548
   5 C :   -0.025941
   6 N :    0.004713
   7 C :   -0.036013
   8 N :    0.001994
   9 C :   -0.038699
  10 N :    0.003778
  11 C :   -0.007850
  12 C :   -0.040954
  13 C :   -0.045993
  14 N :   -0.287187
  15 S :    0.698824
  16 N :   -0.271144
  17 C :   -0.039223
  18 C :    0.096512
  19 N :   -0.082011
  20 C :    0.035513
  21 C :   -0.005558
  22 C :   -0.139680
  23 S :    0.062284
  24 C :   -0.033814
  25 C :    0.041617
  26 N :   -0.074345
  27 C :    0.083201
  28 C :   -0.054992
  29 C :   -0.214068
  30 S :    0.475641
  31 C :   -0.124531
  32 C :   -0.136230
  33 C :    0.058581
  34 O :   -0.063171
  35 C :    0.078561
  36 C :   -0.035987
  37 N :   -0.054332
  38 C :   -0.042473
  39 C :    0.011900
  40 C :   -0.046256
  41 C :    0.091412
  42 N :   -0.076193
  43 C :    0.039548
  44 C :   -0.021744
  45 C :   -0.145725
  46 S :    0.082165
  47 C :   -0.007329
  48 C :    0.042456
  49 N :   -0.080660
  50 C :    0.102058
  51 C :   -0.036041
  52 C :   -0.010685
  53 C :   -0.004780
  54 C :   -0.012158
  55 N :    0.005920
  56 C :   -0.025757
  57 C :   -0.022882
  58 N :    0.001698
  59 C :   -0.038788
  60 N :    0.005345
  61 C :   -0.036310
  62 N :    0.003224
  63 C :    0.013561
  64 C :   -0.046427
  65 C :   -0.040965
  66 N :   -0.274473
  67 S :    0.709570
  68 N :   -0.284905
  69 H :    0.051025
  70 H :    0.024907
  71 H :    0.023942
  72 H :    0.025192
  73 H :    0.025525
  74 H :    0.023249
  75 H :    0.030363
  76 H :    0.038360
  77 H :    0.025337
  78 H :    0.025919
  79 H :    0.051951

  Mayer bond orders larger than 0.100000
B(  0-C ,  1-C ) :   1.2937 B(  0-C , 11-C ) :   0.1403 B(  0-C , 13-C ) :   1.1816
B(  0-C , 69-H ) :   1.0611 B(  1-C ,  2-C ) :   1.1287 B(  1-C ,  6-N ) :   1.3382
B(  2-C ,  3-N ) :   1.4289 B(  2-C , 11-C ) :   1.3100 B(  3-N ,  4-C ) :   1.7517
B(  4-C ,  5-C ) :   1.1824 B(  4-C ,  9-C ) :   1.1482 B(  5-C ,  6-N ) :   1.7890
B(  5-C ,  7-C ) :   1.1466 B(  7-C ,  8-N ) :   3.0524 B(  9-C , 10-N ) :   3.0482
B( 11-C , 12-C ) :   1.2776 B( 11-C , 17-C ) :   0.9948 B( 12-C , 13-C ) :   1.1046
B( 12-C , 16-N ) :   1.4891 B( 13-C , 14-N ) :   1.4509 B( 14-N , 15-S ) :   1.3179
B( 14-N , 16-N ) :   0.1596 B( 15-S , 16-N ) :   1.2985 B( 17-C , 18-C ) :   1.0324
B( 17-C , 21-C ) :   1.5890 B( 18-C , 19-N ) :   1.7270 B( 18-C , 70-H ) :   0.9895
B( 19-N , 20-C ) :   1.2700 B( 20-C , 21-C ) :   1.0522 B( 20-C , 25-C ) :   1.5208
B( 21-C , 22-C ) :   1.0279 B( 22-C , 23-S ) :   1.6523 B( 22-C , 24-C ) :   1.0717
B( 24-C , 25-C ) :   1.0551 B( 24-C , 28-C ) :   1.5416 B( 25-C , 26-N ) :   1.2599
B( 26-N , 27-C ) :   1.7365 B( 27-C , 28-C ) :   1.0268 B( 27-C , 71-H ) :   0.9923
B( 28-C , 29-C ) :   1.0696 B( 29-C , 30-S ) :   1.1124 B( 29-C , 31-C ) :   0.1047
B( 29-C , 33-C ) :   1.4389 B( 30-S , 31-C ) :   1.1512 B( 31-C , 32-C ) :   1.4385
B( 31-C , 38-C ) :   1.1497 B( 32-C , 33-C ) :   1.2195 B( 32-C , 36-C ) :   1.1192
B( 33-C , 34-O ) :   1.2620 B( 34-O , 35-C ) :   0.9164 B( 35-C , 72-H ) :   0.9722
B( 35-C , 73-H ) :   0.9686 B( 35-C , 74-H ) :   0.9673 B( 36-C , 37-N ) :   2.9556
B( 38-C , 39-C ) :   1.6396 B( 38-C , 75-H ) :   0.9462 B( 39-C , 40-C ) :   1.1400
B( 39-C , 76-H ) :   0.9534 B( 40-C , 41-C ) :   1.0037 B( 40-C , 44-C ) :   1.5037
B( 41-C , 42-N ) :   1.7377 B( 41-C , 77-H ) :   0.9880 B( 42-N , 43-C ) :   1.2571
B( 43-C , 44-C ) :   1.0645 B( 43-C , 48-C ) :   1.5127 B( 44-C , 45-C ) :   1.0360
B( 45-C , 46-S ) :   1.6969 B( 45-C , 47-C ) :   1.0224 B( 47-C , 48-C ) :   1.0577
B( 47-C , 51-C ) :   1.5926 B( 48-C , 49-N ) :   1.2742 B( 49-N , 50-C ) :   1.7159
B( 50-C , 51-C ) :   1.0349 B( 50-C , 78-H ) :   0.9894 B( 51-C , 52-C ) :   0.9881
B( 52-C , 53-C ) :   1.3149 B( 52-C , 63-C ) :   0.1406 B( 52-C , 65-C ) :   1.2837
B( 53-C , 54-C ) :   1.1290 B( 53-C , 58-N ) :   1.4256 B( 54-C , 55-N ) :   1.3404
B( 54-C , 63-C ) :   1.2905 B( 55-N , 56-C ) :   1.7883 B( 56-C , 57-C ) :   1.1826
B( 56-C , 61-C ) :   1.1480 B( 57-C , 58-N ) :   1.7528 B( 57-C , 59-C ) :   1.1483
B( 59-C , 60-N ) :   3.0471 B( 61-C , 62-N ) :   3.0521 B( 63-C , 64-C ) :   1.1835
B( 63-C , 79-H ) :   1.0614 B( 64-C , 65-C ) :   1.1055 B( 64-C , 68-N ) :   1.4464
B( 65-C , 66-N ) :   1.4870 B( 66-N , 67-S ) :   1.2988 B( 66-N , 68-N ) :   0.1578
B( 67-S , 68-N ) :   1.3239

-----------------------------------------------------------------------------
         ABSORPTION SPECTRUM VIA TRANSITION ELECTRIC DIPOLE MOMENTS
-----------------------------------------------------------------------------
State   Energy  Wavelength   fosc         T2         TX        TY        TZ
        (cm-1)    (nm)                  (au**2)     (au)      (au)      (au)
-----------------------------------------------------------------------------
   0   11997.7    833.5   0.006769884   0.18576  -0.40772   0.12691  -0.05851
   1   13052.7    766.1   0.006121409   0.15439  -0.32321   0.22031  -0.03730
   2   14387.5    695.0   0.314924442   7.20603  -0.44147   2.62508   0.34655
   3   15201.0    657.8   0.135722553   2.93937   0.73767   1.39041   0.67969
   4   15556.8    642.8   0.017861088   0.37797   0.50772   0.21105   0.27504
   5   15730.5    635.7   0.007389280   0.15464   0.14034   0.34472   0.12695
   6   18091.6    552.7   0.558140431  10.15643  -0.50717   3.11039   0.47403
   7   18807.2    531.7   0.108130124   1.89277  -1.15118  -0.52070  -0.54446
   8   19311.1    517.8   0.140179842   2.38976  -1.32191  -0.55862  -0.57467
   9   19388.7    515.8   0.042078965   0.71448   0.83975  -0.06678   0.06959
  10   19972.5    500.7   0.028975823   0.47762   0.62660   0.28706   0.05090
  11   20336.3    491.7   0.152977026   2.47645   0.91737  -1.27438   0.10403
  12   20573.5    486.1   0.064076253   1.02533  -0.91898  -0.30948  -0.29161
  13   21115.8    473.6   0.094652236   1.47570  -0.90090  -0.59524  -0.55657
  14   21672.0    461.4   0.026234557   0.39852   0.56981  -0.25985   0.07948
  15   21860.7    457.4   0.098859172   1.48877  -0.82114  -0.78893  -0.43829
  16   22795.4    438.7   0.007429208   0.10729   0.30010   0.08403   0.10087
  17   23154.5    431.9   0.170039240   2.41763   0.40429  -1.49735  -0.11013
  18   24420.5    409.5   0.010106868   0.13625   0.04800   0.25794  -0.25964
  19   24657.1    405.6   0.005323609   0.07108  -0.26156  -0.02271   0.04637
  20   25074.8    398.8   0.017896884   0.23497  -0.29867  -0.26298  -0.27678
  21   25100.0    398.4   0.008534505   0.11194  -0.25061  -0.04218  -0.21761
  22   25159.2    397.5   0.000694704   0.00909  -0.03367   0.04619  -0.07631
  23   25276.3    395.6   0.025019737   0.32587  -0.42476  -0.07930  -0.37304
  24   25573.1    391.0   0.023460635   0.30202   0.52628  -0.14783  -0.05647
  25   25681.0    389.4   0.001864967   0.02391   0.09904  -0.00112   0.11874
  26   26621.4    375.6   0.021691758   0.26825   0.05555  -0.50964   0.07371
  27   26707.5    374.4   0.009259270   0.11414  -0.07077  -0.26268  -0.20032
  28   27128.4    368.6   0.010857365   0.13176  -0.16836   0.13895   0.29001
  29   27273.9    366.7   0.054576357   0.65877  -0.07893  -0.59017  -0.55158
  30   27711.6    360.9   0.003492397   0.04149   0.18536  -0.01619   0.08287
  31   27832.7    359.3   0.054850123   0.64878  -0.00225  -0.76360  -0.25631
  32   27921.7    358.1   0.081312728   0.95872   0.80737   0.29213   0.47068
  33   28525.8    350.6   0.003284322   0.03790   0.14182   0.08202  -0.10519
  34   28542.3    350.4   0.044017353   0.50770  -0.62514   0.27638   0.20129
  35   28770.5    347.6   0.023951220   0.27407   0.06099   0.51113   0.09534
  36   29232.6    342.1   0.016780171   0.18898   0.20631  -0.37651   0.06820
  37   29465.5    339.4   0.035656159   0.39838   0.14225  -0.61305   0.04812
  38   29673.6    337.0   0.300337066   3.33207   0.32166   1.79223  -0.12844
  39   29723.8    336.4   0.190038795   2.10482   0.74923  -0.73652   1.00050
  40   29902.7    334.4   0.067641993   0.74470  -0.44843  -0.64296   0.36084
  41   29973.6    333.6   0.037613500   0.41312  -0.51637   0.09958  -0.36955
  42   30272.2    330.3   0.006922234   0.07528  -0.22586   0.15027   0.04108
  43   30589.0    326.9   0.025085869   0.26998   0.43208  -0.28663   0.03371
  44   30703.2    325.7   0.022972588   0.24632   0.20549  -0.45174  -0.00512
  45   30970.8    322.9   0.143412398   1.52444   0.22309   1.15428   0.37724
  46   31419.9    318.3   0.006389263   0.06695   0.04748   0.18575   0.17375
  47   31634.0    316.1   0.089819751   0.93475   0.78527   0.17582   0.53589
  48   31991.6    312.6   0.009475313   0.09751   0.17147   0.21160   0.15274
  49   32134.4    311.2   0.037429926   0.38346   0.19374   0.55487   0.19507
  50   32211.5    310.4   0.027458208   0.28063   0.52685   0.05527  -0.00121
  51   32468.6    308.0   0.000886329   0.00899  -0.00854   0.09182  -0.02199
  52   32971.8    303.3   0.142918183   1.42699   1.06747   0.15655   0.51281
  53   33023.7    302.8   0.106089321   1.05760  -0.36827   0.94328   0.17947
  54   33138.8    301.8   0.128078179   1.27237  -1.00973   0.39365  -0.31283
  55   33285.7    300.4   0.005199302   0.05142  -0.09871   0.19998   0.04108
  56   33487.5    298.6   0.010686366   0.10506   0.08253  -0.31105  -0.03868
  57   33651.6    297.2   0.107810208   1.05470  -0.39573  -0.73023   0.60404
  58   33860.7    295.3   0.006342127   0.06166   0.19274   0.15656   0.00167
  59   34071.5    293.5   0.007268010   0.07023  -0.20235   0.11828  -0.12365
  60   34187.9    292.5   0.036161337   0.34822   0.56007  -0.18323  -0.03099
  61   34588.7    289.1   0.003360933   0.03199  -0.14228  -0.09742  -0.04749
  62   34766.5    287.6   0.038303586   0.36270  -0.10722   0.57466  -0.14482
  63   34834.6    287.1   0.026808259   0.25336  -0.06727   0.49495  -0.06209
  64   34963.0    286.0   0.031827562   0.29969  -0.41055  -0.29902   0.20427
  65   35005.2    285.7   0.205517066   1.93282  -0.33764   1.10936  -0.76689
  66   35161.5    284.4   0.033661076   0.31516  -0.12709   0.52599   0.14949
  67   35261.6    283.6   0.107006814   0.99904  -0.82383  -0.55011  -0.13315
  68   35409.8    282.4   0.068810944   0.63975   0.18061  -0.74985  -0.21180
  69   35558.0    281.2   0.067477137   0.62473   0.15246  -0.77126  -0.08154
  70   35825.4    279.1   0.056798838   0.52194  -0.16940   0.65792  -0.24573
  71   36062.2    277.3   0.027426463   0.25038   0.09505  -0.20313  -0.44730
  72   36210.9    276.2   0.080065501   0.72792   0.26260   0.73906  -0.33578
  73   36297.5    275.5   0.019640756   0.17814  -0.25715  -0.16994  -0.28832
  74   36552.9    273.6   0.163666654   1.47405   0.09417  -1.19237   0.20844
  75   36737.8    272.2   0.031315313   0.28062   0.34688   0.04379  -0.39797
  76   36748.3    272.1   0.009110610   0.08162  -0.19300   0.20976   0.01914
  77   36876.0    271.2   0.027495190   0.24546  -0.37401  -0.23831  -0.22089
  78   37036.2    270.0   0.009944172   0.08839   0.02396  -0.14054   0.26090
  79   37103.8    269.5   0.010424905   0.09250  -0.18277   0.20668   0.12797
  80   37437.7    267.1   0.114393363   1.00593  -0.15410  -0.87008   0.47450
  81   37571.7    266.2   0.049637107   0.43493   0.00655   0.65941  -0.00834
  82   37758.5    264.8   0.284984837   2.48475   0.54215  -1.37674   0.54353
  83   37828.1    264.4   0.332616126   2.89471  -0.38150  -1.53645   0.62327
  84   37911.0    263.8   0.394683147   3.42736   0.42433  -1.67995   0.65199
  85   38002.8    263.1   0.130047859   1.12658  -0.71793   0.32639   0.71037
  86   38281.3    261.2   0.227540394   1.95681   0.54557   1.22740  -0.39071
  87   38298.5    261.1   0.126959677   1.09134   0.03123  -0.67503  -0.79668
  88   38602.4    259.1   0.189357108   1.61489  -0.41409  -1.10547   0.47049
  89   38776.6    257.9   0.311070521   2.64098   0.50776  -0.74005   1.35480
  90   39018.7    256.3   0.020577463   0.17362  -0.08458   0.20109   0.35500
  91   39315.8    254.4   0.047925216   0.40130   0.23367  -0.57858  -0.10928
  92   39623.3    252.4   0.003409169   0.02833   0.03787   0.16360   0.01119
  93   39785.5    251.3   0.003951905   0.03270  -0.11247  -0.14065  -0.01643
  94   39857.8    250.9   0.001903388   0.01572   0.06953  -0.06879   0.07845
  95   39969.4    250.2   0.008280082   0.06820  -0.03020  -0.20963   0.15278
  96   40150.3    249.1   0.009687289   0.07943  -0.09691   0.26133  -0.04178

FINAL SINGLE POINT ENERGY     -4752.056539564612

DIPOLE MOMENT
-------------
                                X             Y             Z
Electronic contribution:    -10.14126      -0.03936     -10.01622
Nuclear contribution   :      9.76995       0.53218      11.28759
                        -----------------------------------------
Total Dipole Moment    :     -0.37131       0.49282       1.27136
                        -----------------------------------------
Magnitude (a.u.)       :      1.41319
Magnitude (Debye)      :      3.59205

Rotational constants in cm-1:     0.001607     0.000334     0.000297
Rotational constants in MHz :    48.170435    10.003127     8.908672

                             ****ORCA TERMINATED NORMALLY****
TOTAL RUN TIME: 0 days 0 hours 8 minutes 45 seconds 996 msec
