                         Program Version 4.2.0 -  RELEASE  -
|  1> # ORCA input file
|  2> # SCF done       -199.338879150697          0.000846546896
|  3> ! CAM-B3LYP def2-SVP def2/J RIJCOSX Grid4 TightSCF
|  4> %maxcore 5000
|  5> %tddft
|  6>     Mode sTDDFT
|  7>     Ethresh 5.0
|  8>     maxcore 5000
|  9> end
| 10>
| 11> %pal
| 12>   nprocs 6
| 13>   end
| 14> * xyz 0 1
| 15>    C       -1.37196        -7.55844        -2.12642
| 16>    C       -2.50613        -8.12511        -2.69405
| 17>    C       -3.83597        -7.74323        -2.27054
| 18>    N       -4.91170        -8.25149        -2.90422
| 19>    C       -4.73183        -9.13185        -3.85118
| 20>    C       -3.40729        -9.56540        -4.22423
| 21>    N       -2.34725        -9.05172        -3.66568
| 22>    C       -3.25687       -10.55964        -5.22513
| 23>    N       -3.17900       -11.36766        -6.03285
| 24>    C       -5.85757        -9.66408        -4.52878
| 25>    N       -6.73873       -10.11821        -5.10266
| 26>    C       -4.03890        -6.80864        -1.24109
| 27>    C       -2.88509        -6.28910        -0.63808
| 28>    C       -1.55802        -6.64022        -1.10230
| 29>    N       -0.60677        -5.98803        -0.41758
| 30>    S       -1.30569        -5.06582         0.68261
| 31>    N       -2.83394        -5.41965         0.38012
| 32>    C       -5.38683        -6.41496        -0.82134
| 33>    C       -5.71985        -5.03562        -0.64139
| 34>    C       -6.95399        -4.69832        -0.13543
| 35>    C       -7.91448        -5.68158         0.15242
| 36>    C       -7.59396        -7.05139        -0.06732
| 37>    C       -6.31661        -7.38926        -0.54710
| 38>    N       -8.49090        -8.02112         0.20600
| 39>    C       -9.65322        -7.64603         0.66595
| 40>    C       -9.97577        -6.28714         0.87294
| 41>    N       -9.12806        -5.32617         0.62621
| 42>    C       -4.76452        -3.99017        -0.97534
| 43>    C       -3.98215        -4.00639        -2.06418
| 44>    C       -2.87828        -3.11627        -2.34713
| 45>    C       -2.29680        -3.13626        -3.59425
| 46>    C       -1.15284        -2.35910        -3.86068
| 47>    C       -0.39196        -2.21402        -5.01476
| 48>    C       -0.67766        -2.85079        -6.33113
| 49>    C       -1.35088        -1.85803        -7.30686
| 50>    N       -0.47319        -0.74452        -7.62750
| 51>    C        0.56042        -3.50088        -6.97713
| 52>    N        0.14815        -4.70179        -7.68469
| 53>    C        0.69148        -1.31628        -4.68620
| 54>    C        1.71861        -0.84589        -5.42106
| 55>    C        2.70453         0.11662        -4.85636
| 56>    C        2.50244         0.44903        -3.41470
| 57>    C        1.48229        -0.04328        -2.68783
| 58>    C        0.54565        -0.92297        -3.27900
| 59>    C       -0.58090        -1.55841        -2.78943
| 60>    C       -1.19904        -1.55120        -1.51970
| 61>    C       -2.31358        -2.29959        -1.31388
| 62>    C        2.65203         1.35605        -5.73166
| 63>    C        1.85207         2.38164        -5.46909
| 64>    C        1.79857         3.59555        -6.28563
| 65>    C        1.82882         4.88710        -5.66074
| 66>    C        1.76797         6.01742        -6.45405
| 67>    C        1.69367         5.92134        -7.85130
| 68>    C        1.68422         4.63718        -8.46591
| 69>    C        1.73830         3.49071        -7.65301
| 70>    N        1.62033         4.51350        -9.80816
| 71>    C        1.57161         5.61747       -10.50423
| 72>    C        1.58150         6.89201        -9.89592
| 73>    N        1.63953         7.04393        -8.60174
| 74>    C        1.95418         4.96183        -4.22482
| 75>    C        2.21182         6.06767        -3.49537
| 76>    C        2.33031         6.07230        -2.06846
| 77>    C        2.66566         7.27983        -1.40776
| 78>    C        2.80402         7.35633         0.02750
| 79>    N        3.13921         8.52679         0.61618
| 80>    C        3.33156         9.57469        -0.13686
| 81>    C        3.18549         9.50208        -1.56685
| 82>    N        2.86219         8.37882        -2.15622
| 83>    C        3.39497        10.66022        -2.35529
| 84>    N        3.57045        11.61548        -2.96303
| 85>    C        3.69112        10.80934         0.46293
| 86>    N        3.98811        11.82211         0.90714
| 87>    C        2.60341         6.24345         0.83382
| 88>    C        2.27134         5.04872         0.20822
| 89>    C        2.13693         4.94993        -1.23363
| 90>    N        1.81846         3.70516        -1.60473
| 91>    S        1.70084         2.77890        -0.29770
| 92>    N        2.04337         3.87517         0.81206
| 93>    H       -0.39106        -7.83586        -2.47243
| 94>    H       -7.22185        -3.66459         0.02262
| 95>    H       -6.07972        -8.43517        -0.65960
| 96>    H      -10.36672        -8.42993         0.88134
| 97>    H      -10.94785        -5.99347         1.24614
| 98>    H       -4.72164        -3.16592        -0.27763
| 99>    H       -4.14161        -4.78131        -2.80550
|100>    H       -2.71607        -3.75916        -4.37189
|101>    H       -1.39481        -3.66035        -6.16257
|102>    H       -2.30965        -1.54027        -6.86566
|103>    H       -1.57086        -2.38824        -8.23724
|104>    H       -0.41079        -0.10988        -6.83822
|105>    H       -0.84182        -0.22209        -8.41419
|106>    H        1.25925        -3.80718        -6.19428
|107>    H        1.05590        -2.76285        -7.62447
|108>    H       -0.43232        -4.46224        -8.48142
|109>    H        0.95433        -5.20837        -8.03191
|110>    H        1.83811        -1.10482        -6.46158
|111>    H        3.70870        -0.31564        -4.97572
|112>    H        3.21894         1.13199        -2.98424
|113>    H        1.36674         0.22300        -1.64662
|114>    H       -0.77620        -0.95622        -0.72299
|115>    H       -2.77977        -2.30995        -0.34091
|116>    H        3.29992         1.36476        -6.59602
|117>    H        1.21651         2.34427        -4.59430
|118>    H        1.77433         7.00636        -6.02505
|119>    H        1.70878         2.52487        -8.13405
|120>    H        1.52279         5.51137       -11.57971
|121>    H        1.54079         7.79509       -10.48995
|122>    H        1.85827         4.03380        -3.68340
|123>    H        2.36587         7.03185        -3.95716
|124>    H        2.70722         6.31432         1.90282
|125> *
|126>
|127>                          ****END OF INPUT****

CARTESIAN COORDINATES (ANGSTROEM)
---------------------------------
  C     -1.371960   -7.558440   -2.126420
  C     -2.506130   -8.125110   -2.694050
  C     -3.835970   -7.743230   -2.270540
  N     -4.911700   -8.251490   -2.904220
  C     -4.731830   -9.131850   -3.851180
  C     -3.407290   -9.565400   -4.224230
  N     -2.347250   -9.051720   -3.665680
  C     -3.256870  -10.559640   -5.225130
  N     -3.179000  -11.367660   -6.032850
  C     -5.857570   -9.664080   -4.528780
  N     -6.738730  -10.118210   -5.102660
  C     -4.038900   -6.808640   -1.241090
  C     -2.885090   -6.289100   -0.638080
  C     -1.558020   -6.640220   -1.102300
  N     -0.606770   -5.988030   -0.417580
  S     -1.305690   -5.065820    0.682610
  N     -2.833940   -5.419650    0.380120
  C     -5.386830   -6.414960   -0.821340
  C     -5.719850   -5.035620   -0.641390
  C     -6.953990   -4.698320   -0.135430
  C     -7.914480   -5.681580    0.152420
  C     -7.593960   -7.051390   -0.067320
  C     -6.316610   -7.389260   -0.547100
  N     -8.490900   -8.021120    0.206000
  C     -9.653220   -7.646030    0.665950
  C     -9.975770   -6.287140    0.872940
  N     -9.128060   -5.326170    0.626210
  C     -4.764520   -3.990170   -0.975340
  C     -3.982150   -4.006390   -2.064180
  C     -2.878280   -3.116270   -2.347130
  C     -2.296800   -3.136260   -3.594250
  C     -1.152840   -2.359100   -3.860680
  C     -0.391960   -2.214020   -5.014760
  C     -0.677660   -2.850790   -6.331130
  C     -1.350880   -1.858030   -7.306860
  N     -0.473190   -0.744520   -7.627500
  C      0.560420   -3.500880   -6.977130
  N      0.148150   -4.701790   -7.684690
  C      0.691480   -1.316280   -4.686200
  C      1.718610   -0.845890   -5.421060
  C      2.704530    0.116620   -4.856360
  C      2.502440    0.449030   -3.414700
  C      1.482290   -0.043280   -2.687830
  C      0.545650   -0.922970   -3.279000
  C     -0.580900   -1.558410   -2.789430
  C     -1.199040   -1.551200   -1.519700
  C     -2.313580   -2.299590   -1.313880
  C      2.652030    1.356050   -5.731660
  C      1.852070    2.381640   -5.469090
  C      1.798570    3.595550   -6.285630
  C      1.828820    4.887100   -5.660740
  C      1.767970    6.017420   -6.454050
  C      1.693670    5.921340   -7.851300
  C      1.684220    4.637180   -8.465910
  C      1.738300    3.490710   -7.653010
  N      1.620330    4.513500   -9.808160
  C      1.571610    5.617470  -10.504230
  C      1.581500    6.892010   -9.895920
  N      1.639530    7.043930   -8.601740
  C      1.954180    4.961830   -4.224820
  C      2.211820    6.067670   -3.495370
  C      2.330310    6.072300   -2.068460
  C      2.665660    7.279830   -1.407760
  C      2.804020    7.356330    0.027500
  N      3.139210    8.526790    0.616180
  C      3.331560    9.574690   -0.136860
  C      3.185490    9.502080   -1.566850
  N      2.862190    8.378820   -2.156220
  C      3.394970   10.660220   -2.355290
  N      3.570450   11.615480   -2.963030
  C      3.691120   10.809340    0.462930
  N      3.988110   11.822110    0.907140
  C      2.603410    6.243450    0.833820
  C      2.271340    5.048720    0.208220
  C      2.136930    4.949930   -1.233630
  N      1.818460    3.705160   -1.604730
  S      1.700840    2.778900   -0.297700
  N      2.043370    3.875170    0.812060
  H     -0.391060   -7.835860   -2.472430
  H     -7.221850   -3.664590    0.022620
  H     -6.079720   -8.435170   -0.659600
  H    -10.366720   -8.429930    0.881340
  H    -10.947850   -5.993470    1.246140
  H     -4.721640   -3.165920   -0.277630
  H     -4.141610   -4.781310   -2.805500
  H     -2.716070   -3.759160   -4.371890
  H     -1.394810   -3.660350   -6.162570
  H     -2.309650   -1.540270   -6.865660
  H     -1.570860   -2.388240   -8.237240
  H     -0.410790   -0.109880   -6.838220
  H     -0.841820   -0.222090   -8.414190
  H      1.259250   -3.807180   -6.194280
  H      1.055900   -2.762850   -7.624470
  H     -0.432320   -4.462240   -8.481420
  H      0.954330   -5.208370   -8.031910
  H      1.838110   -1.104820   -6.461580
  H      3.708700   -0.315640   -4.975720
  H      3.218940    1.131990   -2.984240
  H      1.366740    0.223000   -1.646620
  H     -0.776200   -0.956220   -0.722990
  H     -2.779770   -2.309950   -0.340910
  H      3.299920    1.364760   -6.596020
  H      1.216510    2.344270   -4.594300
  H      1.774330    7.006360   -6.025050
  H      1.708780    2.524870   -8.134050
  H      1.522790    5.511370  -11.579710
  H      1.540790    7.795090  -10.489950
  H      1.858270    4.033800   -3.683400
  H      2.365870    7.031850   -3.957160
  H      2.707220    6.314320    1.902820

 Total Charge           Charge          ....    0
 Multiplicity           Mult            ....    1
 Number of Electrons    NEL             ....  538
 Basis Dimension        Dim             .... 1260

ORBITAL ENERGIES
----------------

  NO   OCC          E(Eh)            E(eV)
   0   2.0000     -89.058443     -2423.4034
   1   2.0000     -89.049960     -2423.1726
   2   2.0000     -14.468963      -393.7205
   3   2.0000     -14.465716      -393.6321
   4   2.0000     -14.465686      -393.6313
   5   2.0000     -14.462469      -393.5438
   6   2.0000     -14.461546      -393.5187
   7   2.0000     -14.460768      -393.4975
   8   2.0000     -14.452034      -393.2598
   9   2.0000     -14.451223      -393.2378
  10   2.0000     -14.433297      -392.7500
  11   2.0000     -14.432297      -392.7228
  12   2.0000     -14.428040      -392.6069
  13   2.0000     -14.427574      -392.5942
  14   2.0000     -14.426044      -392.5526
  15   2.0000     -14.425730      -392.5441
  16   2.0000     -14.419077      -392.3630
  17   2.0000     -14.418307      -392.3421
  18   2.0000     -14.389196      -391.5499
  19   2.0000     -14.376856      -391.2141
  20   2.0000     -10.387314      -282.6532
  21   2.0000     -10.385567      -282.6056
  22   2.0000     -10.381082      -282.4836
  23   2.0000     -10.380541      -282.4689
  24   2.0000     -10.352814      -281.7144
  25   2.0000     -10.352538      -281.7069
  26   2.0000     -10.352071      -281.6942
  27   2.0000     -10.350518      -281.6519
  28   2.0000     -10.346880      -281.5529
  29   2.0000     -10.346287      -281.5368
  30   2.0000     -10.341135      -281.3966
  31   2.0000     -10.340413      -281.3769
  32   2.0000     -10.328843      -281.0621
  33   2.0000     -10.326071      -280.9867
  34   2.0000     -10.325519      -280.9717
  35   2.0000     -10.321213      -280.8545
  36   2.0000     -10.321134      -280.8523
  37   2.0000     -10.321044      -280.8499
  38   2.0000     -10.320679      -280.8399
  39   2.0000     -10.319682      -280.8128
  40   2.0000     -10.319271      -280.8017
  41   2.0000     -10.318076      -280.7691
  42   2.0000     -10.314129      -280.6617
  43   2.0000     -10.312298      -280.6119
  44   2.0000     -10.311776      -280.5977
  45   2.0000     -10.310378      -280.5597
  46   2.0000     -10.309830      -280.5447
  47   2.0000     -10.306410      -280.4517
  48   2.0000     -10.305603      -280.4297
  49   2.0000     -10.301447      -280.3166
  50   2.0000     -10.299881      -280.2740
  51   2.0000     -10.299594      -280.2662
  52   2.0000     -10.298616      -280.2396
  53   2.0000     -10.294089      -280.1164
  54   2.0000     -10.293196      -280.0921
  55   2.0000     -10.292180      -280.0644
  56   2.0000     -10.291007      -280.0325
  57   2.0000     -10.289616      -279.9947
  58   2.0000     -10.287821      -279.9458
  59   2.0000     -10.285504      -279.8828
  60   2.0000     -10.283762      -279.8354
  61   2.0000     -10.282570      -279.8030
  62   2.0000     -10.280599      -279.7493
  63   2.0000     -10.279952      -279.7317
  64   2.0000     -10.277294      -279.6594
  65   2.0000     -10.276861      -279.6476
  66   2.0000     -10.276666      -279.6423
  67   2.0000     -10.276268      -279.6315
  68   2.0000     -10.275667      -279.6151
  69   2.0000     -10.274735      -279.5898
  70   2.0000     -10.273883      -279.5666
  71   2.0000     -10.273266      -279.5498
  72   2.0000     -10.272213      -279.5211
  73   2.0000     -10.266619      -279.3689
  74   2.0000     -10.266093      -279.3546
  75   2.0000     -10.265431      -279.3366
  76   2.0000     -10.264340      -279.3069
  77   2.0000     -10.264093      -279.3002
  78   2.0000      -8.149194      -221.7508
  79   2.0000      -8.140682      -221.5192
  80   2.0000      -6.120131      -166.5372
  81   2.0000      -6.112415      -166.3273
  82   2.0000      -6.112276      -166.3235
  83   2.0000      -6.111455      -166.3012
  84   2.0000      -6.104197      -166.1037
  85   2.0000      -6.103699      -166.0901
  86   2.0000      -1.151772       -31.3413
  87   2.0000      -1.142166       -31.0799
  88   2.0000      -1.124508       -30.5994
  89   2.0000      -1.118655       -30.4402
  90   2.0000      -1.081101       -29.4182
  91   2.0000      -1.074055       -29.2265
  92   2.0000      -1.051556       -28.6143
  93   2.0000      -1.046051       -28.4645
  94   2.0000      -1.017138       -27.6777
  95   2.0000      -1.012271       -27.5453
  96   2.0000      -1.007445       -27.4140
  97   2.0000      -1.004314       -27.3288
  98   2.0000      -1.004132       -27.3238
  99   2.0000      -1.002142       -27.2697
 100   2.0000      -0.996953       -27.1285
 101   2.0000      -0.995572       -27.0909
 102   2.0000      -0.988938       -26.9104
 103   2.0000      -0.982830       -26.7442
 104   2.0000      -0.980042       -26.6683
 105   2.0000      -0.971989       -26.4492
 106   2.0000      -0.969829       -26.3904
 107   2.0000      -0.955404       -25.9979
 108   2.0000      -0.952520       -25.9194
 109   2.0000      -0.949763       -25.8444
 110   2.0000      -0.921961       -25.0878
 111   2.0000      -0.915800       -24.9202
 112   2.0000      -0.910122       -24.7657
 113   2.0000      -0.905140       -24.6301
 114   2.0000      -0.893092       -24.3023
 115   2.0000      -0.889687       -24.2096
 116   2.0000      -0.884340       -24.0641
 117   2.0000      -0.879814       -23.9409
 118   2.0000      -0.870659       -23.6918
 119   2.0000      -0.849771       -23.1234
 120   2.0000      -0.842998       -22.9392
 121   2.0000      -0.842665       -22.9301
 122   2.0000      -0.841272       -22.8922
 123   2.0000      -0.833314       -22.6756
 124   2.0000      -0.832250       -22.6467
 125   2.0000      -0.830137       -22.5892
 126   2.0000      -0.823527       -22.4093
 127   2.0000      -0.798730       -21.7345
 128   2.0000      -0.797514       -21.7015
 129   2.0000      -0.795846       -21.6561
 130   2.0000      -0.773576       -21.0501
 131   2.0000      -0.763696       -20.7812
 132   2.0000      -0.761128       -20.7114
 133   2.0000      -0.756668       -20.5900
 134   2.0000      -0.746432       -20.3114
 135   2.0000      -0.739740       -20.1293
 136   2.0000      -0.735411       -20.0115
 137   2.0000      -0.730323       -19.8731
 138   2.0000      -0.722673       -19.6649
 139   2.0000      -0.719379       -19.5753
 140   2.0000      -0.711881       -19.3713
 141   2.0000      -0.707975       -19.2650
 142   2.0000      -0.705226       -19.1902
 143   2.0000      -0.700944       -19.0736
 144   2.0000      -0.694941       -18.9103
 145   2.0000      -0.692120       -18.8335
 146   2.0000      -0.688216       -18.7273
 147   2.0000      -0.684658       -18.6305
 148   2.0000      -0.674038       -18.3415
 149   2.0000      -0.668843       -18.2001
 150   2.0000      -0.663911       -18.0659
 151   2.0000      -0.659924       -17.9575
 152   2.0000      -0.652023       -17.7424
 153   2.0000      -0.649188       -17.6653
 154   2.0000      -0.646722       -17.5982
 155   2.0000      -0.634433       -17.2638
 156   2.0000      -0.631236       -17.1768
 157   2.0000      -0.629759       -17.1366
 158   2.0000      -0.625025       -17.0078
 159   2.0000      -0.617936       -16.8149
 160   2.0000      -0.616943       -16.7879
 161   2.0000      -0.612963       -16.6796
 162   2.0000      -0.608550       -16.5595
 163   2.0000      -0.599800       -16.3214
 164   2.0000      -0.598315       -16.2810
 165   2.0000      -0.594204       -16.1691
 166   2.0000      -0.593502       -16.1500
 167   2.0000      -0.583927       -15.8895
 168   2.0000      -0.582031       -15.8379
 169   2.0000      -0.580590       -15.7987
 170   2.0000      -0.575386       -15.6570
 171   2.0000      -0.573769       -15.6130
 172   2.0000      -0.569118       -15.4865
 173   2.0000      -0.565461       -15.3870
 174   2.0000      -0.564141       -15.3511
 175   2.0000      -0.558062       -15.1857
 176   2.0000      -0.557136       -15.1605
 177   2.0000      -0.552494       -15.0341
 178   2.0000      -0.548837       -14.9346
 179   2.0000      -0.546173       -14.8621
 180   2.0000      -0.539440       -14.6789
 181   2.0000      -0.535174       -14.5628
 182   2.0000      -0.534178       -14.5357
 183   2.0000      -0.533070       -14.5056
 184   2.0000      -0.532388       -14.4870
 185   2.0000      -0.531255       -14.4562
 186   2.0000      -0.526171       -14.3178
 187   2.0000      -0.524974       -14.2853
 188   2.0000      -0.523775       -14.2526
 189   2.0000      -0.520824       -14.1723
 190   2.0000      -0.520478       -14.1629
 191   2.0000      -0.519331       -14.1317
 192   2.0000      -0.518019       -14.0960
 193   2.0000      -0.510787       -13.8992
 194   2.0000      -0.509912       -13.8754
 195   2.0000      -0.508208       -13.8290
 196   2.0000      -0.504989       -13.7414
 197   2.0000      -0.500832       -13.6283
 198   2.0000      -0.497555       -13.5392
 199   2.0000      -0.494342       -13.4517
 200   2.0000      -0.491185       -13.3658
 201   2.0000      -0.486543       -13.2395
 202   2.0000      -0.484863       -13.1938
 203   2.0000      -0.483824       -13.1655
 204   2.0000      -0.481355       -13.0983
 205   2.0000      -0.479548       -13.0492
 206   2.0000      -0.478192       -13.0123
 207   2.0000      -0.474715       -12.9177
 208   2.0000      -0.470970       -12.8158
 209   2.0000      -0.464350       -12.6356
 210   2.0000      -0.463870       -12.6226
 211   2.0000      -0.462113       -12.5747
 212   2.0000      -0.458574       -12.4784
 213   2.0000      -0.458013       -12.4632
 214   2.0000      -0.456410       -12.4196
 215   2.0000      -0.453749       -12.3471
 216   2.0000      -0.453414       -12.3380
 217   2.0000      -0.451829       -12.2949
 218   2.0000      -0.447546       -12.1784
 219   2.0000      -0.447292       -12.1714
 220   2.0000      -0.445590       -12.1251
 221   2.0000      -0.444433       -12.0936
 222   2.0000      -0.442542       -12.0422
 223   2.0000      -0.442383       -12.0379
 224   2.0000      -0.441489       -12.0135
 225   2.0000      -0.436421       -11.8756
 226   2.0000      -0.432968       -11.7817
 227   2.0000      -0.432434       -11.7671
 228   2.0000      -0.430143       -11.7048
 229   2.0000      -0.425945       -11.5906
 230   2.0000      -0.423620       -11.5273
 231   2.0000      -0.422303       -11.4915
 232   2.0000      -0.421880       -11.4799
 233   2.0000      -0.419692       -11.4204
 234   2.0000      -0.417778       -11.3683
 235   2.0000      -0.416240       -11.3265
 236   2.0000      -0.414514       -11.2795
 237   2.0000      -0.412818       -11.2334
 238   2.0000      -0.411734       -11.2039
 239   2.0000      -0.410489       -11.1700
 240   2.0000      -0.410149       -11.1607
 241   2.0000      -0.408406       -11.1133
 242   2.0000      -0.396127       -10.7792
 243   2.0000      -0.394464       -10.7339
 244   2.0000      -0.390068       -10.6143
 245   2.0000      -0.388098       -10.5607
 246   2.0000      -0.385826       -10.4988
 247   2.0000      -0.385533       -10.4909
 248   2.0000      -0.381488       -10.3808
 249   2.0000      -0.379322       -10.3219
 250   2.0000      -0.365554        -9.9472
 251   2.0000      -0.363006        -9.8779
 252   2.0000      -0.360418        -9.8075
 253   2.0000      -0.359148        -9.7729
 254   2.0000      -0.354067        -9.6347
 255   2.0000      -0.343495        -9.3470
 256   2.0000      -0.335198        -9.1212
 257   2.0000      -0.332517        -9.0483
 258   2.0000      -0.329907        -8.9772
 259   2.0000      -0.324244        -8.8231
 260   2.0000      -0.321206        -8.7405
 261   2.0000      -0.316953        -8.6247
 262   2.0000      -0.316245        -8.6055
 263   2.0000      -0.305738        -8.3196
 264   2.0000      -0.295982        -8.0541
 265   2.0000      -0.291860        -7.9419
 266   2.0000      -0.277717        -7.5571
 267   2.0000      -0.276373        -7.5205
 268   2.0000      -0.225135        -6.1262
 269   0.0000      -0.125986        -3.4283
 270   0.0000      -0.114299        -3.1102
 271   0.0000      -0.073834        -2.0091
 272   0.0000      -0.058692        -1.5971
 273   0.0000      -0.049807        -1.3553

MULLIKEN ATOMIC CHARGES
-----------------------
   0 C :   -0.082903
   1 C :    0.019742
   2 C :   -0.064776
   3 N :    0.068338
   4 C :   -0.143724
   5 C :   -0.152955
   6 N :    0.062898
   7 C :   -0.197015
   8 N :    0.233020
   9 C :   -0.196525
  10 N :    0.234949
  11 C :    0.038611
  12 C :   -0.014617
  13 C :    0.116642
  14 N :   -0.266082
  15 S :    0.554653
  16 N :   -0.252210
  17 C :    0.020346
  18 C :    0.146422
  19 C :   -0.089991
  20 C :    0.011956
  21 C :   -0.014191
  22 C :   -0.006390
  23 N :   -0.011230
  24 C :    0.019156
  25 C :    0.024219
  26 N :   -0.018902
  27 C :   -0.021254
  28 C :    0.015981
  29 C :    0.096980
  30 C :   -0.103006
  31 C :    0.052459
  32 C :   -0.058325
  33 C :   -0.006785
  34 C :    0.142280
  35 N :   -0.237948
  36 C :    0.098173
  37 N :   -0.209615
  38 C :    0.063953
  39 C :   -0.104957
  40 C :    0.162788
  41 C :   -0.053574
  42 C :    0.010539
  43 C :    0.011925
  44 C :    0.042737
  45 C :   -0.009123
  46 C :   -0.019660
  47 C :   -0.074430
  48 C :   -0.000019
  49 C :    0.083013
  50 C :    0.146474
  51 C :   -0.072989
  52 C :   -0.010552
  53 C :   -0.003936
  54 C :   -0.077366
  55 N :   -0.016175
  56 C :    0.021676
  57 C :    0.021098
  58 N :   -0.006238
  59 C :    0.013249
  60 C :   -0.056012
  61 C :    0.118967
  62 C :   -0.056833
  63 C :    0.027947
  64 N :    0.055294
  65 C :   -0.147233
  66 C :   -0.137457
  67 N :    0.054206
  68 C :   -0.204572
  69 N :    0.236956
  70 C :   -0.200315
  71 N :    0.239867
  72 C :   -0.083243
  73 C :    0.097757
  74 C :   -0.000425
  75 N :   -0.292201
  76 S :    0.539454
  77 N :   -0.254261
  78 H :   -0.015740
  79 H :   -0.032523
  80 H :   -0.030901
  81 H :    0.012052
  82 H :    0.010696
  83 H :    0.002151
  84 H :   -0.009168
  85 H :   -0.039929
  86 H :   -0.018920
  87 H :   -0.006733
  88 H :   -0.015583
  89 H :    0.105336
  90 H :    0.099689
  91 H :   -0.002519
  92 H :    0.009132
  93 H :    0.084873
  94 H :    0.090864
  95 H :    0.003566
  96 H :    0.031252
  97 H :   -0.019312
  98 H :   -0.056518
  99 H :   -0.048390
 100 H :   -0.034379
 101 H :    0.007993
 102 H :    0.039068
 103 H :   -0.025500
 104 H :   -0.031717
 105 H :    0.014514
 106 H :    0.014147
 107 H :    0.003921
 108 H :   -0.001223
 109 H :   -0.014907
Sum of atomic charges:   -0.0000000

LOEWDIN ATOMIC CHARGES
----------------------
   0 C :    0.003803
   1 C :   -0.012468
   2 C :   -0.015117
   3 N :    0.009011
   4 C :   -0.031037
   5 C :   -0.028576
   6 N :    0.003509
   7 C :   -0.034976
   8 N :   -0.003987
   9 C :   -0.036287
  10 N :   -0.003863
  11 C :    0.002768
  12 C :   -0.041900
  13 C :   -0.046005
  14 N :   -0.285587
  15 S :    0.707888
  16 N :   -0.274880
  17 C :   -0.012643
  18 C :   -0.000750
  19 C :   -0.009119
  20 C :   -0.009431
  21 C :   -0.018211
  22 C :    0.019198
  23 N :   -0.036382
  24 C :   -0.000975
  25 C :    0.004592
  26 N :   -0.042731
  27 C :   -0.019964
  28 C :   -0.019582
  29 C :   -0.037193
  30 C :   -0.009562
  31 C :   -0.025130
  32 C :   -0.031487
  33 C :   -0.040956
  34 C :    0.029234
  35 N :   -0.114435
  36 C :    0.022310
  37 N :   -0.117433
  38 C :   -0.029648
  39 C :    0.078748
  40 C :   -0.030954
  41 C :   -0.033520
  42 C :   -0.029281
  43 C :   -0.042645
  44 C :   -0.031040
  45 C :   -0.014038
  46 C :   -0.035669
  47 C :    0.002594
  48 C :   -0.019517
  49 C :   -0.007612
  50 C :   -0.022713
  51 C :    0.011327
  52 C :   -0.017577
  53 C :   -0.010612
  54 C :   -0.012211
  55 N :   -0.042938
  56 C :    0.004526
  57 C :    0.001461
  58 N :   -0.036766
  59 C :    0.018002
  60 C :   -0.019547
  61 C :    0.000840
  62 C :   -0.013783
  63 C :   -0.009642
  64 N :    0.000638
  65 C :   -0.024498
  66 C :   -0.031453
  67 N :    0.006139
  68 C :   -0.037858
  69 N :   -0.003321
  70 C :   -0.035147
  71 N :   -0.000038
  72 C :   -0.009130
  73 C :   -0.045452
  74 C :   -0.040379
  75 N :   -0.279477
  76 S :    0.693636
  77 N :   -0.280520
  78 H :    0.049206
  79 H :    0.035187
  80 H :    0.034283
  81 H :    0.025947
  82 H :    0.025601
  83 H :    0.028402
  84 H :    0.027506
  85 H :    0.024757
  86 H :    0.028718
  87 H :    0.004858
  88 H :    0.012445
  89 H :    0.052629
  90 H :    0.058368
  91 H :    0.016978
  92 H :    0.000795
  93 H :    0.047993
  94 H :    0.054405
  95 H :    0.031214
  96 H :    0.057791
  97 H :    0.019324
  98 H :    0.013438
  99 H :    0.023061
 100 H :    0.019417
 101 H :    0.027306
 102 H :    0.035995
 103 H :    0.036952
 104 H :    0.034031
 105 H :    0.026694
 106 H :    0.026960
 107 H :    0.027292
 108 H :    0.030786
 109 H :    0.049084

  Mayer bond orders larger than 0.100000
B(  0-C ,  1-C ) :   1.3050 B(  0-C , 11-C ) :   0.1464 B(  0-C , 13-C ) :   1.1757
B(  0-C , 78-H ) :   1.0595 B(  1-C ,  2-C ) :   1.1226 B(  1-C ,  6-N ) :   1.3360
B(  2-C ,  3-N ) :   1.4186 B(  2-C , 11-C ) :   1.3561 B(  3-N ,  4-C ) :   1.7730
B(  4-C ,  5-C ) :   1.1704 B(  4-C ,  9-C ) :   1.1438 B(  5-C ,  6-N ) :   1.7972
B(  5-C ,  7-C ) :   1.1482 B(  7-C ,  8-N ) :   3.0534 B(  9-C , 10-N ) :   3.0503
B( 11-C , 12-C ) :   1.2830 B( 11-C , 17-C ) :   0.9477 B( 12-C , 13-C ) :   1.1273
B( 12-C , 16-N ) :   1.4917 B( 13-C , 14-N ) :   1.4420 B( 14-N , 15-S ) :   1.3278
B( 14-N , 16-N ) :   0.1624 B( 15-S , 16-N ) :   1.3132 B( 17-C , 18-C ) :   1.2568
B( 17-C , 22-C ) :   1.4348 B( 18-C , 19-C ) :   1.3949 B( 18-C , 27-C ) :   1.0324
B( 19-C , 20-C ) :   1.2118 B( 19-C , 22-C ) :   0.1047 B( 19-C , 79-H ) :   1.0251
B( 20-C , 21-C ) :   1.2431 B( 20-C , 26-N ) :   1.4206 B( 21-C , 22-C ) :   1.2219
B( 21-C , 23-N ) :   1.4304 B( 22-C , 80-H ) :   1.0091 B( 23-N , 24-C ) :   1.6739
B( 24-C , 25-C ) :   1.2224 B( 24-C , 81-H ) :   0.9742 B( 25-C , 26-N ) :   1.6754
B( 25-C , 82-H ) :   0.9736 B( 27-C , 28-C ) :   1.7510 B( 27-C , 83-H ) :   0.9554
B( 28-C , 29-C ) :   1.0757 B( 28-C , 84-H ) :   0.9739 B( 29-C , 30-C ) :   1.5118
B( 29-C , 46-C ) :   1.1320 B( 30-C , 31-C ) :   1.1195 B( 30-C , 85-H ) :   1.0051
B( 31-C , 32-C ) :   1.5017 B( 31-C , 44-C ) :   1.1178 B( 32-C , 33-C ) :   1.0481
B( 32-C , 38-C ) :   1.0862 B( 33-C , 34-C ) :   1.0313 B( 33-C , 36-C ) :   1.0285
B( 33-C , 86-H ) :   0.8704 B( 34-C , 35-N ) :   1.0949 B( 34-C , 87-H ) :   0.9385
B( 34-C , 88-H ) :   0.9379 B( 35-N , 89-H ) :   0.9556 B( 35-N , 90-H ) :   0.9670
B( 36-C , 37-N ) :   1.1060 B( 36-C , 91-H ) :   0.9498 B( 36-C , 92-H ) :   0.9253
B( 37-N , 93-H ) :   0.9703 B( 37-N , 94-H ) :   0.9681 B( 38-C , 39-C ) :   1.6662
B( 38-C , 43-C ) :   1.0570 B( 39-C , 40-C ) :   0.9681 B( 39-C , 95-H ) :   0.9560
B( 40-C , 41-C ) :   1.0046 B( 40-C , 47-C ) :   0.9612 B( 40-C , 96-H ) :   0.8610
B( 41-C , 42-C ) :   1.7027 B( 41-C , 97-H ) :   0.9745 B( 42-C , 43-C ) :   1.1326
B( 42-C , 98-H ) :   0.9813 B( 43-C , 44-C ) :   1.4319 B( 44-C , 45-C ) :   1.1379
B( 45-C , 46-C ) :   1.6027 B( 45-C , 99-H ) :   0.9914 B( 46-C ,100-H ) :   0.9795
B( 47-C , 48-C ) :   1.9003 B( 47-C ,101-H ) :   0.9742 B( 48-C , 49-C ) :   1.0052
B( 48-C ,102-H ) :   0.9268 B( 49-C , 50-C ) :   1.2116 B( 49-C , 54-C ) :   1.4462
B( 50-C , 51-C ) :   1.3724 B( 50-C , 59-C ) :   1.0727 B( 51-C , 52-C ) :   1.2273
B( 51-C , 54-C ) :   0.1026 B( 51-C ,103-H ) :   1.0153 B( 52-C , 53-C ) :   1.2377
B( 52-C , 58-N ) :   1.4440 B( 53-C , 54-C ) :   1.2055 B( 53-C , 55-N ) :   1.4313
B( 54-C ,104-H ) :   1.0181 B( 55-N , 56-C ) :   1.6696 B( 56-C , 57-C ) :   1.2229
B( 56-C ,105-H ) :   0.9738 B( 57-C , 58-N ) :   1.6755 B( 57-C ,106-H ) :   0.9742
B( 59-C , 60-C ) :   1.6288 B( 59-C ,107-H ) :   0.9505 B( 60-C , 61-C ) :   1.1702
B( 60-C ,108-H ) :   0.9653 B( 61-C , 62-C ) :   1.2529 B( 61-C , 72-C ) :   0.1402
B( 61-C , 74-C ) :   1.1937 B( 62-C , 63-C ) :   1.1279 B( 62-C , 67-N ) :   1.4276
B( 63-C , 64-N ) :   1.3328 B( 63-C , 72-C ) :   1.3158 B( 64-N , 65-C ) :   1.7924
B( 65-C , 66-C ) :   1.1798 B( 65-C , 70-C ) :   1.1538 B( 66-C , 67-N ) :   1.7609
B( 66-C , 68-C ) :   1.1487 B( 68-C , 69-N ) :   3.0477 B( 70-C , 71-N ) :   3.0517
B( 72-C , 73-C ) :   1.1778 B( 72-C ,109-H ) :   1.0558 B( 73-C , 74-C ) :   1.1249
B( 73-C , 77-N ) :   1.4621 B( 74-C , 75-N ) :   1.4766 B( 75-N , 76-S ) :   1.2832
B( 75-N , 77-N ) :   0.1588 B( 76-S , 77-N ) :   1.3152

-----------------------------------------------------------------------------
         ABSORPTION SPECTRUM VIA TRANSITION ELECTRIC DIPOLE MOMENTS
-----------------------------------------------------------------------------
State   Energy  Wavelength   fosc         T2         TX        TY        TZ
        (cm-1)    (nm)                  (au**2)     (au)      (au)      (au)
-----------------------------------------------------------------------------
   0    8731.9   1145.2   0.008266703   0.31167   0.17995   0.52483  -0.06195
   1    9044.6   1105.6   0.000442522   0.01611   0.03619   0.10241   0.06565
   2   14390.1    694.9   0.043894476   1.00420   0.28805   0.44561   0.85010
   3   16136.3    619.7   0.354231745   7.22703  -0.44510  -0.69900  -2.55740
   4   17541.5    570.1   0.015576854   0.29234   0.51434   0.15608  -0.05860
   5   20355.9    491.3   0.127515436   2.06229   1.22669  -0.50809  -0.54715
   6   22119.1    452.1   0.001652317   0.02459   0.06433   0.14302   0.00107
   7   24441.8    409.1   0.003668990   0.04942   0.00250   0.17432   0.13793
   8   24608.3    406.4   0.005556080   0.07433  -0.04525  -0.26403  -0.05071
   9   25036.6    399.4   0.007163493   0.09419   0.29602   0.03367  -0.07371
  10   25663.2    389.7   0.023152172   0.29700   0.34792   0.41650  -0.04976
  11   25836.1    387.1   0.019139554   0.24388  -0.02510   0.48880  -0.06576
  12   26195.8    381.7   0.021460949   0.26971  -0.22149  -0.22062   0.41470
  13   26463.4    377.9   0.095996570   1.19422   0.79721   0.42866  -0.61231
  14   26663.3    375.0   0.003630133   0.04482  -0.20876   0.02362  -0.02616
  15   27542.3    363.1   0.013357281   0.15966   0.30721   0.09993  -0.23515
  16   27598.6    362.3   0.149544429   1.78385   0.99446   0.33006  -0.82823
  17   27670.0    361.4   0.000997457   0.01187  -0.02006   0.07516   0.07626
  18   27819.8    359.5   0.333589261   3.94761  -1.51173  -0.94629   0.87568
  19   27825.6    359.4   0.012966050   0.15340  -0.28709  -0.26225   0.04698
  20   27937.3    357.9   0.000707243   0.00833   0.06636  -0.06202   0.00920
  21   28031.3    356.7   0.008542432   0.10033  -0.23782  -0.17663   0.11211
  22   28192.8    354.7   0.009804886   0.11449  -0.23219  -0.24612  -0.00221
  23   28275.0    353.7   0.038339717   0.44640  -0.17038  -0.53898  -0.35618
  24   28661.6    348.9   0.000604931   0.00695  -0.00024   0.06083  -0.05699
  25   28711.4    348.3   0.100085102   1.14760  -0.12934  -0.57445   0.89492
  26   29120.3    343.4   0.010346594   0.11697   0.07625  -0.04558  -0.33027
  27   29424.2    339.9   0.001027349   0.01149   0.02880   0.00275   0.10323
  28   29571.0    338.2   0.026900416   0.29948   0.09409   0.48628   0.23271
  29   29823.0    335.3   0.147614783   1.62950  -0.53175  -0.70587  -0.92114
  30   30348.0    329.5   0.949200023  10.29683   2.05557   2.00013  -1.43907
  31   30484.6    328.0   0.143416257   1.54879  -0.52889  -0.39816  -1.05382
  32   30589.5    326.9   0.194364543   2.09180   1.06560   0.97790   0.00444
  33   31090.8    321.6   0.024477720   0.25919   0.11584   0.19664  -0.45509
  34   31197.9    320.5   0.034680042   0.36596  -0.54752  -0.17102   0.19217
  35   31688.0    315.6   0.002130751   0.02214  -0.02805   0.10523   0.10138
  36   31756.1    314.9   0.006372746   0.06607   0.05990  -0.07408   0.23872
  37   31934.9    313.1   0.063448116   0.65408   0.12924   0.50154   0.62115
  38   32153.3    311.0   0.198007017   2.02736  -0.28764  -0.77345  -1.16034
  39   32381.0    308.8   0.024486569   0.24895  -0.43653  -0.23215   0.06704
  40   32631.8    306.5   0.002172909   0.02192   0.14774   0.00385   0.00888
  41   32637.8    306.4   0.006785727   0.06845   0.18680   0.14790   0.10807
  42   32810.7    304.8   0.003691297   0.03704  -0.10473   0.16016   0.02048
  43   32844.7    304.5   0.011309452   0.11336  -0.11068  -0.05392   0.31337
  44   33472.3    298.8   0.106448424   1.04696  -0.04542  -0.04087   1.02138
  45   33514.9    298.4   0.001472187   0.01446   0.01150   0.11840   0.01763
  46   34056.6    293.6   0.157515799   1.52265  -1.07927  -0.24360   0.54633
  47   34383.6    290.8   0.095156056   0.91109   0.35090  -0.47974  -0.74687
  48   34702.2    288.2   1.063519817  10.08936   0.75185   3.08116   0.17475
  49   34764.8    287.6   0.002534949   0.02401   0.07789  -0.04179  -0.12725
  50   35126.6    284.7   0.064309156   0.60272   0.70764   0.22564  -0.22595
  51   35143.2    284.6   0.000228726   0.00214   0.02209   0.03927  -0.01061
  52   35484.0    281.8   0.478051868   4.43525  -0.49804  -2.04622   0.01446
  53   35626.7    280.7   0.189701292   1.75295   0.20279   0.66961  -1.12403
  54   36249.6    275.9   0.117248612   1.06483   0.74782   0.23937  -0.66954
  55   36588.9    273.3   0.217914456   1.96071  -0.80385  -0.72058  -0.89180
  56   36853.1    271.3   0.045616978   0.40750   0.24805   0.00540  -0.58817
  57   36886.8    271.1   0.064004090   0.57123  -0.71343  -0.07851   0.23682
  58   37063.3    269.8   0.018345776   0.16295   0.07409  -0.01245   0.39662
  59   37258.6    268.4   0.126808277   1.12046  -0.30099  -0.92313  -0.42154
  60   37480.8    266.8   0.183008475   1.60745   0.25026   0.45420   1.15695
  61   37769.6    264.8   0.093289756   0.81314   0.33027   0.44821   0.70934
  62   37959.7    263.4   0.362560750   3.14437   1.08367   1.24735   0.64354
  63   38064.8    262.7   0.304747913   2.63568   0.10278   0.38307   1.57428
  64   38345.4    260.8   0.095382172   0.81890  -0.31405  -0.51968  -0.67097
  65   38671.8    258.6   0.131081418   1.11589  -0.44247  -0.53539  -0.79591
  66   38927.6    256.9   0.000223329   0.00189  -0.01640  -0.01998  -0.03493
  67   39506.3    253.1   0.192684618   1.60567  -0.88424  -0.88562   0.19866
  68   39640.8    252.3   0.000608169   0.00505  -0.03278  -0.05001  -0.03841
  69   39696.2    251.9   0.002866442   0.02377  -0.10988  -0.08495   0.06695
  70   39824.8    251.1   0.012438556   0.10282  -0.00364   0.04479   0.31750
  71   40105.1    249.3   0.239504674   1.96603  -0.71745  -0.93203   0.76330
  72   40188.9    248.8   0.007827027   0.06412  -0.16236   0.01850   0.19343

FINAL SINGLE POINT ENERGY     -4006.821669238671

DIPOLE MOMENT
-------------
                                X             Y             Z
Electronic contribution:     -0.90608       9.20451      47.06006
Nuclear contribution   :      1.87536      -9.24990     -46.66685
                        -----------------------------------------
Total Dipole Moment    :      0.96928      -0.04539       0.39321
                        -----------------------------------------
Magnitude (a.u.)       :      1.04699
Magnitude (Debye)      :      2.66123

Rotational constants in cm-1:     0.001288     0.000309     0.000274
Rotational constants in MHz :    38.613474     9.269320     8.213923

                             ****ORCA TERMINATED NORMALLY****
TOTAL RUN TIME: 0 days 0 hours 24 minutes 46 seconds 39 msec
