                         Program Version 4.2.0 -  RELEASE  -
|  1> # ORCA input file
|  2> # SCF done       -190.521159359552          0.000586435126
|  3> ! CAM-B3LYP def2-SVP def2/J RIJCOSX Grid4 TightSCF
|  4> %maxcore 5000
|  5> %tddft
|  6>     Mode sTDDFT
|  7>     Ethresh 5.0
|  8>     maxcore 5000
|  9> end
| 10>
| 11> %pal
| 12>   nprocs 6
| 13>   end
| 14> * xyz 0 1
| 15>    C       -7.12155        -0.14864        -2.13619
| 16>    C       -7.70814         0.44499        -1.04562
| 17>    C       -6.91015         1.52373        -0.51198
| 18>    N       -7.36475         2.24682         0.52595
| 19>    C       -8.49005         1.88612         1.06295
| 20>    C       -9.22970         0.74813         0.61064
| 21>    C      -10.43523         0.29538         1.36883
| 22>    C       -9.99987        -0.47087         2.62113
| 23>    N       -8.85847         0.07537        -0.43956
| 24>    C       -5.70741         1.70381        -1.19729
| 25>    S       -5.61893         0.57725        -2.51181
| 26>    C       -4.71550         2.70329        -1.00280
| 27>    C       -3.89800         3.22484        -1.97109
| 28>    C       -3.21683         4.36324        -1.42308
| 29>    C       -2.26156         5.12557        -2.10495
| 30>    N       -1.48484         5.75504        -2.67061
| 31>    C       -3.65396         4.57418        -0.13105
| 32>    C       -4.55861         3.52994         0.20881
| 33>    C       -5.08072         3.25645         1.45597
| 34>    C       -5.31797         4.21085         2.55380
| 35>    C       -5.77117         3.49072         3.62844
| 36>    C       -5.80626         2.09635         3.27242
| 37>    C       -5.40747         1.95672         1.96385
| 38>    C       -6.25216         1.06678         4.10678
| 39>    N       -6.66059         0.22872         4.77882
| 40>    C       -5.20815         5.62693         2.43398
| 41>    C       -5.15778         6.47321         3.48972
| 42>    C       -4.98401         7.89677         3.44157
| 43>    C       -4.73736         8.55899         4.63237
| 44>    C       -4.47583         9.93821         4.63990
| 45>    C       -4.13997        10.80956         5.67381
| 46>    C       -4.02035        10.62025         7.15303
| 47>    C       -5.33560        11.05498         7.84291
| 48>    N       -6.45396        10.20750         7.46513
| 49>    C       -3.52039         9.25386         7.65376
| 50>    N       -4.48755         8.17328         7.55213
| 51>    C       -3.93399        12.10684         5.06718
| 52>    C       -3.52528        13.27700         5.59389
| 53>    C       -3.33391        14.49174         4.75275
| 54>    C       -3.70382        14.31658         3.31850
| 55>    C       -4.08166        13.13309         2.79899
| 56>    C       -4.19267        11.99126         3.62804
| 57>    C       -4.50556        10.66866         3.37850
| 58>    C       -4.80542         9.97761         2.18256
| 59>    C       -5.02823         8.63839         2.21590
| 60>    C       -4.00157        15.65905         5.44404
| 61>    C       -5.02407        16.36352         4.96799
| 62>    C       -5.63254        17.44899         5.71058
| 63>    C       -5.88088        17.45836         7.04576
| 64>    C       -6.58551        18.68258         7.37815
| 65>    C       -6.96985        19.03861         8.67379
| 66>    N       -7.28668        19.31631         9.74327
| 67>    C       -6.79532        19.40000         6.23086
| 68>    C       -6.19089        18.68558         5.13981
| 69>    C       -6.02129        19.11834         3.84281
| 70>    C       -6.73266        20.21667         3.13824
| 71>    C       -6.12121        20.37817         1.91987
| 72>    C       -5.05377        19.42610         1.80975
| 73>    C       -5.01757        18.64852         2.94686
| 74>    C       -4.19122        19.31524         0.71225
| 75>    N       -3.48234        19.21652        -0.18600
| 76>    C       -7.89467        20.86796         3.61833
| 77>    C       -8.49419        21.93520         3.02162
| 78>    C       -9.62771        22.57834         3.56307
| 79>    C      -10.27184        22.37871         4.79327
| 80>    C      -11.39996        23.25268         4.97596
| 81>    N      -12.15085        23.19537         6.10070
| 82>    C      -11.77362        22.32656         6.99171
| 83>    C      -10.63477        21.48195         6.84240
| 84>    C      -10.23774        20.52305         7.92090
| 85>    C      -10.38340        19.07539         7.44959
| 86>    N       -9.90498        21.51024         5.75226
| 87>    C      -11.59604        24.10123         3.90734
| 88>    S      -10.42836        23.85088         2.69118
| 89>    H       -7.47193        -0.99203        -2.69458
| 90>    H       -8.85488         2.48916         1.88292
| 91>    H      -11.03029        -0.35524         0.72777
| 92>    H      -11.03430         1.16129         1.65804
| 93>    H       -9.43294        -1.35526         2.34121
| 94>    H      -10.87232        -0.78359         3.18860
| 95>    H       -9.37271         0.14714         3.26041
| 96>    H       -3.80009         2.87783        -2.98296
| 97>    H       -3.26053         5.30786         0.54637
| 98>    H       -6.08790         3.87365         4.58034
| 99>    H       -5.23995         1.02778         1.45274
|100>    H       -5.14647         6.01311         1.42738
|101>    H       -5.18096         6.05406         4.48710
|102>    H       -4.72027         8.02493         5.57252
|103>    H       -3.26196        11.33756         7.49310
|104>    H       -5.50475        12.11815         7.59910
|105>    H       -5.21060        10.97536         8.92803
|106>    H       -6.56103        10.20300         6.45565
|107>    H       -7.31438        10.55326         7.87539
|108>    H       -3.19164         9.41284         8.69560
|109>    H       -2.63561         8.97159         7.07022
|110>    H       -5.40228         8.51039         7.84316
|111>    H       -4.21037         7.40434         8.15176
|112>    H       -3.30681        13.38750         6.64779
|113>    H       -2.25086        14.71400         4.77816
|114>    H       -3.60376        15.18944         2.69097
|115>    H       -4.30500        13.04013         1.74624
|116>    H       -4.84427        10.52249         1.25061
|117>    H       -5.25503         8.11578         1.29955
|118>    H       -3.58416        15.90803         6.41080
|119>    H       -5.44643        16.13829         3.99788
|120>    H       -5.64376        16.68908         7.75695
|121>    H       -7.23557        20.37624         6.18209
|122>    H       -6.38854        21.06879         1.14308
|123>    H       -4.28024        17.90206         3.16885
|124>    H       -8.35433        20.49164         4.51754
|125>    H       -8.10597        22.34353         2.09883
|126>    H      -12.37282        22.27387         7.89132
|127>    H      -10.85203        20.68900         8.80654
|128>    H       -9.19430        20.70022         8.18978
|129>    H      -11.42410        18.84785         7.22797
|130>    H      -10.03407        18.39842         8.22479
|131>    H       -9.79372        18.91325         6.55066
|132>    H      -12.36259        24.83938         3.78796
|133> *
|134>
|135>                          ****END OF INPUT****

CARTESIAN COORDINATES (ANGSTROEM)
---------------------------------
  C     -7.121550   -0.148640   -2.136190
  C     -7.708140    0.444990   -1.045620
  C     -6.910150    1.523730   -0.511980
  N     -7.364750    2.246820    0.525950
  C     -8.490050    1.886120    1.062950
  C     -9.229700    0.748130    0.610640
  C    -10.435230    0.295380    1.368830
  C     -9.999870   -0.470870    2.621130
  N     -8.858470    0.075370   -0.439560
  C     -5.707410    1.703810   -1.197290
  S     -5.618930    0.577250   -2.511810
  C     -4.715500    2.703290   -1.002800
  C     -3.898000    3.224840   -1.971090
  C     -3.216830    4.363240   -1.423080
  C     -2.261560    5.125570   -2.104950
  N     -1.484840    5.755040   -2.670610
  C     -3.653960    4.574180   -0.131050
  C     -4.558610    3.529940    0.208810
  C     -5.080720    3.256450    1.455970
  C     -5.317970    4.210850    2.553800
  C     -5.771170    3.490720    3.628440
  C     -5.806260    2.096350    3.272420
  C     -5.407470    1.956720    1.963850
  C     -6.252160    1.066780    4.106780
  N     -6.660590    0.228720    4.778820
  C     -5.208150    5.626930    2.433980
  C     -5.157780    6.473210    3.489720
  C     -4.984010    7.896770    3.441570
  C     -4.737360    8.558990    4.632370
  C     -4.475830    9.938210    4.639900
  C     -4.139970   10.809560    5.673810
  C     -4.020350   10.620250    7.153030
  C     -5.335600   11.054980    7.842910
  N     -6.453960   10.207500    7.465130
  C     -3.520390    9.253860    7.653760
  N     -4.487550    8.173280    7.552130
  C     -3.933990   12.106840    5.067180
  C     -3.525280   13.277000    5.593890
  C     -3.333910   14.491740    4.752750
  C     -3.703820   14.316580    3.318500
  C     -4.081660   13.133090    2.798990
  C     -4.192670   11.991260    3.628040
  C     -4.505560   10.668660    3.378500
  C     -4.805420    9.977610    2.182560
  C     -5.028230    8.638390    2.215900
  C     -4.001570   15.659050    5.444040
  C     -5.024070   16.363520    4.967990
  C     -5.632540   17.448990    5.710580
  C     -5.880880   17.458360    7.045760
  C     -6.585510   18.682580    7.378150
  C     -6.969850   19.038610    8.673790
  N     -7.286680   19.316310    9.743270
  C     -6.795320   19.400000    6.230860
  C     -6.190890   18.685580    5.139810
  C     -6.021290   19.118340    3.842810
  C     -6.732660   20.216670    3.138240
  C     -6.121210   20.378170    1.919870
  C     -5.053770   19.426100    1.809750
  C     -5.017570   18.648520    2.946860
  C     -4.191220   19.315240    0.712250
  N     -3.482340   19.216520   -0.186000
  C     -7.894670   20.867960    3.618330
  C     -8.494190   21.935200    3.021620
  C     -9.627710   22.578340    3.563070
  C    -10.271840   22.378710    4.793270
  C    -11.399960   23.252680    4.975960
  N    -12.150850   23.195370    6.100700
  C    -11.773620   22.326560    6.991710
  C    -10.634770   21.481950    6.842400
  C    -10.237740   20.523050    7.920900
  C    -10.383400   19.075390    7.449590
  N     -9.904980   21.510240    5.752260
  C    -11.596040   24.101230    3.907340
  S    -10.428360   23.850880    2.691180
  H     -7.471930   -0.992030   -2.694580
  H     -8.854880    2.489160    1.882920
  H    -11.030290   -0.355240    0.727770
  H    -11.034300    1.161290    1.658040
  H     -9.432940   -1.355260    2.341210
  H    -10.872320   -0.783590    3.188600
  H     -9.372710    0.147140    3.260410
  H     -3.800090    2.877830   -2.982960
  H     -3.260530    5.307860    0.546370
  H     -6.087900    3.873650    4.580340
  H     -5.239950    1.027780    1.452740
  H     -5.146470    6.013110    1.427380
  H     -5.180960    6.054060    4.487100
  H     -4.720270    8.024930    5.572520
  H     -3.261960   11.337560    7.493100
  H     -5.504750   12.118150    7.599100
  H     -5.210600   10.975360    8.928030
  H     -6.561030   10.203000    6.455650
  H     -7.314380   10.553260    7.875390
  H     -3.191640    9.412840    8.695600
  H     -2.635610    8.971590    7.070220
  H     -5.402280    8.510390    7.843160
  H     -4.210370    7.404340    8.151760
  H     -3.306810   13.387500    6.647790
  H     -2.250860   14.714000    4.778160
  H     -3.603760   15.189440    2.690970
  H     -4.305000   13.040130    1.746240
  H     -4.844270   10.522490    1.250610
  H     -5.255030    8.115780    1.299550
  H     -3.584160   15.908030    6.410800
  H     -5.446430   16.138290    3.997880
  H     -5.643760   16.689080    7.756950
  H     -7.235570   20.376240    6.182090
  H     -6.388540   21.068790    1.143080
  H     -4.280240   17.902060    3.168850
  H     -8.354330   20.491640    4.517540
  H     -8.105970   22.343530    2.098830
  H    -12.372820   22.273870    7.891320
  H    -10.852030   20.689000    8.806540
  H     -9.194300   20.700220    8.189780
  H    -11.424100   18.847850    7.227970
  H    -10.034070   18.398420    8.224790
  H     -9.793720   18.913250    6.550660
  H    -12.362590   24.839380    3.787960

 Total Charge           Charge          ....    0
 Multiplicity           Mult            ....    1
 Number of Electrons    NEL             ....  518
 Basis Dimension        Dim             .... 1264

ORBITAL ENERGIES
----------------

  NO   OCC          E(Eh)            E(eV)
   0   2.0000     -88.984132     -2421.3813
   1   2.0000     -88.979126     -2421.2451
   2   2.0000     -14.431516      -392.7015
   3   2.0000     -14.428888      -392.6300
   4   2.0000     -14.427540      -392.5933
   5   2.0000     -14.418035      -392.3347
   6   2.0000     -14.415269      -392.2594
   7   2.0000     -14.414449      -392.2371
   8   2.0000     -14.404228      -391.9590
   9   2.0000     -14.400815      -391.8661
  10   2.0000     -14.390528      -391.5862
  11   2.0000     -14.366369      -390.9288
  12   2.0000     -10.327563      -281.0273
  13   2.0000     -10.325563      -280.9729
  14   2.0000     -10.324773      -280.9514
  15   2.0000     -10.324135      -280.9340
  16   2.0000     -10.323125      -280.9065
  17   2.0000     -10.320360      -280.8313
  18   2.0000     -10.319705      -280.8135
  19   2.0000     -10.319045      -280.7955
  20   2.0000     -10.318694      -280.7859
  21   2.0000     -10.317793      -280.7614
  22   2.0000     -10.317322      -280.7486
  23   2.0000     -10.316862      -280.7361
  24   2.0000     -10.316100      -280.7154
  25   2.0000     -10.314768      -280.6791
  26   2.0000     -10.314365      -280.6681
  27   2.0000     -10.312285      -280.6115
  28   2.0000     -10.311264      -280.5838
  29   2.0000     -10.309756      -280.5427
  30   2.0000     -10.308822      -280.5173
  31   2.0000     -10.308180      -280.4998
  32   2.0000     -10.306371      -280.4506
  33   2.0000     -10.304043      -280.3873
  34   2.0000     -10.303800      -280.3806
  35   2.0000     -10.301632      -280.3217
  36   2.0000     -10.300304      -280.2855
  37   2.0000     -10.300034      -280.2782
  38   2.0000     -10.299978      -280.2767
  39   2.0000     -10.298755      -280.2434
  40   2.0000     -10.297376      -280.2059
  41   2.0000     -10.297059      -280.1972
  42   2.0000     -10.296482      -280.1815
  43   2.0000     -10.296029      -280.1692
  44   2.0000     -10.293629      -280.1039
  45   2.0000     -10.293468      -280.0995
  46   2.0000     -10.292573      -280.0752
  47   2.0000     -10.290260      -280.0122
  48   2.0000     -10.289391      -279.9886
  49   2.0000     -10.288034      -279.9516
  50   2.0000     -10.286046      -279.8975
  51   2.0000     -10.284067      -279.8437
  52   2.0000     -10.283932      -279.8400
  53   2.0000     -10.282595      -279.8036
  54   2.0000     -10.281919      -279.7852
  55   2.0000     -10.281297      -279.7683
  56   2.0000     -10.275412      -279.6082
  57   2.0000     -10.274112      -279.5728
  58   2.0000     -10.274038      -279.5708
  59   2.0000     -10.273273      -279.5500
  60   2.0000     -10.271560      -279.5034
  61   2.0000     -10.270319      -279.4696
  62   2.0000     -10.268859      -279.4298
  63   2.0000     -10.267548      -279.3942
  64   2.0000     -10.267293      -279.3872
  65   2.0000     -10.263990      -279.2974
  66   2.0000     -10.262305      -279.2515
  67   2.0000     -10.261909      -279.2407
  68   2.0000     -10.261826      -279.2385
  69   2.0000     -10.261632      -279.2332
  70   2.0000     -10.261283      -279.2237
  71   2.0000     -10.260033      -279.1897
  72   2.0000     -10.255322      -279.0615
  73   2.0000     -10.247440      -278.8470
  74   2.0000      -8.079251      -219.8476
  75   2.0000      -8.073976      -219.7040
  76   2.0000      -6.048015      -164.5748
  77   2.0000      -6.043929      -164.4637
  78   2.0000      -6.042947      -164.4370
  79   2.0000      -6.042517      -164.4253
  80   2.0000      -6.038673      -164.3206
  81   2.0000      -6.037060      -164.2768
  82   2.0000      -1.083942       -29.4956
  83   2.0000      -1.082012       -29.4430
  84   2.0000      -1.015576       -27.6352
  85   2.0000      -1.010681       -27.5020
  86   2.0000      -1.008608       -27.4456
  87   2.0000      -1.004937       -27.3457
  88   2.0000      -1.000544       -27.2262
  89   2.0000      -0.994151       -27.0522
  90   2.0000      -0.993099       -27.0236
  91   2.0000      -0.989540       -26.9268
  92   2.0000      -0.986628       -26.8475
  93   2.0000      -0.984463       -26.7886
  94   2.0000      -0.979925       -26.6651
  95   2.0000      -0.978673       -26.6310
  96   2.0000      -0.972747       -26.4698
  97   2.0000      -0.965679       -26.2775
  98   2.0000      -0.945790       -25.7362
  99   2.0000      -0.942964       -25.6594
 100   2.0000      -0.916708       -24.9449
 101   2.0000      -0.906694       -24.6724
 102   2.0000      -0.891447       -24.2575
 103   2.0000      -0.887772       -24.1575
 104   2.0000      -0.885189       -24.0872
 105   2.0000      -0.880739       -23.9661
 106   2.0000      -0.878808       -23.9136
 107   2.0000      -0.872172       -23.7330
 108   2.0000      -0.865131       -23.5414
 109   2.0000      -0.855873       -23.2895
 110   2.0000      -0.849101       -23.1052
 111   2.0000      -0.838253       -22.8100
 112   2.0000      -0.831893       -22.6370
 113   2.0000      -0.831118       -22.6159
 114   2.0000      -0.830535       -22.6000
 115   2.0000      -0.829100       -22.5609
 116   2.0000      -0.807186       -21.9646
 117   2.0000      -0.801518       -21.8104
 118   2.0000      -0.797886       -21.7116
 119   2.0000      -0.793767       -21.5995
 120   2.0000      -0.790470       -21.5098
 121   2.0000      -0.779843       -21.2206
 122   2.0000      -0.762332       -20.7441
 123   2.0000      -0.758061       -20.6279
 124   2.0000      -0.752259       -20.4700
 125   2.0000      -0.743347       -20.2275
 126   2.0000      -0.736700       -20.0466
 127   2.0000      -0.728977       -19.8365
 128   2.0000      -0.727308       -19.7911
 129   2.0000      -0.725854       -19.7515
 130   2.0000      -0.715037       -19.4571
 131   2.0000      -0.713340       -19.4110
 132   2.0000      -0.707993       -19.2655
 133   2.0000      -0.702746       -19.1227
 134   2.0000      -0.696487       -18.9524
 135   2.0000      -0.686980       -18.6937
 136   2.0000      -0.681489       -18.5443
 137   2.0000      -0.676143       -18.3988
 138   2.0000      -0.666796       -18.1444
 139   2.0000      -0.662449       -18.0261
 140   2.0000      -0.655613       -17.8401
 141   2.0000      -0.646325       -17.5874
 142   2.0000      -0.643498       -17.5105
 143   2.0000      -0.641113       -17.4456
 144   2.0000      -0.640126       -17.4187
 145   2.0000      -0.633400       -17.2357
 146   2.0000      -0.629524       -17.1302
 147   2.0000      -0.625584       -17.0230
 148   2.0000      -0.622284       -16.9332
 149   2.0000      -0.616350       -16.7717
 150   2.0000      -0.613584       -16.6965
 151   2.0000      -0.604285       -16.4434
 152   2.0000      -0.596887       -16.2421
 153   2.0000      -0.590567       -16.0701
 154   2.0000      -0.585191       -15.9239
 155   2.0000      -0.584713       -15.9109
 156   2.0000      -0.584364       -15.9013
 157   2.0000      -0.571096       -15.5403
 158   2.0000      -0.569645       -15.5008
 159   2.0000      -0.563828       -15.3426
 160   2.0000      -0.562815       -15.3150
 161   2.0000      -0.562530       -15.3072
 162   2.0000      -0.556680       -15.1480
 163   2.0000      -0.552081       -15.0229
 164   2.0000      -0.545667       -14.8484
 165   2.0000      -0.544479       -14.8160
 166   2.0000      -0.540374       -14.7043
 167   2.0000      -0.538637       -14.6571
 168   2.0000      -0.537346       -14.6219
 169   2.0000      -0.530277       -14.4296
 170   2.0000      -0.527541       -14.3551
 171   2.0000      -0.524383       -14.2692
 172   2.0000      -0.522906       -14.2290
 173   2.0000      -0.520883       -14.1739
 174   2.0000      -0.518840       -14.1184
 175   2.0000      -0.518226       -14.1016
 176   2.0000      -0.517083       -14.0705
 177   2.0000      -0.513495       -13.9729
 178   2.0000      -0.511244       -13.9116
 179   2.0000      -0.508648       -13.8410
 180   2.0000      -0.507280       -13.8038
 181   2.0000      -0.507194       -13.8015
 182   2.0000      -0.504564       -13.7299
 183   2.0000      -0.503590       -13.7034
 184   2.0000      -0.501646       -13.6505
 185   2.0000      -0.499616       -13.5952
 186   2.0000      -0.497021       -13.5246
 187   2.0000      -0.495817       -13.4919
 188   2.0000      -0.494353       -13.4520
 189   2.0000      -0.492547       -13.4029
 190   2.0000      -0.490371       -13.3437
 191   2.0000      -0.490293       -13.3416
 192   2.0000      -0.487206       -13.2576
 193   2.0000      -0.485994       -13.2246
 194   2.0000      -0.483580       -13.1589
 195   2.0000      -0.481419       -13.1001
 196   2.0000      -0.475529       -12.9398
 197   2.0000      -0.474490       -12.9115
 198   2.0000      -0.473642       -12.8884
 199   2.0000      -0.470839       -12.8122
 200   2.0000      -0.467842       -12.7306
 201   2.0000      -0.466023       -12.6811
 202   2.0000      -0.459901       -12.5146
 203   2.0000      -0.453851       -12.3499
 204   2.0000      -0.451816       -12.2945
 205   2.0000      -0.449718       -12.2374
 206   2.0000      -0.448394       -12.2014
 207   2.0000      -0.446333       -12.1453
 208   2.0000      -0.444359       -12.0916
 209   2.0000      -0.443450       -12.0669
 210   2.0000      -0.441431       -12.0119
 211   2.0000      -0.441208       -12.0059
 212   2.0000      -0.439724       -11.9655
 213   2.0000      -0.438773       -11.9396
 214   2.0000      -0.434495       -11.8232
 215   2.0000      -0.433353       -11.7921
 216   2.0000      -0.431764       -11.7489
 217   2.0000      -0.431614       -11.7448
 218   2.0000      -0.430026       -11.7016
 219   2.0000      -0.429854       -11.6969
 220   2.0000      -0.429378       -11.6840
 221   2.0000      -0.427135       -11.6229
 222   2.0000      -0.426385       -11.6025
 223   2.0000      -0.424198       -11.5430
 224   2.0000      -0.421850       -11.4791
 225   2.0000      -0.419389       -11.4122
 226   2.0000      -0.418272       -11.3817
 227   2.0000      -0.414987       -11.2924
 228   2.0000      -0.413370       -11.2484
 229   2.0000      -0.412530       -11.2255
 230   2.0000      -0.410512       -11.1706
 231   2.0000      -0.403674       -10.9845
 232   2.0000      -0.400940       -10.9101
 233   2.0000      -0.398968       -10.8565
 234   2.0000      -0.393244       -10.7007
 235   2.0000      -0.392112       -10.6699
 236   2.0000      -0.389341       -10.5945
 237   2.0000      -0.385765       -10.4972
 238   2.0000      -0.385303       -10.4846
 239   2.0000      -0.371571       -10.1110
 240   2.0000      -0.361936        -9.8488
 241   2.0000      -0.358892        -9.7660
 242   2.0000      -0.337273        -9.1777
 243   2.0000      -0.332495        -9.0477
 244   2.0000      -0.328455        -8.9377
 245   2.0000      -0.328188        -8.9305
 246   2.0000      -0.325041        -8.8448
 247   2.0000      -0.323563        -8.8046
 248   2.0000      -0.322363        -8.7719
 249   2.0000      -0.318788        -8.6747
 250   2.0000      -0.313546        -8.5320
 251   2.0000      -0.307496        -8.3674
 252   2.0000      -0.301693        -8.2095
 253   2.0000      -0.294195        -8.0055
 254   2.0000      -0.290710        -7.9106
 255   2.0000      -0.259611        -7.0644
 256   2.0000      -0.257009        -6.9936
 257   2.0000      -0.251769        -6.8510
 258   2.0000      -0.218141        -5.9359
 259   0.0000      -0.128030        -3.4839
 260   0.0000      -0.113956        -3.1009
 261   0.0000      -0.068586        -1.8663
 262   0.0000      -0.067167        -1.8277
 263   0.0000      -0.059671        -1.6237

MULLIKEN ATOMIC CHARGES
-----------------------
   0 C :   -0.151452
   1 C :    0.069789
   2 C :    0.023132
   3 N :   -0.008762
   4 C :    0.048101
   5 C :   -0.151966
   6 C :    0.099089
   7 C :   -0.005800
   8 N :    0.004414
   9 C :   -0.200471
  10 S :    0.181884
  11 C :    0.086444
  12 C :   -0.050855
  13 C :   -0.103128
  14 C :   -0.133258
  15 N :    0.135479
  16 C :   -0.043485
  17 C :    0.038654
  18 C :    0.088053
  19 C :    0.095456
  20 C :   -0.040410
  21 C :   -0.133263
  22 C :    0.001294
  23 C :   -0.119505
  24 N :    0.128502
  25 C :   -0.021593
  26 C :   -0.006191
  27 C :    0.126957
  28 C :   -0.089680
  29 C :    0.033840
  30 C :   -0.049592
  31 C :   -0.071701
  32 C :    0.140399
  33 N :   -0.233334
  34 C :    0.166608
  35 N :   -0.211482
  36 C :    0.090666
  37 C :   -0.130308
  38 C :    0.193945
  39 C :   -0.072383
  40 C :    0.021270
  41 C :    0.013382
  42 C :    0.036862
  43 C :   -0.006255
  44 C :   -0.010140
  45 C :   -0.103080
  46 C :    0.005806
  47 C :    0.075905
  48 C :   -0.025285
  49 C :   -0.119584
  50 C :   -0.115006
  51 N :    0.126898
  52 C :   -0.020480
  53 C :    0.048209
  54 C :    0.063470
  55 C :    0.116837
  56 C :   -0.046337
  57 C :   -0.080726
  58 C :   -0.058713
  59 C :   -0.130840
  60 N :    0.143117
  61 C :   -0.045638
  62 C :    0.046029
  63 C :   -0.176128
  64 C :    0.059554
  65 C :    0.045536
  66 N :    0.007188
  67 C :    0.010604
  68 C :   -0.128526
  69 C :    0.108843
  70 C :   -0.003755
  71 N :   -0.032043
  72 C :   -0.144447
  73 S :    0.180477
  74 H :    0.019581
  75 H :    0.004839
  76 H :    0.016158
  77 H :    0.008208
  78 H :    0.025284
  79 H :    0.022682
  80 H :    0.022448
  81 H :   -0.010849
  82 H :    0.004593
  83 H :   -0.013472
  84 H :    0.009572
  85 H :   -0.011032
  86 H :   -0.019532
  87 H :   -0.057881
  88 H :   -0.008841
  89 H :   -0.017520
  90 H :   -0.001874
  91 H :    0.112240
  92 H :    0.101320
  93 H :   -0.020596
  94 H :    0.000470
  95 H :    0.098321
  96 H :    0.090734
  97 H :   -0.010044
  98 H :    0.050215
  99 H :   -0.007525
 100 H :   -0.032049
 101 H :   -0.038993
 102 H :   -0.031465
 103 H :    0.000433
 104 H :    0.022379
 105 H :   -0.013224
 106 H :    0.006496
 107 H :   -0.011324
 108 H :    0.000240
 109 H :    0.007659
 110 H :   -0.027288
 111 H :    0.003683
 112 H :    0.000311
 113 H :    0.030864
 114 H :    0.008128
 115 H :    0.028374
 116 H :    0.027187
 117 H :    0.023999
Sum of atomic charges:   -0.0000000

LOEWDIN ATOMIC CHARGES
----------------------
   0 C :   -0.191747
   1 C :   -0.053901
   2 C :   -0.055646
   3 N :   -0.009921
   4 C :    0.014988
   5 C :    0.001771
   6 C :   -0.035813
   7 C :   -0.046213
   8 N :   -0.051691
   9 C :   -0.182786
  10 S :    0.504227
  11 C :   -0.042911
  12 C :   -0.014955
  13 C :   -0.060714
  14 C :   -0.030659
  15 N :   -0.051729
  16 C :   -0.009460
  17 C :    0.020481
  18 C :    0.073814
  19 C :   -0.026613
  20 C :    0.002278
  21 C :   -0.073830
  22 C :    0.015814
  23 C :   -0.030541
  24 N :   -0.060330
  25 C :   -0.044060
  26 C :    0.007217
  27 C :   -0.036086
  28 C :   -0.006407
  29 C :   -0.022182
  30 C :   -0.044559
  31 C :   -0.039972
  32 C :    0.026883
  33 N :   -0.095662
  34 C :    0.029993
  35 N :   -0.102049
  36 C :   -0.015711
  37 C :    0.056122
  38 C :   -0.031444
  39 C :   -0.039896
  40 C :   -0.010791
  41 C :   -0.037617
  42 C :   -0.028136
  43 C :   -0.013677
  44 C :   -0.022937
  45 C :   -0.001608
  46 C :   -0.031643
  47 C :   -0.026643
  48 C :    0.004610
  49 C :   -0.059884
  50 C :   -0.026107
  51 N :   -0.052068
  52 C :    0.004633
  53 C :    0.033742
  54 C :    0.047654
  55 C :   -0.019238
  56 C :   -0.012104
  57 C :   -0.040930
  58 C :   -0.021463
  59 C :   -0.029339
  60 N :   -0.040969
  61 C :   -0.026103
  62 C :   -0.020066
  63 C :   -0.192573
  64 C :   -0.042994
  65 C :   -0.058743
  66 N :   -0.030171
  67 C :    0.003471
  68 C :    0.008326
  69 C :   -0.034506
  70 C :   -0.047273
  71 N :   -0.052343
  72 C :   -0.188242
  73 S :    0.506748
  74 H :    0.030334
  75 H :    0.025838
  76 H :    0.034443
  77 H :    0.028616
  78 H :    0.029229
  79 H :    0.027747
  80 H :    0.025197
  81 H :    0.027337
  82 H :    0.035731
  83 H :    0.029510
  84 H :    0.033077
  85 H :    0.025723
  86 H :    0.030512
  87 H :    0.017049
  88 H :    0.031791
  89 H :    0.000344
  90 H :    0.014702
  91 H :    0.059140
  92 H :    0.059426
  93 H :    0.002618
  94 H :    0.016711
  95 H :    0.034879
  96 H :    0.053428
  97 H :    0.024989
  98 H :    0.067338
  99 H :    0.024351
 100 H :    0.031806
 101 H :    0.026665
 102 H :    0.023941
 103 H :    0.024631
 104 H :    0.033680
 105 H :    0.030671
 106 H :    0.035327
 107 H :    0.029390
 108 H :    0.032414
 109 H :    0.028507
 110 H :    0.026416
 111 H :    0.025621
 112 H :    0.028921
 113 H :    0.038276
 114 H :    0.023329
 115 H :    0.028692
 116 H :    0.023062
 117 H :    0.031478

  Mayer bond orders larger than 0.100000
B(  0-C ,  1-C ) :   1.4231 B(  0-C ,  9-C ) :   0.1274 B(  0-C , 10-S ) :   1.1789
B(  0-C , 74-H ) :   0.9771 B(  1-C ,  2-C ) :   1.1865 B(  1-C ,  8-N ) :   1.3409
B(  2-C ,  3-N ) :   1.3549 B(  2-C ,  9-C ) :   1.3451 B(  3-N ,  4-C ) :   1.7003
B(  4-C ,  5-C ) :   1.1255 B(  4-C , 75-H ) :   0.9740 B(  5-C ,  6-C ) :   1.0267
B(  5-C ,  8-N ) :   1.7526 B(  6-C ,  7-C ) :   1.0933 B(  6-C , 76-H ) :   0.9262
B(  6-C , 77-H ) :   0.9313 B(  7-C , 78-H ) :   0.9685 B(  7-C , 79-H ) :   0.9688
B(  7-C , 80-H ) :   0.9728 B(  9-C , 10-S ) :   1.2126 B(  9-C , 11-C ) :   1.0928
B( 11-C , 12-C ) :   1.5739 B( 11-C , 17-C ) :   1.0846 B( 12-C , 13-C ) :   1.1416
B( 12-C , 81-H ) :   1.0136 B( 13-C , 14-C ) :   1.0548 B( 13-C , 16-C ) :   1.5718
B( 14-C , 15-N ) :   3.0408 B( 16-C , 17-C ) :   1.1274 B( 16-C , 82-H ) :   1.0185
B( 17-C , 18-C ) :   1.4504 B( 18-C , 19-C ) :   1.0636 B( 18-C , 22-C ) :   1.0470
B( 19-C , 20-C ) :   1.5914 B( 19-C , 25-C ) :   1.0859 B( 20-C , 21-C ) :   1.0906
B( 20-C , 83-H ) :   1.0145 B( 21-C , 22-C ) :   1.6376 B( 21-C , 23-C ) :   1.0656
B( 22-C , 84-H ) :   1.0125 B( 23-C , 24-N ) :   3.0000 B( 25-C , 26-C ) :   1.6507
B( 25-C , 85-H ) :   0.9568 B( 26-C , 27-C ) :   1.0951 B( 26-C , 86-H ) :   0.9936
B( 27-C , 28-C ) :   1.4586 B( 27-C , 44-C ) :   1.1119 B( 28-C , 29-C ) :   1.1343
B( 28-C , 87-H ) :   0.9519 B( 29-C , 30-C ) :   1.4629 B( 29-C , 42-C ) :   1.1110
B( 30-C , 31-C ) :   1.0281 B( 30-C , 36-C ) :   1.1065 B( 31-C , 32-C ) :   1.0421
B( 31-C , 34-C ) :   1.0638 B( 31-C , 88-H ) :   0.8829 B( 32-C , 33-N ) :   1.0557
B( 32-C , 89-H ) :   0.9365 B( 32-C , 90-H ) :   0.9422 B( 33-N , 91-H ) :   0.9599
B( 33-N , 92-H ) :   0.9659 B( 33-N , 95-H ) :   0.1154 B( 34-C , 35-N ) :   1.0655
B( 34-C , 93-H ) :   0.9314 B( 34-C , 94-H ) :   0.9445 B( 35-N , 87-H ) :   0.2020
B( 35-N , 95-H ) :   0.9213 B( 35-N , 96-H ) :   0.9645 B( 36-C , 37-C ) :   1.6945
B( 36-C , 41-C ) :   1.0469 B( 37-C , 38-C ) :   0.9574 B( 37-C , 97-H ) :   0.9581
B( 38-C , 39-C ) :   1.0062 B( 38-C , 45-C ) :   0.9451 B( 38-C , 98-H ) :   0.8378
B( 39-C , 40-C ) :   1.7180 B( 39-C , 99-H ) :   0.9668 B( 40-C , 41-C ) :   1.1254
B( 40-C ,100-H ) :   0.9912 B( 41-C , 42-C ) :   1.4421 B( 42-C , 43-C ) :   1.1387
B( 43-C , 44-C ) :   1.6242 B( 43-C ,101-H ) :   0.9901 B( 44-C ,102-H ) :   0.9832
B( 45-C , 46-C ) :   1.8992 B( 45-C ,103-H ) :   0.9716 B( 46-C , 47-C ) :   1.0039
B( 46-C ,104-H ) :   0.9315 B( 47-C , 48-C ) :   1.6548 B( 47-C , 53-C ) :   1.0704
B( 48-C , 49-C ) :   1.0752 B( 48-C ,105-H ) :   1.0178 B( 49-C , 50-C ) :   1.0712
B( 49-C , 52-C ) :   1.6417 B( 50-C , 51-N ) :   2.9758 B( 52-C , 53-C ) :   1.0741
B( 52-C ,106-H ) :   1.0102 B( 53-C , 54-C ) :   1.4713 B( 54-C , 55-C ) :   1.0267
B( 54-C , 58-C ) :   1.1088 B( 55-C , 56-C ) :   1.5685 B( 55-C , 61-C ) :   1.1058
B( 56-C , 57-C ) :   1.1200 B( 56-C ,107-H ) :   1.0122 B( 57-C , 58-C ) :   1.5870
B( 57-C , 59-C ) :   1.0529 B( 58-C ,108-H ) :   1.0143 B( 59-C , 60-N ) :   3.0400
B( 61-C , 62-C ) :   1.6512 B( 61-C ,109-H ) :   0.9555 B( 62-C , 63-C ) :   1.1629
B( 62-C ,110-H ) :   0.9566 B( 63-C , 64-C ) :   1.3034 B( 63-C , 72-C ) :   0.1174
B( 63-C , 73-S ) :   1.1773 B( 64-C , 65-C ) :   1.2033 B( 64-C , 71-N ) :   1.3899
B( 65-C , 66-N ) :   1.3627 B( 65-C , 72-C ) :   1.3854 B( 66-N , 67-C ) :   1.7481
B( 67-C , 68-C ) :   1.1656 B( 67-C ,111-H ) :   0.9749 B( 68-C , 69-C ) :   1.0222
B( 68-C , 71-N ) :   1.6593 B( 69-C , 70-C ) :   1.0984 B( 69-C ,112-H ) :   0.9278
B( 69-C ,113-H ) :   0.9187 B( 70-C ,114-H ) :   0.9670 B( 70-C ,115-H ) :   0.9661
B( 70-C ,116-H ) :   0.9734 B( 72-C , 73-S ) :   1.2131 B( 72-C ,117-H ) :   0.9784

-----------------------------------------------------------------------------
         ABSORPTION SPECTRUM VIA TRANSITION ELECTRIC DIPOLE MOMENTS
-----------------------------------------------------------------------------
State   Energy  Wavelength   fosc         T2         TX        TY        TZ
        (cm-1)    (nm)                  (au**2)     (au)      (au)      (au)
-----------------------------------------------------------------------------
   0    7614.6   1313.3   0.009323564   0.40310  -0.07942   0.57716   0.25234
   1    7955.7   1257.0   0.087753513   3.63131   0.08163   1.69515   0.86668
   2    8674.9   1152.8   0.088885418   3.37320   1.31831  -1.24305   0.30015
   3   11616.2    860.9   0.039114416   1.10853  -0.40032  -0.66435  -0.71198
   4   13491.1    741.2   0.004509182   0.11003   0.08215   0.17389  -0.27027
   5   15302.7    653.5   0.047747904   1.02721   0.10835  -0.47673   0.88781
   6   15630.8    639.8   0.018411599   0.38778   0.17343  -0.58733   0.11291
   7   18690.1    535.0   0.004965673   0.08747  -0.03013  -0.26861  -0.12004
   8   21477.0    465.6   0.031805429   0.48753  -0.15174  -0.62530  -0.27113
   9   21990.8    454.7   0.139824314   2.09323  -0.42371   0.91035   1.04162
  10   22415.0    446.1   0.244494101   3.59092   1.42871  -1.23647  -0.14439
  11   22555.2    443.4   0.000015086   0.00022   0.01275   0.00195  -0.00734
  12   23065.4    433.5   0.142949315   2.04031  -1.09807   0.63599   0.65579
  13   23910.1    418.2   0.000456727   0.00629   0.03215  -0.06876   0.02296
  14   23990.4    416.8   0.000346484   0.00475  -0.02844   0.05561  -0.02922
  15   24536.6    407.6   0.140223283   1.88140  -0.89237  -0.73816  -0.73498
  16   24788.6    403.4   0.291220272   3.86763   0.51535   1.77205   0.67961
  17   24865.6    402.2   0.048281795   0.63923   0.23762   0.70873   0.28368
  18   25011.8    399.8   0.007593827   0.09995  -0.31570  -0.01377  -0.00975
  19   25775.6    388.0   0.000017629   0.00023   0.00715   0.00847   0.01011
  20   26166.4    382.2   0.260066888   3.27203  -1.18133  -1.30178   0.42642
  21   26340.8    379.6   0.030619606   0.38269   0.33828   0.50895  -0.09602
  22   26700.5    374.5   0.022117975   0.27271  -0.52008   0.01990  -0.04280
  23   27934.6    358.0   0.046777254   0.55127   0.66937  -0.05759  -0.31608
  24   28061.8    356.4   0.012679037   0.14875  -0.03721   0.15080  -0.35302
  25   28180.1    354.9   0.204869695   2.39338   0.21508  -0.91805   1.22650
  26   28573.2    350.0   0.307177524   3.53921  -0.36685  -0.68067   1.71503
  27   28921.9    345.8   0.473232759   5.38671   0.16188  -1.19896  -1.98066
  28   28935.2    345.6   0.003658651   0.04163   0.01004   0.12658   0.15969
  29   29302.5    341.3   0.199971105   2.24666  -0.09298   1.01993   1.09442
  30   29452.9    339.5   0.005688921   0.06359  -0.05911  -0.14586  -0.19703
  31   29469.3    339.3   0.001406001   0.01571  -0.00451  -0.12397  -0.01782
  32   29653.1    337.2   0.011348474   0.12599   0.04461  -0.34093   0.08815
  33   30332.4    329.7   0.030404581   0.33000   0.10525  -0.49803   0.26624
  34   30494.4    327.9   0.014061482   0.15181   0.01368   0.36831  -0.12635
  35   30900.2    323.6   0.014568084   0.15521  -0.16972  -0.34595   0.08200
  36   31217.0    320.3   0.019885555   0.20971   0.19697   0.30300  -0.28125
  37   31568.8    316.8   0.931024541   9.70910   0.62748   3.00689  -0.52345
  38   31985.4    312.6   0.008745029   0.09001   0.25525   0.14984  -0.04904
  39   32604.4    306.7   0.014771469   0.14915  -0.32559   0.08456   0.18971
  40   32878.4    304.2   0.005289874   0.05297   0.00301  -0.08508   0.21382
  41   33232.0    300.9   0.033061405   0.32752  -0.11561   0.51234  -0.22729
  42   33681.4    296.9   0.029940895   0.29265  -0.10857  -0.49044   0.20083
  43   33838.4    295.5   0.008215419   0.07993  -0.01157  -0.15915  -0.23337
  44   34186.0    292.5   0.037062735   0.35691  -0.28131  -0.52553  -0.03995
  45   34348.3    291.1   0.041115695   0.39407   0.21606  -0.33377  -0.48579
  46   34488.5    290.0   0.736797332   7.03314  -1.75490   0.74862   1.84202
  47   35701.5    280.1   0.042127615   0.38847   0.02234   0.27318   0.55977
  48   35951.6    278.2   0.027448518   0.25135  -0.22457  -0.42559   0.14069
  49   36094.2    277.1   0.013032768   0.11887   0.02911   0.31081  -0.14636
  50   36281.0    275.6   0.002179618   0.01978  -0.06459  -0.07830   0.09734
  51   36504.4    273.9   0.000047670   0.00043  -0.00715  -0.01077   0.01621
  52   36625.5    273.0   0.000007362   0.00007  -0.00012   0.00747  -0.00322
  53   36875.3    271.2   0.032134346   0.28689   0.04538   0.48994   0.21163
  54   37081.0    269.7   0.018798351   0.16690   0.36146  -0.10841  -0.15649
  55   37145.6    269.2   0.007787635   0.06902   0.24234  -0.07833  -0.06448
  56   37448.0    267.0   0.129077245   1.13474   0.20473   0.87245   0.57590
  57   38049.2    262.8   0.123979766   1.07271  -0.22666  -0.27892   0.97136
  58   38101.0    262.5   0.299902832   2.59131  -0.90840   0.11981   1.32355
  59   38332.5    260.9   0.006208442   0.05332  -0.07425  -0.04290   0.21440
  60   38680.8    258.5   0.004356488   0.03708  -0.00728  -0.04968  -0.18589
  61   39223.3    255.0   0.053162771   0.44621   0.24414  -0.62149  -0.01888
  62   39512.0    253.1   0.140755507   1.17277  -0.24128  -0.46861   0.94602
  63   39517.0    253.1   0.119768202   0.99778   0.22593   0.34650  -0.90921
  64   39792.7    251.3   0.238106891   1.96990  -0.38993  -1.34255   0.12414
  65   40033.6    249.8   0.132905704   1.09294  -0.23622  -0.98658  -0.25259

FINAL SINGLE POINT ENERGY     -3728.649462355283

DIPOLE MOMENT
-------------
                                X             Y             Z
Electronic contribution:      8.68188      11.72987     -50.90775
Nuclear contribution   :    -10.80996     -10.08643      52.21889
                        -----------------------------------------
Total Dipole Moment    :     -2.12809       1.64344       1.31114
                        -----------------------------------------
Magnitude (a.u.)       :      2.99145
Magnitude (Debye)      :      7.60365

Rotational constants in cm-1:     0.001431     0.000223     0.000221
Rotational constants in MHz :    42.892089     6.680029     6.613156

                             ****ORCA TERMINATED NORMALLY****
TOTAL RUN TIME: 0 days 0 hours 16 minutes 57 seconds 484 msec
