                         Program Version 4.2.0 -  RELEASE  -
|  1> # ORCA input file
|  2> # SCF done       -171.705470761056          0.000819659985
|  3> ! CAM-B3LYP def2-SVP def2/J RIJCOSX Grid4 TightSCF
|  4> %maxcore 5000
|  5> %tddft
|  6>     Mode sTDDFT
|  7>     Ethresh 5.0
|  8>     maxcore 5000
|  9> end
| 10>
| 11> %pal
| 12>   nprocs 6
| 13>   end
| 14> * xyz 0 1
| 15>    C       -9.66899         8.98947        -0.84624
| 16>    C       -9.74336         7.73428        -0.28312
| 17>    C       -8.54594         7.38498         0.43503
| 18>    N       -8.39368         6.15742         0.96935
| 19>    C       -9.41467         5.35546         0.86181
| 20>    C      -10.63663         5.72007         0.22373
| 21>    C      -11.77006         4.74435         0.15195
| 22>    C      -11.47844         3.65216        -0.87866
| 23>    N      -10.78773         6.87889        -0.35962
| 24>    C       -7.59309         8.40326         0.42486
| 25>    S       -8.17356         9.74049        -0.51604
| 26>    C       -6.32259         8.41559         1.04727
| 27>    C       -5.17021         9.21049         0.61540
| 28>    N       -4.08309         8.98430         1.29346
| 29>    C       -4.42499         8.05303         2.23072
| 30>    C       -5.83627         7.68521         2.11105
| 31>    C       -6.19272         6.77189         3.16723
| 32>    S       -7.74193         6.38966         3.58060
| 33>    C       -4.95592         6.47347         3.83975
| 34>    C       -3.89318         7.31495         3.25924
| 35>    N       -2.70284         7.09938         3.88164
| 36>    C       -2.93920         6.16609         4.75780
| 37>    C       -4.32568         5.69356         4.79901
| 38>    C       -4.78201         4.63824         5.65862
| 39>    C       -6.13232         4.45438         5.90986
| 40>    C       -6.56150         3.42735         6.76498
| 41>    C       -7.83369         3.04333         7.19444
| 42>    C       -9.16140         3.63644         6.89581
| 43>    C       -9.32394         5.02483         7.56840
| 44>    N       -8.40190         6.00289         7.04446
| 45>    C       -9.47111         3.70695         5.38944
| 46>    N      -10.82466         4.19851         5.19682
| 47>    C       -7.65147         1.90309         8.06519
| 48>    C       -8.54138         1.14289         8.73086
| 49>    C       -8.11519        -0.03098         9.54527
| 50>    C       -6.63888        -0.24223         9.60357
| 51>    C       -5.75955         0.53422         8.94305
| 52>    C       -6.21650         1.60982         8.14491
| 53>    C       -5.56775         2.54264         7.35934
| 54>    C       -4.19911         2.73727         7.07117
| 55>    C       -3.82335         3.75207         6.25242
| 56>    C       -8.70028         0.08580        10.93311
| 57>    C       -9.94985        -0.27906        11.23491
| 58>    C      -10.53832        -0.18648        12.53712
| 59>    C      -11.97480        -0.33159        12.77231
| 60>    N      -12.33368        -0.24028        14.02096
| 61>    C      -11.17495        -0.04325        14.71104
| 62>    C      -10.01979         0.01412        13.79759
| 63>    C       -8.80596         0.16426        14.56878
| 64>    S       -7.25239         0.23582        14.02018
| 65>    C       -9.24416         0.19416        15.93579
| 66>    C      -10.70783         0.07130        15.99388
| 67>    N      -11.14598         0.07158        17.28728
| 68>    C      -10.07720         0.16538        18.01887
| 69>    C       -8.82336         0.23710        17.25142
| 70>    C       -7.54402         0.31298        17.83869
| 71>    C       -7.23102         0.27667        19.20552
| 72>    C       -5.81789         0.35107        19.44928
| 73>    N       -5.32263         0.32114        20.70885
| 74>    C       -6.20186         0.22500        21.66072
| 75>    C       -7.61035         0.15689        21.43259
| 76>    C       -8.54419         0.05610        22.59910
| 77>    C      -10.01148         0.04370        22.19423
| 78>    N       -8.10833         0.18114        20.22242
| 79>    C       -5.08694         0.45131        18.28280
| 80>    S       -6.08331         0.44989        16.90614
| 81>    H      -10.41809         9.49751        -1.41878
| 82>    H       -9.29234         4.36805         1.28685
| 83>    H      -12.67373         5.28424        -0.13170
| 84>    H      -11.92005         4.28932         1.13379
| 85>    H      -11.34505         4.09362        -1.86343
| 86>    H      -12.30742         2.95010        -0.92229
| 87>    H      -10.57407         3.10609        -0.61874
| 88>    H       -5.18379         9.91625        -0.19717
| 89>    H       -2.14507         5.83503         5.40366
| 90>    H       -6.84766         5.12753         5.47406
| 91>    H       -9.93069         3.00005         7.34827
| 92>    H       -9.12938         4.90511         8.63818
| 93>    H      -10.37764         5.30842         7.42933
| 94>    H       -8.31630         6.79956         7.66163
| 95>    H       -8.70074         6.32844         6.13212
| 96>    H       -9.30410         2.70539         4.95776
| 97>    H       -8.79131         4.39866         4.89730
| 98>    H      -11.50761         3.48744         5.43607
| 99>    H      -10.97197         4.47195         4.23323
|100>    H       -9.60405         1.34396         8.70898
|101>    H       -8.57333        -0.91852         9.07744
|102>    H       -6.30688        -1.05796        10.22712
|103>    H       -4.69826         0.34643         9.01269
|104>    H       -3.46468         2.07170         7.50051
|105>    H       -2.77926         3.88197         6.01526
|106>    H       -8.05024         0.50440        11.68648
|107>    H      -10.60413        -0.66989        10.46273
|108>    H      -12.70972        -0.49229        12.00176
|109>    H      -10.12370         0.19067        19.09191
|110>    H       -5.81583         0.19866        22.67158
|111>    H       -8.34582         0.89837        23.26913
|112>    H       -8.30035        -0.85565        23.15354
|113>    H      -10.26248         0.95468        21.65760
|114>    H      -10.64390        -0.02833        23.07531
|115>    H      -10.21749        -0.80314        21.54545
|116>    H       -4.02171         0.51862        18.18896
|117> *
|118>
|119>                          ****END OF INPUT****

CARTESIAN COORDINATES (ANGSTROEM)
---------------------------------
  C     -9.668990    8.989470   -0.846240
  C     -9.743360    7.734280   -0.283120
  C     -8.545940    7.384980    0.435030
  N     -8.393680    6.157420    0.969350
  C     -9.414670    5.355460    0.861810
  C    -10.636630    5.720070    0.223730
  C    -11.770060    4.744350    0.151950
  C    -11.478440    3.652160   -0.878660
  N    -10.787730    6.878890   -0.359620
  C     -7.593090    8.403260    0.424860
  S     -8.173560    9.740490   -0.516040
  C     -6.322590    8.415590    1.047270
  C     -5.170210    9.210490    0.615400
  N     -4.083090    8.984300    1.293460
  C     -4.424990    8.053030    2.230720
  C     -5.836270    7.685210    2.111050
  C     -6.192720    6.771890    3.167230
  S     -7.741930    6.389660    3.580600
  C     -4.955920    6.473470    3.839750
  C     -3.893180    7.314950    3.259240
  N     -2.702840    7.099380    3.881640
  C     -2.939200    6.166090    4.757800
  C     -4.325680    5.693560    4.799010
  C     -4.782010    4.638240    5.658620
  C     -6.132320    4.454380    5.909860
  C     -6.561500    3.427350    6.764980
  C     -7.833690    3.043330    7.194440
  C     -9.161400    3.636440    6.895810
  C     -9.323940    5.024830    7.568400
  N     -8.401900    6.002890    7.044460
  C     -9.471110    3.706950    5.389440
  N    -10.824660    4.198510    5.196820
  C     -7.651470    1.903090    8.065190
  C     -8.541380    1.142890    8.730860
  C     -8.115190   -0.030980    9.545270
  C     -6.638880   -0.242230    9.603570
  C     -5.759550    0.534220    8.943050
  C     -6.216500    1.609820    8.144910
  C     -5.567750    2.542640    7.359340
  C     -4.199110    2.737270    7.071170
  C     -3.823350    3.752070    6.252420
  C     -8.700280    0.085800   10.933110
  C     -9.949850   -0.279060   11.234910
  C    -10.538320   -0.186480   12.537120
  C    -11.974800   -0.331590   12.772310
  N    -12.333680   -0.240280   14.020960
  C    -11.174950   -0.043250   14.711040
  C    -10.019790    0.014120   13.797590
  C     -8.805960    0.164260   14.568780
  S     -7.252390    0.235820   14.020180
  C     -9.244160    0.194160   15.935790
  C    -10.707830    0.071300   15.993880
  N    -11.145980    0.071580   17.287280
  C    -10.077200    0.165380   18.018870
  C     -8.823360    0.237100   17.251420
  C     -7.544020    0.312980   17.838690
  C     -7.231020    0.276670   19.205520
  C     -5.817890    0.351070   19.449280
  N     -5.322630    0.321140   20.708850
  C     -6.201860    0.225000   21.660720
  C     -7.610350    0.156890   21.432590
  C     -8.544190    0.056100   22.599100
  C    -10.011480    0.043700   22.194230
  N     -8.108330    0.181140   20.222420
  C     -5.086940    0.451310   18.282800
  S     -6.083310    0.449890   16.906140
  H    -10.418090    9.497510   -1.418780
  H     -9.292340    4.368050    1.286850
  H    -12.673730    5.284240   -0.131700
  H    -11.920050    4.289320    1.133790
  H    -11.345050    4.093620   -1.863430
  H    -12.307420    2.950100   -0.922290
  H    -10.574070    3.106090   -0.618740
  H     -5.183790    9.916250   -0.197170
  H     -2.145070    5.835030    5.403660
  H     -6.847660    5.127530    5.474060
  H     -9.930690    3.000050    7.348270
  H     -9.129380    4.905110    8.638180
  H    -10.377640    5.308420    7.429330
  H     -8.316300    6.799560    7.661630
  H     -8.700740    6.328440    6.132120
  H     -9.304100    2.705390    4.957760
  H     -8.791310    4.398660    4.897300
  H    -11.507610    3.487440    5.436070
  H    -10.971970    4.471950    4.233230
  H     -9.604050    1.343960    8.708980
  H     -8.573330   -0.918520    9.077440
  H     -6.306880   -1.057960   10.227120
  H     -4.698260    0.346430    9.012690
  H     -3.464680    2.071700    7.500510
  H     -2.779260    3.881970    6.015260
  H     -8.050240    0.504400   11.686480
  H    -10.604130   -0.669890   10.462730
  H    -12.709720   -0.492290   12.001760
  H    -10.123700    0.190670   19.091910
  H     -5.815830    0.198660   22.671580
  H     -8.345820    0.898370   23.269130
  H     -8.300350   -0.855650   23.153540
  H    -10.262480    0.954680   21.657600
  H    -10.643900   -0.028330   23.075310
  H    -10.217490   -0.803140   21.545450
  H     -4.021710    0.518620   18.188960

 Total Charge           Charge          ....    0
 Multiplicity           Mult            ....    1
 Number of Electrons    NEL             ....  482
 Basis Dimension        Dim             .... 1120

ORBITAL ENERGIES
----------------

  NO   OCC          E(Eh)            E(eV)
   0   2.0000     -88.979265     -2421.2489
   1   2.0000     -88.978044     -2421.2157
   2   2.0000     -88.894955     -2418.9547
   3   2.0000     -88.884526     -2418.6709
   4   2.0000     -14.428443      -392.6179
   5   2.0000     -14.426052      -392.5528
   6   2.0000     -14.419883      -392.3850
   7   2.0000     -14.412770      -392.1914
   8   2.0000     -14.409963      -392.1150
   9   2.0000     -14.409136      -392.0925
  10   2.0000     -14.402797      -391.9200
  11   2.0000     -14.400754      -391.8644
  12   2.0000     -14.377165      -391.2225
  13   2.0000     -14.363394      -390.8478
  14   2.0000     -10.339026      -281.3392
  15   2.0000     -10.329224      -281.0725
  16   2.0000     -10.325332      -280.9666
  17   2.0000     -10.324479      -280.9434
  18   2.0000     -10.324108      -280.9333
  19   2.0000     -10.323765      -280.9239
  20   2.0000     -10.321290      -280.8566
  21   2.0000     -10.320034      -280.8224
  22   2.0000     -10.319620      -280.8111
  23   2.0000     -10.319573      -280.8098
  24   2.0000     -10.319560      -280.8095
  25   2.0000     -10.316329      -280.7216
  26   2.0000     -10.315251      -280.6923
  27   2.0000     -10.314772      -280.6792
  28   2.0000     -10.313492      -280.6444
  29   2.0000     -10.311720      -280.5962
  30   2.0000     -10.310501      -280.5630
  31   2.0000     -10.310360      -280.5592
  32   2.0000     -10.310255      -280.5563
  33   2.0000     -10.307090      -280.4702
  34   2.0000     -10.306468      -280.4532
  35   2.0000     -10.306135      -280.4442
  36   2.0000     -10.301819      -280.3268
  37   2.0000     -10.299953      -280.2760
  38   2.0000     -10.298721      -280.2425
  39   2.0000     -10.297747      -280.2160
  40   2.0000     -10.291062      -280.0340
  41   2.0000     -10.290669      -280.0233
  42   2.0000     -10.287207      -279.9291
  43   2.0000     -10.286976      -279.9228
  44   2.0000     -10.284066      -279.8437
  45   2.0000     -10.282183      -279.7924
  46   2.0000     -10.279967      -279.7321
  47   2.0000     -10.279416      -279.7171
  48   2.0000     -10.275057      -279.5985
  49   2.0000     -10.271669      -279.5063
  50   2.0000     -10.270287      -279.4687
  51   2.0000     -10.268526      -279.4208
  52   2.0000     -10.267450      -279.3915
  53   2.0000     -10.266389      -279.3627
  54   2.0000     -10.265002      -279.3249
  55   2.0000     -10.262685      -279.2619
  56   2.0000     -10.261628      -279.2331
  57   2.0000     -10.260303      -279.1970
  58   2.0000     -10.258776      -279.1555
  59   2.0000     -10.258462      -279.1469
  60   2.0000     -10.257703      -279.1263
  61   2.0000     -10.256594      -279.0961
  62   2.0000     -10.256268      -279.0872
  63   2.0000     -10.254433      -279.0373
  64   2.0000     -10.253075      -279.0004
  65   2.0000     -10.252269      -278.9784
  66   2.0000      -8.073205      -219.6831
  67   2.0000      -8.073057      -219.6790
  68   2.0000      -7.990910      -217.4437
  69   2.0000      -7.979209      -217.1253
  70   2.0000      -6.042049      -164.4125
  71   2.0000      -6.041945      -164.4097
  72   2.0000      -6.037709      -164.2944
  73   2.0000      -6.037596      -164.2913
  74   2.0000      -6.036571      -164.2635
  75   2.0000      -6.036239      -164.2544
  76   2.0000      -5.959708      -162.1719
  77   2.0000      -5.959066      -162.1544
  78   2.0000      -5.950472      -161.9206
  79   2.0000      -5.947856      -161.8494
  80   2.0000      -5.947746      -161.8464
  81   2.0000      -5.938825      -161.6036
  82   2.0000      -1.084357       -29.5069
  83   2.0000      -1.076806       -29.3014
  84   2.0000      -1.074122       -29.2283
  85   2.0000      -1.068710       -29.0811
  86   2.0000      -1.057932       -28.7878
  87   2.0000      -1.050491       -28.5853
  88   2.0000      -1.008666       -27.4472
  89   2.0000      -0.998218       -27.1629
  90   2.0000      -0.986894       -26.8548
  91   2.0000      -0.981659       -26.7123
  92   2.0000      -0.975903       -26.5557
  93   2.0000      -0.960422       -26.1344
  94   2.0000      -0.956514       -26.0281
  95   2.0000      -0.946261       -25.7491
  96   2.0000      -0.940517       -25.5928
  97   2.0000      -0.937803       -25.5189
  98   2.0000      -0.914003       -24.8713
  99   2.0000      -0.893140       -24.3036
 100   2.0000      -0.889845       -24.2139
 101   2.0000      -0.888289       -24.1716
 102   2.0000      -0.888001       -24.1637
 103   2.0000      -0.874698       -23.8018
 104   2.0000      -0.867469       -23.6050
 105   2.0000      -0.855968       -23.2921
 106   2.0000      -0.847210       -23.0537
 107   2.0000      -0.836601       -22.7651
 108   2.0000      -0.832680       -22.6584
 109   2.0000      -0.828281       -22.5387
 110   2.0000      -0.827664       -22.5219
 111   2.0000      -0.825490       -22.4627
 112   2.0000      -0.816888       -22.2287
 113   2.0000      -0.811051       -22.0698
 114   2.0000      -0.803420       -21.8622
 115   2.0000      -0.787681       -21.4339
 116   2.0000      -0.770926       -20.9780
 117   2.0000      -0.766836       -20.8667
 118   2.0000      -0.763542       -20.7770
 119   2.0000      -0.750705       -20.4277
 120   2.0000      -0.746150       -20.3038
 121   2.0000      -0.738485       -20.0952
 122   2.0000      -0.731992       -19.9185
 123   2.0000      -0.721141       -19.6232
 124   2.0000      -0.719900       -19.5895
 125   2.0000      -0.716861       -19.5068
 126   2.0000      -0.713701       -19.4208
 127   2.0000      -0.702365       -19.1123
 128   2.0000      -0.690343       -18.7852
 129   2.0000      -0.683142       -18.5893
 130   2.0000      -0.682761       -18.5789
 131   2.0000      -0.679878       -18.5004
 132   2.0000      -0.673089       -18.3157
 133   2.0000      -0.668155       -18.1814
 134   2.0000      -0.664549       -18.0833
 135   2.0000      -0.661836       -18.0095
 136   2.0000      -0.650961       -17.7135
 137   2.0000      -0.638396       -17.3717
 138   2.0000      -0.634914       -17.2769
 139   2.0000      -0.630820       -17.1655
 140   2.0000      -0.627169       -17.0661
 141   2.0000      -0.625474       -17.0200
 142   2.0000      -0.608263       -16.5517
 143   2.0000      -0.598514       -16.2864
 144   2.0000      -0.594183       -16.1685
 145   2.0000      -0.587024       -15.9737
 146   2.0000      -0.586066       -15.9477
 147   2.0000      -0.582500       -15.8506
 148   2.0000      -0.575939       -15.6721
 149   2.0000      -0.569401       -15.4942
 150   2.0000      -0.568644       -15.4736
 151   2.0000      -0.566261       -15.4087
 152   2.0000      -0.564689       -15.3660
 153   2.0000      -0.556608       -15.1461
 154   2.0000      -0.555038       -15.1034
 155   2.0000      -0.553810       -15.0699
 156   2.0000      -0.549656       -14.9569
 157   2.0000      -0.543166       -14.7803
 158   2.0000      -0.539648       -14.6846
 159   2.0000      -0.538722       -14.6594
 160   2.0000      -0.537196       -14.6178
 161   2.0000      -0.533214       -14.5095
 162   2.0000      -0.529702       -14.4139
 163   2.0000      -0.527522       -14.3546
 164   2.0000      -0.523810       -14.2536
 165   2.0000      -0.521668       -14.1953
 166   2.0000      -0.519941       -14.1483
 167   2.0000      -0.517308       -14.0767
 168   2.0000      -0.515933       -14.0392
 169   2.0000      -0.511440       -13.9170
 170   2.0000      -0.509544       -13.8654
 171   2.0000      -0.508637       -13.8407
 172   2.0000      -0.505254       -13.7487
 173   2.0000      -0.501286       -13.6407
 174   2.0000      -0.498271       -13.5586
 175   2.0000      -0.496221       -13.5029
 176   2.0000      -0.491291       -13.3687
 177   2.0000      -0.488652       -13.2969
 178   2.0000      -0.486965       -13.2510
 179   2.0000      -0.485402       -13.2085
 180   2.0000      -0.484591       -13.1864
 181   2.0000      -0.481381       -13.0990
 182   2.0000      -0.479495       -13.0477
 183   2.0000      -0.476517       -12.9667
 184   2.0000      -0.475389       -12.9360
 185   2.0000      -0.468918       -12.7599
 186   2.0000      -0.465931       -12.6786
 187   2.0000      -0.463054       -12.6003
 188   2.0000      -0.460770       -12.5382
 189   2.0000      -0.456314       -12.4169
 190   2.0000      -0.453413       -12.3380
 191   2.0000      -0.451778       -12.2935
 192   2.0000      -0.448474       -12.2036
 193   2.0000      -0.447492       -12.1769
 194   2.0000      -0.441522       -12.0144
 195   2.0000      -0.440785       -11.9944
 196   2.0000      -0.438508       -11.9324
 197   2.0000      -0.435149       -11.8410
 198   2.0000      -0.432431       -11.7670
 199   2.0000      -0.432063       -11.7570
 200   2.0000      -0.430962       -11.7271
 201   2.0000      -0.429099       -11.6764
 202   2.0000      -0.424661       -11.5556
 203   2.0000      -0.424533       -11.5521
 204   2.0000      -0.422524       -11.4975
 205   2.0000      -0.419265       -11.4088
 206   2.0000      -0.418686       -11.3930
 207   2.0000      -0.414536       -11.2801
 208   2.0000      -0.412128       -11.2146
 209   2.0000      -0.405892       -11.0449
 210   2.0000      -0.401188       -10.9169
 211   2.0000      -0.397991       -10.8299
 212   2.0000      -0.393381       -10.7044
 213   2.0000      -0.388922       -10.5831
 214   2.0000      -0.384259       -10.4562
 215   2.0000      -0.380876       -10.3642
 216   2.0000      -0.379307       -10.3215
 217   2.0000      -0.358326        -9.7506
 218   2.0000      -0.356981        -9.7140
 219   2.0000      -0.350093        -9.5265
 220   2.0000      -0.348906        -9.4942
 221   2.0000      -0.346315        -9.4237
 222   2.0000      -0.341485        -9.2923
 223   2.0000      -0.339716        -9.2441
 224   2.0000      -0.338356        -9.2071
 225   2.0000      -0.325183        -8.8487
 226   2.0000      -0.323226        -8.7954
 227   2.0000      -0.320665        -8.7257
 228   2.0000      -0.319472        -8.6933
 229   2.0000      -0.318635        -8.6705
 230   2.0000      -0.312031        -8.4908
 231   2.0000      -0.301466        -8.2033
 232   2.0000      -0.295865        -8.0509
 233   2.0000      -0.291192        -7.9237
 234   2.0000      -0.282191        -7.6788
 235   2.0000      -0.279266        -7.5992
 236   2.0000      -0.276103        -7.5131
 237   2.0000      -0.265919        -7.2360
 238   2.0000      -0.262095        -7.1320
 239   2.0000      -0.255681        -6.9574
 240   2.0000      -0.211146        -5.7456
 241   0.0000      -0.106699        -2.9034
 242   0.0000      -0.100074        -2.7231
 243   0.0000      -0.077235        -2.1017
 244   0.0000      -0.073420        -1.9979
 245   0.0000      -0.053472        -1.4550

MULLIKEN ATOMIC CHARGES
-----------------------
   0 C :   -0.147393
   1 C :    0.055548
   2 C :    0.072151
   3 N :    0.011055
   4 C :    0.028232
   5 C :   -0.145760
   6 C :    0.104325
   7 C :   -0.007931
   8 N :   -0.001590
   9 C :   -0.207375
  10 S :    0.178658
  11 C :    0.014172
  12 C :    0.036856
  13 N :   -0.026000
  14 C :    0.015868
  15 C :   -0.024050
  16 C :    0.003457
  17 S :   -0.147787
  18 C :   -0.004939
  19 C :   -0.021752
  20 N :   -0.030198
  21 C :    0.041281
  22 C :    0.009802
  23 C :    0.091647
  24 C :    0.001720
  25 C :    0.036854
  26 C :    0.016299
  27 C :   -0.040737
  28 C :    0.157019
  29 N :   -0.215511
  30 C :    0.113073
  31 N :   -0.215816
  32 C :    0.092900
  33 C :   -0.115585
  34 C :    0.123995
  35 C :   -0.047653
  36 C :    0.020679
  37 C :    0.009159
  38 C :    0.032195
  39 C :   -0.011308
  40 C :   -0.037164
  41 C :   -0.030561
  42 C :   -0.004519
  43 C :    0.012801
  44 C :    0.047753
  45 N :   -0.028299
  46 C :   -0.008399
  47 C :   -0.015922
  48 C :   -0.000786
  49 S :   -0.145382
  50 C :   -0.048525
  51 C :    0.013553
  52 N :   -0.019216
  53 C :    0.069211
  54 C :    0.002797
  55 C :   -0.198578
  56 C :    0.055743
  57 C :    0.036349
  58 N :    0.013294
  59 C :    0.012425
  60 C :   -0.108987
  61 C :    0.017424
  62 C :    0.047291
  63 N :   -0.027968
  64 C :   -0.126617
  65 S :    0.241623
  66 H :    0.019815
  67 H :   -0.002692
  68 H :    0.015881
  69 H :    0.002560
  70 H :    0.025462
  71 H :    0.023446
  72 H :    0.013944
  73 H :    0.003448
  74 H :    0.008606
  75 H :   -0.071974
  76 H :   -0.048894
  77 H :   -0.012575
  78 H :   -0.006139
  79 H :    0.094645
  80 H :    0.100308
  81 H :   -0.013251
  82 H :   -0.005329
  83 H :    0.088327
  84 H :    0.088238
  85 H :   -0.013795
  86 H :    0.041405
  87 H :   -0.012169
  88 H :   -0.037392
  89 H :   -0.042316
  90 H :   -0.035911
  91 H :    0.026781
  92 H :   -0.023970
  93 H :    0.000633
  94 H :    0.003335
  95 H :    0.001935
  96 H :    0.027882
  97 H :    0.028966
  98 H :    0.024627
  99 H :    0.010705
 100 H :    0.026271
 101 H :    0.024285
Sum of atomic charges:   -0.0000000

LOEWDIN ATOMIC CHARGES
----------------------
   0 C :   -0.187996
   1 C :   -0.053972
   2 C :   -0.046211
   3 N :   -0.025962
   4 C :    0.003881
   5 C :   -0.003122
   6 C :   -0.035430
   7 C :   -0.047782
   8 N :   -0.055159
   9 C :   -0.186694
  10 S :    0.501281
  11 C :   -0.057327
  12 C :    0.067613
  13 N :   -0.079524
  14 C :    0.021721
  15 C :   -0.031643
  16 C :   -0.132719
  17 S :    0.101037
  18 C :   -0.053380
  19 C :    0.042403
  20 N :   -0.082543
  21 C :    0.084802
  22 C :   -0.015798
  23 C :   -0.052826
  24 C :    0.044747
  25 C :   -0.018483
  26 C :   -0.005916
  27 C :   -0.044550
  28 C :    0.028829
  29 N :   -0.096182
  30 C :    0.018911
  31 N :   -0.114155
  32 C :   -0.016956
  33 C :    0.066398
  34 C :   -0.033114
  35 C :   -0.038101
  36 C :   -0.013857
  37 C :   -0.044588
  38 C :   -0.026553
  39 C :   -0.018154
  40 C :   -0.029647
  41 C :    0.038003
  42 C :   -0.052235
  43 C :   -0.029934
  44 C :    0.072982
  45 N :   -0.079123
  46 C :    0.024724
  47 C :   -0.043093
  48 C :   -0.135136
  49 S :    0.046201
  50 C :   -0.062931
  51 C :    0.041831
  52 N :   -0.078073
  53 C :    0.095939
  54 C :   -0.037426
  55 C :   -0.201857
  56 C :   -0.036400
  57 C :   -0.065067
  58 N :   -0.029260
  59 C :    0.003218
  60 C :    0.005761
  61 C :   -0.042590
  62 C :   -0.049866
  63 N :   -0.054887
  64 C :   -0.179168
  65 S :    0.551163
  66 H :    0.029910
  67 H :    0.020326
  68 H :    0.034617
  69 H :    0.025838
  70 H :    0.028639
  71 H :    0.027222
  72 H :    0.022147
  73 H :    0.019428
  74 H :    0.023796
  75 H :    0.005545
  76 H :    0.017450
  77 H :    0.014401
  78 H :    0.001292
  79 H :    0.057209
  80 H :    0.039430
  81 H :    0.000903
  82 H :    0.003572
  83 H :    0.050835
  84 H :    0.051843
  85 H :    0.026030
  86 H :    0.060655
  87 H :    0.025143
  88 H :    0.029311
  89 H :    0.025408
  90 H :    0.021973
  91 H :    0.012919
  92 H :    0.024815
  93 H :    0.022682
  94 H :    0.023373
  95 H :    0.024941
  96 H :    0.038608
  97 H :    0.039576
  98 H :    0.027307
  99 H :    0.026534
 100 H :    0.027831
 101 H :    0.032435

  Mayer bond orders larger than 0.100000
B(  0-C ,  1-C ) :   1.3988 B(  0-C ,  9-C ) :   0.1313 B(  0-C , 10-S ) :   1.1994
B(  0-C , 66-H ) :   0.9780 B(  1-C ,  2-C ) :   1.1925 B(  1-C ,  8-N ) :   1.3494
B(  2-C ,  3-N ) :   1.3784 B(  2-C ,  9-C ) :   1.3548 B(  3-N ,  4-C ) :   1.6996
B(  4-C ,  5-C ) :   1.1368 B(  4-C , 67-H ) :   0.9750 B(  5-C ,  6-C ) :   1.0253
B(  5-C ,  8-N ) :   1.7390 B(  6-C ,  7-C ) :   1.0956 B(  6-C , 68-H ) :   0.9268
B(  6-C , 69-H ) :   0.9326 B(  7-C , 70-H ) :   0.9688 B(  7-C , 71-H ) :   0.9706
B(  7-C , 72-H ) :   0.9749 B(  9-C , 10-S ) :   1.1941 B(  9-C , 11-C ) :   1.1078
B( 11-C , 12-C ) :   1.0329 B( 11-C , 15-C ) :   1.5398 B( 12-C , 13-N ) :   1.7362
B( 12-C , 73-H ) :   0.9900 B( 13-N , 14-C ) :   1.2617 B( 14-C , 15-C ) :   1.0679
B( 14-C , 19-C ) :   1.5118 B( 15-C , 16-C ) :   1.0655 B( 16-C , 17-S ) :   1.6474
B( 16-C , 18-C ) :   1.0457 B( 18-C , 19-C ) :   1.0775 B( 18-C , 22-C ) :   1.4918
B( 19-C , 20-N ) :   1.2575 B( 20-N , 21-C ) :   1.7288 B( 21-C , 22-C ) :   1.0223
B( 21-C , 74-H ) :   0.9860 B( 22-C , 23-C ) :   1.0568 B( 23-C , 24-C ) :   1.4827
B( 23-C , 40-C ) :   1.0938 B( 24-C , 25-C ) :   1.1696 B( 24-C , 75-H ) :   0.9589
B( 25-C , 26-C ) :   1.4560 B( 25-C , 38-C ) :   1.1086 B( 26-C , 27-C ) :   1.0171
B( 26-C , 32-C ) :   1.1162 B( 27-C , 28-C ) :   1.0220 B( 27-C , 30-C ) :   1.0374
B( 27-C , 76-H ) :   0.8739 B( 28-C , 29-N ) :   1.1192 B( 28-C , 77-H ) :   0.9402
B( 28-C , 78-H ) :   0.9314 B( 29-N , 79-H ) :   0.9688 B( 29-N , 80-H ) :   0.9495
B( 30-C , 31-N ) :   1.0967 B( 30-C , 81-H ) :   0.9445 B( 30-C , 82-H ) :   0.9312
B( 31-N , 83-H ) :   0.9712 B( 31-N , 84-H ) :   0.9692 B( 32-C , 33-C ) :   1.6674
B( 32-C , 37-C ) :   1.0428 B( 33-C , 34-C ) :   0.9731 B( 33-C , 85-H ) :   0.9657
B( 34-C , 35-C ) :   0.9825 B( 34-C , 41-C ) :   0.9594 B( 34-C , 86-H ) :   0.8632
B( 35-C , 36-C ) :   1.7156 B( 35-C , 87-H ) :   0.9786 B( 36-C , 37-C ) :   1.1293
B( 36-C , 88-H ) :   0.9901 B( 37-C , 38-C ) :   1.4446 B( 38-C , 39-C ) :   1.1390
B( 39-C , 40-C ) :   1.6207 B( 39-C , 89-H ) :   0.9898 B( 40-C , 90-H ) :   0.9842
B( 41-C , 42-C ) :   1.7655 B( 41-C , 91-H ) :   0.9522 B( 42-C , 43-C ) :   1.0869
B( 42-C , 92-H ) :   0.9621 B( 43-C , 44-C ) :   1.0292 B( 43-C , 47-C ) :   1.5135
B( 44-C , 45-N ) :   1.7198 B( 44-C , 93-H ) :   0.9921 B( 45-N , 46-C ) :   1.2671
B( 46-C , 47-C ) :   1.0775 B( 46-C , 51-C ) :   1.5224 B( 47-C , 48-C ) :   1.0453
B( 48-C , 49-S ) :   1.6590 B( 48-C , 50-C ) :   1.0529 B( 50-C , 51-C ) :   1.0755
B( 50-C , 54-C ) :   1.4852 B( 51-C , 52-N ) :   1.2593 B( 52-N , 53-C ) :   1.7201
B( 53-C , 54-C ) :   1.0338 B( 53-C , 94-H ) :   0.9806 B( 54-C , 55-C ) :   1.1912
B( 55-C , 56-C ) :   1.3084 B( 55-C , 64-C ) :   0.1162 B( 55-C , 65-S ) :   1.1826
B( 56-C , 57-C ) :   1.2138 B( 56-C , 63-N ) :   1.3776 B( 57-C , 58-N ) :   1.3587
B( 57-C , 64-C ) :   1.3683 B( 58-N , 59-C ) :   1.7572 B( 59-C , 60-C ) :   1.1583
B( 59-C , 95-H ) :   0.9800 B( 60-C , 61-C ) :   0.9968 B( 60-C , 63-N ) :   1.7131
B( 61-C , 62-C ) :   1.1353 B( 61-C , 96-H ) :   0.9295 B( 61-C , 97-H ) :   0.9268
B( 62-C , 98-H ) :   0.9648 B( 62-C , 99-H ) :   0.9572 B( 62-C ,100-H ) :   0.9632
B( 64-C , 65-S ) :   1.2276 B( 64-C ,101-H ) :   0.9789

-----------------------------------------------------------------------------
         ABSORPTION SPECTRUM VIA TRANSITION ELECTRIC DIPOLE MOMENTS
-----------------------------------------------------------------------------
State   Energy  Wavelength   fosc         T2         TX        TY        TZ
        (cm-1)    (nm)                  (au**2)     (au)      (au)      (au)
-----------------------------------------------------------------------------
   0    8763.1   1141.1   0.075264970   2.82755   0.45891   0.92053  -1.33025
   1   10970.1    911.6   0.014181643   0.42559   0.23653   0.00313  -0.60797
   2   12744.9    784.6   0.003108093   0.08029  -0.17893  -0.04135   0.21578
   3   13643.9    732.9   0.005423928   0.13087   0.28622  -0.19849   0.09775
   4   15729.8    635.7   0.083861906   1.75517   0.43973  -0.79514   0.96414
   5   16070.0    622.3   0.014014291   0.28710  -0.08416   0.06271  -0.52544
   6   16397.1    609.9   0.147805626   2.96755   0.86651  -0.05784   1.48774
   7   16568.8    603.5   0.013227841   0.26283  -0.18251  -0.06609  -0.47450
   8   17010.7    587.9   0.217814406   4.21541   0.75332  -1.04898   1.59611
   9   17290.0    578.4   0.138431456   2.63582   0.09123   1.17647  -1.11509
  10   18644.2    536.4   0.001339979   0.02366  -0.03233  -0.09569   0.11601
  11   19565.2    511.1   0.013049409   0.21958  -0.44010  -0.13564   0.08652
  12   19897.8    502.6   0.022178608   0.36695   0.13149   0.02374  -0.59084
  13   22083.2    452.8   0.070941978   1.05759  -0.68781   0.38251  -0.66196
  14   22770.3    439.2   0.043320787   0.62633   0.04008  -0.05550   0.78844
  15   22923.5    436.2   0.362623445   5.20776   1.10812  -0.11390   1.99170
  16   23823.8    419.7   0.390260496   5.39286   0.75904  -1.21252   1.82935
  17   24168.2    413.8   0.001489755   0.02029  -0.13342  -0.00789  -0.04929
  18   24370.1    410.3   0.108302440   1.46304   0.95715   0.20376   0.71091
  19   25071.8    398.9   0.229751010   3.01681  -0.45064   0.53667  -1.58925
  20   25220.3    396.5   0.155203350   2.02594  -0.65976  -0.18257  -1.24793
  21   25573.6    391.0   0.003000887   0.03863  -0.11634   0.12850   0.09265
  22   25664.6    389.6   0.010112058   0.12971  -0.17629  -0.30524   0.07394
  23   26042.3    384.0   0.093412332   1.18087  -0.73157  -0.64819   0.47489
  24   26215.2    381.5   0.000834050   0.01047   0.05723  -0.00089   0.08484
  25   26269.1    380.7   0.012645770   0.15848   0.33317   0.20045  -0.08542
  26   26313.4    380.0   0.100463729   1.25692   0.04344  -0.53788   0.98271
  27   26624.2    375.6   0.010230107   0.12650  -0.28228  -0.06878   0.20515
  28   26999.5    370.4   0.097094991   1.18390  -0.27004  -0.67488   0.80964
  29   27541.9    363.1   0.008515180   0.10178   0.02029  -0.30282   0.09836
  30   27685.2    361.2   0.071219555   0.84689   0.48055   0.02716   0.78436
  31   27884.4    358.6   0.078942492   0.93202  -0.00419   0.49853  -0.82672
  32   28020.2    356.9   0.000309615   0.00364   0.04346   0.02646   0.03239
  33   28156.3    355.2   0.027394888   0.32031   0.32312  -0.12073   0.44869
  34   28285.5    353.5   0.054079463   0.62942  -0.14566   0.15161   0.76500
  35   28397.2    352.1   0.061216548   0.70969   0.04199  -0.21886  -0.81242
  36   28451.3    351.5   0.062449863   0.72261  -0.21137  -0.14432  -0.81062
  37   28790.3    347.3   0.050868858   0.58168   0.19813   0.06486   0.73363
  38   28882.0    346.2   0.034889726   0.39769  -0.31224   0.23911  -0.49297
  39   29713.7    336.5   0.012982362   0.14384   0.37692  -0.03003   0.02945
  40   30281.7    330.2   0.011137496   0.12108  -0.26936   0.15762  -0.15390
  41   30386.8    329.1   0.012546897   0.13593   0.27054  -0.18370   0.17028
  42   30510.7    327.8   0.048297280   0.52113  -0.13177  -0.03532   0.70889
  43   31039.2    322.2   0.010448261   0.11082   0.30040  -0.11732   0.08254
  44   31246.8    320.0   0.018880849   0.19893   0.06673  -0.40700   0.16979
  45   31353.4    318.9   0.003833203   0.04025   0.16226   0.11268   0.03499
  46   31583.3    316.6   0.054353090   0.56656  -0.72625  -0.03478  -0.19471
  47   31822.1    314.2   0.016956170   0.17542  -0.37258  -0.11878  -0.14998
  48   31847.4    314.0   0.016134245   0.16678   0.17920   0.10197   0.35252
  49   31947.4    313.0   0.028142256   0.29000  -0.39198  -0.36862  -0.02181
  50   32292.7    309.7   0.002420431   0.02468  -0.11949  -0.10183   0.00535
  51   32418.1    308.5   0.000596938   0.00606  -0.07598   0.00885   0.01451
  52   32451.8    308.1   0.004059882   0.04119   0.00673  -0.20199  -0.01849
  53   32924.0    303.7   0.014604273   0.14603  -0.37926   0.01892  -0.04283
  54   32982.3    303.2   0.055291102   0.55189   0.62210  -0.34580   0.21284
  55   33388.0    299.5   0.014396281   0.14195  -0.32085  -0.04947   0.19120
  56   33524.1    298.3   0.000112154   0.00110  -0.00504   0.03004   0.01318
  57   33615.4    297.5   0.000128233   0.00126   0.00049   0.03361  -0.01122
  58   33758.7    296.2   0.005007202   0.04883  -0.05190   0.11882  -0.17894
  59   34209.3    292.3   0.072278732   0.69557  -0.70118  -0.27651   0.35701
  60   34442.0    290.3   0.164297235   1.57042   0.56434   0.61400  -0.93539
  61   34596.2    289.0   0.006426496   0.06115  -0.11328  -0.21266   0.05563
  62   34772.3    287.6   0.120053295   1.13662   0.00480   0.77323  -0.73398
  63   35210.2    284.0   0.029768741   0.27833  -0.26936  -0.27767   0.35871
  64   35596.1    280.9   0.116072602   1.07350   0.13868   0.47501  -0.91029
  65   35651.1    280.5   0.009921098   0.09161  -0.20107  -0.10123   0.20233
  66   35868.0    278.8   0.024459218   0.22450  -0.00725  -0.29998   0.36669
  67   35996.8    277.8   0.171542573   1.56886  -0.90021  -0.84219  -0.22179
  68   36402.2    274.7   0.142488712   1.28863   0.32779   0.80848  -0.72632
  69   36513.9    273.9   0.132714577   1.19657  -0.71607  -0.01723   0.82674
  70   36540.7    273.7   0.004779996   0.04307   0.03077  -0.19315  -0.06935
  71   36660.0    272.8   0.077275657   0.69395   0.34061   0.18429  -0.73754
  72   36676.3    272.7   0.011189787   0.10044   0.25577   0.07742  -0.17038
  73   36930.5    270.8   0.007969460   0.07104  -0.08240  -0.24323   0.07135
  74   37051.2    269.9   0.181710879   1.61456  -0.45030  -0.80136   0.87728
  75   37253.3    268.4   0.017029592   0.15049   0.32555   0.04918   0.20516
  76   37329.2    267.9   0.107958550   0.95210  -0.14737  -0.02943   0.96412
  77   37640.0    265.7   0.004186280   0.03661  -0.13404   0.13069  -0.03958
  78   37750.9    264.9   0.164970342   1.43865  -0.07195  -0.76832   0.91823
  79   37846.1    264.2   0.046568532   0.40509   0.51152  -0.28755   0.24646
  80   37981.6    263.3   0.035065807   0.30394   0.54245  -0.09815  -0.00761
  81   38208.9    261.7   0.007182058   0.06188  -0.02076   0.10789  -0.22318
  82   38419.8    260.3   0.039083057   0.33490  -0.46262  -0.03415   0.34600
  83   38497.5    259.8   0.044177522   0.37778  -0.53621   0.04791   0.29659
  84   38528.4    259.5   0.089440188   0.76423   0.76273   0.00906  -0.42707
  85   38872.8    257.2   0.049485184   0.41909  -0.61436  -0.19444   0.06200
  86   39001.8    256.4   0.001758936   0.01485   0.03798  -0.10501  -0.04876
  87   39331.0    254.3   0.054431302   0.45561  -0.58725  -0.33276   0.00403
  88   39595.1    252.6   0.106177503   0.88281  -0.20694   0.02373  -0.91620
  89   39627.4    252.4   0.022686535   0.18847   0.26160   0.07257   0.33878
  90   39714.9    251.8   0.012555271   0.10408  -0.16129   0.05201  -0.27451
  91   40135.7    249.2   0.002654963   0.02178  -0.02720  -0.06418  -0.13007
  92   40269.7    248.3   0.004124950   0.03372   0.12593   0.13275  -0.01548

FINAL SINGLE POINT ENERGY     -4139.500688820759

DIPOLE MOMENT
-------------
                                X             Y             Z
Electronic contribution:     31.39986      17.16346      -0.85770
Nuclear contribution   :    -32.53785     -18.49071       1.78201
                        -----------------------------------------
Total Dipole Moment    :     -1.13799      -1.32725       0.92431
                        -----------------------------------------
Magnitude (a.u.)       :      1.97762
Magnitude (Debye)      :      5.02670

Rotational constants in cm-1:     0.002323     0.000295     0.000277
Rotational constants in MHz :    69.629715     8.845916     8.296564

                             ****ORCA TERMINATED NORMALLY****
TOTAL RUN TIME: 0 days 0 hours 9 minutes 52 seconds 15 msec
