                         Program Version 4.2.0 -  RELEASE  -
|  1> # ORCA input file
|  2> # SCF done       -160.338260495546          0.000890746279
|  3> ! CAM-B3LYP def2-SVP def2/J RIJCOSX Grid4 TightSCF
|  4> %maxcore 5000
|  5> %tddft
|  6>     Mode sTDDFT
|  7>     Ethresh 5.0
|  8>     maxcore 5000
|  9> end
| 10>
| 11> %pal
| 12>   nprocs 6
| 13>   end
| 14> * xyz 0 1
| 15>    C        0.06689         1.94233         0.54687
| 16>    C        0.05740         1.13514         1.64784
| 17>    C        0.57266        -0.14763         1.26408
| 18>    C        0.90439        -0.09295        -0.14533
| 19>    O        1.36048        -0.90389        -0.91820
| 20>    N        0.56147         1.22751        -0.50217
| 21>    C        0.55232        -0.95119         2.38431
| 22>    O        0.05485        -0.24349         3.44260
| 23>    C       -0.27161         1.05641         3.05889
| 24>    O       -0.72341         1.84924         3.83407
| 25>    C        0.94674        -2.29173         2.56566
| 26>    C        1.48203        -3.12749         1.60294
| 27>    C        1.74377        -4.39177         2.20475
| 28>    C        1.32338        -4.25485         3.59948
| 29>    C        0.85136        -3.01878         3.82895
| 30>    F        1.41408        -5.24658         4.49644
| 31>    C        2.28616        -5.52189         1.62454
| 32>    C        2.55161        -6.77594         2.22344
| 33>    C        3.11845        -7.62433         1.28549
| 34>    C        3.22152        -6.89188         0.01831
| 35>    C        2.72890        -5.66290         0.22918
| 36>    F        2.64225        -4.68657        -0.67464
| 37>    C        3.52735        -8.94699         1.53053
| 38>    C        4.12883        -9.76878         0.61880
| 39>    C        4.55366       -11.08484         0.88254
| 40>    N        5.20277       -11.83325        -0.08101
| 41>    C        5.51386       -13.04611         0.44332
| 42>    C        6.12281       -14.25896         0.17542
| 43>    C        6.01203       -15.02253         1.35557
| 44>    N        5.34480       -14.28126         2.31208
| 45>    C        5.03403       -13.06872         1.78742
| 46>    C        4.43882       -11.85057         2.06085
| 47>    C        6.47059       -16.32363         1.63627
| 48>    C        7.18192       -17.10647         0.77058
| 49>    C        7.65996       -18.39809         1.05388
| 50>    C        8.43210       -19.17242         0.20167
| 51>    C        8.74090       -20.40007         0.83180
| 52>    C        8.08646       -20.33075         2.14519
| 53>    C        7.45111       -19.15934         2.29023
| 54>    F        8.13926       -21.31506         3.04784
| 55>    C        9.50274       -21.44790         0.34998
| 56>    C        9.81624       -22.67709         0.99008
| 57>    C       10.61734       -23.43110         0.15011
| 58>    C       10.83282       -22.66695        -1.07897
| 59>    C       10.17125       -21.50613        -0.94949
| 60>    F       10.11310       -20.52111        -1.85663
| 61>    C       11.17181       -24.71287         0.36248
| 62>    C       10.98174       -25.47587         1.47688
| 63>    C       11.53686       -26.75554         1.68863
| 64>    C       11.36133       -27.58669         2.78388
| 65>    C       12.11313       -28.79255         2.57467
| 66>    C       12.78159       -28.67959         1.27714
| 67>    O       13.51400       -29.42246         0.67376
| 68>    N       12.37683       -27.42472         0.81772
| 69>    C       11.91064       -29.57446         3.66258
| 70>    O       11.09439       -28.97323         4.54836
| 71>    C       10.70589       -27.70863         4.05919
| 72>    O        9.97390       -26.98867         4.68261
| 73>    H       -0.24001         2.96533         0.43771
| 74>    H        0.67871         1.58098        -1.43934
| 75>    H        1.66744        -2.86464         0.57928
| 76>    H        0.47006        -2.60779         4.74239
| 77>    H        2.35078        -7.02677         3.24625
| 78>    H        3.61412        -7.27459        -0.90263
| 79>    H        3.35367        -9.31733         2.53116
| 80>    H        4.31402        -9.39790        -0.38013
| 81>    H        5.41023       -11.51017        -1.01045
| 82>    H        6.58850       -14.57892        -0.73387
| 83>    H        5.14471       -14.60078         3.24439
| 84>    H        3.97663       -11.52994         2.97160
| 85>    H        6.24331       -16.70584         2.62220
| 86>    H        7.42088       -16.71736        -0.20941
| 87>    H        8.75360       -18.88394        -0.77965
| 88>    H        6.88879       -18.83741         3.14389
| 89>    H        9.48079       -22.95856         1.96823
| 90>    H       11.41558       -22.99648        -1.91728
| 91>    H       11.78797       -25.09257        -0.44367
| 92>    H       10.36104       -25.11317         2.28262
| 93>    H       12.68639       -27.05869        -0.06863
| 94>    H       12.27438       -30.55033         3.92571
| 95> *
| 96>
| 97>                          ****END OF INPUT****

CARTESIAN COORDINATES (ANGSTROEM)
---------------------------------
  C      0.066890    1.942330    0.546870
  C      0.057400    1.135140    1.647840
  C      0.572660   -0.147630    1.264080
  C      0.904390   -0.092950   -0.145330
  O      1.360480   -0.903890   -0.918200
  N      0.561470    1.227510   -0.502170
  C      0.552320   -0.951190    2.384310
  O      0.054850   -0.243490    3.442600
  C     -0.271610    1.056410    3.058890
  O     -0.723410    1.849240    3.834070
  C      0.946740   -2.291730    2.565660
  C      1.482030   -3.127490    1.602940
  C      1.743770   -4.391770    2.204750
  C      1.323380   -4.254850    3.599480
  C      0.851360   -3.018780    3.828950
  F      1.414080   -5.246580    4.496440
  C      2.286160   -5.521890    1.624540
  C      2.551610   -6.775940    2.223440
  C      3.118450   -7.624330    1.285490
  C      3.221520   -6.891880    0.018310
  C      2.728900   -5.662900    0.229180
  F      2.642250   -4.686570   -0.674640
  C      3.527350   -8.946990    1.530530
  C      4.128830   -9.768780    0.618800
  C      4.553660  -11.084840    0.882540
  N      5.202770  -11.833250   -0.081010
  C      5.513860  -13.046110    0.443320
  C      6.122810  -14.258960    0.175420
  C      6.012030  -15.022530    1.355570
  N      5.344800  -14.281260    2.312080
  C      5.034030  -13.068720    1.787420
  C      4.438820  -11.850570    2.060850
  C      6.470590  -16.323630    1.636270
  C      7.181920  -17.106470    0.770580
  C      7.659960  -18.398090    1.053880
  C      8.432100  -19.172420    0.201670
  C      8.740900  -20.400070    0.831800
  C      8.086460  -20.330750    2.145190
  C      7.451110  -19.159340    2.290230
  F      8.139260  -21.315060    3.047840
  C      9.502740  -21.447900    0.349980
  C      9.816240  -22.677090    0.990080
  C     10.617340  -23.431100    0.150110
  C     10.832820  -22.666950   -1.078970
  C     10.171250  -21.506130   -0.949490
  F     10.113100  -20.521110   -1.856630
  C     11.171810  -24.712870    0.362480
  C     10.981740  -25.475870    1.476880
  C     11.536860  -26.755540    1.688630
  C     11.361330  -27.586690    2.783880
  C     12.113130  -28.792550    2.574670
  C     12.781590  -28.679590    1.277140
  O     13.514000  -29.422460    0.673760
  N     12.376830  -27.424720    0.817720
  C     11.910640  -29.574460    3.662580
  O     11.094390  -28.973230    4.548360
  C     10.705890  -27.708630    4.059190
  O      9.973900  -26.988670    4.682610
  H     -0.240010    2.965330    0.437710
  H      0.678710    1.580980   -1.439340
  H      1.667440   -2.864640    0.579280
  H      0.470060   -2.607790    4.742390
  H      2.350780   -7.026770    3.246250
  H      3.614120   -7.274590   -0.902630
  H      3.353670   -9.317330    2.531160
  H      4.314020   -9.397900   -0.380130
  H      5.410230  -11.510170   -1.010450
  H      6.588500  -14.578920   -0.733870
  H      5.144710  -14.600780    3.244390
  H      3.976630  -11.529940    2.971600
  H      6.243310  -16.705840    2.622200
  H      7.420880  -16.717360   -0.209410
  H      8.753600  -18.883940   -0.779650
  H      6.888790  -18.837410    3.143890
  H      9.480790  -22.958560    1.968230
  H     11.415580  -22.996480   -1.917280
  H     11.787970  -25.092570   -0.443670
  H     10.361040  -25.113170    2.282620
  H     12.686390  -27.058690   -0.068630
  H     12.274380  -30.550330    3.925710

 Total Charge           Charge          ....    0
 Multiplicity           Mult            ....    1
 Number of Electrons    NEL             ....  398
 Basis Dimension        Dim             ....  922

ORBITAL ENERGIES
----------------

  NO   OCC          E(Eh)            E(eV)
   0   2.0000     -24.795535      -674.7208
   1   2.0000     -24.791788      -674.6188
   2   2.0000     -24.788029      -674.5166
   3   2.0000     -24.783208      -674.3854
   4   2.0000     -19.273415      -524.4563
   5   2.0000     -19.272136      -524.4215
   6   2.0000     -19.199785      -522.4527
   7   2.0000     -19.199542      -522.4461
   8   2.0000     -19.192809      -522.2629
   9   2.0000     -19.191971      -522.2401
  10   2.0000     -14.478231      -393.9727
  11   2.0000     -14.478137      -393.9701
  12   2.0000     -14.460717      -393.4961
  13   2.0000     -14.456759      -393.3884
  14   2.0000     -10.400768      -283.0193
  15   2.0000     -10.397083      -282.9190
  16   2.0000     -10.384390      -282.5736
  17   2.0000     -10.380440      -282.4661
  18   2.0000     -10.363372      -282.0017
  19   2.0000     -10.362095      -281.9670
  20   2.0000     -10.361898      -281.9616
  21   2.0000     -10.353453      -281.7318
  22   2.0000     -10.352453      -281.7046
  23   2.0000     -10.348022      -281.5840
  24   2.0000     -10.347772      -281.5772
  25   2.0000     -10.339539      -281.3532
  26   2.0000     -10.328215      -281.0450
  27   2.0000     -10.328113      -281.0422
  28   2.0000     -10.317194      -280.7451
  29   2.0000     -10.316761      -280.7333
  30   2.0000     -10.310747      -280.5697
  31   2.0000     -10.310570      -280.5649
  32   2.0000     -10.305228      -280.4195
  33   2.0000     -10.305146      -280.4173
  34   2.0000     -10.303478      -280.3719
  35   2.0000     -10.301727      -280.3242
  36   2.0000     -10.299412      -280.2612
  37   2.0000     -10.298780      -280.2441
  38   2.0000     -10.298488      -280.2361
  39   2.0000     -10.293320      -280.0955
  40   2.0000     -10.292092      -280.0621
  41   2.0000     -10.291544      -280.0471
  42   2.0000     -10.288397      -279.9615
  43   2.0000     -10.287816      -279.9457
  44   2.0000     -10.286002      -279.8963
  45   2.0000     -10.285693      -279.8879
  46   2.0000     -10.280272      -279.7404
  47   2.0000     -10.278607      -279.6951
  48   2.0000     -10.272592      -279.5314
  49   2.0000     -10.272467      -279.5280
  50   2.0000     -10.271923      -279.5132
  51   2.0000     -10.271774      -279.5092
  52   2.0000     -10.271239      -279.4946
  53   2.0000     -10.270170      -279.4655
  54   2.0000     -10.270061      -279.4626
  55   2.0000     -10.268264      -279.4137
  56   2.0000     -10.264922      -279.3227
  57   2.0000     -10.263747      -279.2907
  58   2.0000      -1.308544       -35.6073
  59   2.0000      -1.305908       -35.5356
  60   2.0000      -1.299851       -35.3708
  61   2.0000      -1.295194       -35.2440
  62   2.0000      -1.203325       -32.7441
  63   2.0000      -1.200912       -32.6785
  64   2.0000      -1.132446       -30.8154
  65   2.0000      -1.130520       -30.7630
  66   2.0000      -1.110590       -30.2207
  67   2.0000      -1.109737       -30.1975
  68   2.0000      -1.107452       -30.1353
  69   2.0000      -1.074016       -29.2255
  70   2.0000      -1.058775       -28.8107
  71   2.0000      -1.057451       -28.7747
  72   2.0000      -0.991612       -26.9831
  73   2.0000      -0.989830       -26.9346
  74   2.0000      -0.973054       -26.4782
  75   2.0000      -0.970338       -26.4042
  76   2.0000      -0.919605       -25.0237
  77   2.0000      -0.915947       -24.9242
  78   2.0000      -0.908025       -24.7086
  79   2.0000      -0.906237       -24.6600
  80   2.0000      -0.905907       -24.6510
  81   2.0000      -0.885236       -24.0885
  82   2.0000      -0.882684       -24.0191
  83   2.0000      -0.868095       -23.6221
  84   2.0000      -0.856531       -23.3074
  85   2.0000      -0.840119       -22.8608
  86   2.0000      -0.832132       -22.6435
  87   2.0000      -0.826409       -22.4877
  88   2.0000      -0.813698       -22.1418
  89   2.0000      -0.804840       -21.9008
  90   2.0000      -0.801012       -21.7967
  91   2.0000      -0.796464       -21.6729
  92   2.0000      -0.790050       -21.4984
  93   2.0000      -0.770381       -20.9631
  94   2.0000      -0.759029       -20.6542
  95   2.0000      -0.753812       -20.5123
  96   2.0000      -0.753212       -20.4959
  97   2.0000      -0.743802       -20.2399
  98   2.0000      -0.733650       -19.9636
  99   2.0000      -0.714674       -19.4473
 100   2.0000      -0.706030       -19.2121
 101   2.0000      -0.702044       -19.1036
 102   2.0000      -0.697010       -18.9666
 103   2.0000      -0.691305       -18.8114
 104   2.0000      -0.684433       -18.6244
 105   2.0000      -0.673504       -18.3270
 106   2.0000      -0.672748       -18.3064
 107   2.0000      -0.668124       -18.1806
 108   2.0000      -0.665737       -18.1156
 109   2.0000      -0.660834       -17.9822
 110   2.0000      -0.654523       -17.8105
 111   2.0000      -0.641673       -17.4608
 112   2.0000      -0.635966       -17.3055
 113   2.0000      -0.631765       -17.1912
 114   2.0000      -0.625316       -17.0157
 115   2.0000      -0.622024       -16.9261
 116   2.0000      -0.617045       -16.7906
 117   2.0000      -0.608243       -16.5511
 118   2.0000      -0.607251       -16.5241
 119   2.0000      -0.596688       -16.2367
 120   2.0000      -0.586927       -15.9711
 121   2.0000      -0.583791       -15.8858
 122   2.0000      -0.582493       -15.8504
 123   2.0000      -0.579328       -15.7643
 124   2.0000      -0.579071       -15.7573
 125   2.0000      -0.575209       -15.6522
 126   2.0000      -0.568376       -15.4663
 127   2.0000      -0.564911       -15.3720
 128   2.0000      -0.564418       -15.3586
 129   2.0000      -0.564180       -15.3521
 130   2.0000      -0.560948       -15.2642
 131   2.0000      -0.558603       -15.2003
 132   2.0000      -0.555128       -15.1058
 133   2.0000      -0.553971       -15.0743
 134   2.0000      -0.553959       -15.0740
 135   2.0000      -0.553105       -15.0508
 136   2.0000      -0.549810       -14.9611
 137   2.0000      -0.549296       -14.9471
 138   2.0000      -0.547888       -14.9088
 139   2.0000      -0.544464       -14.8156
 140   2.0000      -0.536103       -14.5881
 141   2.0000      -0.530576       -14.4377
 142   2.0000      -0.524031       -14.2596
 143   2.0000      -0.523936       -14.2570
 144   2.0000      -0.523116       -14.2347
 145   2.0000      -0.522084       -14.2066
 146   2.0000      -0.515022       -14.0144
 147   2.0000      -0.514135       -13.9903
 148   2.0000      -0.510090       -13.8803
 149   2.0000      -0.509162       -13.8550
 150   2.0000      -0.507166       -13.8007
 151   2.0000      -0.506861       -13.7924
 152   2.0000      -0.496129       -13.5004
 153   2.0000      -0.493844       -13.4382
 154   2.0000      -0.488556       -13.2943
 155   2.0000      -0.481529       -13.1031
 156   2.0000      -0.477488       -12.9931
 157   2.0000      -0.477275       -12.9873
 158   2.0000      -0.474412       -12.9094
 159   2.0000      -0.473920       -12.8960
 160   2.0000      -0.471226       -12.8227
 161   2.0000      -0.469144       -12.7660
 162   2.0000      -0.467534       -12.7223
 163   2.0000      -0.464376       -12.6363
 164   2.0000      -0.462569       -12.5871
 165   2.0000      -0.462323       -12.5804
 166   2.0000      -0.460679       -12.5357
 167   2.0000      -0.460172       -12.5219
 168   2.0000      -0.458223       -12.4689
 169   2.0000      -0.448274       -12.1982
 170   2.0000      -0.446652       -12.1540
 171   2.0000      -0.445889       -12.1333
 172   2.0000      -0.444461       -12.0944
 173   2.0000      -0.443611       -12.0713
 174   2.0000      -0.429647       -11.6913
 175   2.0000      -0.427474       -11.6322
 176   2.0000      -0.417966       -11.3734
 177   2.0000      -0.417762       -11.3679
 178   2.0000      -0.415793       -11.3143
 179   2.0000      -0.404169       -10.9980
 180   2.0000      -0.398479       -10.8432
 181   2.0000      -0.374922       -10.2021
 182   2.0000      -0.360436        -9.8080
 183   2.0000      -0.357227        -9.7206
 184   2.0000      -0.356438        -9.6992
 185   2.0000      -0.354923        -9.6579
 186   2.0000      -0.351450        -9.5634
 187   2.0000      -0.336005        -9.1432
 188   2.0000      -0.335383        -9.1262
 189   2.0000      -0.325960        -8.8698
 190   2.0000      -0.315993        -8.5986
 191   2.0000      -0.311636        -8.4800
 192   2.0000      -0.300304        -8.1717
 193   2.0000      -0.296328        -8.0635
 194   2.0000      -0.290146        -7.8953
 195   2.0000      -0.278651        -7.5825
 196   2.0000      -0.258422        -7.0320
 197   2.0000      -0.249772        -6.7966
 198   2.0000      -0.222638        -6.0583
 199   0.0000      -0.123793        -3.3686
 200   0.0000      -0.105518        -2.8713
 201   0.0000      -0.057165        -1.5555
 202   0.0000      -0.042227        -1.1491
 203   0.0000      -0.024721        -0.6727

MULLIKEN ATOMIC CHARGES
-----------------------
   0 C :    0.049407
   1 C :   -0.070224
   2 C :   -0.080422
   3 C :    0.149202
   4 O :   -0.168971
   5 N :   -0.127391
   6 C :    0.159448
   7 O :   -0.249687
   8 C :    0.231299
   9 O :   -0.133378
  10 C :    0.021299
  11 C :   -0.071672
  12 C :    0.012155
  13 C :    0.255748
  14 C :   -0.077637
  15 F :   -0.183318
  16 C :    0.019378
  17 C :   -0.101736
  18 C :    0.133878
  19 C :   -0.083794
  20 C :    0.263568
  21 F :   -0.160102
  22 C :   -0.020760
  23 C :    0.014733
  24 C :    0.106313
  25 N :   -0.030826
  26 C :    0.128600
  27 C :   -0.166296
  28 C :    0.106681
  29 N :   -0.030693
  30 C :    0.128818
  31 C :   -0.165890
  32 C :    0.014120
  33 C :   -0.018267
  34 C :    0.130373
  35 C :   -0.101588
  36 C :    0.026817
  37 C :    0.260572
  38 C :   -0.082580
  39 F :   -0.169574
  40 C :    0.001172
  41 C :   -0.072975
  42 C :    0.080818
  43 C :   -0.081287
  44 C :    0.251872
  45 F :   -0.182268
  46 C :    0.014807
  47 C :    0.018945
  48 C :    0.082703
  49 C :   -0.109849
  50 C :   -0.024451
  51 C :    0.160880
  52 O :   -0.158267
  53 N :   -0.133668
  54 C :    0.096852
  55 O :   -0.243676
  56 C :    0.210848
  57 O :   -0.142911
  58 H :    0.023981
  59 H :    0.134108
  60 H :    0.007044
  61 H :   -0.005424
  62 H :   -0.016218
  63 H :   -0.021470
  64 H :   -0.016863
  65 H :   -0.025773
  66 H :    0.126635
  67 H :   -0.024638
  68 H :    0.126912
  69 H :   -0.023827
  70 H :   -0.025935
  71 H :   -0.017671
  72 H :   -0.018255
  73 H :   -0.020384
  74 H :   -0.005965
  75 H :   -0.022046
  76 H :   -0.031030
  77 H :    0.008697
  78 H :    0.129970
  79 H :    0.031008
Sum of atomic charges:   -0.0000000

LOEWDIN ATOMIC CHARGES
----------------------
   0 C :    0.086081
   1 C :   -0.138044
   2 C :   -0.121694
   3 C :    0.073087
   4 O :   -0.183068
   5 N :    0.030133
   6 C :    0.116241
   7 O :   -0.055470
   8 C :    0.102851
   9 O :   -0.139401
  10 C :   -0.044575
  11 C :   -0.001344
  12 C :   -0.020692
  13 C :    0.071860
  14 C :   -0.049673
  15 F :   -0.057247
  16 C :    0.019496
  17 C :   -0.070792
  18 C :    0.013790
  19 C :   -0.064175
  20 C :    0.089832
  21 F :   -0.038637
  22 C :   -0.018496
  23 C :   -0.013722
  24 C :    0.004698
  25 N :    0.072056
  26 C :   -0.008359
  27 C :   -0.079666
  28 C :    0.004517
  29 N :    0.072304
  30 C :   -0.008233
  31 C :   -0.079246
  32 C :   -0.014449
  33 C :   -0.018681
  34 C :    0.011387
  35 C :   -0.071222
  36 C :    0.013561
  37 C :    0.088864
  38 C :   -0.062530
  39 F :   -0.046326
  40 C :   -0.017534
  41 C :   -0.033332
  42 C :   -0.024349
  43 C :   -0.063705
  44 C :    0.075220
  45 F :   -0.056944
  46 C :    0.009647
  47 C :   -0.025549
  48 C :    0.078781
  49 C :   -0.133029
  50 C :   -0.125262
  51 C :    0.079500
  52 O :   -0.175726
  53 N :    0.020008
  54 C :    0.123789
  55 O :   -0.053385
  56 C :    0.099318
  57 O :   -0.147274
  58 H :    0.035852
  59 H :    0.091617
  60 H :    0.029787
  61 H :    0.035687
  62 H :    0.023254
  63 H :    0.026916
  64 H :    0.033401
  65 H :    0.029203
  66 H :    0.092444
  67 H :    0.027628
  68 H :    0.092579
  69 H :    0.027928
  70 H :    0.029107
  71 H :    0.033132
  72 H :    0.022705
  73 H :    0.027388
  74 H :    0.024283
  75 H :    0.028134
  76 H :    0.025947
  77 H :    0.046717
  78 H :    0.086165
  79 H :    0.034939

  Mayer bond orders larger than 0.100000
B(  0-C ,  1-C ) :   1.4972 B(  0-C ,  5-N ) :   1.2045 B(  0-C , 58-H ) :   0.9822
B(  1-C ,  2-C ) :   1.1604 B(  1-C ,  8-C ) :   0.9527 B(  2-C ,  3-C ) :   0.9548
B(  2-C ,  6-C ) :   1.4285 B(  3-C ,  4-O ) :   2.1552 B(  3-C ,  5-N ) :   1.0674
B(  5-N , 59-H ) :   0.9281 B(  6-C ,  7-O ) :   1.1753 B(  6-C , 10-C ) :   1.1409
B(  7-O ,  8-C ) :   0.9909 B(  8-C ,  9-O ) :   2.2717 B( 10-C , 11-C ) :   1.5208
B( 10-C , 14-C ) :   1.0092 B( 11-C , 12-C ) :   1.1189 B( 11-C , 60-H ) :   1.0002
B( 12-C , 13-C ) :   1.0407 B( 12-C , 16-C ) :   1.4089 B( 13-C , 14-C ) :   1.6193
B( 13-C , 15-F ) :   1.1115 B( 14-C , 61-H ) :   1.0352 B( 16-C , 17-C ) :   1.1668
B( 16-C , 20-C ) :   1.0054 B( 17-C , 18-C ) :   1.4488 B( 17-C , 62-H ) :   1.0249
B( 18-C , 19-C ) :   1.0035 B( 18-C , 22-C ) :   1.1867 B( 19-C , 20-C ) :   1.6815
B( 19-C , 63-H ) :   1.0113 B( 20-C , 21-F ) :   1.1433 B( 22-C , 23-C ) :   1.5607
B( 22-C , 64-H ) :   0.9825 B( 23-C , 24-C ) :   1.1443 B( 23-C , 65-H ) :   0.9672
B( 24-C , 25-N ) :   1.1658 B( 24-C , 31-C ) :   1.3604 B( 25-N , 26-C ) :   1.1729
B( 25-N , 66-H ) :   0.9349 B( 26-C , 27-C ) :   1.2899 B( 26-C , 30-C ) :   1.2699
B( 27-C , 28-C ) :   1.3596 B( 27-C , 67-H ) :   1.0325 B( 28-C , 29-N ) :   1.1660
B( 28-C , 32-C ) :   1.1449 B( 29-N , 30-C ) :   1.1734 B( 29-N , 68-H ) :   0.9347
B( 30-C , 31-C ) :   1.2895 B( 31-C , 69-H ) :   1.0325 B( 32-C , 33-C ) :   1.5594
B( 32-C , 70-H ) :   0.9667 B( 33-C , 34-C ) :   1.1893 B( 33-C , 71-H ) :   0.9826
B( 34-C , 35-C ) :   1.4476 B( 34-C , 38-C ) :   1.0044 B( 35-C , 36-C ) :   1.1681
B( 35-C , 72-H ) :   1.0249 B( 36-C , 37-C ) :   1.0099 B( 36-C , 40-C ) :   1.4075
B( 37-C , 38-C ) :   1.6821 B( 37-C , 39-F ) :   1.1298 B( 38-C , 73-H ) :   1.0115
B( 40-C , 41-C ) :   1.1502 B( 40-C , 44-C ) :   1.0371 B( 41-C , 42-C ) :   1.5136
B( 41-C , 74-H ) :   1.0084 B( 42-C , 43-C ) :   1.0204 B( 42-C , 46-C ) :   1.1448
B( 43-C , 44-C ) :   1.6441 B( 43-C , 75-H ) :   1.0194 B( 44-C , 45-F ) :   1.1171
B( 46-C , 47-C ) :   1.5552 B( 46-C , 76-H ) :   0.9769 B( 47-C , 48-C ) :   1.1989
B( 47-C , 77-H ) :   0.9602 B( 48-C , 49-C ) :   1.3645 B( 48-C , 53-N ) :   1.1843
B( 49-C , 50-C ) :   1.1612 B( 49-C , 56-C ) :   1.0053 B( 50-C , 51-C ) :   0.9043
B( 50-C , 54-C ) :   1.5495 B( 51-C , 52-O ) :   2.2524 B( 51-C , 53-N ) :   1.0571
B( 53-N , 78-H ) :   0.9188 B( 54-C , 55-O ) :   1.1510 B( 54-C , 79-H ) :   1.0002
B( 55-O , 56-C ) :   0.9901 B( 56-C , 57-O ) :   2.2299

-----------------------------------------------------------------------------
         ABSORPTION SPECTRUM VIA TRANSITION ELECTRIC DIPOLE MOMENTS
-----------------------------------------------------------------------------
State   Energy  Wavelength   fosc         T2         TX        TY        TZ
        (cm-1)    (nm)                  (au**2)     (au)      (au)      (au)
-----------------------------------------------------------------------------
   0    9108.9   1097.8   2.408046815  87.03145  -3.64850   8.58384   0.19372
   1   12976.4    770.6   0.004690584   0.11900  -0.19028  -0.13651  -0.25329
   2   14900.1    671.1   0.003126204   0.06907  -0.10779   0.17060   0.16837
   3   15232.0    656.5   0.023083712   0.49891   0.01380   0.43504  -0.55629
   4   18620.2    537.1   0.000193280   0.00342   0.03458  -0.01496  -0.04470
   5   19797.2    505.1   0.589708768   9.80642   1.07090  -2.92370   0.33403
   6   20776.4    481.3   0.033819603   0.53589  -0.11987  -0.27356   0.66834
   7   21485.1    465.4   0.026179185   0.40114  -0.08114  -0.39123   0.49142
   8   23749.2    421.1   0.113065843   1.56732   0.19047  -1.04141   0.66821
   9   24896.5    401.7   0.173512149   2.29439  -0.12037  -0.80907   1.27488
  10   25249.8    396.0   0.012311332   0.16052   0.15898   0.24759  -0.27192
  11   26610.2    375.8   0.113187467   1.40031   0.65020  -0.35111  -0.92427
  12   27093.1    369.1   0.258832593   3.14511   0.83102  -1.43463  -0.62956
  13   27978.1    357.4   0.004058988   0.04776  -0.15770  -0.14199   0.05226
  14   28242.1    354.1   0.000618869   0.00721   0.05223   0.06658  -0.00729
  15   28481.4    351.1   0.425913280   4.92307   0.62817  -2.11175   0.26267
  16   28673.7    348.8   0.278393573   3.19632   0.34451  -1.41348   1.03909
  17   29659.0    337.2   0.143876880   1.59702  -0.69983   0.87916   0.57823
  18   30149.8    331.7   0.004585792   0.05007   0.04902  -0.20339  -0.07940
  19   30480.6    328.1   0.000282661   0.00305   0.04551   0.02776   0.01453
  20   31269.4    319.8   0.175191462   1.84446  -0.60231   0.63479   1.03861
  21   31909.3    313.4   0.017441662   0.17995  -0.23544   0.16246   0.31325
  22   32252.7    310.1   0.024940205   0.25457  -0.32788   0.24486   0.29515
  23   32626.4    306.5   0.033819642   0.34125  -0.24370   0.33639   0.41073
  24   33192.0    301.3   0.002476038   0.02456   0.04973  -0.13508  -0.06195
  25   33962.1    294.4   0.004250148   0.04120  -0.18038   0.09305   0.00180
  26   34471.6    290.1   0.085238440   0.81405  -0.51848   0.67420   0.30113
  27   34787.2    287.5   0.000115070   0.00109  -0.01616  -0.01240  -0.02596
  28   35154.1    284.5   0.009679847   0.09065   0.05481   0.14576  -0.25769
  29   35412.6    282.4   0.011690930   0.10868   0.14295  -0.14454  -0.25953
  30   35708.5    280.0   0.036027704   0.33216  -0.19317   0.09032   0.53543
  31   36270.4    275.7   0.009127210   0.08284   0.15009  -0.15409  -0.19124
  32   36930.8    270.8   0.000010187   0.00009   0.00105  -0.00792  -0.00520
  33   37186.3    268.9   0.010421818   0.09226   0.05069  -0.29411   0.05650
  34   37381.6    267.5   0.034850615   0.30692   0.21259  -0.06560  -0.50737
  35   38190.7    261.8   0.102291400   0.88177   0.40447  -0.42221  -0.73479
  36   38408.5    260.4   0.119932546   1.02798  -0.40634   0.60303   0.70656
  37   38598.9    259.1   0.018439756   0.15727   0.02338  -0.28684  -0.27285
  38   39188.1    255.2   0.002620852   0.02202  -0.01089  -0.03723   0.14322
  39   39800.1    251.3   0.007975239   0.06597   0.14292  -0.17754  -0.11841
  40   40140.1    249.1   0.011949227   0.09800  -0.08320  -0.01023   0.30162

FINAL SINGLE POINT ENERGY     -2756.144625880082

DIPOLE MOMENT
-------------
                                X             Y             Z
Electronic contribution:     -6.30017      13.28374       5.44014
Nuclear contribution   :      6.40481     -12.12090      -7.72004
                        -----------------------------------------
Total Dipole Moment    :      0.10464       1.16284      -2.27991
                        -----------------------------------------
Magnitude (a.u.)       :      2.56147
Magnitude (Debye)      :      6.51074

Rotational constants in cm-1:     0.007298     0.000175     0.000171
Rotational constants in MHz :   218.801939     5.235457     5.120806

                             ****ORCA TERMINATED NORMALLY****
TOTAL RUN TIME: 0 days 0 hours 6 minutes 14 seconds 983 msec
