                         Program Version 4.2.0 -  RELEASE  -
|  1> # ORCA input file
|  2> # SCF done       -182.344329246112          0.000484868437
|  3> ! CAM-B3LYP def2-SVP def2/J RIJCOSX Grid4 TightSCF
|  4> %maxcore 5000
|  5> %tddft
|  6>     Mode sTDDFT
|  7>     Ethresh 5.0
|  8>     maxcore 5000
|  9> end
| 10>
| 11> %pal
| 12>   nprocs 6
| 13>   end
| 14> * xyz 0 1
| 15>    C        2.95060        -7.10011         2.94434
| 16>    C        2.86604        -5.73592         2.98457
| 17>    C        2.66601        -5.25703         1.64675
| 18>    C        2.64424        -6.41347         0.75759
| 19>    O        2.52639        -6.55537        -0.42879
| 20>    N        2.82179        -7.49992         1.65524
| 21>    C        2.57596        -3.88429         1.71725
| 22>    O        2.71049        -3.48428         3.01790
| 23>    C        2.89402        -4.57981         3.85719
| 24>    O        3.04017        -4.44950         5.03947
| 25>    C        2.33956        -2.92813         0.69839
| 26>    N        2.02038        -3.32833        -0.53013
| 27>    C        1.72955        -2.21327        -1.21492
| 28>    C        1.84386        -1.02076        -0.36032
| 29>    C        1.53935         0.19867        -1.12275
| 30>    O        1.55198         1.35043        -0.73910
| 31>    C        1.23712        -0.32767        -2.46294
| 32>    C        1.36115        -1.80155        -2.47998
| 33>    N        1.11485        -2.28632        -3.71695
| 34>    C        0.86103        -1.23100        -4.45705
| 35>    C        0.93252         0.02451        -3.74001
| 36>    C        2.27559        -1.45990         0.86092
| 37>    C        2.58497        -0.70238         2.04227
| 38>    C        3.68122        -0.90277         2.79047
| 39>    C        3.99823        -0.18118         4.00285
| 40>    C        3.00905         0.26004         4.85877
| 41>    C        3.35993         0.92226         6.04449
| 42>    C        2.56713         1.44268         7.07392
| 43>    C        1.09252         1.36869         7.16891
| 44>    C        0.63402         0.69311         8.48148
| 45>    N       -0.67153         0.09975         8.28194
| 46>    C        0.43493         2.77502         7.01441
| 47>    N        0.56715         3.36083         5.71160
| 48>    C        3.45991         2.09479         8.00135
| 49>    C        3.23497         2.82599         9.11148
| 50>    C        4.34916         3.50343         9.81586
| 51>    C        5.72003         3.07009         9.40902
| 52>    C        5.92866         2.34810         8.27863
| 53>    C        4.83742         1.88332         7.52793
| 54>    C        4.75659         1.16996         6.33461
| 55>    C        5.74761         0.70471         5.45203
| 56>    C        5.36898         0.03013         4.32956
| 57>    C        4.49838         4.94258         9.37144
| 58>    C        4.30923         5.38012         8.11073
| 59>    C        4.53696         6.73669         7.75664
| 60>    N        4.84519         7.66738         8.65988
| 61>    C        4.98683         8.81251         7.97871
| 62>    C        4.76786         8.61527         6.53981
| 63>    C        4.93479         9.88533         5.80945
| 64>    O        4.84216        10.07905         4.61344
| 65>    C        5.24160        10.83576         6.88367
| 66>    C        5.27208        10.14860         8.18952
| 67>    N        5.55185        11.01794         9.18172
| 68>    C        5.68977        12.18626         8.58665
| 69>    C        5.50805        12.14374         7.15838
| 70>    C        4.46932         7.28114         6.38364
| 71>    C        4.18315         6.52868         5.21421
| 72>    C        4.17656         7.05378         3.96229
| 73>    C        3.87902         6.25762         2.82827
| 74>    C        3.54929         4.91213         2.74010
| 75>    C        3.29204         4.59130         1.36074
| 76>    C        3.50839         5.80888         0.57585
| 77>    O        3.43712         6.04368        -0.60127
| 78>    N        3.85586         6.75795         1.55042
| 79>    C        2.91657         3.29097         1.32015
| 80>    O        2.92638         2.75572         2.56678
| 81>    C        3.30946         3.72114         3.49022
| 82>    O        3.36581         3.47425         4.68017
| 83>    H        3.09222        -7.80179         3.74535
| 84>    H        2.84761        -8.45706         1.33778
| 85>    H        0.62192        -1.34509        -5.50005
| 86>    H        0.76839         0.99638        -4.16174
| 87>    H        1.92006         0.12230         2.26290
| 88>    H        4.41931        -1.62602         2.46724
| 89>    H        1.97305         0.07209         4.62350
| 90>    H        0.71674         0.73865         6.35647
| 91>    H        0.66672         1.42271         9.30633
| 92>    H        1.32960        -0.11652         8.71790
| 93>    H       -1.39180         0.80847         8.20401
| 94>    H       -0.91522        -0.51846         9.04539
| 95>    H        0.87908         3.46498         7.73591
| 96>    H       -0.63233         2.68157         7.23384
| 97>    H        1.54541         3.47181         5.46244
| 98>    H        0.12083         2.79032         5.00276
| 99>    H        2.24339         3.01365         9.49477
|100>    H        4.20320         3.47047        10.89854
|101>    H        6.54206         3.42958        10.00682
|102>    H        6.93224         2.10376         7.96269
|103>    H        6.79057         0.88161         5.66955
|104>    H        6.11646        -0.34063         3.64270
|105>    H        4.85920         5.64386        10.10981
|106>    H        3.98728         4.70379         7.33129
|107>    H        5.91860        13.06364         9.16620
|108>    H        5.57669        12.98152         6.49303
|109>    H        3.96369         5.47774         5.33938
|110>    H        4.39278         8.10241         3.80361
|111>    H        4.06036         7.72037         1.32433
|112>    H        2.59585         2.64557         0.52084
|113> *
|114>
|115>                          ****END OF INPUT****

CARTESIAN COORDINATES (ANGSTROEM)
---------------------------------
  C      2.950600   -7.100110    2.944340
  C      2.866040   -5.735920    2.984570
  C      2.666010   -5.257030    1.646750
  C      2.644240   -6.413470    0.757590
  O      2.526390   -6.555370   -0.428790
  N      2.821790   -7.499920    1.655240
  C      2.575960   -3.884290    1.717250
  O      2.710490   -3.484280    3.017900
  C      2.894020   -4.579810    3.857190
  O      3.040170   -4.449500    5.039470
  C      2.339560   -2.928130    0.698390
  N      2.020380   -3.328330   -0.530130
  C      1.729550   -2.213270   -1.214920
  C      1.843860   -1.020760   -0.360320
  C      1.539350    0.198670   -1.122750
  O      1.551980    1.350430   -0.739100
  C      1.237120   -0.327670   -2.462940
  C      1.361150   -1.801550   -2.479980
  N      1.114850   -2.286320   -3.716950
  C      0.861030   -1.231000   -4.457050
  C      0.932520    0.024510   -3.740010
  C      2.275590   -1.459900    0.860920
  C      2.584970   -0.702380    2.042270
  C      3.681220   -0.902770    2.790470
  C      3.998230   -0.181180    4.002850
  C      3.009050    0.260040    4.858770
  C      3.359930    0.922260    6.044490
  C      2.567130    1.442680    7.073920
  C      1.092520    1.368690    7.168910
  C      0.634020    0.693110    8.481480
  N     -0.671530    0.099750    8.281940
  C      0.434930    2.775020    7.014410
  N      0.567150    3.360830    5.711600
  C      3.459910    2.094790    8.001350
  C      3.234970    2.825990    9.111480
  C      4.349160    3.503430    9.815860
  C      5.720030    3.070090    9.409020
  C      5.928660    2.348100    8.278630
  C      4.837420    1.883320    7.527930
  C      4.756590    1.169960    6.334610
  C      5.747610    0.704710    5.452030
  C      5.368980    0.030130    4.329560
  C      4.498380    4.942580    9.371440
  C      4.309230    5.380120    8.110730
  C      4.536960    6.736690    7.756640
  N      4.845190    7.667380    8.659880
  C      4.986830    8.812510    7.978710
  C      4.767860    8.615270    6.539810
  C      4.934790    9.885330    5.809450
  O      4.842160   10.079050    4.613440
  C      5.241600   10.835760    6.883670
  C      5.272080   10.148600    8.189520
  N      5.551850   11.017940    9.181720
  C      5.689770   12.186260    8.586650
  C      5.508050   12.143740    7.158380
  C      4.469320    7.281140    6.383640
  C      4.183150    6.528680    5.214210
  C      4.176560    7.053780    3.962290
  C      3.879020    6.257620    2.828270
  C      3.549290    4.912130    2.740100
  C      3.292040    4.591300    1.360740
  C      3.508390    5.808880    0.575850
  O      3.437120    6.043680   -0.601270
  N      3.855860    6.757950    1.550420
  C      2.916570    3.290970    1.320150
  O      2.926380    2.755720    2.566780
  C      3.309460    3.721140    3.490220
  O      3.365810    3.474250    4.680170
  H      3.092220   -7.801790    3.745350
  H      2.847610   -8.457060    1.337780
  H      0.621920   -1.345090   -5.500050
  H      0.768390    0.996380   -4.161740
  H      1.920060    0.122300    2.262900
  H      4.419310   -1.626020    2.467240
  H      1.973050    0.072090    4.623500
  H      0.716740    0.738650    6.356470
  H      0.666720    1.422710    9.306330
  H      1.329600   -0.116520    8.717900
  H     -1.391800    0.808470    8.204010
  H     -0.915220   -0.518460    9.045390
  H      0.879080    3.464980    7.735910
  H     -0.632330    2.681570    7.233840
  H      1.545410    3.471810    5.462440
  H      0.120830    2.790320    5.002760
  H      2.243390    3.013650    9.494770
  H      4.203200    3.470470   10.898540
  H      6.542060    3.429580   10.006820
  H      6.932240    2.103760    7.962690
  H      6.790570    0.881610    5.669550
  H      6.116460   -0.340630    3.642700
  H      4.859200    5.643860   10.109810
  H      3.987280    4.703790    7.331290
  H      5.918600   13.063640    9.166200
  H      5.576690   12.981520    6.493030
  H      3.963690    5.477740    5.339380
  H      4.392780    8.102410    3.803610
  H      4.060360    7.720370    1.324330
  H      2.595850    2.645570    0.520840

 Total Charge           Charge          ....    0
 Multiplicity           Mult            ....    1
 Number of Electrons    NEL             ....  462
 Basis Dimension        Dim             .... 1102

ORBITAL ENERGIES
----------------

  NO   OCC          E(Eh)            E(eV)
   0   2.0000     -19.289327      -524.8893
   1   2.0000     -19.276427      -524.5382
   2   2.0000     -19.220157      -523.0071
   3   2.0000     -19.215411      -522.8779
   4   2.0000     -19.212966      -522.8114
   5   2.0000     -19.209291      -522.7114
   6   2.0000     -19.204376      -522.5776
   7   2.0000     -19.191376      -522.2239
   8   2.0000     -14.482861      -394.0987
   9   2.0000     -14.456673      -393.3861
  10   2.0000     -14.419462      -392.3735
  11   2.0000     -14.408818      -392.0839
  12   2.0000     -14.397931      -391.7876
  13   2.0000     -14.395999      -391.7350
  14   2.0000     -14.373564      -391.1246
  15   2.0000     -14.351495      -390.5240
  16   2.0000     -10.415782      -283.4278
  17   2.0000     -10.406329      -283.1706
  18   2.0000     -10.400180      -283.0033
  19   2.0000     -10.382474      -282.5215
  20   2.0000     -10.379324      -282.4358
  21   2.0000     -10.375931      -282.3434
  22   2.0000     -10.370574      -282.1977
  23   2.0000     -10.369141      -282.1587
  24   2.0000     -10.352423      -281.7037
  25   2.0000     -10.350101      -281.6406
  26   2.0000     -10.340161      -281.3701
  27   2.0000     -10.336125      -281.2603
  28   2.0000     -10.335478      -281.2427
  29   2.0000     -10.330937      -281.1191
  30   2.0000     -10.330318      -281.1022
  31   2.0000     -10.327231      -281.0182
  32   2.0000     -10.313646      -280.6486
  33   2.0000     -10.312945      -280.6295
  34   2.0000     -10.312306      -280.6121
  35   2.0000     -10.307937      -280.4932
  36   2.0000     -10.306648      -280.4581
  37   2.0000     -10.301922      -280.3295
  38   2.0000     -10.301291      -280.3124
  39   2.0000     -10.300438      -280.2892
  40   2.0000     -10.296808      -280.1904
  41   2.0000     -10.294563      -280.1293
  42   2.0000     -10.293627      -280.1038
  43   2.0000     -10.292463      -280.0722
  44   2.0000     -10.292172      -280.0642
  45   2.0000     -10.288406      -279.9618
  46   2.0000     -10.288149      -279.9548
  47   2.0000     -10.280561      -279.7483
  48   2.0000     -10.279952      -279.7317
  49   2.0000     -10.277879      -279.6753
  50   2.0000     -10.277671      -279.6697
  51   2.0000     -10.277633      -279.6686
  52   2.0000     -10.275095      -279.5996
  53   2.0000     -10.274607      -279.5863
  54   2.0000     -10.272553      -279.5304
  55   2.0000     -10.271375      -279.4983
  56   2.0000     -10.271045      -279.4893
  57   2.0000     -10.268951      -279.4324
  58   2.0000     -10.267950      -279.4051
  59   2.0000     -10.266542      -279.3668
  60   2.0000     -10.264557      -279.3128
  61   2.0000     -10.263498      -279.2840
  62   2.0000     -10.262834      -279.2659
  63   2.0000     -10.260460      -279.2013
  64   2.0000     -10.259357      -279.1713
  65   2.0000     -10.258682      -279.1529
  66   2.0000     -10.258116      -279.1375
  67   2.0000     -10.251043      -278.9450
  68   2.0000      -1.221142       -33.2290
  69   2.0000      -1.204417       -32.7739
  70   2.0000      -1.157063       -31.4853
  71   2.0000      -1.131776       -30.7972
  72   2.0000      -1.129144       -30.7256
  73   2.0000      -1.123565       -30.5737
  74   2.0000      -1.122786       -30.5526
  75   2.0000      -1.108101       -30.1530
  76   2.0000      -1.083733       -29.4899
  77   2.0000      -1.082750       -29.4631
  78   2.0000      -1.070182       -29.1211
  79   2.0000      -1.064404       -28.9639
  80   2.0000      -1.059238       -28.8233
  81   2.0000      -1.049662       -28.5628
  82   2.0000      -0.982801       -26.7434
  83   2.0000      -0.959479       -26.1087
  84   2.0000      -0.951072       -25.8800
  85   2.0000      -0.942112       -25.6362
  86   2.0000      -0.938018       -25.5248
  87   2.0000      -0.931220       -25.3398
  88   2.0000      -0.928152       -25.2563
  89   2.0000      -0.922324       -25.0977
  90   2.0000      -0.919145       -25.0112
  91   2.0000      -0.903085       -24.5742
  92   2.0000      -0.901237       -24.5239
  93   2.0000      -0.879003       -23.9189
  94   2.0000      -0.876779       -23.8584
  95   2.0000      -0.866342       -23.5744
  96   2.0000      -0.860985       -23.4286
  97   2.0000      -0.855352       -23.2753
  98   2.0000      -0.849184       -23.1075
  99   2.0000      -0.838720       -22.8227
 100   2.0000      -0.831527       -22.6270
 101   2.0000      -0.822195       -22.3731
 102   2.0000      -0.819796       -22.3078
 103   2.0000      -0.813454       -22.1352
 104   2.0000      -0.803099       -21.8534
 105   2.0000      -0.783827       -21.3290
 106   2.0000      -0.776331       -21.1251
 107   2.0000      -0.766749       -20.8643
 108   2.0000      -0.758200       -20.6317
 109   2.0000      -0.753531       -20.5046
 110   2.0000      -0.752695       -20.4819
 111   2.0000      -0.751804       -20.4576
 112   2.0000      -0.744330       -20.2543
 113   2.0000      -0.732748       -19.9391
 114   2.0000      -0.713951       -19.4276
 115   2.0000      -0.712006       -19.3747
 116   2.0000      -0.707460       -19.2510
 117   2.0000      -0.701377       -19.0854
 118   2.0000      -0.700550       -19.0629
 119   2.0000      -0.682759       -18.5788
 120   2.0000      -0.678893       -18.4736
 121   2.0000      -0.672601       -18.3024
 122   2.0000      -0.666427       -18.1344
 123   2.0000      -0.655987       -17.8503
 124   2.0000      -0.647538       -17.6204
 125   2.0000      -0.643214       -17.5027
 126   2.0000      -0.640668       -17.4335
 127   2.0000      -0.634328       -17.2609
 128   2.0000      -0.631872       -17.1941
 129   2.0000      -0.628640       -17.1062
 130   2.0000      -0.616227       -16.7684
 131   2.0000      -0.611087       -16.6285
 132   2.0000      -0.606632       -16.5073
 133   2.0000      -0.602357       -16.3910
 134   2.0000      -0.600765       -16.3476
 135   2.0000      -0.595523       -16.2050
 136   2.0000      -0.593106       -16.1392
 137   2.0000      -0.590925       -16.0799
 138   2.0000      -0.587391       -15.9837
 139   2.0000      -0.586065       -15.9476
 140   2.0000      -0.583387       -15.8748
 141   2.0000      -0.579059       -15.7570
 142   2.0000      -0.575508       -15.6604
 143   2.0000      -0.574718       -15.6389
 144   2.0000      -0.569191       -15.4885
 145   2.0000      -0.566778       -15.4228
 146   2.0000      -0.563780       -15.3412
 147   2.0000      -0.555765       -15.1231
 148   2.0000      -0.553987       -15.0747
 149   2.0000      -0.548342       -14.9212
 150   2.0000      -0.545985       -14.8570
 151   2.0000      -0.544555       -14.8181
 152   2.0000      -0.542667       -14.7667
 153   2.0000      -0.540179       -14.6990
 154   2.0000      -0.539576       -14.6826
 155   2.0000      -0.536744       -14.6056
 156   2.0000      -0.534217       -14.5368
 157   2.0000      -0.529002       -14.3949
 158   2.0000      -0.525941       -14.3116
 159   2.0000      -0.524811       -14.2808
 160   2.0000      -0.523843       -14.2545
 161   2.0000      -0.521092       -14.1796
 162   2.0000      -0.517714       -14.0877
 163   2.0000      -0.512690       -13.9510
 164   2.0000      -0.510743       -13.8980
 165   2.0000      -0.509446       -13.8627
 166   2.0000      -0.508110       -13.8264
 167   2.0000      -0.503504       -13.7010
 168   2.0000      -0.499609       -13.5950
 169   2.0000      -0.498092       -13.5538
 170   2.0000      -0.496232       -13.5032
 171   2.0000      -0.494701       -13.4615
 172   2.0000      -0.490863       -13.3571
 173   2.0000      -0.490162       -13.3380
 174   2.0000      -0.484665       -13.1884
 175   2.0000      -0.484378       -13.1806
 176   2.0000      -0.482495       -13.1293
 177   2.0000      -0.478176       -13.0118
 178   2.0000      -0.477504       -12.9935
 179   2.0000      -0.474858       -12.9215
 180   2.0000      -0.473504       -12.8847
 181   2.0000      -0.469198       -12.7675
 182   2.0000      -0.468275       -12.7424
 183   2.0000      -0.465841       -12.6762
 184   2.0000      -0.463369       -12.6089
 185   2.0000      -0.459446       -12.5022
 186   2.0000      -0.457604       -12.4520
 187   2.0000      -0.454686       -12.3726
 188   2.0000      -0.452275       -12.3070
 189   2.0000      -0.448577       -12.2064
 190   2.0000      -0.448182       -12.1956
 191   2.0000      -0.444269       -12.0892
 192   2.0000      -0.439230       -11.9521
 193   2.0000      -0.436030       -11.8650
 194   2.0000      -0.432556       -11.7705
 195   2.0000      -0.425635       -11.5821
 196   2.0000      -0.421344       -11.4653
 197   2.0000      -0.414858       -11.2889
 198   2.0000      -0.412717       -11.2306
 199   2.0000      -0.409924       -11.1546
 200   2.0000      -0.394048       -10.7226
 201   2.0000      -0.389553       -10.6003
 202   2.0000      -0.388489       -10.5713
 203   2.0000      -0.383388       -10.4325
 204   2.0000      -0.381913       -10.3924
 205   2.0000      -0.377529       -10.2731
 206   2.0000      -0.370649       -10.0859
 207   2.0000      -0.364051        -9.9063
 208   2.0000      -0.362380        -9.8609
 209   2.0000      -0.356519        -9.7014
 210   2.0000      -0.354903        -9.6574
 211   2.0000      -0.353522        -9.6198
 212   2.0000      -0.352865        -9.6020
 213   2.0000      -0.351918        -9.5762
 214   2.0000      -0.345155        -9.3921
 215   2.0000      -0.344701        -9.3798
 216   2.0000      -0.338025        -9.1981
 217   2.0000      -0.336103        -9.1458
 218   2.0000      -0.333533        -9.0759
 219   2.0000      -0.328993        -8.9523
 220   2.0000      -0.327023        -8.8987
 221   2.0000      -0.326104        -8.8738
 222   2.0000      -0.317006        -8.6262
 223   2.0000      -0.311663        -8.4808
 224   2.0000      -0.296713        -8.0740
 225   2.0000      -0.292131        -7.9493
 226   2.0000      -0.283937        -7.7263
 227   2.0000      -0.277769        -7.5585
 228   2.0000      -0.273785        -7.4501
 229   2.0000      -0.257378        -7.0036
 230   2.0000      -0.211805        -5.7635
 231   0.0000      -0.130839        -3.5603
 232   0.0000      -0.112858        -3.0710
 233   0.0000      -0.072052        -1.9606
 234   0.0000      -0.070844        -1.9278
 235   0.0000      -0.056343        -1.5332

MULLIKEN ATOMIC CHARGES
-----------------------
   0 C :    0.086652
   1 C :   -0.099902
   2 C :   -0.028816
   3 C :    0.156466
   4 O :   -0.095906
   5 N :   -0.136327
   6 C :    0.108866
   7 O :   -0.242910
   8 C :    0.242698
   9 O :   -0.127990
  10 C :   -0.026993
  11 N :   -0.010344
  12 C :    0.069971
  13 C :   -0.130824
  14 C :    0.234153
  15 O :   -0.143947
  16 C :   -0.044031
  17 C :   -0.009199
  18 N :   -0.048739
  19 C :    0.095697
  20 C :   -0.084725
  21 C :    0.025029
  22 C :   -0.051101
  23 C :    0.041148
  24 C :    0.084225
  25 C :   -0.063232
  26 C :    0.106281
  27 C :   -0.023297
  28 C :   -0.041186
  29 C :    0.117541
  30 N :   -0.210879
  31 C :    0.154605
  32 N :   -0.227884
  33 C :    0.096766
  34 C :   -0.116441
  35 C :    0.141717
  36 C :   -0.046193
  37 C :    0.015060
  38 C :    0.007933
  39 C :    0.065799
  40 C :   -0.019118
  41 C :   -0.001904
  42 C :   -0.023065
  43 C :   -0.022685
  44 C :    0.048231
  45 N :   -0.048887
  46 C :    0.073455
  47 C :   -0.157714
  48 C :    0.218993
  49 O :   -0.155172
  50 C :   -0.016611
  51 C :   -0.049788
  52 N :   -0.060016
  53 C :    0.085681
  54 C :   -0.093683
  55 C :    0.048536
  56 C :   -0.014881
  57 C :    0.020969
  58 C :    0.114688
  59 C :   -0.118958
  60 C :   -0.024748
  61 C :    0.170043
  62 O :   -0.146437
  63 N :   -0.117272
  64 C :    0.105871
  65 O :   -0.241386
  66 C :    0.257762
  67 O :   -0.219853
  68 H :    0.040458
  69 H :    0.144028
  70 H :    0.014664
  71 H :    0.001093
  72 H :    0.019699
  73 H :   -0.010551
  74 H :   -0.036518
  75 H :   -0.028421
  76 H :   -0.026827
  77 H :    0.005471
  78 H :    0.086226
  79 H :    0.091922
  80 H :   -0.021296
  81 H :   -0.020641
  82 H :    0.099522
  83 H :    0.082531
  84 H :    0.003955
  85 H :    0.020164
  86 H :   -0.003873
  87 H :   -0.032398
  88 H :   -0.039413
  89 H :   -0.032717
  90 H :    0.040573
  91 H :    0.030785
  92 H :    0.003488
  93 H :   -0.010071
  94 H :   -0.005424
  95 H :   -0.019163
  96 H :    0.137777
  97 H :    0.013168
Sum of atomic charges:   -0.0000000

LOEWDIN ATOMIC CHARGES
----------------------
   0 C :    0.120447
   1 C :   -0.144909
   2 C :   -0.066171
   3 C :    0.086157
   4 O :   -0.116524
   5 N :    0.029897
   6 C :    0.082587
   7 O :   -0.039664
   8 C :    0.099976
   9 O :   -0.134695
  10 C :    0.041963
  11 N :   -0.070022
  12 C :    0.041502
  13 C :   -0.054647
  14 C :    0.079097
  15 O :   -0.145733
  16 C :   -0.040701
  17 C :    0.036397
  18 N :   -0.093202
  19 C :    0.083199
  20 C :   -0.028667
  21 C :   -0.010542
  22 C :   -0.044191
  23 C :    0.024559
  24 C :   -0.030965
  25 C :    0.016324
  26 C :   -0.007599
  27 C :   -0.012879
  28 C :   -0.054421
  29 C :    0.025960
  30 N :   -0.114565
  31 C :    0.022888
  32 N :   -0.114752
  33 C :   -0.012160
  34 C :    0.062167
  35 C :   -0.030669
  36 C :   -0.033658
  37 C :   -0.009073
  38 C :   -0.044547
  39 C :   -0.008221
  40 C :   -0.013626
  41 C :   -0.015331
  42 C :    0.098742
  43 C :   -0.064277
  44 C :    0.081060
  45 N :   -0.120425
  46 C :    0.047773
  47 C :   -0.024134
  48 C :    0.068158
  49 O :   -0.153246
  50 C :   -0.045779
  51 C :    0.011075
  52 N :   -0.099720
  53 C :    0.064949
  54 C :   -0.043083
  55 C :   -0.038266
  56 C :    0.031719
  57 C :   -0.025687
  58 C :    0.092145
  59 C :   -0.145006
  60 C :   -0.122871
  61 C :    0.083831
  62 O :   -0.164023
  63 N :    0.030661
  64 C :    0.129339
  65 O :   -0.038648
  66 C :    0.109382
  67 O :   -0.175393
  68 H :    0.043569
  69 H :    0.096540
  70 H :    0.025909
  71 H :    0.037097
  72 H :    0.036796
  73 H :    0.023761
  74 H :    0.025744
  75 H :    0.024230
  76 H :   -0.005162
  77 H :    0.022237
  78 H :    0.048490
  79 H :    0.054876
  80 H :    0.010901
  81 H :    0.009043
  82 H :    0.037833
  83 H :    0.048160
  84 H :    0.028038
  85 H :    0.048204
  86 H :    0.027229
  87 H :    0.031317
  88 H :    0.026062
  89 H :    0.024882
  90 H :    0.041127
  91 H :    0.039397
  92 H :    0.021452
  93 H :    0.032387
  94 H :    0.035706
  95 H :    0.032355
  96 H :    0.095468
  97 H :    0.027091

  Mayer bond orders larger than 0.100000
B(  0-C ,  1-C ) :   1.4616 B(  0-C ,  5-N ) :   1.2381 B(  0-C , 68-H ) :   0.9810
B(  1-C ,  2-C ) :   1.1733 B(  1-C ,  8-C ) :   0.9558 B(  2-C ,  3-C ) :   0.8992
B(  2-C ,  6-C ) :   1.4817 B(  3-C ,  4-O ) :   2.2815 B(  3-C ,  5-N ) :   1.0265
B(  5-N , 69-H ) :   0.9253 B(  6-C ,  7-O ) :   1.1734 B(  6-C , 10-C ) :   1.0797
B(  7-O ,  8-C ) :   0.9863 B(  8-C ,  9-O ) :   2.2749 B( 10-C , 11-N ) :   1.6405
B( 10-C , 12-C ) :   0.1228 B( 10-C , 21-C ) :   1.0303 B( 11-N , 12-C ) :   1.3514
B( 12-C , 13-C ) :   1.0424 B( 12-C , 17-C ) :   1.4019 B( 13-C , 14-C ) :   0.9073
B( 13-C , 21-C ) :   1.5706 B( 14-C , 15-O ) :   2.1664 B( 14-C , 16-C ) :   0.9127
B( 15-O , 97-H ) :   0.1077 B( 16-C , 17-C ) :   1.0497 B( 16-C , 20-C ) :   1.6114
B( 17-C , 18-N ) :   1.3218 B( 18-N , 19-C ) :   1.6461 B( 19-C , 20-C ) :   1.0660
B( 19-C , 70-H ) :   0.9893 B( 20-C , 71-H ) :   1.0108 B( 21-C , 22-C ) :   1.0716
B( 22-C , 23-C ) :   1.7498 B( 22-C , 72-H ) :   0.9575 B( 23-C , 24-C ) :   1.0586
B( 23-C , 73-H ) :   0.9663 B( 24-C , 25-C ) :   1.5263 B( 24-C , 41-C ) :   1.1347
B( 25-C , 26-C ) :   1.1489 B( 25-C , 74-H ) :   0.9911 B( 26-C , 27-C ) :   1.4563
B( 26-C , 39-C ) :   1.1291 B( 27-C , 28-C ) :   1.0280 B( 27-C , 33-C ) :   1.0920
B( 28-C , 29-C ) :   1.0148 B( 28-C , 31-C ) :   0.9999 B( 28-C , 75-H ) :   0.8756
B( 29-C , 30-N ) :   1.1098 B( 29-C , 76-H ) :   0.9304 B( 29-C , 77-H ) :   0.9444
B( 30-N , 78-H ) :   0.9719 B( 30-N , 79-H ) :   0.9683 B( 31-C , 32-N ) :   1.1399
B( 31-C , 80-H ) :   0.9412 B( 31-C , 81-H ) :   0.9414 B( 32-N , 82-H ) :   0.9682
B( 32-N , 83-H ) :   0.9745 B( 33-C , 34-C ) :   1.6501 B( 33-C , 38-C ) :   1.0375
B( 34-C , 35-C ) :   0.9917 B( 34-C , 84-H ) :   0.9767 B( 35-C , 36-C ) :   0.9714
B( 35-C , 42-C ) :   0.9412 B( 35-C , 85-H ) :   0.8924 B( 36-C , 37-C ) :   1.6526
B( 36-C , 86-H ) :   0.9625 B( 37-C , 38-C ) :   1.1859 B( 37-C , 87-H ) :   0.9882
B( 38-C , 39-C ) :   1.3881 B( 39-C , 40-C ) :   1.1608 B( 40-C , 41-C ) :   1.5770
B( 40-C , 88-H ) :   0.9932 B( 41-C , 89-H ) :   0.9886 B( 42-C , 43-C ) :   1.6775
B( 42-C , 90-H ) :   0.9666 B( 43-C , 44-C ) :   1.1990 B( 43-C , 91-H ) :   0.9430
B( 44-C , 45-N ) :   1.5382 B( 44-C , 46-C ) :   0.1105 B( 44-C , 55-C ) :   1.0021
B( 45-N , 46-C ) :   1.4069 B( 46-C , 47-C ) :   1.0533 B( 46-C , 51-C ) :   1.3542
B( 47-C , 48-C ) :   0.8955 B( 47-C , 55-C ) :   1.5355 B( 48-C , 49-O ) :   2.1658
B( 48-C , 50-C ) :   0.9429 B( 49-O , 95-H ) :   0.1067 B( 50-C , 51-C ) :   1.0831
B( 50-C , 54-C ) :   1.5613 B( 51-C , 52-N ) :   1.3505 B( 52-N , 53-C ) :   1.6154
B( 53-C , 54-C ) :   1.1050 B( 53-C , 92-H ) :   0.9901 B( 54-C , 93-H ) :   1.0116
B( 55-C , 56-C ) :   1.1243 B( 56-C , 57-C ) :   1.6203 B( 56-C , 94-H ) :   0.9501
B( 57-C , 58-C ) :   1.1336 B( 57-C , 95-H ) :   0.9479 B( 58-C , 59-C ) :   1.3448
B( 58-C , 63-N ) :   1.2100 B( 59-C , 60-C ) :   1.1582 B( 59-C , 66-C ) :   1.0639
B( 60-C , 61-C ) :   0.9054 B( 60-C , 64-C ) :   1.5497 B( 61-C , 62-O ) :   2.2633
B( 61-C , 63-N ) :   1.0341 B( 63-N , 96-H ) :   0.9184 B( 64-C , 65-O ) :   1.1065
B( 64-C , 97-H ) :   0.9754 B( 65-O , 66-C ) :   1.0424 B( 66-C , 67-O ) :   1.9390

-----------------------------------------------------------------------------
         ABSORPTION SPECTRUM VIA TRANSITION ELECTRIC DIPOLE MOMENTS
-----------------------------------------------------------------------------
State   Energy  Wavelength   fosc         T2         TX        TY        TZ
        (cm-1)    (nm)                  (au**2)     (au)      (au)      (au)
-----------------------------------------------------------------------------
   0    5754.7   1737.7   0.024732688   1.41489  -0.25706  -0.67841  -0.94264
   1    7486.4   1335.8   0.141736117   6.23279   0.35279   2.45388   0.29460
   2   12168.1    821.8   0.030832792   0.83419   0.91269  -0.00772  -0.03368
   3   14604.1    684.7   0.087054650   1.96243  -0.23760  -1.37526  -0.12103
   4   15064.1    663.8   0.014631713   0.31976   0.15340   0.08775   0.53715
   5   15926.5    627.9   0.118179718   2.44285  -0.35261  -1.43163  -0.51861
   6   16028.3    623.9   0.152330923   3.12880  -0.42603  -1.57145  -0.69125
   7   17245.4    579.9   0.448378133   8.55946  -0.53546   2.45112  -1.50492
   8   19886.0    502.9   0.160358678   2.65474  -0.54591  -0.48723  -1.45579
   9   20200.4    495.0   0.003085908   0.05029  -0.17596   0.13711   0.02308
  10   20294.2    492.8   0.038716388   0.62806  -0.19101   0.69521  -0.32902
  11   20360.1    491.2   0.010270645   0.16607  -0.01220  -0.40353  -0.05554
  12   21754.3    459.7   0.014778954   0.22365  -0.04353   0.45938   0.10359
  13   22301.8    448.4   0.293995884   4.33988   0.33015   2.00578   0.45578
  14   22730.5    439.9   0.047621747   0.68972  -0.52435  -0.56907  -0.30156
  15   22749.6    439.6   0.005232326   0.07572  -0.02407  -0.19813  -0.18943
  16   23291.8    429.3   0.010088351   0.14259   0.00844   0.37692  -0.02124
  17   23389.6    427.5   0.056982030   0.80203   0.35495   0.29048   0.76920
  18   23596.7    423.8   0.016176112   0.22568   0.07402   0.32077   0.34251
  19   23991.9    416.8   0.013592331   0.18651  -0.20569   0.34640   0.15560
  20   24579.0    406.9   0.243867972   3.26638  -0.33697  -1.65687  -0.63844
  21   24766.1    403.8   0.065142098   0.86592   0.13475  -0.44511  -0.80601
  22   24904.0    401.5   0.006272374   0.08292   0.12036  -0.10879  -0.23789
  23   25250.8    396.0   0.003163391   0.04124  -0.14744   0.05338   0.12906
  24   25307.7    395.1   0.002680216   0.03487   0.00887   0.15363   0.10576
  25   25697.0    389.2   0.006078686   0.07788   0.00079   0.14453   0.23872
  26   26012.3    384.4   0.043441788   0.54980  -0.26366  -0.42110  -0.55042
  27   26339.8    379.7   0.203549024   2.54409  -0.33077  -1.41829  -0.65049
  28   26386.9    379.0   0.002266119   0.02827   0.03816  -0.16115  -0.02911
  29   26520.1    377.1   0.062677581   0.77806  -0.01066   0.13211   0.87206
  30   27151.7    368.3   0.003885971   0.04712   0.04942  -0.21136   0.00010
  31   27322.5    366.0   0.004256579   0.05129   0.13171  -0.14308  -0.11605
  32   27525.7    363.3   0.091042754   1.08889  -0.03171  -0.84702  -0.60864
  33   28176.5    354.9   0.026502610   0.30965  -0.19628   0.29854   0.42661
  34   28830.4    346.9   0.224211435   2.56025   0.25677   1.31836   0.86963
  35   29080.2    343.9   0.001946030   0.02203   0.00483  -0.14723   0.01821
  36   29234.7    342.1   0.123038795   1.38554  -0.19326   0.24539  -1.13489
  37   29536.2    338.6   0.016932612   0.18873  -0.04742   0.40574  -0.14786
  38   29770.9    335.9   0.010687187   0.11818  -0.06066  -0.32744  -0.08536
  39   30019.5    333.1   0.267119537   2.92939  -0.46198   0.19253  -1.63673
  40   30278.8    330.3   0.054046535   0.58763  -0.08963  -0.37620  -0.66187
  41   30429.2    328.6   0.102832750   1.11254  -0.02209  -0.87731  -0.58513
  42   30670.5    326.0   0.131840968   1.41516   0.18802  -0.12131   1.16837
  43   30835.5    324.3   0.011407430   0.12179   0.14315   0.13124  -0.28995
  44   30878.5    323.8   0.009968914   0.10628   0.13423  -0.07638   0.28711
  45   30983.2    322.8   0.135862967   1.44361   0.63967  -0.08894   1.01317
  46   31307.9    319.4   0.235850938   2.48004  -0.02481   1.17660  -1.04644
  47   31525.5    317.2   0.065544959   0.68447   0.17153  -0.22587   0.77719
  48   31699.8    315.5   0.087480624   0.90851  -0.19982  -0.89337   0.26547
  49   31829.5    314.2   0.007275062   0.07525   0.11013   0.20588   0.14399
  50   31920.2    313.3   0.002650593   0.02734  -0.02086  -0.04278  -0.15834
  51   32613.5    306.6   0.087358475   0.88183   0.24870  -0.90449   0.04322
  52   32755.1    305.3   0.008656879   0.08701  -0.05472   0.27462   0.09273
  53   32771.4    305.1   0.067370368   0.67678   0.07712  -0.52659  -0.62733
  54   33257.0    300.7   0.346488340   3.42990   0.17512   0.78234   1.66948
  55   33391.4    299.5   0.066328771   0.65395   0.24525   0.71881   0.27769
  56   33400.7    299.4   0.089188528   0.87908  -0.27655  -0.59680  -0.66816
  57   34158.8    292.8   0.084825345   0.81752   0.12221  -0.07030   0.89311
  58   34444.2    290.3   0.010338508   0.09881  -0.17682   0.06874  -0.25065
  59   34577.2    289.2   0.031588531   0.30076  -0.06911  -0.33731  -0.42685
  60   34679.0    288.4   0.036449963   0.34602  -0.12351  -0.25091  -0.51751
  61   34759.4    287.7   0.022841796   0.21634  -0.10600   0.45053  -0.04608
  62   35003.8    285.7   0.010721115   0.10083   0.29760  -0.03281  -0.10578
  63   35028.9    285.5   0.029153636   0.27399  -0.01425   0.09745   0.51410
  64   35305.2    283.2   0.013333989   0.12434  -0.12741  -0.10181  -0.31263
  65   35560.8    281.2   0.087880525   0.81357   0.15107   0.48039   0.74831
  66   35924.6    278.4   0.000946587   0.00867  -0.02633   0.02494  -0.08579
  67   36010.9    277.7   0.002732608   0.02498  -0.06209   0.03338  -0.14147
  68   36156.3    276.6   0.028843531   0.26263  -0.12969  -0.25651  -0.42428
  69   36371.2    274.9   0.133032552   1.20414   0.31671  -0.23186   1.02473
  70   36554.3    273.6   0.125767050   1.13267  -0.38551   0.31340  -0.94119
  71   37091.4    269.6   0.013260091   0.11769   0.13786  -0.10598   0.29573
  72   37133.9    269.3   0.028484025   0.25253  -0.09743   0.37949  -0.31467
  73   37323.8    267.9   0.004174877   0.03682  -0.00169  -0.00388  -0.19185
  74   37754.5    264.9   0.000799113   0.00697  -0.03036   0.07512   0.02009
  75   37826.8    264.4   0.013660513   0.11889   0.15224  -0.24904   0.18354
  76   37954.1    263.5   0.000445590   0.00387  -0.02382   0.02121  -0.05336
  77   38163.8    262.0   0.011508506   0.09928  -0.05941   0.03611  -0.30731
  78   38357.7    260.7   0.000847026   0.00727  -0.02658   0.07621   0.02749
  79   38566.4    259.3   0.102060441   0.87121  -0.13322   0.04029  -0.92295
  80   38616.6    259.0   0.001740379   0.01484  -0.03212   0.08704  -0.07893
  81   38997.1    256.4   0.074674221   0.63040   0.47552  -0.16944   0.61284
  82   39122.9    255.6   0.022731300   0.19128  -0.16452  -0.37735   0.14770
  83   39263.4    254.7   0.004054605   0.03400  -0.11146  -0.12267   0.08077
  84   39486.5    253.3   0.075335842   0.62810  -0.28519  -0.38886  -0.62894
  85   39638.3    252.3   0.049870362   0.41419  -0.05257   0.18488   0.61421
  86   39734.0    251.7   0.004203033   0.03482  -0.13197   0.10957  -0.07350
  87   39883.9    250.7   0.006023409   0.04972  -0.01862   0.15376   0.16041
  88   39925.3    250.5   0.081856956   0.67497  -0.04240  -0.43609  -0.69498
  89   39999.2    250.0   0.015373707   0.12653  -0.08312  -0.15260  -0.31038
  90   40079.1    249.5   0.160981799   1.32231  -0.16840  -0.60939  -0.96052

FINAL SINGLE POINT ENERGY     -3035.390847723246

DIPOLE MOMENT
-------------
                                X             Y             Z
Electronic contribution:     10.74655      -9.02974     -40.63352
Nuclear contribution   :    -10.54050       6.53958      41.67296
                        -----------------------------------------
Total Dipole Moment    :      0.20605      -2.49015       1.03944
                        -----------------------------------------
Magnitude (a.u.)       :      2.70625
Magnitude (Debye)      :      6.87873

Rotational constants in cm-1:     0.001853     0.000583     0.000476
Rotational constants in MHz :    55.538146    17.485245    14.276124

                             ****ORCA TERMINATED NORMALLY****
TOTAL RUN TIME: 0 days 0 hours 11 minutes 38 seconds 506 msec
