                         Program Version 4.2.0 -  RELEASE  -
|  1> # ORCA input file
|  2> # SCF done       -194.365137941813          0.000525719119
|  3> ! CAM-B3LYP def2-SVP def2/J RIJCOSX Grid4 TightSCF
|  4> %maxcore 5000
|  5> %tddft
|  6>     Mode sTDDFT
|  7>     Ethresh 5.0
|  8>     maxcore 5000
|  9> end
| 10>
| 11> %pal
| 12>   nprocs 6
| 13>   end
| 14> * xyz 0 1
| 15>    C      -14.44883        10.22290        14.95864
| 16>    S      -13.03982         9.65363        14.16899
| 17>    C      -12.03361        10.76387        15.07152
| 18>    C      -12.79680        11.51118        15.94805
| 19>    C      -14.17692        11.19880        15.87032
| 20>    C      -15.21390        11.86302        16.72295
| 21>    C      -14.66831        13.15357        17.32914
| 22>    C      -13.29114        12.91752        17.97391
| 23>    N      -13.26814        11.90011        19.01092
| 24>    C      -12.26883        12.54278        16.89507
| 25>    C      -10.63866        10.73863        14.77929
| 26>    C       -9.68394        11.60372        15.18415
| 27>    C       -8.31194        11.49120        14.82317
| 28>    S       -7.70813        10.20361        13.81414
| 29>    C       -6.08803        10.83982        13.89168
| 30>    C       -6.04521        11.97952        14.66410
| 31>    C       -7.28799        12.34145        15.18425
| 32>    C       -5.02374        10.20522        13.19999
| 33>    C       -5.06971         9.06832        12.42281
| 34>    C       -3.83981         8.72641        11.86219
| 35>    C       -2.82155         9.59487        12.19790
| 36>    S       -3.41026        10.85986        13.24067
| 37>    C       -1.46606         9.55539        11.77481
| 38>    S       -0.30380        10.72764        12.31934
| 39>    C        0.95562        10.01600        11.34518
| 40>    C        0.46756         8.92139        10.65776
| 41>    C       -0.87929         8.66321        10.89822
| 42>    C        2.24971        10.60056        11.33660
| 43>    C        3.25897        10.21443        10.51854
| 44>    C        4.54624        10.80667        10.46939
| 45>    S        5.65828        10.27382         9.21726
| 46>    C        6.83420        11.39441         9.76502
| 47>    C        6.39538        12.12999        10.86596
| 48>    C        5.10612        11.79965        11.25982
| 49>    C        7.46255        13.10208        11.31586
| 50>    C        6.97397        14.54983        11.22559
| 51>    C        7.94302        12.78023        12.73383
| 52>    C        8.54214        12.81965        10.29570
| 53>    C        8.13623        11.81609         9.41596
| 54>    S        9.32183        11.47078         8.22697
| 55>    C       10.38477        12.69173         8.91110
| 56>    C        9.80917        13.30923        10.01222
| 57>    C       11.63743        12.91980         8.28801
| 58>    C       12.56533        13.81462         8.70724
| 59>    C       13.80228        14.06079         8.05592
| 60>    S       14.90757        15.22739         8.73675
| 61>    C       16.04866        14.97715         7.44712
| 62>    C       15.57508        14.03689         6.55566
| 63>    C       14.32531        13.52444         6.89529
| 64>    C       17.27103        15.69468         7.40090
| 65>    C       17.76819        16.59600         8.31668
| 66>    C       19.00657        17.12798         7.95835
| 67>    C       19.48406        16.64975         6.75788
| 68>    S       18.36929        15.50486         6.06001
| 69>    C       20.69029        16.98881         6.09270
| 70>    S       21.82906        18.09590         6.80409
| 71>    C       22.89203        17.96788         5.42762
| 72>    C       22.36383        17.10261         4.49056
| 73>    C       21.13771        16.55492         4.86260
| 74>    C       24.10199        18.71268         5.41118
| 75>    C       24.96179        18.77592         4.36910
| 76>    C       26.17208        19.52067         4.37308
| 77>    S       26.72834        20.35690         5.79370
| 78>    C       28.15050        20.93059         4.96847
| 79>    C       28.16743        20.50357         3.65522
| 80>    C       27.05703        19.70057         3.32417
| 81>    C       26.83897        19.13902         1.95166
| 82>    C       28.09047        19.27300         1.08609
| 83>    C       28.71236        20.67392         1.21695
| 84>    N       27.82661        21.77293         0.87421
| 85>    C       29.21474        20.86939         2.65041
| 86>    C       29.06251        21.73936         5.73096
| 87>    C       30.33060        22.02645         5.44224
| 88>    H      -15.40452         9.80738        14.70641
| 89>    H      -15.51762        11.17643        17.52139
| 90>    H      -16.10642        12.07114        16.12842
| 91>    H      -15.36890        13.53541        18.07581
| 92>    H      -14.56177        13.91001        16.54927
| 93>    H      -12.96613        13.85153        18.45131
| 94>    H      -13.45403        10.98658        18.61160
| 95>    H      -13.97469        12.08889        19.71335
| 96>    H      -11.37430        12.16460        17.39447
| 97>    H      -11.99497        13.44112        16.33334
| 98>    H      -10.33288         9.92672        14.12888
| 99>    H       -9.92057        12.45549        15.80167
|100>    H       -5.13332        12.52426        14.83578
|101>    H       -7.44528        13.20314        15.80875
|102>    H       -5.97803         8.51227        12.27084
|103>    H       -3.69377         7.87117        11.22804
|104>    H        1.07331         8.32341        10.00144
|105>    H       -1.41958         7.85315        10.44284
|106>    H        2.40015        11.42394        12.02033
|107>    H        3.09035         9.41016         9.81612
|108>    H        4.58408        12.24920        12.08447
|109>    H        6.14706        14.70895        11.91346
|110>    H        6.63535        14.77158        10.21598
|111>    H        7.78001        15.23346        11.48100
|112>    H        7.13104        12.91636        13.44405
|113>    H        8.76451        13.43762        13.00836
|114>    H        8.28711        11.74989        12.79073
|115>    H       10.30254        14.08584        10.56724
|116>    H       11.83668        12.32341         7.40872
|117>    H       12.37713        14.40241         9.59445
|118>    H       16.13455        13.74075         5.68546
|119>    H       13.81194        12.78487         6.30822
|120>    H       17.23720        16.85251         9.21642
|121>    H       19.54940        17.84617         8.54721
|122>    H       22.85702        16.86921         3.56440
|123>    H       20.57700        15.86099         4.26091
|124>    H       24.32872        19.27377         6.30881
|125>    H       24.73736        18.24305         3.45599
|126>    H       26.00139        19.66639         1.47978
|127>    H       26.55372        18.08606         2.01945
|128>    H       27.83536        19.07245         0.04246
|129>    H       28.83320        18.53584         1.39716
|130>    H       29.56873        20.74087         0.53301
|131>    H       27.06341        21.83045         1.53969
|132>    H       27.43161        21.63982        -0.05023
|133>    H       29.49950        21.91509         2.78114
|134>    H       30.10236        20.24909         2.80508
|135>    H       28.64126        22.11515         6.65600
|136>    H       30.83640        21.65131         4.57248
|137>    H       30.91431        22.64260         6.10416
|138> *
|139>
|140>                          ****END OF INPUT****

CARTESIAN COORDINATES (ANGSTROEM)
---------------------------------
  C    -14.448830   10.222900   14.958640
  S    -13.039820    9.653630   14.168990
  C    -12.033610   10.763870   15.071520
  C    -12.796800   11.511180   15.948050
  C    -14.176920   11.198800   15.870320
  C    -15.213900   11.863020   16.722950
  C    -14.668310   13.153570   17.329140
  C    -13.291140   12.917520   17.973910
  N    -13.268140   11.900110   19.010920
  C    -12.268830   12.542780   16.895070
  C    -10.638660   10.738630   14.779290
  C     -9.683940   11.603720   15.184150
  C     -8.311940   11.491200   14.823170
  S     -7.708130   10.203610   13.814140
  C     -6.088030   10.839820   13.891680
  C     -6.045210   11.979520   14.664100
  C     -7.287990   12.341450   15.184250
  C     -5.023740   10.205220   13.199990
  C     -5.069710    9.068320   12.422810
  C     -3.839810    8.726410   11.862190
  C     -2.821550    9.594870   12.197900
  S     -3.410260   10.859860   13.240670
  C     -1.466060    9.555390   11.774810
  S     -0.303800   10.727640   12.319340
  C      0.955620   10.016000   11.345180
  C      0.467560    8.921390   10.657760
  C     -0.879290    8.663210   10.898220
  C      2.249710   10.600560   11.336600
  C      3.258970   10.214430   10.518540
  C      4.546240   10.806670   10.469390
  S      5.658280   10.273820    9.217260
  C      6.834200   11.394410    9.765020
  C      6.395380   12.129990   10.865960
  C      5.106120   11.799650   11.259820
  C      7.462550   13.102080   11.315860
  C      6.973970   14.549830   11.225590
  C      7.943020   12.780230   12.733830
  C      8.542140   12.819650   10.295700
  C      8.136230   11.816090    9.415960
  S      9.321830   11.470780    8.226970
  C     10.384770   12.691730    8.911100
  C      9.809170   13.309230   10.012220
  C     11.637430   12.919800    8.288010
  C     12.565330   13.814620    8.707240
  C     13.802280   14.060790    8.055920
  S     14.907570   15.227390    8.736750
  C     16.048660   14.977150    7.447120
  C     15.575080   14.036890    6.555660
  C     14.325310   13.524440    6.895290
  C     17.271030   15.694680    7.400900
  C     17.768190   16.596000    8.316680
  C     19.006570   17.127980    7.958350
  C     19.484060   16.649750    6.757880
  S     18.369290   15.504860    6.060010
  C     20.690290   16.988810    6.092700
  S     21.829060   18.095900    6.804090
  C     22.892030   17.967880    5.427620
  C     22.363830   17.102610    4.490560
  C     21.137710   16.554920    4.862600
  C     24.101990   18.712680    5.411180
  C     24.961790   18.775920    4.369100
  C     26.172080   19.520670    4.373080
  S     26.728340   20.356900    5.793700
  C     28.150500   20.930590    4.968470
  C     28.167430   20.503570    3.655220
  C     27.057030   19.700570    3.324170
  C     26.838970   19.139020    1.951660
  C     28.090470   19.273000    1.086090
  C     28.712360   20.673920    1.216950
  N     27.826610   21.772930    0.874210
  C     29.214740   20.869390    2.650410
  C     29.062510   21.739360    5.730960
  C     30.330600   22.026450    5.442240
  H    -15.404520    9.807380   14.706410
  H    -15.517620   11.176430   17.521390
  H    -16.106420   12.071140   16.128420
  H    -15.368900   13.535410   18.075810
  H    -14.561770   13.910010   16.549270
  H    -12.966130   13.851530   18.451310
  H    -13.454030   10.986580   18.611600
  H    -13.974690   12.088890   19.713350
  H    -11.374300   12.164600   17.394470
  H    -11.994970   13.441120   16.333340
  H    -10.332880    9.926720   14.128880
  H     -9.920570   12.455490   15.801670
  H     -5.133320   12.524260   14.835780
  H     -7.445280   13.203140   15.808750
  H     -5.978030    8.512270   12.270840
  H     -3.693770    7.871170   11.228040
  H      1.073310    8.323410   10.001440
  H     -1.419580    7.853150   10.442840
  H      2.400150   11.423940   12.020330
  H      3.090350    9.410160    9.816120
  H      4.584080   12.249200   12.084470
  H      6.147060   14.708950   11.913460
  H      6.635350   14.771580   10.215980
  H      7.780010   15.233460   11.481000
  H      7.131040   12.916360   13.444050
  H      8.764510   13.437620   13.008360
  H      8.287110   11.749890   12.790730
  H     10.302540   14.085840   10.567240
  H     11.836680   12.323410    7.408720
  H     12.377130   14.402410    9.594450
  H     16.134550   13.740750    5.685460
  H     13.811940   12.784870    6.308220
  H     17.237200   16.852510    9.216420
  H     19.549400   17.846170    8.547210
  H     22.857020   16.869210    3.564400
  H     20.577000   15.860990    4.260910
  H     24.328720   19.273770    6.308810
  H     24.737360   18.243050    3.455990
  H     26.001390   19.666390    1.479780
  H     26.553720   18.086060    2.019450
  H     27.835360   19.072450    0.042460
  H     28.833200   18.535840    1.397160
  H     29.568730   20.740870    0.533010
  H     27.063410   21.830450    1.539690
  H     27.431610   21.639820   -0.050230
  H     29.499500   21.915090    2.781140
  H     30.102360   20.249090    2.805080
  H     28.641260   22.115150    6.656000
  H     30.836400   21.651310    4.572480
  H     30.914310   22.642600    6.104160

 Total Charge           Charge          ....    0
 Multiplicity           Mult            ....    1
 Number of Electrons    NEL             ....  590
 Basis Dimension        Dim             .... 1312

ORBITAL ENERGIES
----------------

  NO   OCC          E(Eh)            E(eV)
   0   2.0000     -88.953513     -2420.5481
   1   2.0000     -88.953168     -2420.5388
   2   2.0000     -88.949584     -2420.4412
   3   2.0000     -88.949004     -2420.4255
   4   2.0000     -88.948066     -2420.3999
   5   2.0000     -88.947954     -2420.3969
   6   2.0000     -88.947901     -2420.3954
   7   2.0000     -88.944270     -2420.2966
   8   2.0000     -88.939637     -2420.1706
   9   2.0000     -88.938518     -2420.1401
  10   2.0000     -14.375113      -391.1667
  11   2.0000     -14.374296      -391.1445
  12   2.0000     -10.299292      -280.2580
  13   2.0000     -10.299241      -280.2566
  14   2.0000     -10.298998      -280.2500
  15   2.0000     -10.298343      -280.2322
  16   2.0000     -10.298196      -280.2282
  17   2.0000     -10.298152      -280.2270
  18   2.0000     -10.297798      -280.2173
  19   2.0000     -10.296923      -280.1935
  20   2.0000     -10.294901      -280.1385
  21   2.0000     -10.294838      -280.1368
  22   2.0000     -10.294169      -280.1186
  23   2.0000     -10.293951      -280.1127
  24   2.0000     -10.293747      -280.1071
  25   2.0000     -10.293450      -280.0990
  26   2.0000     -10.293137      -280.0905
  27   2.0000     -10.290464      -280.0178
  28   2.0000     -10.287975      -279.9500
  29   2.0000     -10.285873      -279.8928
  30   2.0000     -10.285380      -279.8794
  31   2.0000     -10.285175      -279.8738
  32   2.0000     -10.284894      -279.8662
  33   2.0000     -10.284660      -279.8598
  34   2.0000     -10.277484      -279.6646
  35   2.0000     -10.277051      -279.6528
  36   2.0000     -10.276539      -279.6388
  37   2.0000     -10.275675      -279.6153
  38   2.0000     -10.275596      -279.6132
  39   2.0000     -10.275378      -279.6072
  40   2.0000     -10.274750      -279.5902
  41   2.0000     -10.273661      -279.5605
  42   2.0000     -10.272724      -279.5350
  43   2.0000     -10.271274      -279.4956
  44   2.0000     -10.269323      -279.4425
  45   2.0000     -10.269060      -279.4353
  46   2.0000     -10.267990      -279.4062
  47   2.0000     -10.267964      -279.4055
  48   2.0000     -10.267919      -279.4043
  49   2.0000     -10.267581      -279.3951
  50   2.0000     -10.267525      -279.3936
  51   2.0000     -10.267457      -279.3917
  52   2.0000     -10.267248      -279.3860
  53   2.0000     -10.266897      -279.3765
  54   2.0000     -10.266369      -279.3621
  55   2.0000     -10.266031      -279.3529
  56   2.0000     -10.265816      -279.3471
  57   2.0000     -10.265799      -279.3466
  58   2.0000     -10.265619      -279.3417
  59   2.0000     -10.265527      -279.3392
  60   2.0000     -10.265356      -279.3345
  61   2.0000     -10.264731      -279.3175
  62   2.0000     -10.264543      -279.3124
  63   2.0000     -10.264417      -279.3090
  64   2.0000     -10.264084      -279.2999
  65   2.0000     -10.263252      -279.2773
  66   2.0000     -10.260033      -279.1897
  67   2.0000     -10.259986      -279.1884
  68   2.0000     -10.259706      -279.1808
  69   2.0000     -10.258530      -279.1488
  70   2.0000     -10.257503      -279.1209
  71   2.0000     -10.256984      -279.1067
  72   2.0000     -10.256049      -279.0813
  73   2.0000      -8.048680      -219.0157
  74   2.0000      -8.048404      -219.0082
  75   2.0000      -8.045002      -218.9156
  76   2.0000      -8.044726      -218.9081
  77   2.0000      -8.044030      -218.8892
  78   2.0000      -8.043607      -218.8777
  79   2.0000      -8.043589      -218.8772
  80   2.0000      -8.039874      -218.7761
  81   2.0000      -8.035641      -218.6609
  82   2.0000      -8.034359      -218.6260
  83   2.0000      -6.017960      -163.7570
  84   2.0000      -6.017682      -163.7495
  85   2.0000      -6.014417      -163.6606
  86   2.0000      -6.014119      -163.6525
  87   2.0000      -6.013989      -163.6490
  88   2.0000      -6.013720      -163.6417
  89   2.0000      -6.013246      -163.6287
  90   2.0000      -6.012884      -163.6189
  91   2.0000      -6.012868      -163.6185
  92   2.0000      -6.010757      -163.5610
  93   2.0000      -6.010469      -163.5532
  94   2.0000      -6.010356      -163.5501
  95   2.0000      -6.010018      -163.5409
  96   2.0000      -6.009256      -163.5202
  97   2.0000      -6.009190      -163.5184
  98   2.0000      -6.008874      -163.5098
  99   2.0000      -6.008861      -163.5094
 100   2.0000      -6.006846      -163.4546
 101   2.0000      -6.006586      -163.4475
 102   2.0000      -6.006114      -163.4347
 103   2.0000      -6.005669      -163.4226
 104   2.0000      -6.005617      -163.4211
 105   2.0000      -6.005223      -163.4104
 106   2.0000      -6.004815      -163.3993
 107   2.0000      -6.003455      -163.3623
 108   2.0000      -6.001784      -163.3168
 109   2.0000      -6.000701      -163.2874
 110   2.0000      -5.999673      -163.2594
 111   2.0000      -5.997982      -163.2134
 112   2.0000      -5.996482      -163.1726
 113   2.0000      -1.003250       -27.2998
 114   2.0000      -0.990358       -26.9490
 115   2.0000      -0.989759       -26.9327
 116   2.0000      -0.983354       -26.7584
 117   2.0000      -0.981162       -26.6988
 118   2.0000      -0.977270       -26.5929
 119   2.0000      -0.975976       -26.5576
 120   2.0000      -0.966297       -26.2943
 121   2.0000      -0.961911       -26.1749
 122   2.0000      -0.960569       -26.1384
 123   2.0000      -0.959213       -26.1015
 124   2.0000      -0.957983       -26.0680
 125   2.0000      -0.922105       -25.0917
 126   2.0000      -0.898669       -24.4540
 127   2.0000      -0.893953       -24.3257
 128   2.0000      -0.889285       -24.1987
 129   2.0000      -0.887503       -24.1502
 130   2.0000      -0.882303       -24.0087
 131   2.0000      -0.874358       -23.7925
 132   2.0000      -0.867050       -23.5936
 133   2.0000      -0.859503       -23.3883
 134   2.0000      -0.851814       -23.1790
 135   2.0000      -0.843266       -22.9464
 136   2.0000      -0.837840       -22.7988
 137   2.0000      -0.833841       -22.6900
 138   2.0000      -0.831049       -22.6140
 139   2.0000      -0.830370       -22.5955
 140   2.0000      -0.823826       -22.4175
 141   2.0000      -0.820909       -22.3381
 142   2.0000      -0.820225       -22.3195
 143   2.0000      -0.819028       -22.2869
 144   2.0000      -0.816164       -22.2089
 145   2.0000      -0.814787       -22.1715
 146   2.0000      -0.808273       -21.9942
 147   2.0000      -0.805795       -21.9268
 148   2.0000      -0.801648       -21.8140
 149   2.0000      -0.796300       -21.6684
 150   2.0000      -0.785622       -21.3779
 151   2.0000      -0.776758       -21.1367
 152   2.0000      -0.771461       -20.9925
 153   2.0000      -0.760658       -20.6985
 154   2.0000      -0.753001       -20.4902
 155   2.0000      -0.740812       -20.1585
 156   2.0000      -0.725962       -19.7544
 157   2.0000      -0.711586       -19.3632
 158   2.0000      -0.709056       -19.2944
 159   2.0000      -0.706782       -19.2325
 160   2.0000      -0.699846       -19.0438
 161   2.0000      -0.692706       -18.8495
 162   2.0000      -0.687619       -18.7111
 163   2.0000      -0.684715       -18.6321
 164   2.0000      -0.678004       -18.4494
 165   2.0000      -0.677366       -18.4321
 166   2.0000      -0.659002       -17.9323
 167   2.0000      -0.652831       -17.7644
 168   2.0000      -0.651726       -17.7344
 169   2.0000      -0.638352       -17.3704
 170   2.0000      -0.634128       -17.2555
 171   2.0000      -0.629553       -17.1310
 172   2.0000      -0.628475       -17.1017
 173   2.0000      -0.624998       -17.0071
 174   2.0000      -0.622432       -16.9372
 175   2.0000      -0.617678       -16.8079
 176   2.0000      -0.616524       -16.7765
 177   2.0000      -0.614221       -16.7138
 178   2.0000      -0.607495       -16.5308
 179   2.0000      -0.605082       -16.4651
 180   2.0000      -0.604718       -16.4552
 181   2.0000      -0.604237       -16.4421
 182   2.0000      -0.600143       -16.3307
 183   2.0000      -0.594338       -16.1728
 184   2.0000      -0.592221       -16.1152
 185   2.0000      -0.583734       -15.8842
 186   2.0000      -0.582092       -15.8395
 187   2.0000      -0.575814       -15.6687
 188   2.0000      -0.567938       -15.4544
 189   2.0000      -0.566764       -15.4224
 190   2.0000      -0.562006       -15.2930
 191   2.0000      -0.558647       -15.2016
 192   2.0000      -0.558505       -15.1977
 193   2.0000      -0.556217       -15.1354
 194   2.0000      -0.549160       -14.9434
 195   2.0000      -0.544472       -14.8158
 196   2.0000      -0.535802       -14.5799
 197   2.0000      -0.532866       -14.5000
 198   2.0000      -0.531418       -14.4606
 199   2.0000      -0.526700       -14.3322
 200   2.0000      -0.522554       -14.2194
 201   2.0000      -0.520516       -14.1640
 202   2.0000      -0.520281       -14.1576
 203   2.0000      -0.518822       -14.1179
 204   2.0000      -0.518298       -14.1036
 205   2.0000      -0.516506       -14.0549
 206   2.0000      -0.507764       -13.8170
 207   2.0000      -0.502476       -13.6731
 208   2.0000      -0.498640       -13.5687
 209   2.0000      -0.492830       -13.4106
 210   2.0000      -0.492540       -13.4027
 211   2.0000      -0.492298       -13.3961
 212   2.0000      -0.491629       -13.3779
 213   2.0000      -0.490681       -13.3521
 214   2.0000      -0.488698       -13.2981
 215   2.0000      -0.486579       -13.2405
 216   2.0000      -0.485946       -13.2233
 217   2.0000      -0.482613       -13.1326
 218   2.0000      -0.481194       -13.0939
 219   2.0000      -0.477678       -12.9983
 220   2.0000      -0.477363       -12.9897
 221   2.0000      -0.476665       -12.9707
 222   2.0000      -0.474770       -12.9192
 223   2.0000      -0.473566       -12.8864
 224   2.0000      -0.472876       -12.8676
 225   2.0000      -0.471230       -12.8228
 226   2.0000      -0.470233       -12.7957
 227   2.0000      -0.466441       -12.6925
 228   2.0000      -0.465384       -12.6637
 229   2.0000      -0.464061       -12.6278
 230   2.0000      -0.463473       -12.6118
 231   2.0000      -0.458483       -12.4760
 232   2.0000      -0.455818       -12.4034
 233   2.0000      -0.454003       -12.3540
 234   2.0000      -0.453135       -12.3304
 235   2.0000      -0.452292       -12.3075
 236   2.0000      -0.450298       -12.2532
 237   2.0000      -0.449735       -12.2379
 238   2.0000      -0.446600       -12.1526
 239   2.0000      -0.445718       -12.1286
 240   2.0000      -0.445441       -12.1211
 241   2.0000      -0.443433       -12.0664
 242   2.0000      -0.441536       -12.0148
 243   2.0000      -0.439086       -11.9481
 244   2.0000      -0.436644       -11.8817
 245   2.0000      -0.432739       -11.7754
 246   2.0000      -0.431747       -11.7484
 247   2.0000      -0.429952       -11.6996
 248   2.0000      -0.428590       -11.6625
 249   2.0000      -0.424329       -11.5466
 250   2.0000      -0.423210       -11.5161
 251   2.0000      -0.422721       -11.5028
 252   2.0000      -0.421897       -11.4804
 253   2.0000      -0.420988       -11.4557
 254   2.0000      -0.417385       -11.3576
 255   2.0000      -0.414966       -11.2918
 256   2.0000      -0.406235       -11.0542
 257   2.0000      -0.405318       -11.0293
 258   2.0000      -0.403871       -10.9899
 259   2.0000      -0.399474       -10.8702
 260   2.0000      -0.398994       -10.8572
 261   2.0000      -0.397611       -10.8195
 262   2.0000      -0.396997       -10.8028
 263   2.0000      -0.395742       -10.7687
 264   2.0000      -0.395316       -10.7571
 265   2.0000      -0.394820       -10.7436
 266   2.0000      -0.389993       -10.6123
 267   2.0000      -0.389061       -10.5869
 268   2.0000      -0.386645       -10.5211
 269   2.0000      -0.382467       -10.4074
 270   2.0000      -0.381191       -10.3727
 271   2.0000      -0.378065       -10.2877
 272   2.0000      -0.363430        -9.8894
 273   2.0000      -0.350341        -9.5333
 274   2.0000      -0.336402        -9.1540
 275   2.0000      -0.323726        -8.8090
 276   2.0000      -0.323635        -8.8065
 277   2.0000      -0.321115        -8.7380
 278   2.0000      -0.318230        -8.6595
 279   2.0000      -0.317208        -8.6317
 280   2.0000      -0.316071        -8.6007
 281   2.0000      -0.313006        -8.5173
 282   2.0000      -0.312959        -8.5160
 283   2.0000      -0.310434        -8.4473
 284   2.0000      -0.304047        -8.2735
 285   2.0000      -0.303066        -8.2468
 286   2.0000      -0.301252        -8.1975
 287   2.0000      -0.293547        -7.9878
 288   2.0000      -0.293357        -7.9827
 289   2.0000      -0.284942        -7.7537
 290   2.0000      -0.266036        -7.2392
 291   2.0000      -0.248909        -6.7732
 292   2.0000      -0.230091        -6.2611
 293   2.0000      -0.217651        -5.9226
 294   2.0000      -0.203064        -5.5256
 295   0.0000      -0.060532        -1.6472
 296   0.0000      -0.047946        -1.3047
 297   0.0000      -0.035909        -0.9771
 298   0.0000      -0.020085        -0.5465
 299   0.0000      -0.001777        -0.0484

MULLIKEN ATOMIC CHARGES
-----------------------
   0 C :   -0.131179
   1 S :    0.105924
   2 C :   -0.149354
   3 C :   -0.075155
   4 C :   -0.063669
   5 C :    0.120501
   6 C :    0.050267
   7 C :   -0.016618
   8 N :   -0.184157
   9 C :    0.132822
  10 C :    0.038376
  11 C :    0.007052
  12 C :   -0.042724
  13 S :    0.096990
  14 C :   -0.033813
  15 C :   -0.011771
  16 C :    0.008431
  17 C :   -0.034140
  18 C :   -0.012669
  19 C :   -0.004932
  20 C :   -0.029818
  21 S :    0.116050
  22 C :   -0.045412
  23 S :    0.117209
  24 C :   -0.070426
  25 C :    0.006221
  26 C :   -0.004505
  27 C :    0.051704
  28 C :    0.041369
  29 C :   -0.078545
  30 S :    0.137461
  31 C :   -0.092477
  32 C :    0.007699
  33 C :   -0.042202
  34 C :   -0.109703
  35 C :    0.104018
  36 C :    0.106628
  37 C :    0.009902
  38 C :   -0.090636
  39 S :    0.137830
  40 C :   -0.078600
  41 C :   -0.045536
  42 C :    0.044198
  43 C :    0.053691
  44 C :   -0.067246
  45 S :    0.112551
  46 C :   -0.049713
  47 C :   -0.008456
  48 C :    0.003877
  49 C :   -0.030746
  50 C :   -0.008875
  51 C :   -0.016218
  52 C :   -0.025382
  53 S :    0.110158
  54 C :   -0.045038
  55 S :    0.117857
  56 C :   -0.076170
  57 C :    0.013837
  58 C :   -0.017466
  59 C :    0.057271
  60 C :   -0.012327
  61 C :   -0.095586
  62 S :    0.095387
  63 C :   -0.142505
  64 C :   -0.083695
  65 C :   -0.090146
  66 C :    0.099502
  67 C :    0.067254
  68 C :   -0.028812
  69 N :   -0.183615
  70 C :    0.141690
  71 C :    0.030574
  72 C :   -0.031283
  73 H :    0.004923
  74 H :   -0.000191
  75 H :    0.006753
  76 H :   -0.008896
  77 H :   -0.000033
  78 H :   -0.012942
  79 H :    0.095556
  80 H :    0.087194
  81 H :    0.026536
  82 H :    0.021961
  83 H :   -0.015357
  84 H :   -0.020622
  85 H :   -0.014373
  86 H :   -0.021919
  87 H :   -0.012957
  88 H :   -0.022204
  89 H :   -0.020364
  90 H :   -0.023480
  91 H :   -0.023045
  92 H :   -0.022550
  93 H :   -0.027993
  94 H :    0.008684
  95 H :    0.021859
  96 H :    0.008402
  97 H :    0.009567
  98 H :    0.008670
  99 H :    0.021299
 100 H :   -0.027762
 101 H :   -0.023492
 102 H :   -0.024837
 103 H :   -0.015422
 104 H :   -0.019765
 105 H :   -0.014786
 106 H :   -0.012514
 107 H :   -0.024369
 108 H :   -0.014068
 109 H :   -0.014199
 110 H :   -0.018919
 111 H :    0.003978
 112 H :    0.017019
 113 H :   -0.010713
 114 H :   -0.002019
 115 H :   -0.010131
 116 H :    0.095480
 117 H :    0.087366
 118 H :    0.024633
 119 H :    0.019757
 120 H :   -0.010262
 121 H :    0.016020
 122 H :    0.021547
Sum of atomic charges:   -0.0000000

LOEWDIN ATOMIC CHARGES
----------------------
   0 C :   -0.197781
   1 S :    0.427500
   2 C :   -0.176761
   3 C :   -0.061374
   4 C :   -0.071514
   5 C :   -0.029841
   6 C :   -0.042132
   7 C :    0.013818
   8 N :   -0.101983
   9 C :   -0.029679
  10 C :   -0.048755
  11 C :   -0.045142
  12 C :   -0.164066
  13 S :    0.423124
  14 C :   -0.180160
  15 C :   -0.066151
  16 C :   -0.057445
  17 C :   -0.182676
  18 C :   -0.062057
  19 C :   -0.055768
  20 C :   -0.182961
  21 S :    0.423702
  22 C :   -0.188976
  23 S :    0.421784
  24 C :   -0.168490
  25 C :   -0.058124
  26 C :   -0.053148
  27 C :   -0.046282
  28 C :   -0.040979
  29 C :   -0.165953
  30 S :    0.430312
  31 C :   -0.199758
  32 C :   -0.037658
  33 C :   -0.055769
  34 C :   -0.034246
  35 C :   -0.024934
  36 C :   -0.024473
  37 C :   -0.037822
  38 C :   -0.199168
  39 S :    0.430512
  40 C :   -0.166755
  41 C :   -0.055370
  42 C :   -0.039566
  43 C :   -0.047385
  44 C :   -0.166241
  45 S :    0.426637
  46 C :   -0.186753
  47 C :   -0.061091
  48 C :   -0.058386
  49 C :   -0.180733
  50 C :   -0.063020
  51 C :   -0.062681
  52 C :   -0.181078
  53 S :    0.427854
  54 C :   -0.185886
  55 S :    0.430356
  56 C :   -0.167734
  57 C :   -0.057763
  58 C :   -0.062589
  59 C :   -0.050806
  60 C :   -0.035314
  61 C :   -0.177371
  62 S :    0.423180
  63 C :   -0.174317
  64 C :   -0.059284
  65 C :   -0.063523
  66 C :   -0.032569
  67 C :   -0.040693
  68 C :    0.013152
  69 N :   -0.102525
  70 C :   -0.027230
  71 C :   -0.041524
  72 C :   -0.049485
  73 H :    0.018671
  74 H :    0.022943
  75 H :    0.031790
  76 H :    0.018276
  77 H :    0.022993
  78 H :    0.019008
  79 H :    0.051031
  80 H :    0.051824
  81 H :    0.035131
  82 H :    0.032045
  83 H :    0.018996
  84 H :    0.032655
  85 H :    0.025353
  86 H :    0.028632
  87 H :    0.026546
  88 H :    0.028485
  89 H :    0.027634
  90 H :    0.028218
  91 H :    0.025141
  92 H :    0.025715
  93 H :    0.027082
  94 H :    0.022795
  95 H :    0.030389
  96 H :    0.022757
  97 H :    0.022981
  98 H :    0.022752
  99 H :    0.030415
 100 H :    0.027021
 101 H :    0.025809
 102 H :    0.024616
 103 H :    0.025450
 104 H :    0.027668
 105 H :    0.026010
 106 H :    0.026505
 107 H :    0.026781
 108 H :    0.025451
 109 H :    0.020853
 110 H :    0.029254
 111 H :    0.024482
 112 H :    0.031830
 113 H :    0.018567
 114 H :    0.022837
 115 H :    0.019446
 116 H :    0.051270
 117 H :    0.051964
 118 H :    0.036137
 119 H :    0.031563
 120 H :    0.027592
 121 H :    0.020976
 122 H :    0.025430

  Mayer bond orders larger than 0.100000
B(  0-C ,  1-S ) :   1.1566 B(  0-C ,  4-C ) :   1.5609 B(  0-C , 73-H ) :   0.9722
B(  1-S ,  2-C ) :   1.1339 B(  2-C ,  3-C ) :   1.5109 B(  2-C , 10-C ) :   1.1301
B(  3-C ,  4-C ) :   1.3000 B(  3-C ,  9-C ) :   1.0570 B(  4-C ,  5-C ) :   1.0224
B(  5-C ,  6-C ) :   1.0759 B(  5-C , 74-H ) :   0.9167 B(  5-C , 75-H ) :   0.9234
B(  6-C ,  7-C ) :   1.0260 B(  6-C , 76-H ) :   0.9317 B(  6-C , 77-H ) :   0.9362
B(  7-C ,  8-N ) :   1.1060 B(  7-C ,  9-C ) :   1.0453 B(  7-C , 78-H ) :   0.9178
B(  8-N , 79-H ) :   0.9728 B(  8-N , 80-H ) :   0.9738 B(  9-C , 81-H ) :   0.9050
B(  9-C , 82-H ) :   0.9068 B( 10-C , 11-C ) :   1.6733 B( 10-C , 83-H ) :   0.9448
B( 11-C , 12-C ) :   1.1486 B( 11-C , 84-H ) :   0.9722 B( 12-C , 13-S ) :   1.1009
B( 12-C , 16-C ) :   1.4907 B( 13-S , 14-C ) :   1.1164 B( 14-C , 15-C ) :   1.5076
B( 14-C , 17-C ) :   1.1575 B( 15-C , 16-C ) :   1.2502 B( 15-C , 85-H ) :   0.9929
B( 16-C , 86-H ) :   0.9996 B( 17-C , 18-C ) :   1.5026 B( 17-C , 20-C ) :   0.1056
B( 17-C , 21-S ) :   1.1165 B( 18-C , 19-C ) :   1.2633 B( 18-C , 87-H ) :   0.9920
B( 19-C , 20-C ) :   1.5253 B( 19-C , 88-H ) :   0.9955 B( 20-C , 21-S ) :   1.1123
B( 20-C , 22-C ) :   1.1168 B( 22-C , 23-S ) :   1.1200 B( 22-C , 24-C ) :   0.1044
B( 22-C , 26-C ) :   1.5074 B( 23-S , 24-C ) :   1.1116 B( 24-C , 25-C ) :   1.4905
B( 24-C , 27-C ) :   1.1243 B( 25-C , 26-C ) :   1.2827 B( 25-C , 89-H ) :   0.9922
B( 26-C , 90-H ) :   0.9956 B( 27-C , 28-C ) :   1.7018 B( 27-C , 91-H ) :   0.9609
B( 28-C , 29-C ) :   1.1314 B( 28-C , 92-H ) :   0.9582 B( 29-C , 30-S ) :   1.1030
B( 29-C , 33-C ) :   1.4530 B( 30-S , 31-C ) :   1.0826 B( 31-C , 32-C ) :   1.5238
B( 31-C , 38-C ) :   1.1797 B( 32-C , 33-C ) :   1.3209 B( 32-C , 34-C ) :   0.9434
B( 33-C , 93-H ) :   1.0001 B( 34-C , 35-C ) :   1.0357 B( 34-C , 36-C ) :   1.0329
B( 34-C , 37-C ) :   0.9433 B( 35-C , 94-H ) :   0.9643 B( 35-C , 95-H ) :   0.9650
B( 35-C , 96-H ) :   0.9643 B( 36-C , 97-H ) :   0.9646 B( 36-C , 98-H ) :   0.9644
B( 36-C , 99-H ) :   0.9642 B( 37-C , 38-C ) :   1.5224 B( 37-C , 41-C ) :   1.3228
B( 38-C , 39-S ) :   1.0835 B( 39-S , 40-C ) :   1.1020 B( 40-C , 41-C ) :   1.4530
B( 40-C , 42-C ) :   1.1323 B( 41-C ,100-H ) :   0.9997 B( 42-C , 43-C ) :   1.7019
B( 42-C ,101-H ) :   0.9586 B( 43-C , 44-C ) :   1.1241 B( 43-C ,102-H ) :   0.9596
B( 44-C , 45-S ) :   1.1095 B( 44-C , 48-C ) :   1.4979 B( 45-S , 46-C ) :   1.1237
B( 46-C , 47-C ) :   1.4906 B( 46-C , 49-C ) :   1.1558 B( 47-C , 48-C ) :   1.2793
B( 47-C ,103-H ) :   0.9918 B( 48-C ,104-H ) :   0.9923 B( 49-C , 50-C ) :   1.5079
B( 49-C , 53-S ) :   1.1160 B( 50-C , 51-C ) :   1.2617 B( 50-C ,105-H ) :   0.9928
B( 51-C , 52-C ) :   1.5094 B( 51-C ,106-H ) :   0.9930 B( 52-C , 53-S ) :   1.1137
B( 52-C , 54-C ) :   1.1522 B( 54-C , 55-S ) :   1.1241 B( 54-C , 58-C ) :   1.4929
B( 55-S , 56-C ) :   1.1127 B( 56-C , 57-C ) :   1.5031 B( 56-C , 59-C ) :   1.1150
B( 57-C , 58-C ) :   1.2765 B( 57-C ,107-H ) :   0.9920 B( 58-C ,108-H ) :   0.9916
B( 59-C , 60-C ) :   1.6829 B( 59-C ,109-H ) :   0.9602 B( 60-C , 61-C ) :   1.1626
B( 60-C ,110-H ) :   0.9672 B( 61-C , 62-S ) :   1.1091 B( 61-C , 65-C ) :   1.4901
B( 62-S , 63-C ) :   1.1143 B( 63-C , 64-C ) :   1.5310 B( 63-C , 71-C ) :   1.0964
B( 64-C , 65-C ) :   1.2992 B( 64-C , 70-C ) :   1.0488 B( 65-C , 66-C ) :   1.0503
B( 66-C , 67-C ) :   1.0744 B( 66-C ,111-H ) :   0.9117 B( 66-C ,112-H ) :   0.9115
B( 67-C , 68-C ) :   1.0247 B( 67-C ,113-H ) :   0.9287 B( 67-C ,114-H ) :   0.9346
B( 68-C , 69-N ) :   1.1020 B( 68-C , 70-C ) :   1.0515 B( 68-C ,115-H ) :   0.9197
B( 69-N ,116-H ) :   0.9732 B( 69-N ,117-H ) :   0.9734 B( 70-C ,118-H ) :   0.9077
B( 70-C ,119-H ) :   0.9078 B( 71-C , 72-C ) :   1.9333 B( 71-C ,120-H ) :   0.9470
B( 72-C ,121-H ) :   0.9566 B( 72-C ,122-H ) :   0.9453

-----------------------------------------------------------------------------
         ABSORPTION SPECTRUM VIA TRANSITION ELECTRIC DIPOLE MOMENTS
-----------------------------------------------------------------------------
State   Energy  Wavelength   fosc         T2         TX        TY        TZ
        (cm-1)    (nm)                  (au**2)     (au)      (au)      (au)
-----------------------------------------------------------------------------
   0   17501.8    571.4   4.661759780  87.68851  -8.76773  -2.30144   2.34921
   1   21177.4    472.2   0.201755802   3.13638   0.05649   1.76798   0.08618
   2   24187.7    413.4   0.655422380   8.92078   2.85489   0.06656  -0.87520
   3   24619.3    406.2   0.005128814   0.06858   0.20574   0.15752  -0.03796
   4   26462.0    377.9   0.010224921   0.12721  -0.32990   0.00113   0.13553
   5   27481.4    363.9   0.059221283   0.70944   0.07131  -0.80971  -0.22075
   6   28854.5    346.6   0.027613513   0.31505   0.47330   0.20454  -0.22182
   7   29983.9    333.5   0.321163470   3.52625  -1.76892  -0.51960   0.35662
   8   31129.0    321.2   0.085159429   0.90062   0.88859   0.33112   0.03731
   9   31547.9    317.0   0.043792443   0.45699  -0.62256  -0.26077   0.03756
  10   32222.3    310.3   0.033041880   0.33759  -0.57878  -0.00132   0.05093
  11   33004.5    303.0   0.005395556   0.05382   0.14573   0.18046  -0.00390
  12   33719.0    296.6   0.028306760   0.27637  -0.38120  -0.35757  -0.05656
  13   34720.1    288.0   0.000666841   0.00632  -0.05779   0.01557  -0.05235
  14   35138.2    284.6   0.019977029   0.18717  -0.39619   0.06861   0.15965
  15   35923.6    278.4   0.044061401   0.40379  -0.58591  -0.12758   0.21028
  16   36880.4    271.1   0.011399880   0.10176  -0.26125  -0.18163   0.02285
  17   37455.6    267.0   0.120477289   1.05892  -0.30492  -0.68989  -0.70000
  18   38117.2    262.3   0.007707578   0.06657  -0.24377  -0.06119  -0.05833
  19   38717.7    258.3   0.324212732   2.75674   1.26663   0.93796   0.52212
  20   39289.6    254.5   0.002420412   0.02028   0.01390  -0.14123   0.01190
  21   39399.7    253.8   0.050003096   0.41781   0.44131   0.43407   0.18612
  22   40270.0    248.3   0.047832764   0.39104   0.01412   0.20292   0.59132

FINAL SINGLE POINT ENERGY     -6441.547508154733

DIPOLE MOMENT
-------------
                                X             Y             Z
Electronic contribution:    -19.18805     -42.00550      -1.39549
Nuclear contribution   :     18.35196      42.04752       1.20964
                        -----------------------------------------
Total Dipole Moment    :     -0.83610       0.04202      -0.18586
                        -----------------------------------------
Magnitude (a.u.)       :      0.85753
Magnitude (Debye)      :      2.17968

Rotational constants in cm-1:     0.003018     0.000066     0.000065
Rotational constants in MHz :    90.489794     1.965001     1.941976

                             ****ORCA TERMINATED NORMALLY****
TOTAL RUN TIME: 0 days 0 hours 10 minutes 44 seconds 494 msec
