                         Program Version 4.2.0 -  RELEASE  -
|  1> # ORCA input file
|  2> # SCF done       -180.719866358681          0.000803067497
|  3> ! CAM-B3LYP def2-SVP def2/J RIJCOSX Grid4 TightSCF
|  4> %maxcore 5000
|  5> %tddft
|  6>     Mode sTDDFT
|  7>     Ethresh 5.0
|  8>     maxcore 5000
|  9> end
| 10>
| 11> %pal
| 12>   nprocs 6
| 13>   end
| 14> * xyz 0 1
| 15>    C        2.58347       -11.14731        -7.13835
| 16>    O        1.82064       -10.52938        -6.22110
| 17>    C        3.34363       -12.10182        -6.53497
| 18>    C        4.35863       -13.14939        -6.74456
| 19>    O        4.91432       -13.52333        -7.74129
| 20>    N        4.56452       -13.65983        -5.46821
| 21>    C        3.80528       -13.07711        -4.44834
| 22>    O        3.84700       -13.39986        -3.29253
| 23>    C        3.01674       -12.05968        -5.14917
| 24>    C        2.06900       -11.06984        -4.99271
| 25>    C        1.40286       -10.59882        -3.82742
| 26>    C        0.47300        -9.61600        -3.85162
| 27>    C       -0.21592        -9.10511        -2.71888
| 28>    C       -1.27324        -8.09511        -2.83258
| 29>    N       -1.80300        -7.73322        -1.70102
| 30>    C       -1.15259        -8.46193        -0.75159
| 31>    C       -0.14453        -9.34689        -1.35951
| 32>    C        0.55181       -10.06651        -0.31837
| 33>    S        1.84843       -11.06974        -0.48677
| 34>    C       -0.07682        -9.64136         0.90979
| 35>    C       -1.10685        -8.63444         0.60730
| 36>    N       -1.67657        -8.16159         1.75149
| 37>    C       -1.05762        -8.77059         2.72064
| 38>    C       -0.03246        -9.72429         2.28617
| 39>    C        0.75197       -10.53352         3.17728
| 40>    C        1.00736       -10.09892         4.46454
| 41>    C        1.80369       -10.87766         5.31907
| 42>    C        2.22179       -10.65245         6.62969
| 43>    C        1.94350        -9.44375         7.44910
| 44>    C        1.18241        -9.78374         8.74736
| 45>    N        0.43036        -8.61987         9.16174
| 46>    C        3.24802        -8.67427         7.73535
| 47>    N        2.95926        -7.38114         8.33681
| 48>    C        3.02391       -11.79267         7.00889
| 49>    C        3.66945       -12.09581         8.15135
| 50>    C        4.49783       -13.32282         8.28258
| 51>    C        4.46725       -14.22966         7.08985
| 52>    C        3.80946       -13.91819         5.95670
| 53>    C        3.07883       -12.71140         5.86289
| 54>    C        2.33075       -12.14751         4.84452
| 55>    C        2.03208       -12.57716         3.53305
| 56>    C        1.26907       -11.79038         2.73008
| 57>    C        5.94944       -12.96607         8.51517
| 58>    C        6.48525       -11.80822         8.11442
| 59>    C        7.85050       -11.42231         8.28937
| 60>    C        8.96046       -12.18690         8.85979
| 61>    N       10.09886       -11.54987         8.88183
| 62>    C        9.84509       -10.32603         8.33862
| 63>    C        8.42810       -10.21832         7.95903
| 64>    C        8.16019        -8.92373         7.38989
| 65>    S        6.71037        -8.35112         6.86947
| 66>    C        9.43853        -8.25896         7.40972
| 67>    C       10.45747        -9.14193         8.00742
| 68>    N       11.67288        -8.52864         8.03167
| 69>    C       11.49182        -7.35518         7.49804
| 70>    C       10.11023        -7.10460         7.07441
| 71>    C        9.65889        -5.91365         6.45301
| 72>    O        8.36005        -5.78432         6.08444
| 73>    C       10.32650        -4.75450         6.10625
| 74>    C       11.62493        -4.07271         6.11439
| 75>    O       12.70055        -4.42345         6.52516
| 76>    N       11.35524        -2.84813         5.51017
| 77>    C       10.03267        -2.65261         5.11023
| 78>    O        9.61063        -1.66226         4.57556
| 79>    C        9.36880        -3.90113         5.50191
| 80>    C        8.16634        -4.57647         5.50729
| 81>    C        6.87060        -4.19397         5.02123
| 82>    C        5.80052        -4.98358         5.09903
| 83>    H        2.49281       -10.82179        -8.15586
| 84>    H        5.21979       -14.40744        -5.28750
| 85>    H        1.69212       -11.08034        -2.90418
| 86>    H        0.20839        -9.16941        -4.80227
| 87>    H       -1.61456        -7.66819        -3.76002
| 88>    H       -1.34257        -8.58658         3.74201
| 89>    H        0.62720        -9.14768         4.80506
| 90>    H        1.28609        -8.77855         6.88089
| 91>    H        1.89717       -10.13939         9.50706
| 92>    H        0.47352       -10.59503         8.54720
| 93>    H        1.07727        -7.85272         9.32418
| 94>    H       -0.08790        -8.80365        10.01285
| 95>    H        3.81658        -8.59404         6.79486
| 96>    H        3.86357        -9.23383         8.44342
| 97>    H        2.48798        -6.78430         7.66344
| 98>    H        3.82766        -6.92336         8.59333
| 99>    H        3.64457       -11.44849         9.01575
|100>    H        4.15210       -13.88122         9.16550
|101>    H        5.03541       -15.14326         7.17391
|102>    H        3.82474       -14.58849         5.10990
|103>    H        2.40894       -13.52468         3.17920
|104>    H        1.02698       -12.10990         1.72985
|105>    H        6.55190       -13.72829         8.98688
|106>    H        5.86340       -11.06818         7.62609
|107>    H        8.90095       -13.19154         9.23959
|108>    H       12.30113        -6.65417         7.38999
|109>    H       12.07009        -2.14791         5.37085
|110>    H        6.83142        -3.20810         4.58072
|111>    H        5.86386        -5.96563         5.53827
|112>    H        4.84347        -4.67063         4.72053
|113> *
|114>
|115>                          ****END OF INPUT****

CARTESIAN COORDINATES (ANGSTROEM)
---------------------------------
  C      2.583470  -11.147310   -7.138350
  O      1.820640  -10.529380   -6.221100
  C      3.343630  -12.101820   -6.534970
  C      4.358630  -13.149390   -6.744560
  O      4.914320  -13.523330   -7.741290
  N      4.564520  -13.659830   -5.468210
  C      3.805280  -13.077110   -4.448340
  O      3.847000  -13.399860   -3.292530
  C      3.016740  -12.059680   -5.149170
  C      2.069000  -11.069840   -4.992710
  C      1.402860  -10.598820   -3.827420
  C      0.473000   -9.616000   -3.851620
  C     -0.215920   -9.105110   -2.718880
  C     -1.273240   -8.095110   -2.832580
  N     -1.803000   -7.733220   -1.701020
  C     -1.152590   -8.461930   -0.751590
  C     -0.144530   -9.346890   -1.359510
  C      0.551810  -10.066510   -0.318370
  S      1.848430  -11.069740   -0.486770
  C     -0.076820   -9.641360    0.909790
  C     -1.106850   -8.634440    0.607300
  N     -1.676570   -8.161590    1.751490
  C     -1.057620   -8.770590    2.720640
  C     -0.032460   -9.724290    2.286170
  C      0.751970  -10.533520    3.177280
  C      1.007360  -10.098920    4.464540
  C      1.803690  -10.877660    5.319070
  C      2.221790  -10.652450    6.629690
  C      1.943500   -9.443750    7.449100
  C      1.182410   -9.783740    8.747360
  N      0.430360   -8.619870    9.161740
  C      3.248020   -8.674270    7.735350
  N      2.959260   -7.381140    8.336810
  C      3.023910  -11.792670    7.008890
  C      3.669450  -12.095810    8.151350
  C      4.497830  -13.322820    8.282580
  C      4.467250  -14.229660    7.089850
  C      3.809460  -13.918190    5.956700
  C      3.078830  -12.711400    5.862890
  C      2.330750  -12.147510    4.844520
  C      2.032080  -12.577160    3.533050
  C      1.269070  -11.790380    2.730080
  C      5.949440  -12.966070    8.515170
  C      6.485250  -11.808220    8.114420
  C      7.850500  -11.422310    8.289370
  C      8.960460  -12.186900    8.859790
  N     10.098860  -11.549870    8.881830
  C      9.845090  -10.326030    8.338620
  C      8.428100  -10.218320    7.959030
  C      8.160190   -8.923730    7.389890
  S      6.710370   -8.351120    6.869470
  C      9.438530   -8.258960    7.409720
  C     10.457470   -9.141930    8.007420
  N     11.672880   -8.528640    8.031670
  C     11.491820   -7.355180    7.498040
  C     10.110230   -7.104600    7.074410
  C      9.658890   -5.913650    6.453010
  O      8.360050   -5.784320    6.084440
  C     10.326500   -4.754500    6.106250
  C     11.624930   -4.072710    6.114390
  O     12.700550   -4.423450    6.525160
  N     11.355240   -2.848130    5.510170
  C     10.032670   -2.652610    5.110230
  O      9.610630   -1.662260    4.575560
  C      9.368800   -3.901130    5.501910
  C      8.166340   -4.576470    5.507290
  C      6.870600   -4.193970    5.021230
  C      5.800520   -4.983580    5.099030
  H      2.492810  -10.821790   -8.155860
  H      5.219790  -14.407440   -5.287500
  H      1.692120  -11.080340   -2.904180
  H      0.208390   -9.169410   -4.802270
  H     -1.614560   -7.668190   -3.760020
  H     -1.342570   -8.586580    3.742010
  H      0.627200   -9.147680    4.805060
  H      1.286090   -8.778550    6.880890
  H      1.897170  -10.139390    9.507060
  H      0.473520  -10.595030    8.547200
  H      1.077270   -7.852720    9.324180
  H     -0.087900   -8.803650   10.012850
  H      3.816580   -8.594040    6.794860
  H      3.863570   -9.233830    8.443420
  H      2.487980   -6.784300    7.663440
  H      3.827660   -6.923360    8.593330
  H      3.644570  -11.448490    9.015750
  H      4.152100  -13.881220    9.165500
  H      5.035410  -15.143260    7.173910
  H      3.824740  -14.588490    5.109900
  H      2.408940  -13.524680    3.179200
  H      1.026980  -12.109900    1.729850
  H      6.551900  -13.728290    8.986880
  H      5.863400  -11.068180    7.626090
  H      8.900950  -13.191540    9.239590
  H     12.301130   -6.654170    7.389990
  H     12.070090   -2.147910    5.370850
  H      6.831420   -3.208100    4.580720
  H      5.863860   -5.965630    5.538270
  H      4.843470   -4.670630    4.720530

 Total Charge           Charge          ....    0
 Multiplicity           Mult            ....    1
 Number of Electrons    NEL             ....  478
 Basis Dimension        Dim             .... 1110

ORBITAL ENERGIES
----------------

  NO   OCC          E(Eh)            E(eV)
   0   2.0000     -88.909080     -2419.3391
   1   2.0000     -88.895505     -2418.9697
   2   2.0000     -19.318684      -525.6881
   3   2.0000     -19.313856      -525.5567
   4   2.0000     -19.223279      -523.0920
   5   2.0000     -19.217587      -522.9371
   6   2.0000     -19.207121      -522.6523
   7   2.0000     -19.206376      -522.6321
   8   2.0000     -14.462945      -393.5567
   9   2.0000     -14.451065      -393.2335
  10   2.0000     -14.423664      -392.4878
  11   2.0000     -14.421748      -392.4357
  12   2.0000     -14.411541      -392.1580
  13   2.0000     -14.411071      -392.1452
  14   2.0000     -14.390976      -391.5984
  15   2.0000     -14.358765      -390.7219
  16   2.0000     -10.411714      -283.3171
  17   2.0000     -10.407215      -283.1947
  18   2.0000     -10.397303      -282.9250
  19   2.0000     -10.396806      -282.9115
  20   2.0000     -10.375098      -282.3208
  21   2.0000     -10.370531      -282.1965
  22   2.0000     -10.357663      -281.8463
  23   2.0000     -10.357245      -281.8350
  24   2.0000     -10.351597      -281.6813
  25   2.0000     -10.343478      -281.4603
  26   2.0000     -10.340216      -281.3716
  27   2.0000     -10.339119      -281.3417
  28   2.0000     -10.338912      -281.3361
  29   2.0000     -10.338191      -281.3165
  30   2.0000     -10.330281      -281.1012
  31   2.0000     -10.328446      -281.0513
  32   2.0000     -10.325595      -280.9737
  33   2.0000     -10.323242      -280.9097
  34   2.0000     -10.321602      -280.8651
  35   2.0000     -10.311778      -280.5977
  36   2.0000     -10.309596      -280.5384
  37   2.0000     -10.307656      -280.4856
  38   2.0000     -10.305603      -280.4297
  39   2.0000     -10.304526      -280.4004
  40   2.0000     -10.304006      -280.3863
  41   2.0000     -10.302166      -280.3362
  42   2.0000     -10.301408      -280.3156
  43   2.0000     -10.298964      -280.2491
  44   2.0000     -10.298300      -280.2310
  45   2.0000     -10.297545      -280.2105
  46   2.0000     -10.293410      -280.0979
  47   2.0000     -10.292464      -280.0722
  48   2.0000     -10.290405      -280.0162
  49   2.0000     -10.290078      -280.0073
  50   2.0000     -10.289867      -280.0015
  51   2.0000     -10.289750      -279.9983
  52   2.0000     -10.288380      -279.9611
  53   2.0000     -10.287407      -279.9346
  54   2.0000     -10.286440      -279.9083
  55   2.0000     -10.285676      -279.8875
  56   2.0000     -10.280914      -279.7579
  57   2.0000     -10.279855      -279.7291
  58   2.0000     -10.276751      -279.6446
  59   2.0000     -10.275632      -279.6142
  60   2.0000     -10.274614      -279.5864
  61   2.0000     -10.269551      -279.4487
  62   2.0000     -10.268301      -279.4147
  63   2.0000     -10.266683      -279.3706
  64   2.0000     -10.265640      -279.3423
  65   2.0000     -10.264935      -279.3231
  66   2.0000     -10.263666      -279.2886
  67   2.0000     -10.262635      -279.2605
  68   2.0000      -8.004094      -217.8025
  69   2.0000      -7.991043      -217.4473
  70   2.0000      -5.972790      -162.5279
  71   2.0000      -5.972739      -162.5265
  72   2.0000      -5.963510      -162.2754
  73   2.0000      -5.959822      -162.1750
  74   2.0000      -5.959522      -162.1668
  75   2.0000      -5.950391      -161.9184
  76   2.0000      -1.238773       -33.7087
  77   2.0000      -1.229875       -33.4666
  78   2.0000      -1.165041       -31.7024
  79   2.0000      -1.152403       -31.3585
  80   2.0000      -1.144336       -31.1390
  81   2.0000      -1.132081       -30.8055
  82   2.0000      -1.091337       -29.6968
  83   2.0000      -1.079213       -29.3669
  84   2.0000      -1.072136       -29.1743
  85   2.0000      -1.060334       -28.8531
  86   2.0000      -1.051511       -28.6131
  87   2.0000      -1.039024       -28.2733
  88   2.0000      -0.988313       -26.8934
  89   2.0000      -0.973445       -26.4888
  90   2.0000      -0.971471       -26.4351
  91   2.0000      -0.958191       -26.0737
  92   2.0000      -0.953740       -25.9526
  93   2.0000      -0.940584       -25.5946
  94   2.0000      -0.935763       -25.4634
  95   2.0000      -0.931632       -25.3510
  96   2.0000      -0.926721       -25.2173
  97   2.0000      -0.926138       -25.2015
  98   2.0000      -0.919185       -25.0123
  99   2.0000      -0.904805       -24.6210
 100   2.0000      -0.890580       -24.2339
 101   2.0000      -0.880038       -23.9471
 102   2.0000      -0.879277       -23.9263
 103   2.0000      -0.869326       -23.6556
 104   2.0000      -0.859469       -23.3873
 105   2.0000      -0.848487       -23.0885
 106   2.0000      -0.840401       -22.8685
 107   2.0000      -0.836763       -22.7695
 108   2.0000      -0.830581       -22.6013
 109   2.0000      -0.827903       -22.5284
 110   2.0000      -0.818835       -22.2816
 111   2.0000      -0.802233       -21.8299
 112   2.0000      -0.786423       -21.3997
 113   2.0000      -0.778123       -21.1738
 114   2.0000      -0.774602       -21.0780
 115   2.0000      -0.772278       -21.0148
 116   2.0000      -0.765504       -20.8304
 117   2.0000      -0.761955       -20.7338
 118   2.0000      -0.757652       -20.6168
 119   2.0000      -0.751485       -20.4489
 120   2.0000      -0.742870       -20.2145
 121   2.0000      -0.727885       -19.8067
 122   2.0000      -0.722619       -19.6635
 123   2.0000      -0.719490       -19.5783
 124   2.0000      -0.717486       -19.5238
 125   2.0000      -0.715312       -19.4646
 126   2.0000      -0.698656       -19.0114
 127   2.0000      -0.697364       -18.9762
 128   2.0000      -0.691457       -18.8155
 129   2.0000      -0.688909       -18.7462
 130   2.0000      -0.678186       -18.4544
 131   2.0000      -0.671093       -18.2614
 132   2.0000      -0.665662       -18.1136
 133   2.0000      -0.663065       -18.0429
 134   2.0000      -0.649377       -17.6704
 135   2.0000      -0.646279       -17.5861
 136   2.0000      -0.638593       -17.3770
 137   2.0000      -0.624064       -16.9816
 138   2.0000      -0.618027       -16.8174
 139   2.0000      -0.611104       -16.6290
 140   2.0000      -0.606602       -16.5065
 141   2.0000      -0.603737       -16.4285
 142   2.0000      -0.600999       -16.3540
 143   2.0000      -0.598942       -16.2980
 144   2.0000      -0.595308       -16.1992
 145   2.0000      -0.591507       -16.0957
 146   2.0000      -0.587563       -15.9884
 147   2.0000      -0.587409       -15.9842
 148   2.0000      -0.582215       -15.8429
 149   2.0000      -0.581874       -15.8336
 150   2.0000      -0.580468       -15.7953
 151   2.0000      -0.577903       -15.7256
 152   2.0000      -0.568570       -15.4716
 153   2.0000      -0.566808       -15.4236
 154   2.0000      -0.565274       -15.3819
 155   2.0000      -0.563860       -15.3434
 156   2.0000      -0.557972       -15.1832
 157   2.0000      -0.554978       -15.1017
 158   2.0000      -0.553037       -15.0489
 159   2.0000      -0.550304       -14.9745
 160   2.0000      -0.547669       -14.9028
 161   2.0000      -0.544021       -14.8036
 162   2.0000      -0.541461       -14.7339
 163   2.0000      -0.540593       -14.7103
 164   2.0000      -0.538371       -14.6498
 165   2.0000      -0.537183       -14.6175
 166   2.0000      -0.531104       -14.4521
 167   2.0000      -0.528032       -14.3685
 168   2.0000      -0.525078       -14.2881
 169   2.0000      -0.521832       -14.1998
 170   2.0000      -0.520504       -14.1636
 171   2.0000      -0.517542       -14.0830
 172   2.0000      -0.515747       -14.0342
 173   2.0000      -0.512429       -13.9439
 174   2.0000      -0.512046       -13.9335
 175   2.0000      -0.507117       -13.7994
 176   2.0000      -0.504747       -13.7349
 177   2.0000      -0.500938       -13.6312
 178   2.0000      -0.499587       -13.5945
 179   2.0000      -0.498584       -13.5672
 180   2.0000      -0.498099       -13.5540
 181   2.0000      -0.495123       -13.4730
 182   2.0000      -0.491038       -13.3618
 183   2.0000      -0.489888       -13.3305
 184   2.0000      -0.488522       -13.2934
 185   2.0000      -0.485878       -13.2214
 186   2.0000      -0.483945       -13.1688
 187   2.0000      -0.481980       -13.1153
 188   2.0000      -0.478984       -13.0338
 189   2.0000      -0.472767       -12.8646
 190   2.0000      -0.470698       -12.8083
 191   2.0000      -0.469231       -12.7684
 192   2.0000      -0.468657       -12.7528
 193   2.0000      -0.464380       -12.6364
 194   2.0000      -0.461364       -12.5544
 195   2.0000      -0.454187       -12.3591
 196   2.0000      -0.451614       -12.2890
 197   2.0000      -0.447249       -12.1703
 198   2.0000      -0.440817       -11.9952
 199   2.0000      -0.438351       -11.9281
 200   2.0000      -0.435738       -11.8570
 201   2.0000      -0.432753       -11.7758
 202   2.0000      -0.425270       -11.5722
 203   2.0000      -0.418227       -11.3805
 204   2.0000      -0.415613       -11.3094
 205   2.0000      -0.414147       -11.2695
 206   2.0000      -0.411689       -11.2026
 207   2.0000      -0.411067       -11.1857
 208   2.0000      -0.402649       -10.9566
 209   2.0000      -0.398365       -10.8401
 210   2.0000      -0.390187       -10.6175
 211   2.0000      -0.387857       -10.5541
 212   2.0000      -0.379874       -10.3369
 213   2.0000      -0.375311       -10.2127
 214   2.0000      -0.371420       -10.1068
 215   2.0000      -0.368753       -10.0343
 216   2.0000      -0.365803        -9.9540
 217   2.0000      -0.361618        -9.8401
 218   2.0000      -0.360131        -9.7997
 219   2.0000      -0.357951        -9.7403
 220   2.0000      -0.355312        -9.6685
 221   2.0000      -0.354558        -9.6480
 222   2.0000      -0.352425        -9.5900
 223   2.0000      -0.351287        -9.5590
 224   2.0000      -0.348204        -9.4751
 225   2.0000      -0.343841        -9.3564
 226   2.0000      -0.341349        -9.2886
 227   2.0000      -0.331857        -9.0303
 228   2.0000      -0.324410        -8.8276
 229   2.0000      -0.314039        -8.5454
 230   2.0000      -0.312110        -8.4929
 231   2.0000      -0.301430        -8.2023
 232   2.0000      -0.293344        -7.9823
 233   2.0000      -0.290321        -7.9000
 234   2.0000      -0.286973        -7.8089
 235   2.0000      -0.284046        -7.7293
 236   2.0000      -0.279369        -7.6020
 237   2.0000      -0.272528        -7.4159
 238   2.0000      -0.223437        -6.0800
 239   0.0000      -0.120777        -3.2865
 240   0.0000      -0.111408        -3.0316
 241   0.0000      -0.092110        -2.5064
 242   0.0000      -0.084610        -2.3024
 243   0.0000      -0.063408        -1.7254

MULLIKEN ATOMIC CHARGES
-----------------------
   0 C :    0.084622
   1 O :   -0.192321
   2 C :   -0.035890
   3 C :    0.179089
   4 O :   -0.138733
   5 N :   -0.171260
   6 C :    0.175768
   7 O :   -0.132844
   8 C :   -0.058235
   9 C :    0.074490
  10 C :    0.025757
  11 C :   -0.014679
  12 C :    0.013631
  13 C :    0.053737
  14 N :   -0.022209
  15 C :    0.002699
  16 C :    0.001831
  17 C :   -0.019909
  18 S :   -0.097739
  19 C :   -0.017093
  20 C :   -0.005342
  21 N :   -0.023699
  22 C :    0.051294
  23 C :    0.001068
  24 C :    0.076553
  25 C :   -0.106010
  26 C :    0.055338
  27 C :   -0.012617
  28 C :   -0.060535
  29 C :    0.158031
  30 N :   -0.223523
  31 C :    0.126899
  32 N :   -0.214632
  33 C :    0.109452
  34 C :   -0.167690
  35 C :    0.174483
  36 C :   -0.035373
  37 C :    0.022645
  38 C :    0.005533
  39 C :    0.048265
  40 C :   -0.011146
  41 C :    0.025417
  42 C :   -0.087902
  43 C :    0.011948
  44 C :    0.019201
  45 C :    0.057387
  46 N :   -0.026230
  47 C :    0.020518
  48 C :   -0.010599
  49 C :   -0.005304
  50 S :   -0.129106
  51 C :    0.000082
  52 C :    0.002661
  53 N :   -0.020039
  54 C :    0.066823
  55 C :   -0.035620
  56 C :    0.093685
  57 O :   -0.174487
  58 C :   -0.074726
  59 C :    0.181288
  60 O :   -0.144075
  61 N :   -0.164825
  62 C :    0.167748
  63 O :   -0.134236
  64 C :   -0.040042
  65 C :    0.073463
  66 C :   -0.029473
  67 C :    0.028746
  68 H :    0.029983
  69 H :    0.138712
  70 H :    0.005567
  71 H :   -0.010536
  72 H :    0.003566
  73 H :    0.013426
  74 H :   -0.035564
  75 H :   -0.031067
  76 H :   -0.032122
  77 H :   -0.002297
  78 H :    0.081311
  79 H :    0.081898
  80 H :    0.009682
  81 H :   -0.014401
  82 H :    0.099750
  83 H :    0.097125
  84 H :    0.002167
  85 H :    0.031575
  86 H :   -0.014067
  87 H :   -0.031089
  88 H :   -0.034118
  89 H :   -0.027086
  90 H :    0.003039
  91 H :    0.020829
  92 H :    0.008908
  93 H :    0.025104
  94 H :    0.142188
  95 H :    0.015801
  96 H :    0.037303
  97 H :    0.032406
Sum of atomic charges:   -0.0000000

LOEWDIN ATOMIC CHARGES
----------------------
   0 C :    0.086319
   1 O :    0.023439
   2 C :   -0.103240
   3 C :    0.083434
   4 O :   -0.154795
   5 N :   -0.007710
   6 C :    0.085155
   7 O :   -0.150548
   8 C :   -0.093159
   9 C :    0.059906
  10 C :   -0.006242
  11 C :   -0.017220
  12 C :   -0.040192
  13 C :    0.079370
  14 N :   -0.079294
  15 C :    0.028341
  16 C :   -0.033382
  17 C :   -0.137002
  18 S :    0.098340
  19 C :   -0.053003
  20 C :    0.041163
  21 N :   -0.079995
  22 C :    0.088349
  23 C :   -0.018683
  24 C :   -0.029725
  25 C :    0.005135
  26 C :   -0.023853
  27 C :   -0.012370
  28 C :   -0.041914
  29 C :    0.031129
  30 N :   -0.127727
  31 C :    0.024154
  32 N :   -0.103093
  33 C :   -0.015356
  34 C :    0.068667
  35 C :   -0.030477
  36 C :   -0.034376
  37 C :   -0.012949
  38 C :   -0.040562
  39 C :   -0.024050
  40 C :   -0.007948
  41 C :   -0.014925
  42 C :    0.020784
  43 C :   -0.030507
  44 C :   -0.029596
  45 C :    0.092400
  46 N :   -0.077725
  47 C :    0.041160
  48 C :   -0.041814
  49 C :   -0.139533
  50 S :    0.067119
  51 C :   -0.025482
  52 C :    0.036769
  53 N :   -0.074940
  54 C :    0.100553
  55 C :   -0.055416
  56 C :    0.061116
  57 O :    0.039857
  58 C :   -0.089221
  59 C :    0.088128
  60 O :   -0.155887
  61 N :   -0.003205
  62 C :    0.086619
  63 O :   -0.152039
  64 C :   -0.101321
  65 C :    0.080729
  66 C :   -0.042984
  67 C :    0.002932
  68 H :    0.034806
  69 H :    0.094330
  70 H :    0.020567
  71 H :    0.031515
  72 H :    0.024134
  73 H :    0.026119
  74 H :    0.024770
  75 H :    0.023306
  76 H :   -0.006414
  77 H :    0.016995
  78 H :    0.035528
  79 H :    0.049486
  80 H :   -0.001352
  81 H :    0.011106
  82 H :    0.056031
  83 H :    0.057291
  84 H :    0.027758
  85 H :    0.057062
  86 H :    0.023464
  87 H :    0.032295
  88 H :    0.029288
  89 H :    0.016115
  90 H :    0.024729
  91 H :    0.032603
  92 H :    0.024915
  93 H :    0.029769
  94 H :    0.096855
  95 H :    0.046972
  96 H :    0.020606
  97 H :    0.031742

  Mayer bond orders larger than 0.100000
B(  0-C ,  1-O ) :   1.1574 B(  0-C ,  2-C ) :   1.5355 B(  0-C , 68-H ) :   1.0047
B(  1-O ,  9-C ) :   1.1551 B(  2-C ,  3-C ) :   0.8584 B(  2-C ,  8-C ) :   1.2562
B(  3-C ,  4-O ) :   2.2800 B(  3-C ,  5-N ) :   1.0793 B(  5-N ,  6-C ) :   1.0653
B(  5-N , 69-H ) :   0.9154 B(  6-C ,  7-O ) :   2.2766 B(  6-C ,  8-C ) :   0.8856
B(  8-C ,  9-C ) :   1.4365 B(  9-C , 10-C ) :   1.1814 B( 10-C , 11-C ) :   1.6224
B( 10-C , 70-H ) :   0.9266 B( 11-C , 12-C ) :   1.0955 B( 11-C , 71-H ) :   0.9789
B( 12-C , 13-C ) :   1.0253 B( 12-C , 16-C ) :   1.4809 B( 13-C , 14-N ) :   1.7185
B( 13-C , 72-H ) :   0.9923 B( 14-N , 15-C ) :   1.2718 B( 15-C , 16-C ) :   1.0779
B( 15-C , 20-C ) :   1.5161 B( 16-C , 17-C ) :   1.0485 B( 17-C , 18-S ) :   1.6837
B( 17-C , 19-C ) :   1.0318 B( 18-S , 70-H ) :   0.1113 B( 19-C , 20-C ) :   1.0723
B( 19-C , 23-C ) :   1.5312 B( 20-C , 21-N ) :   1.2641 B( 21-N , 22-C ) :   1.7237
B( 22-C , 23-C ) :   1.0359 B( 22-C , 73-H ) :   0.9865 B( 23-C , 24-C ) :   1.0184
B( 24-C , 25-C ) :   1.4865 B( 24-C , 41-C ) :   1.1442 B( 25-C , 26-C ) :   1.1482
B( 25-C , 74-H ) :   0.9941 B( 26-C , 27-C ) :   1.4814 B( 26-C , 39-C ) :   1.1109
B( 27-C , 28-C ) :   1.0373 B( 27-C , 33-C ) :   1.0796 B( 28-C , 29-C ) :   1.0213
B( 28-C , 31-C ) :   1.0408 B( 28-C , 75-H ) :   0.8731 B( 29-C , 30-N ) :   1.1134
B( 29-C , 76-H ) :   0.9221 B( 29-C , 77-H ) :   0.9470 B( 30-N , 78-H ) :   0.9423
B( 30-N , 79-H ) :   0.9670 B( 31-C , 32-N ) :   1.0831 B( 31-C , 80-H ) :   0.9458
B( 31-C , 81-H ) :   0.9304 B( 32-N , 78-H ) :   0.1010 B( 32-N , 82-H ) :   0.9631
B( 32-N , 83-H ) :   0.9658 B( 33-C , 34-C ) :   1.6490 B( 33-C , 38-C ) :   1.0537
B( 34-C , 35-C ) :   0.9745 B( 34-C , 84-H ) :   0.9710 B( 35-C , 36-C ) :   0.9840
B( 35-C , 42-C ) :   0.9573 B( 35-C , 85-H ) :   0.8622 B( 36-C , 37-C ) :   1.7342
B( 36-C , 86-H ) :   0.9647 B( 37-C , 38-C ) :   1.1350 B( 37-C , 87-H ) :   0.9874
B( 38-C , 39-C ) :   1.4382 B( 39-C , 40-C ) :   1.1364 B( 40-C , 41-C ) :   1.6116
B( 40-C , 88-H ) :   0.9949 B( 41-C , 89-H ) :   0.9700 B( 42-C , 43-C ) :   1.7929
B( 42-C , 90-H ) :   0.9697 B( 43-C , 44-C ) :   1.0828 B( 43-C , 91-H ) :   0.9500
B( 44-C , 45-C ) :   1.0114 B( 44-C , 48-C ) :   1.5322 B( 45-C , 46-N ) :   1.7228
B( 45-C , 92-H ) :   0.9904 B( 46-N , 47-C ) :   1.2656 B( 47-C , 48-C ) :   1.0641
B( 47-C , 52-C ) :   1.5059 B( 48-C , 49-C ) :   1.0262 B( 49-C , 50-S ) :   1.7184
B( 49-C , 51-C ) :   1.0223 B( 51-C , 52-C ) :   1.0618 B( 51-C , 55-C ) :   1.5059
B( 52-C , 53-N ) :   1.2751 B( 53-N , 54-C ) :   1.7133 B( 54-C , 55-C ) :   1.0478
B( 54-C , 93-H ) :   0.9780 B( 55-C , 56-C ) :   1.0739 B( 56-C , 57-O ) :   1.2074
B( 56-C , 58-C ) :   1.4324 B( 57-O , 65-C ) :   1.1686 B( 58-C , 59-C ) :   0.8710
B( 58-C , 64-C ) :   1.2753 B( 59-C , 60-O ) :   2.2078 B( 59-C , 61-N ) :   1.0999
B( 61-N , 62-C ) :   1.0698 B( 61-N , 94-H ) :   0.9137 B( 62-C , 63-O ) :   2.2760
B( 62-C , 64-C ) :   0.8747 B( 64-C , 65-C ) :   1.4152 B( 65-C , 66-C ) :   1.1438
B( 66-C , 67-C ) :   1.8994 B( 66-C , 95-H ) :   0.9524 B( 67-C , 96-H ) :   0.9453
B( 67-C , 97-H ) :   0.9445

-----------------------------------------------------------------------------
         ABSORPTION SPECTRUM VIA TRANSITION ELECTRIC DIPOLE MOMENTS
-----------------------------------------------------------------------------
State   Energy  Wavelength   fosc         T2         TX        TY        TZ
        (cm-1)    (nm)                  (au**2)     (au)      (au)      (au)
-----------------------------------------------------------------------------
   0    9394.5   1064.4   0.074237494   2.60150   0.98057   0.31592   1.24104
   1    9910.0   1009.1   0.063771594   2.11850  -0.00758   0.31224  -1.42160
   2   13215.2    756.7   0.020527729   0.51138  -0.37414   0.60334   0.08589
   3   14018.0    713.4   0.027009847   0.63433   0.70914   0.20265   0.30062
   4   15267.0    655.0   0.021034967   0.45359   0.21503  -0.16965   0.61528
   5   15806.9    632.6   0.000045690   0.00095   0.01296   0.01182  -0.02538
   6   17171.1    582.4   0.061156248   1.17251  -0.74330  -0.06078  -0.78506
   7   17441.4    573.3   0.133908129   2.52755   0.35652  -0.81719  -1.31630
   8   17484.1    571.9   0.181294108   3.41363  -0.27757  -1.40283   1.16989
   9   18163.5    550.6   0.000779062   0.01412   0.05858   0.10092  -0.02244
  10   18698.7    534.8   0.062852455   1.10659   0.41614  -0.40736   0.87606
  11   19396.4    515.6   0.021885916   0.37147   0.24343  -0.48454   0.27825
  12   19999.2    500.0   0.010960848   0.18043  -0.37451   0.18787  -0.06981
  13   23353.5    428.2   0.253037759   3.56704   0.31051   1.84050  -0.28845
  14   23762.8    420.8   0.379073184   5.25172   0.71129  -0.53708  -2.11124
  15   23979.0    417.0   0.012334711   0.16935   0.05534   0.13769   0.38383
  16   24287.0    411.7   0.338762795   4.59195  -0.05166  -0.14820  -2.13713
  17   24567.9    407.0   0.002028472   0.02718  -0.06011  -0.14113  -0.06042
  18   24717.9    404.6   0.141081609   1.87903  -0.21678  -1.22083   0.58448
  19   24896.0    401.7   0.017661423   0.23355   0.10434  -0.02161  -0.47137
  20   25448.1    393.0   0.003657284   0.04731   0.09319  -0.13530  -0.14255
  21   25614.8    390.4   0.000617068   0.00793  -0.03192   0.05838  -0.05919
  22   25725.0    388.7   0.000705584   0.00903   0.07497  -0.03488  -0.04683
  23   25843.3    386.9   0.033206754   0.42301  -0.44302   0.08210   0.46905
  24   26139.3    382.6   0.029405745   0.37035  -0.28114   0.20420   0.49961
  25   26665.2    375.0   0.466894089   5.76433   1.01915   0.05110   2.17326
  26   26805.8    373.1   0.020119143   0.24709  -0.17950  -0.05891  -0.45978
  27   27913.7    358.2   0.225511584   2.65966  -0.66093  -1.31370   0.70500
  28   28030.8    356.7   0.043033235   0.50541  -0.16162  -0.64124   0.26097
  29   28146.1    355.3   0.134716832   1.57572   0.49203   1.03311  -0.51606
  30   28279.4    353.6   0.045038714   0.52431  -0.21895  -0.55513   0.41012
  31   28426.4    351.8   0.006428453   0.07445  -0.18719  -0.08481   0.17949
  32   28514.5    350.7   0.000192180   0.00222  -0.01229   0.03545  -0.02848
  33   28875.5    346.3   0.003120389   0.03558   0.07989  -0.16775  -0.03246
  34   29235.1    342.1   0.006552970   0.07379   0.18304   0.16005   0.12113
  35   29793.4    335.6   0.008670549   0.09581  -0.10280   0.18346  -0.22712
  36   30088.9    332.3   0.013844984   0.15148   0.23788  -0.22234   0.21322
  37   30582.2    327.0   0.055566642   0.59817   0.13071  -0.05066   0.76060
  38   30730.7    325.4   0.011596460   0.12423  -0.08416   0.04123  -0.33978
  39   30990.8    322.7   0.006446333   0.06848  -0.17233   0.13936  -0.13914
  40   31054.8    322.0   0.005113834   0.05421  -0.08481   0.10935  -0.18725
  41   31546.0    317.0   0.001659956   0.01732  -0.07732   0.01633  -0.10526
  42   31624.9    316.2   0.017340662   0.18051  -0.36252   0.21296  -0.06121
  43   31942.7    313.1   0.011461831   0.11813   0.15510   0.06863   0.29894
  44   31977.6    312.7   0.013190708   0.13580   0.27971  -0.03153   0.23784
  45   32151.0    311.0   0.052533585   0.53792   0.53129   0.10565   0.49446
  46   32420.4    308.4   0.046165744   0.46879   0.46365  -0.36314   0.34921
  47   32451.8    308.1   0.030427495   0.30868  -0.01487  -0.42516   0.35734
  48   33120.9    301.9   0.031846237   0.31654  -0.10962  -0.52548   0.16852
  49   33140.7    301.7   0.021285905   0.21145  -0.40396  -0.05194   0.21346
  50   33168.4    301.5   0.007398807   0.07344   0.12599   0.23790  -0.03111
  51   33425.2    299.2   0.048700536   0.47966   0.17338  -0.19957  -0.64014
  52   33675.5    297.0   0.009627901   0.09412   0.04136  -0.26903  -0.14155
  53   34030.3    293.9   0.106377491   1.02910  -0.02188  -0.95981   0.32771
  54   34146.8    292.9   0.002145308   0.02068   0.05947  -0.02555  -0.12843
  55   34367.4    291.0   0.001364921   0.01307  -0.02391  -0.08660  -0.07073
  56   34671.1    288.4   0.188911150   1.79376  -0.96011  -0.46436  -0.81013
  57   34784.4    287.5   0.009307099   0.08809   0.20952   0.13913  -0.15758
  58   34831.1    287.1   0.175864144   1.66221   0.73656   0.75963  -0.73665
  59   34927.5    286.3   0.094470775   0.89044   0.14451   0.55558  -0.74893
  60   35078.9    285.1   0.035723397   0.33526  -0.00565   0.41092  -0.40789
  61   35155.5    284.5   0.018480900   0.17306  -0.20791  -0.36017  -0.01053
  62   35432.2    282.2   0.006944372   0.06452  -0.06258  -0.11790  -0.21611
  63   35506.7    281.6   0.039376545   0.36509   0.13457  -0.29893  -0.50757
  64   35922.2    278.4   0.083142759   0.76197   0.47075  -0.57078  -0.46322
  65   36105.2    277.0   0.257917311   2.35173  -1.11070   1.04240  -0.17744
  66   36121.7    276.8   0.007505994   0.06841   0.04256  -0.25789  -0.00963
  67   36320.7    275.3   0.002479002   0.02247  -0.13890   0.01643   0.05393
  68   36402.9    274.7   0.273125601   2.47003  -1.47977  -0.47055  -0.24269
  69   36619.4    273.1   0.162111825   1.45740  -1.05260   0.23674   0.54166
  70   36812.4    271.6   0.105037403   0.93935   0.40875  -0.54725   0.68760
  71   37145.6    269.2   0.001766279   0.01565  -0.00740   0.01711  -0.12372
  72   37235.3    268.6   0.017929663   0.15852   0.16433  -0.17063   0.32001
  73   37371.7    267.6   0.001827560   0.01610  -0.03517   0.11882  -0.02729
  74   37554.2    266.3   0.010794658   0.09463   0.13988   0.27109  -0.03968
  75   37969.2    263.4   0.028137614   0.24397   0.21171  -0.29131   0.33805
  76   38217.4    261.7   0.042300744   0.36439   0.36351   0.45966  -0.14478
  77   38465.9    260.0   0.058094660   0.49721   0.48695  -0.36729   0.35382
  78   38484.3    259.8   0.000597265   0.00511  -0.01546  -0.05622  -0.04135
  79   38526.8    259.6   0.126584876   1.08167   0.27198  -0.90739   0.42934
  80   38640.3    258.8   0.229011676   1.95116   0.60416  -0.93986   0.83834
  81   39029.5    256.2   0.033616973   0.28356  -0.19470   0.41778  -0.26667
  82   39122.5    255.6   0.013531270   0.11386  -0.20931   0.19980   0.17358
  83   39208.7    255.0   0.000829222   0.00696  -0.00755   0.02079   0.08046
  84   39610.8    252.5   0.001385285   0.01151  -0.05193   0.01777  -0.09220
  85   39723.7    251.7   0.139219560   1.15379   0.69960  -0.75113  -0.31646
  86   39797.3    251.3   0.433607778   3.58690  -1.52200   0.94111  -0.62026
  87   40171.3    248.9   0.002009913   0.01647  -0.01746   0.11849   0.04611
  88   40243.5    248.5   0.084362315   0.69013  -0.57481   0.59189   0.09690

FINAL SINGLE POINT ENERGY     -3681.281600091001

DIPOLE MOMENT
-------------
                                X             Y             Z
Electronic contribution:     27.09271       6.80557     -44.69396
Nuclear contribution   :    -27.37648      -7.14440      45.89254
                        -----------------------------------------
Total Dipole Moment    :     -0.28377      -0.33884       1.19858
                        -----------------------------------------
Magnitude (a.u.)       :      1.27747
Magnitude (Debye)      :      3.24706

Rotational constants in cm-1:     0.001043     0.000453     0.000406
Rotational constants in MHz :    31.264201    13.584345    12.180129

                             ****ORCA TERMINATED NORMALLY****
TOTAL RUN TIME: 0 days 0 hours 9 minutes 2 seconds 942 msec
