                         Program Version 4.2.0 -  RELEASE  -
|  1> # ORCA input file
|  2> # SCF done       -146.075509976751          0.000956662382
|  3> ! CAM-B3LYP def2-SVP def2/J RIJCOSX Grid4 TightSCF
|  4> %maxcore 5000
|  5> %tddft
|  6>     Mode sTDDFT
|  7>     Ethresh 5.0
|  8>     maxcore 5000
|  9> end
| 10>
| 11> %pal
| 12>   nprocs 6
| 13>   end
| 14> * xyz 0 1
| 15>    C        3.44143        -1.51685        -1.55739
| 16>    C        2.39295        -1.39652        -0.44880
| 17>    C        2.62726        -0.17521         0.38541
| 18>    C        3.39166        -0.24036         1.55543
| 19>    C        3.52847         0.95558         2.22971
| 20>    C        4.22358         1.25558         3.43143
| 21>    C        4.92570         0.35128         4.15572
| 22>    C        5.62582         0.62577         5.35929
| 23>    C        5.75920         1.81077         6.05771
| 24>    C        6.53788         1.65072         7.20410
| 25>    N        6.98587         2.44207         8.22909
| 26>    C        7.73437         1.65882         9.06843
| 27>    C        8.45094         1.83098        10.25143
| 28>    C        9.03689         0.65001        10.66936
| 29>    C        9.84217         0.40379        11.80952
| 30>    C       10.17816         1.34217        12.72831
| 31>    C       10.98591         1.10739        13.86675
| 32>    S       11.65552        -0.46212        14.20090
| 33>    C       12.42992         0.07635        15.62059
| 34>    C       12.20383         1.41427        15.86336
| 35>    C       12.69180         2.18280        16.94573
| 36>    C       12.36769         3.50468        17.03245
| 37>    C       11.55451         4.11196        16.05972
| 38>    C       11.05864         3.39794        14.98846
| 39>    C       10.25148         4.09547        14.06566
| 40>    N        9.60308         4.72370        13.35550
| 41>    C       11.37199         2.01627        14.85739
| 42>    S        8.69506        -0.69527         9.58191
| 43>    C        7.76441         0.33794         8.56752
| 44>    C        7.01076         0.33340         7.39407
| 45>    S        6.47798        -0.71001         6.13325
| 46>    S        2.67118         2.20831         1.38320
| 47>    C        2.15518         1.10606         0.12636
| 48>    C        1.34778         1.66273        -0.90345
| 49>    C        0.96129         1.08096        -2.06357
| 50>    C        0.12825         1.69110        -3.04087
| 51>    C       -0.47550         2.93278        -3.05588
| 52>    C       -1.22763         3.12741        -4.21653
| 53>    N       -2.01125         4.11864        -4.74889
| 54>    C       -2.49000         3.67319        -5.95385
| 55>    C       -3.32139         4.16114        -6.96593
| 56>    C       -3.47221         3.24580        -7.98700
| 57>    C       -4.24985         3.34854        -9.17450
| 58>    S       -4.82695         1.90694        -9.94403
| 59>    C       -5.64320         2.77945       -11.16148
| 60>    C       -5.48578         4.13617       -11.01015
| 61>    C       -6.01095         5.17392       -11.83718
| 62>    C       -6.82468         4.83852       -12.93784
| 63>    N       -7.48737         4.56441       -13.83345
| 64>    C       -5.70762         6.48309       -11.55145
| 65>    C       -4.87171         6.80572       -10.46764
| 66>    C       -4.36164         5.83801        -9.64675
| 67>    C       -4.67398         4.48239        -9.87544
| 68>    S       -2.58145         1.75145        -7.69247
| 69>    C       -2.00073         2.37369        -6.19578
| 70>    C       -1.20547         2.02947        -5.10193
| 71>    S       -0.23721         0.74780        -4.48550
| 72>    H        3.24239        -2.39100        -2.17298
| 73>    H        4.43379        -1.61679        -1.12339
| 74>    H        3.43844        -0.63417        -2.19276
| 75>    H        2.46122        -2.27472         0.19716
| 76>    H        1.38915        -1.37610        -0.87502
| 77>    H        3.83206        -1.15736         1.90490
| 78>    H        4.16974         2.28274         3.76330
| 79>    H        4.97668        -0.67354         3.81619
| 80>    H        5.31239         2.73611         5.74530
| 81>    H        6.80095         3.42272         8.34718
| 82>    H        8.54499         2.76013        10.78217
| 83>    H       10.20109        -0.61041        11.93132
| 84>    H        9.81800         2.35150        12.60805
| 85>    H       13.01043        -0.60722        16.20676
| 86>    H       13.31499         1.70592        17.68688
| 87>    H       12.73241         4.10456        17.85236
| 88>    H       11.31076         5.16039        16.15035
| 89>    H        1.03406         2.68144        -0.71444
| 90>    H        1.28837         0.08583        -2.31546
| 91>    H       -0.37429         3.65232        -2.26492
| 92>    H       -2.20626         5.00932        -4.32658
| 93>    H       -3.82864         5.10690        -6.93415
| 94>    H       -6.19398         2.26269       -11.92173
| 95>    H       -6.10184         7.27153       -12.17550
| 96>    H       -4.62831         7.84290       -10.29324
| 97>    H       -3.69893         6.10463        -8.83941
| 98> *
| 99>
|100>                          ****END OF INPUT****

CARTESIAN COORDINATES (ANGSTROEM)
---------------------------------
  C      3.441430   -1.516850   -1.557390
  C      2.392950   -1.396520   -0.448800
  C      2.627260   -0.175210    0.385410
  C      3.391660   -0.240360    1.555430
  C      3.528470    0.955580    2.229710
  C      4.223580    1.255580    3.431430
  C      4.925700    0.351280    4.155720
  C      5.625820    0.625770    5.359290
  C      5.759200    1.810770    6.057710
  C      6.537880    1.650720    7.204100
  N      6.985870    2.442070    8.229090
  C      7.734370    1.658820    9.068430
  C      8.450940    1.830980   10.251430
  C      9.036890    0.650010   10.669360
  C      9.842170    0.403790   11.809520
  C     10.178160    1.342170   12.728310
  C     10.985910    1.107390   13.866750
  S     11.655520   -0.462120   14.200900
  C     12.429920    0.076350   15.620590
  C     12.203830    1.414270   15.863360
  C     12.691800    2.182800   16.945730
  C     12.367690    3.504680   17.032450
  C     11.554510    4.111960   16.059720
  C     11.058640    3.397940   14.988460
  C     10.251480    4.095470   14.065660
  N      9.603080    4.723700   13.355500
  C     11.371990    2.016270   14.857390
  S      8.695060   -0.695270    9.581910
  C      7.764410    0.337940    8.567520
  C      7.010760    0.333400    7.394070
  S      6.477980   -0.710010    6.133250
  S      2.671180    2.208310    1.383200
  C      2.155180    1.106060    0.126360
  C      1.347780    1.662730   -0.903450
  C      0.961290    1.080960   -2.063570
  C      0.128250    1.691100   -3.040870
  C     -0.475500    2.932780   -3.055880
  C     -1.227630    3.127410   -4.216530
  N     -2.011250    4.118640   -4.748890
  C     -2.490000    3.673190   -5.953850
  C     -3.321390    4.161140   -6.965930
  C     -3.472210    3.245800   -7.987000
  C     -4.249850    3.348540   -9.174500
  S     -4.826950    1.906940   -9.944030
  C     -5.643200    2.779450  -11.161480
  C     -5.485780    4.136170  -11.010150
  C     -6.010950    5.173920  -11.837180
  C     -6.824680    4.838520  -12.937840
  N     -7.487370    4.564410  -13.833450
  C     -5.707620    6.483090  -11.551450
  C     -4.871710    6.805720  -10.467640
  C     -4.361640    5.838010   -9.646750
  C     -4.673980    4.482390   -9.875440
  S     -2.581450    1.751450   -7.692470
  C     -2.000730    2.373690   -6.195780
  C     -1.205470    2.029470   -5.101930
  S     -0.237210    0.747800   -4.485500
  H      3.242390   -2.391000   -2.172980
  H      4.433790   -1.616790   -1.123390
  H      3.438440   -0.634170   -2.192760
  H      2.461220   -2.274720    0.197160
  H      1.389150   -1.376100   -0.875020
  H      3.832060   -1.157360    1.904900
  H      4.169740    2.282740    3.763300
  H      4.976680   -0.673540    3.816190
  H      5.312390    2.736110    5.745300
  H      6.800950    3.422720    8.347180
  H      8.544990    2.760130   10.782170
  H     10.201090   -0.610410   11.931320
  H      9.818000    2.351500   12.608050
  H     13.010430   -0.607220   16.206760
  H     13.314990    1.705920   17.686880
  H     12.732410    4.104560   17.852360
  H     11.310760    5.160390   16.150350
  H      1.034060    2.681440   -0.714440
  H      1.288370    0.085830   -2.315460
  H     -0.374290    3.652320   -2.264920
  H     -2.206260    5.009320   -4.326580
  H     -3.828640    5.106900   -6.934150
  H     -6.193980    2.262690  -11.921730
  H     -6.101840    7.271530  -12.175500
  H     -4.628310    7.842900  -10.293240
  H     -3.698930    6.104630   -8.839410

 Total Charge           Charge          ....    0
 Multiplicity           Mult            ....    1
 Number of Electrons    NEL             ....  442
 Basis Dimension        Dim             ....  956

ORBITAL ENERGIES
----------------

  NO   OCC          E(Eh)            E(eV)
   0   2.0000     -88.969976     -2420.9961
   1   2.0000     -88.969221     -2420.9756
   2   2.0000     -88.953449     -2420.5464
   3   2.0000     -88.948346     -2420.4075
   4   2.0000     -88.946774     -2420.3648
   5   2.0000     -88.946648     -2420.3613
   6   2.0000     -88.943228     -2420.2683
   7   2.0000     -14.462264      -393.5382
   8   2.0000     -14.456925      -393.3929
   9   2.0000     -14.405195      -391.9853
  10   2.0000     -14.397018      -391.7628
  11   2.0000     -10.312498      -280.6173
  12   2.0000     -10.311428      -280.5882
  13   2.0000     -10.308435      -280.5068
  14   2.0000     -10.307084      -280.4700
  15   2.0000     -10.306848      -280.4636
  16   2.0000     -10.306718      -280.4601
  17   2.0000     -10.306483      -280.4537
  18   2.0000     -10.306120      -280.4438
  19   2.0000     -10.303289      -280.3667
  20   2.0000     -10.302184      -280.3367
  21   2.0000     -10.298685      -280.2415
  22   2.0000     -10.297929      -280.2209
  23   2.0000     -10.296438      -280.1803
  24   2.0000     -10.295883      -280.1652
  25   2.0000     -10.294658      -280.1319
  26   2.0000     -10.294339      -280.1232
  27   2.0000     -10.293596      -280.1030
  28   2.0000     -10.293076      -280.0888
  29   2.0000     -10.292377      -280.0698
  30   2.0000     -10.291212      -280.0381
  31   2.0000     -10.290442      -280.0172
  32   2.0000     -10.290149      -280.0092
  33   2.0000     -10.290095      -280.0077
  34   2.0000     -10.289400      -279.9888
  35   2.0000     -10.287780      -279.9447
  36   2.0000     -10.287713      -279.9429
  37   2.0000     -10.287328      -279.9324
  38   2.0000     -10.286325      -279.9051
  39   2.0000     -10.286024      -279.8969
  40   2.0000     -10.285631      -279.8862
  41   2.0000     -10.282288      -279.7953
  42   2.0000     -10.282031      -279.7883
  43   2.0000     -10.279896      -279.7302
  44   2.0000     -10.279762      -279.7266
  45   2.0000     -10.278273      -279.6860
  46   2.0000     -10.277462      -279.6640
  47   2.0000     -10.275739      -279.6171
  48   2.0000     -10.274986      -279.5966
  49   2.0000     -10.274304      -279.5780
  50   2.0000     -10.273535      -279.5571
  51   2.0000     -10.272645      -279.5329
  52   2.0000     -10.270603      -279.4773
  53   2.0000     -10.270526      -279.4752
  54   2.0000     -10.266175      -279.3568
  55   2.0000     -10.261311      -279.2245
  56   2.0000     -10.254522      -279.0397
  57   2.0000      -8.065248      -219.4666
  58   2.0000      -8.064478      -219.4456
  59   2.0000      -8.048408      -219.0083
  60   2.0000      -8.043321      -218.8699
  61   2.0000      -8.041744      -218.8270
  62   2.0000      -8.041534      -218.8213
  63   2.0000      -8.039174      -218.7570
  64   2.0000      -6.034194      -164.1988
  65   2.0000      -6.033358      -164.1760
  66   2.0000      -6.029844      -164.0804
  67   2.0000      -6.029139      -164.0612
  68   2.0000      -6.028361      -164.0400
  69   2.0000      -6.027615      -164.0197
  70   2.0000      -6.018178      -163.7629
  71   2.0000      -6.014027      -163.6500
  72   2.0000      -6.012968      -163.6212
  73   2.0000      -6.011366      -163.5776
  74   2.0000      -6.011180      -163.5725
  75   2.0000      -6.009677      -163.5316
  76   2.0000      -6.008941      -163.5116
  77   2.0000      -6.008315      -163.4946
  78   2.0000      -6.007367      -163.4688
  79   2.0000      -6.007157      -163.4631
  80   2.0000      -6.004740      -163.3973
  81   2.0000      -6.004465      -163.3898
  82   2.0000      -6.003175      -163.3547
  83   2.0000      -6.003009      -163.3502
  84   2.0000      -6.001304      -163.3038
  85   2.0000      -1.081236       -29.4219
  86   2.0000      -1.076842       -29.3024
  87   2.0000      -1.005119       -27.3507
  88   2.0000      -1.004390       -27.3308
  89   2.0000      -0.987623       -26.8746
  90   2.0000      -0.982210       -26.7273
  91   2.0000      -0.976540       -26.5730
  92   2.0000      -0.966817       -26.3084
  93   2.0000      -0.964943       -26.2574
  94   2.0000      -0.962627       -26.1944
  95   2.0000      -0.960064       -26.1247
  96   2.0000      -0.941008       -25.6061
  97   2.0000      -0.935937       -25.4681
  98   2.0000      -0.901797       -24.5392
  99   2.0000      -0.897691       -24.4274
 100   2.0000      -0.885939       -24.1076
 101   2.0000      -0.879203       -23.9243
 102   2.0000      -0.874476       -23.7957
 103   2.0000      -0.868319       -23.6281
 104   2.0000      -0.857936       -23.3456
 105   2.0000      -0.845454       -23.0060
 106   2.0000      -0.840388       -22.8681
 107   2.0000      -0.836513       -22.7627
 108   2.0000      -0.830952       -22.6114
 109   2.0000      -0.829107       -22.5612
 110   2.0000      -0.820288       -22.3212
 111   2.0000      -0.813059       -22.1245
 112   2.0000      -0.808917       -22.0118
 113   2.0000      -0.805953       -21.9311
 114   2.0000      -0.802257       -21.8305
 115   2.0000      -0.792799       -21.5732
 116   2.0000      -0.766830       -20.8665
 117   2.0000      -0.751389       -20.4463
 118   2.0000      -0.738096       -20.0846
 119   2.0000      -0.735058       -20.0019
 120   2.0000      -0.729926       -19.8623
 121   2.0000      -0.718977       -19.5644
 122   2.0000      -0.707406       -19.2495
 123   2.0000      -0.696613       -18.9558
 124   2.0000      -0.685652       -18.6575
 125   2.0000      -0.682342       -18.5675
 126   2.0000      -0.681341       -18.5402
 127   2.0000      -0.671431       -18.2706
 128   2.0000      -0.666394       -18.1335
 129   2.0000      -0.661034       -17.9876
 130   2.0000      -0.657613       -17.8946
 131   2.0000      -0.645036       -17.5523
 132   2.0000      -0.636005       -17.3066
 133   2.0000      -0.634071       -17.2540
 134   2.0000      -0.625347       -17.0165
 135   2.0000      -0.617728       -16.8092
 136   2.0000      -0.614403       -16.7188
 137   2.0000      -0.606977       -16.5167
 138   2.0000      -0.603419       -16.4199
 139   2.0000      -0.596201       -16.2234
 140   2.0000      -0.593069       -16.1382
 141   2.0000      -0.584194       -15.8967
 142   2.0000      -0.582908       -15.8617
 143   2.0000      -0.576309       -15.6822
 144   2.0000      -0.571920       -15.5627
 145   2.0000      -0.566252       -15.4085
 146   2.0000      -0.563258       -15.3270
 147   2.0000      -0.556737       -15.1496
 148   2.0000      -0.549215       -14.9449
 149   2.0000      -0.546093       -14.8599
 150   2.0000      -0.537732       -14.6324
 151   2.0000      -0.533771       -14.5247
 152   2.0000      -0.531151       -14.4534
 153   2.0000      -0.527535       -14.3550
 154   2.0000      -0.526716       -14.3327
 155   2.0000      -0.522847       -14.2274
 156   2.0000      -0.520022       -14.1505
 157   2.0000      -0.514929       -14.0119
 158   2.0000      -0.512292       -13.9402
 159   2.0000      -0.509099       -13.8533
 160   2.0000      -0.507690       -13.8150
 161   2.0000      -0.504659       -13.7325
 162   2.0000      -0.495968       -13.4960
 163   2.0000      -0.489814       -13.3285
 164   2.0000      -0.488389       -13.2898
 165   2.0000      -0.484680       -13.1888
 166   2.0000      -0.480427       -13.0731
 167   2.0000      -0.477019       -12.9804
 168   2.0000      -0.470355       -12.7990
 169   2.0000      -0.467930       -12.7330
 170   2.0000      -0.464013       -12.6264
 171   2.0000      -0.462387       -12.5822
 172   2.0000      -0.460054       -12.5187
 173   2.0000      -0.457885       -12.4597
 174   2.0000      -0.455847       -12.4042
 175   2.0000      -0.454722       -12.3736
 176   2.0000      -0.453072       -12.3287
 177   2.0000      -0.451610       -12.2889
 178   2.0000      -0.450141       -12.2490
 179   2.0000      -0.448412       -12.2019
 180   2.0000      -0.446457       -12.1487
 181   2.0000      -0.441808       -12.0222
 182   2.0000      -0.440317       -11.9816
 183   2.0000      -0.439351       -11.9554
 184   2.0000      -0.434504       -11.8234
 185   2.0000      -0.433768       -11.8034
 186   2.0000      -0.432010       -11.7556
 187   2.0000      -0.431353       -11.7377
 188   2.0000      -0.424302       -11.5458
 189   2.0000      -0.423620       -11.5273
 190   2.0000      -0.421689       -11.4747
 191   2.0000      -0.420184       -11.4338
 192   2.0000      -0.417907       -11.3718
 193   2.0000      -0.415548       -11.3076
 194   2.0000      -0.411562       -11.1992
 195   2.0000      -0.409810       -11.1515
 196   2.0000      -0.408073       -11.1042
 197   2.0000      -0.407560       -11.0903
 198   2.0000      -0.406751       -11.0683
 199   2.0000      -0.400906       -10.9092
 200   2.0000      -0.397069       -10.8048
 201   2.0000      -0.396512       -10.7896
 202   2.0000      -0.395644       -10.7660
 203   2.0000      -0.386266       -10.5108
 204   2.0000      -0.374755       -10.1976
 205   2.0000      -0.362710        -9.8698
 206   2.0000      -0.351541        -9.5659
 207   2.0000      -0.336387        -9.1535
 208   2.0000      -0.325873        -8.8675
 209   2.0000      -0.323298        -8.7974
 210   2.0000      -0.320795        -8.7293
 211   2.0000      -0.320675        -8.7260
 212   2.0000      -0.317472        -8.6388
 213   2.0000      -0.307855        -8.3772
 214   2.0000      -0.292516        -7.9598
 215   2.0000      -0.277143        -7.5414
 216   2.0000      -0.272306        -7.4098
 217   2.0000      -0.269840        -7.3427
 218   2.0000      -0.250112        -6.8059
 219   2.0000      -0.223762        -6.0889
 220   2.0000      -0.204891        -5.5754
 221   0.0000      -0.064927        -1.7667
 222   0.0000      -0.057123        -1.5544
 223   0.0000      -0.042140        -1.1467
 224   0.0000      -0.018829        -0.5124
 225   0.0000      -0.001711        -0.0466

MULLIKEN ATOMIC CHARGES
-----------------------
   0 C :    0.024488
   1 C :    0.061826
   2 C :   -0.033402
   3 C :   -0.041988
   4 C :   -0.057483
   5 C :    0.054883
   6 C :    0.048707
   7 C :   -0.080072
   8 C :   -0.068117
   9 C :    0.117542
  10 N :   -0.017559
  11 C :    0.118900
  12 C :   -0.078171
  13 C :   -0.086724
  14 C :    0.048749
  15 C :   -0.022306
  16 C :   -0.144150
  17 S :    0.153212
  18 C :   -0.125651
  19 C :    0.073463
  20 C :    0.024350
  21 C :    0.016209
  22 C :    0.019384
  23 C :   -0.110550
  24 C :   -0.176526
  25 N :    0.082014
  26 C :    0.182004
  27 S :    0.129032
  28 C :   -0.120950
  29 C :   -0.125025
  30 S :    0.127965
  31 S :    0.101391
  32 C :   -0.124146
  33 C :    0.058952
  34 C :    0.037131
  35 C :   -0.083572
  36 C :   -0.074097
  37 C :    0.117566
  38 N :   -0.019626
  39 C :    0.114688
  40 C :   -0.074791
  41 C :   -0.085919
  42 C :   -0.126969
  43 S :    0.178163
  44 C :   -0.143122
  45 C :    0.107681
  46 C :   -0.077295
  47 C :   -0.190759
  48 N :    0.106011
  49 C :    0.024172
  50 C :    0.016104
  51 C :   -0.008594
  52 C :    0.105525
  53 S :    0.132359
  54 C :   -0.120616
  55 C :   -0.124231
  56 S :    0.126978
  57 H :    0.016596
  58 H :    0.008488
  59 H :    0.021334
  60 H :   -0.001245
  61 H :    0.014184
  62 H :   -0.032214
  63 H :   -0.027046
  64 H :   -0.021557
  65 H :   -0.031234
  66 H :    0.124258
  67 H :   -0.010294
  68 H :   -0.018273
  69 H :    0.001157
  70 H :    0.019189
  71 H :   -0.018356
  72 H :   -0.006090
  73 H :   -0.005130
  74 H :   -0.027749
  75 H :   -0.030053
  76 H :   -0.029914
  77 H :    0.121689
  78 H :   -0.025475
  79 H :    0.034145
  80 H :   -0.008402
  81 H :   -0.010254
  82 H :   -0.024794
Sum of atomic charges:   -0.0000000

LOEWDIN ATOMIC CHARGES
----------------------
   0 C :   -0.050897
   1 C :   -0.029737
   2 C :   -0.044963
   3 C :   -0.061524
   4 C :   -0.167074
   5 C :   -0.045844
   6 C :   -0.038220
   7 C :   -0.159863
   8 C :   -0.076134
   9 C :   -0.015392
  10 N :    0.058788
  11 C :   -0.015541
  12 C :   -0.068615
  13 C :   -0.162821
  14 C :   -0.042836
  15 C :   -0.049286
  16 C :   -0.171237
  17 S :    0.491347
  18 C :   -0.197647
  19 C :   -0.053367
  20 C :    0.011770
  21 C :   -0.035945
  22 C :    0.014960
  23 C :   -0.067870
  24 C :   -0.019392
  25 N :   -0.076108
  26 C :   -0.040062
  27 S :    0.407654
  28 C :   -0.224620
  29 C :   -0.226164
  30 S :    0.408716
  31 S :    0.419202
  32 C :   -0.178071
  33 C :   -0.039846
  34 C :   -0.055355
  35 C :   -0.153309
  36 C :   -0.082235
  37 C :   -0.015208
  38 N :    0.058447
  39 C :   -0.022639
  40 C :   -0.076292
  41 C :   -0.179714
  42 C :   -0.192888
  43 S :    0.496085
  44 C :   -0.201294
  45 C :   -0.036998
  46 C :   -0.067436
  47 C :   -0.027118
  48 N :   -0.062847
  49 C :    0.014101
  50 C :   -0.036368
  51 C :    0.004682
  52 C :   -0.051719
  53 S :    0.404394
  54 C :   -0.222618
  55 C :   -0.228793
  56 S :    0.408774
  57 H :    0.024255
  58 H :    0.025468
  59 H :    0.023895
  60 H :    0.029000
  61 H :    0.026762
  62 H :    0.023967
  63 H :    0.024306
  64 H :    0.026289
  65 H :    0.027667
  66 H :    0.092743
  67 H :    0.035128
  68 H :    0.019092
  69 H :    0.037299
  70 H :    0.024402
  71 H :    0.033303
  72 H :    0.033099
  73 H :    0.039438
  74 H :    0.023824
  75 H :    0.024802
  76 H :    0.027363
  77 H :    0.091155
  78 H :    0.028736
  79 H :    0.030673
  80 H :    0.038971
  81 H :    0.031668
  82 H :    0.029678

  Mayer bond orders larger than 0.100000
B(  0-C ,  1-C ) :   1.0996 B(  0-C , 57-H ) :   0.9692 B(  0-C , 58-H ) :   0.9634
B(  0-C , 59-H ) :   0.9694 B(  1-C ,  2-C ) :   1.0634 B(  1-C , 60-H ) :   0.9234
B(  1-C , 61-H ) :   0.9231 B(  2-C ,  3-C ) :   1.2972 B(  2-C , 32-C ) :   1.4890
B(  3-C ,  4-C ) :   1.4724 B(  3-C , 62-H ) :   0.9935 B(  4-C ,  5-C ) :   1.1206
B(  4-C , 31-S ) :   1.1220 B(  5-C ,  6-C ) :   1.6994 B(  5-C , 63-H ) :   0.9620
B(  6-C ,  7-C ) :   1.1343 B(  6-C , 64-H ) :   0.9584 B(  7-C ,  8-C ) :   1.4788
B(  7-C , 30-S ) :   1.0914 B(  8-C ,  9-C ) :   1.2304 B(  8-C , 65-H ) :   1.0084
B(  9-C , 10-N ) :   1.1622 B(  9-C , 29-C ) :   1.4019 B( 10-N , 11-C ) :   1.1634
B( 10-N , 66-H ) :   0.9351 B( 11-C , 12-C ) :   1.2270 B( 11-C , 28-C ) :   1.3991
B( 12-C , 13-C ) :   1.4776 B( 12-C , 67-H ) :   1.0082 B( 13-C , 14-C ) :   1.1375
B( 13-C , 27-S ) :   1.0833 B( 14-C , 15-C ) :   1.6625 B( 14-C , 68-H ) :   0.9618
B( 15-C , 16-C ) :   1.1780 B( 15-C , 69-H ) :   0.9562 B( 16-C , 17-S ) :   1.1502
B( 16-C , 18-C ) :   0.1053 B( 16-C , 26-C ) :   1.3637 B( 17-S , 18-C ) :   1.1978
B( 18-C , 19-C ) :   1.4210 B( 18-C , 70-H ) :   0.9697 B( 19-C , 20-C ) :   1.1770
B( 19-C , 26-C ) :   1.1805 B( 20-C , 21-C ) :   1.5436 B( 20-C , 71-H ) :   1.0007
B( 21-C , 22-C ) :   1.1930 B( 21-C , 72-H ) :   0.9867 B( 22-C , 23-C ) :   1.5656
B( 22-C , 73-H ) :   0.9910 B( 23-C , 24-C ) :   1.0878 B( 23-C , 26-C ) :   1.2009
B( 24-C , 25-N ) :   2.9836 B( 27-S , 28-C ) :   1.0377 B( 28-C , 29-C ) :   1.3886
B( 29-C , 30-S ) :   1.0341 B( 31-S , 32-C ) :   1.1033 B( 32-C , 33-C ) :   1.1435
B( 33-C , 34-C ) :   1.6911 B( 33-C , 74-H ) :   0.9431 B( 34-C , 35-C ) :   1.1356
B( 34-C , 75-H ) :   0.9513 B( 35-C , 36-C ) :   1.4868 B( 35-C , 56-S ) :   1.0961
B( 36-C , 37-C ) :   1.2231 B( 36-C , 76-H ) :   1.0068 B( 37-C , 38-N ) :   1.1637
B( 37-C , 55-C ) :   1.4079 B( 38-N , 39-C ) :   1.1589 B( 38-N , 77-H ) :   0.9360
B( 39-C , 40-C ) :   1.2186 B( 39-C , 54-C ) :   1.4127 B( 40-C , 41-C ) :   1.4962
B( 40-C , 78-H ) :   1.0079 B( 41-C , 42-C ) :   1.1171 B( 41-C , 53-S ) :   1.0908
B( 42-C , 43-S ) :   1.2006 B( 42-C , 44-C ) :   0.1169 B( 42-C , 52-C ) :   1.3777
B( 43-S , 44-C ) :   1.1759 B( 44-C , 45-C ) :   1.4666 B( 44-C , 79-H ) :   0.9504
B( 45-C , 46-C ) :   1.1794 B( 45-C , 52-C ) :   1.1852 B( 46-C , 47-C ) :   1.0760
B( 46-C , 49-C ) :   1.5667 B( 47-C , 48-N ) :   3.0380 B( 49-C , 50-C ) :   1.1943
B( 49-C , 80-H ) :   0.9945 B( 50-C , 51-C ) :   1.5346 B( 50-C , 81-H ) :   0.9838
B( 51-C , 52-C ) :   1.2057 B( 51-C , 82-H ) :   0.9909 B( 53-S , 54-C ) :   1.0338
B( 54-C , 55-C ) :   1.3838 B( 55-C , 56-S ) :   1.0321

-----------------------------------------------------------------------------
         ABSORPTION SPECTRUM VIA TRANSITION ELECTRIC DIPOLE MOMENTS
-----------------------------------------------------------------------------
State   Energy  Wavelength   fosc         T2         TX        TY        TZ
        (cm-1)    (nm)                  (au**2)     (au)      (au)      (au)
-----------------------------------------------------------------------------
   0   17244.0    579.9   3.473354269  66.31127   4.45694  -0.54078   6.79371
   1   19750.7    506.3   0.325106529   5.41899  -1.27186   0.73912  -1.80418
   2   22355.1    447.3   0.167800239   2.47110  -0.82101  -0.04537  -1.33977
   3   24677.7    405.2   0.013265756   0.17697  -0.08061   0.41273   0.01122
   4   26651.2    375.2   0.060767991   0.75064  -0.04549   0.84574   0.18248
   5   27139.3    368.5   0.207860747   2.52144  -0.89419   0.03133  -1.31183
   6   29495.4    339.0   0.035892389   0.40061  -0.15123  -0.37560  -0.48649
   7   29956.6    333.8   0.139246408   1.53027  -0.65323   0.39589  -0.97305
   8   30225.1    330.9   0.041956004   0.45699   0.38832   0.06704   0.54927
   9   30643.4    326.3   0.092358361   0.99224  -0.26797   0.95525   0.08901
  10   31242.0    320.1   0.046626176   0.49132  -0.10961  -0.31595  -0.61602
  11   31967.2    312.8   0.043336713   0.44630  -0.30929   0.57445  -0.14368
  12   33106.6    302.1   0.024674383   0.24536   0.28649  -0.00075   0.40409
  13   34312.5    291.4   0.122682353   1.17708  -0.53899  -0.03661  -0.94086
  14   34662.2    288.5   0.014838870   0.14094   0.12581  -0.35354   0.01091
  15   35088.0    285.0   0.025422283   0.23852  -0.23874  -0.03126  -0.42491
  16   36034.7    277.5   0.024968831   0.22811   0.26714   0.13132   0.37350
  17   36223.5    276.1   0.040347866   0.36670  -0.02287   0.49506   0.34798
  18   37172.6    269.0   0.045361019   0.40173   0.22791  -0.54786   0.22279
  19   37348.4    267.7   0.029405567   0.25920  -0.30047   0.11876  -0.39346
  20   38127.3    262.3   0.009429603   0.08142   0.00286  -0.26918  -0.09461
  21   39134.0    255.5   0.013614130   0.11453  -0.12943   0.30919  -0.04670
  22   39815.1    251.2   0.037878762   0.31320  -0.11514   0.41461  -0.35782
  23   39915.9    250.5   0.036916279   0.30447  -0.14370   0.52185  -0.10723

FINAL SINGLE POINT ENERGY     -4771.428892984232

DIPOLE MOMENT
-------------
                                X             Y             Z
Electronic contribution:    -10.02043      -2.09623     -10.09835
Nuclear contribution   :     11.87788       3.02434      13.42360
                        -----------------------------------------
Total Dipole Moment    :      1.85745       0.92810       3.32525
                        -----------------------------------------
Magnitude (a.u.)       :      3.92030
Magnitude (Debye)      :      9.96461

Rotational constants in cm-1:     0.006058     0.000157     0.000153
Rotational constants in MHz :   181.604835     4.703304     4.590295

                             ****ORCA TERMINATED NORMALLY****
TOTAL RUN TIME: 0 days 0 hours 8 minutes 49 seconds 500 msec
