                         Program Version 4.2.0 -  RELEASE  -
|  1> # ORCA input file
|  2> # SCF done       -179.210351106971          0.000693288665
|  3> ! CAM-B3LYP def2-SVP def2/J RIJCOSX Grid4 TightSCF
|  4> %maxcore 5000
|  5> %tddft
|  6>     Mode sTDDFT
|  7>     Ethresh 5.0
|  8>     maxcore 5000
|  9> end
| 10>
| 11> %pal
| 12>   nprocs 6
| 13>   end
| 14> * xyz 0 1
| 15>    C       -1.59339         2.75809         4.64872
| 16>    S       -2.21515         1.27617         5.19353
| 17>    C       -3.05378         2.01771         6.52220
| 18>    C       -2.84256         3.41138         6.51347
| 19>    C       -1.99042         3.81872         5.44019
| 20>    C       -1.66449         5.19620         5.28750
| 21>    C       -0.81415         5.59396         4.23543
| 22>    N       -0.11452         5.90391         3.38056
| 23>    C       -2.18680         6.10967         6.17595
| 24>    C       -3.02309         5.69323         7.22443
| 25>    C       -3.34981         4.37362         7.40473
| 26>    C       -3.89942         1.30083         7.39768
| 27>    N       -4.74579         1.95726         8.19340
| 28>    C       -5.52864         1.02512         8.75778
| 29>    C       -5.17703        -0.31823         8.28491
| 30>    C       -6.04891        -1.33360         8.90157
| 31>    O       -6.04941        -2.53234         8.72558
| 32>    C       -6.91281        -0.51769         9.77466
| 33>    C       -6.56679         0.91023         9.65627
| 34>    N       -7.33635         1.66169        10.47766
| 35>    C       -8.11837         0.80247        11.09278
| 36>    C       -7.89941        -0.57228        10.71059
| 37>    C       -4.09448        -0.16897         7.46374
| 38>    C       -3.32189        -1.20307         6.84120
| 39>    C       -1.97641        -1.19080         6.76753
| 40>    C       -1.13401        -2.17107         6.13192
| 41>    C        0.23434        -2.02640         6.23987
| 42>    C        1.10319        -2.90394         5.56568
| 43>    C        2.49295        -2.95694         5.48752
| 44>    C        3.52844        -2.09420         6.12394
| 45>    C        3.77013        -0.81951         5.28491
| 46>    N        2.58668         0.02302         5.25665
| 47>    C        3.21865        -1.73910         7.58841
| 48>    N        4.46930        -1.63499         8.32514
| 49>    C        2.81295        -4.03048         4.57722
| 50>    C        4.00244        -4.46005         4.11547
| 51>    C        4.08687        -5.54890         3.09887
| 52>    C        2.77629        -6.15558         2.72081
| 53>    C        1.59742        -5.72066         3.20922
| 54>    C        1.56012        -4.64437         4.12500
| 55>    C        0.52803        -3.95880         4.74126
| 56>    C       -0.87509        -4.10615         4.67533
| 57>    C       -1.67542        -3.24232         5.35183
| 58>    C        5.06141        -6.59733         3.55982
| 59>    C        6.39461        -6.47878         3.48062
| 60>    C        7.25742        -7.55156         3.87241
| 61>    N        6.77005        -8.77650         4.02042
| 62>    C        7.82767        -9.58183         4.23417
| 63>    C        9.07932        -8.81917         4.21571
| 64>    C       10.23681        -9.70001         4.43072
| 65>    O       11.41201        -9.40437         4.47490
| 66>    C        9.60169       -11.02412         4.57299
| 67>    C        8.13386       -10.90663         4.44891
| 68>    N        7.54329       -12.11668         4.59048
| 69>    C        8.53099       -12.95765         4.79448
| 70>    C        9.83974       -12.34270         4.80105
| 71>    C        8.73090        -7.50394         4.02525
| 72>    C        9.64464        -6.41351         4.02666
| 73>    C        9.37176        -5.10505         4.23683
| 74>    C       10.37836        -4.10401         4.30550
| 75>    S       12.05812        -4.51686         4.12455
| 76>    C       12.56710        -2.91589         4.37409
| 77>    C       11.51008        -2.05541         4.59367
| 78>    C       10.24370        -2.73325         4.54769
| 79>    C        9.06871        -1.95383         4.73878
| 80>    C        7.77305        -2.49461         4.65786
| 81>    N        6.68854        -2.86523         4.57953
| 82>    C        9.17490        -0.59963         4.98440
| 83>    C       10.42461         0.03845         5.04270
| 84>    C       11.57648        -0.66682         4.84520
| 85>    H       -0.96820         2.79603         3.77774
| 86>    H       -1.94717         7.15683         6.06381
| 87>    H       -3.41348         6.43804         7.90080
| 88>    H       -3.99838         4.04797         8.20160
| 89>    H       -8.84441         1.14762        11.80845
| 90>    H       -8.42536        -1.42112        11.10081
| 91>    H       -3.89120        -2.06258         6.51539
| 92>    H       -1.44268        -0.37242         7.23761
| 93>    H        0.64200        -1.21556         6.82243
| 94>    H        4.47312        -2.64648         6.13068
| 95>    H        4.11216        -1.12968         4.28391
| 96>    H        4.57654        -0.24422         5.74829
| 97>    H        1.83763        -0.45002         4.76131
| 98>    H        2.78371         0.89016         4.76946
| 99>    H        2.63937        -2.54689         8.04252
|100>    H        2.62283        -0.81570         7.61677
|101>    H        5.00508        -0.83945         7.99501
|102>    H        4.28787        -1.49476         9.31231
|103>    H        4.93704        -4.02405         4.43390
|104>    H        4.52260        -5.08298         2.19878
|105>    H        2.82226        -6.97998         2.02578
|106>    H        0.67045        -6.18263         2.90211
|107>    H       -1.29810        -4.90139         4.07943
|108>    H       -2.74669        -3.34926         5.29271
|109>    H        4.64489        -7.49746         3.98715
|110>    H        6.85261        -5.58266         3.08543
|111>    H        8.32997       -14.00562         4.93544
|112>    H       10.76944       -12.85464         4.95313
|113>    H       10.68115        -6.71493         3.92081
|114>    H        8.35929        -4.77660         4.41415
|115>    H       13.61055        -2.67249         4.35298
|116>    H        8.27450        -0.02050         5.12904
|117>    H       10.45898         1.09888         5.23950
|118>    H       12.54237        -0.18673         4.87760
|119> *
|120>
|121>                          ****END OF INPUT****

CARTESIAN COORDINATES (ANGSTROEM)
---------------------------------
  C     -1.593390    2.758090    4.648720
  S     -2.215150    1.276170    5.193530
  C     -3.053780    2.017710    6.522200
  C     -2.842560    3.411380    6.513470
  C     -1.990420    3.818720    5.440190
  C     -1.664490    5.196200    5.287500
  C     -0.814150    5.593960    4.235430
  N     -0.114520    5.903910    3.380560
  C     -2.186800    6.109670    6.175950
  C     -3.023090    5.693230    7.224430
  C     -3.349810    4.373620    7.404730
  C     -3.899420    1.300830    7.397680
  N     -4.745790    1.957260    8.193400
  C     -5.528640    1.025120    8.757780
  C     -5.177030   -0.318230    8.284910
  C     -6.048910   -1.333600    8.901570
  O     -6.049410   -2.532340    8.725580
  C     -6.912810   -0.517690    9.774660
  C     -6.566790    0.910230    9.656270
  N     -7.336350    1.661690   10.477660
  C     -8.118370    0.802470   11.092780
  C     -7.899410   -0.572280   10.710590
  C     -4.094480   -0.168970    7.463740
  C     -3.321890   -1.203070    6.841200
  C     -1.976410   -1.190800    6.767530
  C     -1.134010   -2.171070    6.131920
  C      0.234340   -2.026400    6.239870
  C      1.103190   -2.903940    5.565680
  C      2.492950   -2.956940    5.487520
  C      3.528440   -2.094200    6.123940
  C      3.770130   -0.819510    5.284910
  N      2.586680    0.023020    5.256650
  C      3.218650   -1.739100    7.588410
  N      4.469300   -1.634990    8.325140
  C      2.812950   -4.030480    4.577220
  C      4.002440   -4.460050    4.115470
  C      4.086870   -5.548900    3.098870
  C      2.776290   -6.155580    2.720810
  C      1.597420   -5.720660    3.209220
  C      1.560120   -4.644370    4.125000
  C      0.528030   -3.958800    4.741260
  C     -0.875090   -4.106150    4.675330
  C     -1.675420   -3.242320    5.351830
  C      5.061410   -6.597330    3.559820
  C      6.394610   -6.478780    3.480620
  C      7.257420   -7.551560    3.872410
  N      6.770050   -8.776500    4.020420
  C      7.827670   -9.581830    4.234170
  C      9.079320   -8.819170    4.215710
  C     10.236810   -9.700010    4.430720
  O     11.412010   -9.404370    4.474900
  C      9.601690  -11.024120    4.572990
  C      8.133860  -10.906630    4.448910
  N      7.543290  -12.116680    4.590480
  C      8.530990  -12.957650    4.794480
  C      9.839740  -12.342700    4.801050
  C      8.730900   -7.503940    4.025250
  C      9.644640   -6.413510    4.026660
  C      9.371760   -5.105050    4.236830
  C     10.378360   -4.104010    4.305500
  S     12.058120   -4.516860    4.124550
  C     12.567100   -2.915890    4.374090
  C     11.510080   -2.055410    4.593670
  C     10.243700   -2.733250    4.547690
  C      9.068710   -1.953830    4.738780
  C      7.773050   -2.494610    4.657860
  N      6.688540   -2.865230    4.579530
  C      9.174900   -0.599630    4.984400
  C     10.424610    0.038450    5.042700
  C     11.576480   -0.666820    4.845200
  H     -0.968200    2.796030    3.777740
  H     -1.947170    7.156830    6.063810
  H     -3.413480    6.438040    7.900800
  H     -3.998380    4.047970    8.201600
  H     -8.844410    1.147620   11.808450
  H     -8.425360   -1.421120   11.100810
  H     -3.891200   -2.062580    6.515390
  H     -1.442680   -0.372420    7.237610
  H      0.642000   -1.215560    6.822430
  H      4.473120   -2.646480    6.130680
  H      4.112160   -1.129680    4.283910
  H      4.576540   -0.244220    5.748290
  H      1.837630   -0.450020    4.761310
  H      2.783710    0.890160    4.769460
  H      2.639370   -2.546890    8.042520
  H      2.622830   -0.815700    7.616770
  H      5.005080   -0.839450    7.995010
  H      4.287870   -1.494760    9.312310
  H      4.937040   -4.024050    4.433900
  H      4.522600   -5.082980    2.198780
  H      2.822260   -6.979980    2.025780
  H      0.670450   -6.182630    2.902110
  H     -1.298100   -4.901390    4.079430
  H     -2.746690   -3.349260    5.292710
  H      4.644890   -7.497460    3.987150
  H      6.852610   -5.582660    3.085430
  H      8.329970  -14.005620    4.935440
  H     10.769440  -12.854640    4.953130
  H     10.681150   -6.714930    3.920810
  H      8.359290   -4.776600    4.414150
  H     13.610550   -2.672490    4.352980
  H      8.274500   -0.020500    5.129040
  H     10.458980    1.098880    5.239500
  H     12.542370   -0.186730    4.877600

 Total Charge           Charge          ....    0
 Multiplicity           Mult            ....    1
 Number of Electrons    NEL             ....  486
 Basis Dimension        Dim             .... 1158

ORBITAL ENERGIES
----------------

  NO   OCC          E(Eh)            E(eV)
   0   2.0000     -88.992459     -2421.6079
   1   2.0000     -88.986690     -2421.4509
   2   2.0000     -19.205031      -522.5955
   3   2.0000     -19.196015      -522.3501
   4   2.0000     -14.429263      -392.6402
   5   2.0000     -14.409966      -392.1151
   6   2.0000     -14.403969      -391.9519
   7   2.0000     -14.401178      -391.8760
   8   2.0000     -14.399444      -391.8288
   9   2.0000     -14.390998      -391.5990
  10   2.0000     -14.377823      -391.2405
  11   2.0000     -14.368382      -390.9836
  12   2.0000     -10.365773      -282.0670
  13   2.0000     -10.357137      -281.8320
  14   2.0000     -10.345506      -281.5155
  15   2.0000     -10.342521      -281.4343
  16   2.0000     -10.332750      -281.1684
  17   2.0000     -10.329898      -281.0908
  18   2.0000     -10.328193      -281.0444
  19   2.0000     -10.324059      -280.9319
  20   2.0000     -10.322675      -280.8943
  21   2.0000     -10.322231      -280.8822
  22   2.0000     -10.321118      -280.8519
  23   2.0000     -10.319133      -280.7979
  24   2.0000     -10.318470      -280.7798
  25   2.0000     -10.318017      -280.7675
  26   2.0000     -10.317377      -280.7501
  27   2.0000     -10.314002      -280.6583
  28   2.0000     -10.312197      -280.6092
  29   2.0000     -10.309223      -280.5282
  30   2.0000     -10.308056      -280.4965
  31   2.0000     -10.307595      -280.4839
  32   2.0000     -10.306666      -280.4586
  33   2.0000     -10.306434      -280.4523
  34   2.0000     -10.304609      -280.4027
  35   2.0000     -10.304150      -280.3902
  36   2.0000     -10.303448      -280.3711
  37   2.0000     -10.302400      -280.3425
  38   2.0000     -10.302284      -280.3394
  39   2.0000     -10.299730      -280.2699
  40   2.0000     -10.297983      -280.2224
  41   2.0000     -10.297971      -280.2220
  42   2.0000     -10.294596      -280.1302
  43   2.0000     -10.292546      -280.0744
  44   2.0000     -10.290750      -280.0255
  45   2.0000     -10.289802      -279.9997
  46   2.0000     -10.285525      -279.8834
  47   2.0000     -10.285484      -279.8823
  48   2.0000     -10.285163      -279.8735
  49   2.0000     -10.283626      -279.8317
  50   2.0000     -10.282658      -279.8053
  51   2.0000     -10.280788      -279.7545
  52   2.0000     -10.279655      -279.7236
  53   2.0000     -10.277388      -279.6619
  54   2.0000     -10.275741      -279.6171
  55   2.0000     -10.274093      -279.5723
  56   2.0000     -10.272807      -279.5373
  57   2.0000     -10.272328      -279.5243
  58   2.0000     -10.268673      -279.4248
  59   2.0000     -10.265851      -279.3480
  60   2.0000     -10.265436      -279.3367
  61   2.0000     -10.265203      -279.3304
  62   2.0000     -10.264255      -279.3046
  63   2.0000     -10.264106      -279.3005
  64   2.0000     -10.261309      -279.2244
  65   2.0000     -10.258923      -279.1595
  66   2.0000     -10.257037      -279.1082
  67   2.0000     -10.256727      -279.0997
  68   2.0000     -10.255387      -279.0633
  69   2.0000     -10.252818      -278.9934
  70   2.0000      -8.086309      -220.0396
  71   2.0000      -8.081828      -219.9177
  72   2.0000      -6.055178      -164.7698
  73   2.0000      -6.050614      -164.6456
  74   2.0000      -6.050612      -164.6455
  75   2.0000      -6.049896      -164.6260
  76   2.0000      -6.046359      -164.5298
  77   2.0000      -6.045139      -164.4966
  78   2.0000      -1.118822       -30.4447
  79   2.0000      -1.110240       -30.2112
  80   2.0000      -1.073508       -29.2116
  81   2.0000      -1.069918       -29.1139
  82   2.0000      -1.053573       -28.6692
  83   2.0000      -1.046037       -28.4641
  84   2.0000      -1.025300       -27.8998
  85   2.0000      -1.017048       -27.6753
  86   2.0000      -1.010360       -27.4933
  87   2.0000      -0.993469       -27.0337
  88   2.0000      -0.978826       -26.6352
  89   2.0000      -0.961583       -26.1660
  90   2.0000      -0.960038       -26.1240
  91   2.0000      -0.951449       -25.8902
  92   2.0000      -0.945196       -25.7201
  93   2.0000      -0.942612       -25.6498
  94   2.0000      -0.933094       -25.3908
  95   2.0000      -0.924715       -25.1628
  96   2.0000      -0.923227       -25.1223
  97   2.0000      -0.918055       -24.9815
  98   2.0000      -0.898718       -24.4553
  99   2.0000      -0.895899       -24.3787
 100   2.0000      -0.888593       -24.1798
 101   2.0000      -0.879721       -23.9384
 102   2.0000      -0.863562       -23.4987
 103   2.0000      -0.860226       -23.4079
 104   2.0000      -0.854087       -23.2409
 105   2.0000      -0.852199       -23.1895
 106   2.0000      -0.850000       -23.1297
 107   2.0000      -0.849484       -23.1156
 108   2.0000      -0.835940       -22.7471
 109   2.0000      -0.830093       -22.5880
 110   2.0000      -0.827390       -22.5144
 111   2.0000      -0.822239       -22.3743
 112   2.0000      -0.805885       -21.9292
 113   2.0000      -0.799732       -21.7618
 114   2.0000      -0.764137       -20.7932
 115   2.0000      -0.760315       -20.6892
 116   2.0000      -0.756667       -20.5900
 117   2.0000      -0.750945       -20.4343
 118   2.0000      -0.749384       -20.3918
 119   2.0000      -0.745164       -20.2769
 120   2.0000      -0.742384       -20.2013
 121   2.0000      -0.728996       -19.8370
 122   2.0000      -0.723493       -19.6872
 123   2.0000      -0.719124       -19.5684
 124   2.0000      -0.709501       -19.3065
 125   2.0000      -0.701993       -19.1022
 126   2.0000      -0.698076       -18.9956
 127   2.0000      -0.695537       -18.9265
 128   2.0000      -0.687369       -18.7043
 129   2.0000      -0.677907       -18.4468
 130   2.0000      -0.673036       -18.3142
 131   2.0000      -0.667547       -18.1649
 132   2.0000      -0.659497       -17.9458
 133   2.0000      -0.649421       -17.6716
 134   2.0000      -0.648664       -17.6510
 135   2.0000      -0.643985       -17.5237
 136   2.0000      -0.640276       -17.4228
 137   2.0000      -0.629923       -17.1411
 138   2.0000      -0.622539       -16.9402
 139   2.0000      -0.620510       -16.8849
 140   2.0000      -0.615179       -16.7399
 141   2.0000      -0.607377       -16.5276
 142   2.0000      -0.603530       -16.4229
 143   2.0000      -0.593192       -16.1416
 144   2.0000      -0.592339       -16.1184
 145   2.0000      -0.589410       -16.0387
 146   2.0000      -0.586193       -15.9511
 147   2.0000      -0.582107       -15.8399
 148   2.0000      -0.580648       -15.8002
 149   2.0000      -0.574317       -15.6279
 150   2.0000      -0.572848       -15.5880
 151   2.0000      -0.570873       -15.5342
 152   2.0000      -0.566433       -15.4134
 153   2.0000      -0.563416       -15.3313
 154   2.0000      -0.558198       -15.1893
 155   2.0000      -0.553070       -15.0498
 156   2.0000      -0.552569       -15.0362
 157   2.0000      -0.543030       -14.7766
 158   2.0000      -0.542005       -14.7487
 159   2.0000      -0.538733       -14.6597
 160   2.0000      -0.537939       -14.6381
 161   2.0000      -0.535594       -14.5742
 162   2.0000      -0.534256       -14.5379
 163   2.0000      -0.532628       -14.4935
 164   2.0000      -0.527123       -14.3437
 165   2.0000      -0.524384       -14.2692
 166   2.0000      -0.520952       -14.1758
 167   2.0000      -0.519400       -14.1336
 168   2.0000      -0.517477       -14.0813
 169   2.0000      -0.516322       -14.0498
 170   2.0000      -0.514555       -14.0018
 171   2.0000      -0.512880       -13.9562
 172   2.0000      -0.508415       -13.8347
 173   2.0000      -0.505456       -13.7542
 174   2.0000      -0.502147       -13.6641
 175   2.0000      -0.501179       -13.6378
 176   2.0000      -0.497771       -13.5450
 177   2.0000      -0.497155       -13.5283
 178   2.0000      -0.491213       -13.3666
 179   2.0000      -0.488206       -13.2848
 180   2.0000      -0.485581       -13.2133
 181   2.0000      -0.483041       -13.1442
 182   2.0000      -0.481050       -13.0900
 183   2.0000      -0.480612       -13.0781
 184   2.0000      -0.476430       -12.9643
 185   2.0000      -0.475854       -12.9486
 186   2.0000      -0.473989       -12.8979
 187   2.0000      -0.471198       -12.8219
 188   2.0000      -0.469468       -12.7749
 189   2.0000      -0.468429       -12.7466
 190   2.0000      -0.467009       -12.7080
 191   2.0000      -0.464368       -12.6361
 192   2.0000      -0.460141       -12.5211
 193   2.0000      -0.459133       -12.4936
 194   2.0000      -0.458043       -12.4640
 195   2.0000      -0.455973       -12.4076
 196   2.0000      -0.455042       -12.3823
 197   2.0000      -0.453950       -12.3526
 198   2.0000      -0.453176       -12.3315
 199   2.0000      -0.450796       -12.2668
 200   2.0000      -0.445439       -12.1210
 201   2.0000      -0.444548       -12.0968
 202   2.0000      -0.440715       -11.9925
 203   2.0000      -0.440618       -11.9898
 204   2.0000      -0.435956       -11.8630
 205   2.0000      -0.435482       -11.8501
 206   2.0000      -0.432544       -11.7701
 207   2.0000      -0.424117       -11.5408
 208   2.0000      -0.421190       -11.4612
 209   2.0000      -0.420123       -11.4321
 210   2.0000      -0.415810       -11.3148
 211   2.0000      -0.413566       -11.2537
 212   2.0000      -0.409384       -11.1399
 213   2.0000      -0.404895       -11.0178
 214   2.0000      -0.399303       -10.8656
 215   2.0000      -0.386084       -10.5059
 216   2.0000      -0.384103       -10.4520
 217   2.0000      -0.376740       -10.2516
 218   2.0000      -0.376136       -10.2352
 219   2.0000      -0.373182       -10.1548
 220   2.0000      -0.372355       -10.1323
 221   2.0000      -0.359410        -9.7800
 222   2.0000      -0.353648        -9.6233
 223   2.0000      -0.349003        -9.4969
 224   2.0000      -0.347810        -9.4644
 225   2.0000      -0.340447        -9.2640
 226   2.0000      -0.339658        -9.2426
 227   2.0000      -0.337687        -9.1889
 228   2.0000      -0.330503        -8.9934
 229   2.0000      -0.329272        -8.9600
 230   2.0000      -0.326570        -8.8864
 231   2.0000      -0.324362        -8.8263
 232   2.0000      -0.323032        -8.7901
 233   2.0000      -0.319523        -8.6947
 234   2.0000      -0.315821        -8.5939
 235   2.0000      -0.314874        -8.5681
 236   2.0000      -0.308548        -8.3960
 237   2.0000      -0.300241        -8.1700
 238   2.0000      -0.286208        -7.7881
 239   2.0000      -0.277405        -7.5486
 240   2.0000      -0.264581        -7.1996
 241   2.0000      -0.259624        -7.0647
 242   2.0000      -0.216431        -5.8894
 243   0.0000      -0.108884        -2.9629
 244   0.0000      -0.106964        -2.9106
 245   0.0000      -0.074403        -2.0246
 246   0.0000      -0.067203        -1.8287
 247   0.0000      -0.052345        -1.4244

MULLIKEN ATOMIC CHARGES
-----------------------
   0 C :   -0.095977
   1 S :    0.219461
   2 C :   -0.175382
   3 C :    0.090651
   4 C :    0.097642
   5 C :   -0.071786
   6 C :   -0.195023
   7 N :    0.110449
   8 C :    0.031634
   9 C :    0.032140
  10 C :    0.018608
  11 C :    0.043944
  12 N :   -0.065290
  13 C :    0.065753
  14 C :   -0.122102
  15 C :    0.198455
  16 O :   -0.133186
  17 C :   -0.044626
  18 C :   -0.033674
  19 N :   -0.062651
  20 C :    0.081514
  21 C :   -0.093445
  22 C :   -0.000749
  23 C :   -0.040742
  24 C :   -0.013034
  25 C :    0.106541
  26 C :   -0.107727
  27 C :    0.027898
  28 C :   -0.059194
  29 C :   -0.024895
  30 C :    0.156730
  31 N :   -0.234724
  32 C :    0.102522
  33 N :   -0.206326
  34 C :    0.085851
  35 C :   -0.073598
  36 C :    0.141878
  37 C :   -0.063935
  38 C :    0.024114
  39 C :    0.012957
  40 C :    0.036547
  41 C :   -0.002296
  42 C :   -0.005924
  43 C :   -0.009265
  44 C :   -0.018445
  45 C :    0.025171
  46 N :   -0.047582
  47 C :    0.070496
  48 C :   -0.136871
  49 C :    0.204347
  50 O :   -0.139771
  51 C :   -0.033811
  52 C :   -0.030556
  53 N :   -0.056058
  54 C :    0.087485
  55 C :   -0.095523
  56 C :    0.055307
  57 C :   -0.052865
  58 C :    0.005707
  59 C :   -0.174182
  60 S :    0.185238
  61 C :   -0.110540
  62 C :    0.062611
  63 C :    0.197848
  64 C :   -0.113119
  65 C :   -0.156699
  66 N :    0.107329
  67 C :    0.027617
  68 C :    0.014755
  69 C :    0.031161
  70 H :    0.044006
  71 H :   -0.003386
  72 H :    0.002918
  73 H :    0.014740
  74 H :    0.001402
  75 H :   -0.011982
  76 H :    0.019418
  77 H :   -0.001363
  78 H :   -0.035308
  79 H :   -0.006025
  80 H :   -0.014461
  81 H :   -0.027177
  82 H :    0.099656
  83 H :    0.092344
  84 H :    0.001166
  85 H :    0.013424
  86 H :    0.078220
  87 H :    0.088096
  88 H :   -0.034504
  89 H :    0.051223
  90 H :   -0.008323
  91 H :   -0.035535
  92 H :   -0.037912
  93 H :   -0.027576
  94 H :    0.045006
  95 H :    0.000341
  96 H :    0.007535
  97 H :   -0.008907
  98 H :    0.013509
  99 H :    0.002629
 100 H :    0.029541
 101 H :   -0.001737
 102 H :    0.001444
 103 H :   -0.011212
Sum of atomic charges:   -0.0000000

LOEWDIN ATOMIC CHARGES
----------------------
   0 C :   -0.158371
   1 S :    0.569191
   2 C :   -0.204434
   3 C :   -0.012877
   4 C :   -0.041507
   5 C :   -0.065868
   6 C :   -0.028827
   7 N :   -0.058704
   8 C :    0.018665
   9 C :   -0.014794
  10 C :    0.020697
  11 C :    0.058787
  12 N :   -0.113594
  13 C :    0.046006
  14 C :   -0.046136
  15 C :    0.064327
  16 O :   -0.145135
  17 C :   -0.046004
  18 C :    0.006164
  19 N :   -0.103896
  20 C :    0.060843
  21 C :   -0.043910
  22 C :   -0.028688
  23 C :   -0.050435
  24 C :   -0.009812
  25 C :   -0.040397
  26 C :   -0.003965
  27 C :   -0.034018
  28 C :   -0.022649
  29 C :   -0.041525
  30 C :    0.029590
  31 N :   -0.118144
  32 C :    0.023399
  33 N :   -0.118641
  34 C :   -0.022746
  35 C :    0.079962
  36 C :   -0.034961
  37 C :   -0.042129
  38 C :   -0.011131
  39 C :   -0.040666
  40 C :   -0.030361
  41 C :   -0.007247
  42 C :   -0.026417
  43 C :    0.086349
  44 C :   -0.063487
  45 C :    0.083014
  46 N :   -0.105906
  47 C :    0.047176
  48 C :   -0.043114
  49 C :    0.063745
  50 O :   -0.149274
  51 C :   -0.041263
  52 C :    0.018462
  53 N :   -0.098177
  54 C :    0.070504
  55 C :   -0.040486
  56 C :   -0.031969
  57 C :   -0.025002
  58 C :   -0.034380
  59 C :   -0.180680
  60 S :    0.524189
  61 C :   -0.181714
  62 C :   -0.055232
  63 C :   -0.031243
  64 C :   -0.074285
  65 C :    0.007558
  66 N :   -0.063319
  67 C :    0.026466
  68 C :   -0.035118
  69 C :    0.021432
  70 H :    0.035988
  71 H :    0.040970
  72 H :    0.037238
  73 H :    0.038877
  74 H :    0.020152
  75 H :    0.031581
  76 H :    0.038670
  77 H :    0.023149
  78 H :    0.026117
  79 H :    0.031492
  80 H :    0.001148
  81 H :    0.007647
  82 H :    0.052693
  83 H :    0.054942
  84 H :    0.018699
  85 H :    0.000693
  86 H :    0.044879
  87 H :    0.052887
  88 H :    0.022417
  89 H :    0.067744
  90 H :    0.025351
  91 H :    0.030082
  92 H :    0.027346
  93 H :    0.025947
  94 H :    0.042728
  95 H :    0.031188
  96 H :    0.022688
  97 H :    0.033029
  98 H :    0.030588
  99 H :    0.036201
 100 H :    0.029164
 101 H :    0.041170
 102 H :    0.036079
 103 H :    0.036571

  Mayer bond orders larger than 0.100000
B(  0-C ,  1-S ) :   1.2536 B(  0-C ,  2-C ) :   0.1042 B(  0-C ,  4-C ) :   1.3896
B(  0-C , 70-H ) :   0.9501 B(  1-S ,  2-C ) :   1.1667 B(  2-C ,  3-C ) :   1.2773
B(  2-C , 11-C ) :   1.1827 B(  3-C ,  4-C ) :   1.2079 B(  3-C , 10-C ) :   1.2660
B(  4-C ,  5-C ) :   1.1968 B(  5-C ,  6-C ) :   1.0739 B(  5-C ,  8-C ) :   1.5434
B(  6-C ,  7-N ) :   3.0381 B(  8-C ,  9-C ) :   1.2100 B(  8-C , 71-H ) :   0.9956
B(  9-C , 10-C ) :   1.4780 B(  9-C , 72-H ) :   0.9853 B( 10-C , 73-H ) :   0.9727
B( 11-C , 12-N ) :   1.5639 B( 11-C , 13-C ) :   0.1108 B( 11-C , 22-C ) :   1.0211
B( 12-N , 13-C ) :   1.3728 B( 13-C , 14-C ) :   1.0445 B( 13-C , 18-C ) :   1.3934
B( 14-C , 15-C ) :   0.8865 B( 14-C , 22-C ) :   1.6120 B( 15-C , 16-O ) :   2.2914
B( 15-C , 17-C ) :   0.9026 B( 17-C , 18-C ) :   1.0660 B( 17-C , 21-C ) :   1.5885
B( 18-C , 19-N ) :   1.3279 B( 19-N , 20-C ) :   1.6369 B( 20-C , 21-C ) :   1.0961
B( 20-C , 74-H ) :   0.9897 B( 21-C , 75-H ) :   1.0105 B( 22-C , 23-C ) :   1.0726
B( 23-C , 24-C ) :   1.6700 B( 23-C , 76-H ) :   0.9539 B( 24-C , 25-C ) :   1.0968
B( 24-C , 77-H ) :   0.9826 B( 25-C , 26-C ) :   1.4790 B( 25-C , 42-C ) :   1.1332
B( 26-C , 27-C ) :   1.1194 B( 26-C , 78-H ) :   1.0030 B( 27-C , 28-C ) :   1.4571
B( 27-C , 40-C ) :   1.1236 B( 28-C , 29-C ) :   1.0480 B( 28-C , 34-C ) :   1.1313
B( 29-C , 30-C ) :   1.0354 B( 29-C , 32-C ) :   1.0315 B( 29-C , 79-H ) :   0.8704
B( 30-C , 31-N ) :   1.0866 B( 30-C , 80-H ) :   0.9354 B( 30-C , 81-H ) :   0.9335
B( 31-N , 82-H ) :   0.9595 B( 31-N , 83-H ) :   0.9674 B( 32-C , 33-N ) :   1.1060
B( 32-C , 84-H ) :   0.9496 B( 32-C , 85-H ) :   0.9249 B( 33-N , 86-H ) :   0.9716
B( 33-N , 87-H ) :   0.9689 B( 34-C , 35-C ) :   1.6697 B( 34-C , 39-C ) :   1.0446
B( 35-C , 36-C ) :   0.9683 B( 35-C , 88-H ) :   0.9429 B( 36-C , 37-C ) :   0.9697
B( 36-C , 43-C ) :   0.9412 B( 36-C , 89-H ) :   0.8569 B( 37-C , 38-C ) :   1.7171
B( 37-C , 90-H ) :   0.9785 B( 38-C , 39-C ) :   1.1318 B( 38-C , 91-H ) :   0.9908
B( 39-C , 40-C ) :   1.4329 B( 40-C , 41-C ) :   1.1412 B( 41-C , 42-C ) :   1.6143
B( 41-C , 92-H ) :   0.9893 B( 42-C , 93-H ) :   0.9807 B( 43-C , 44-C ) :   1.7568
B( 43-C , 94-H ) :   0.9752 B( 44-C , 45-C ) :   1.1127 B( 44-C , 95-H ) :   0.9547
B( 45-C , 46-N ) :   1.6069 B( 45-C , 47-C ) :   0.1038 B( 45-C , 56-C ) :   0.9878
B( 46-N , 47-C ) :   1.3539 B( 47-C , 48-C ) :   1.0445 B( 47-C , 52-C ) :   1.4108
B( 48-C , 49-C ) :   0.8975 B( 48-C , 56-C ) :   1.5565 B( 49-C , 50-O ) :   2.2657
B( 49-C , 51-C ) :   0.9076 B( 51-C , 52-C ) :   1.0638 B( 51-C , 55-C ) :   1.6012
B( 52-C , 53-N ) :   1.3195 B( 53-N , 54-C ) :   1.6462 B( 54-C , 55-C ) :   1.0819
B( 54-C , 96-H ) :   0.9892 B( 55-C , 97-H ) :   1.0108 B( 56-C , 57-C ) :   1.1330
B( 57-C , 58-C ) :   1.6320 B( 57-C , 98-H ) :   0.9625 B( 58-C , 59-C ) :   1.1654
B( 58-C , 99-H ) :   0.9577 B( 59-C , 60-S ) :   1.1582 B( 59-C , 61-C ) :   0.1075
B( 59-C , 63-C ) :   1.3607 B( 60-S , 61-C ) :   1.2293 B( 61-C , 62-C ) :   1.4049
B( 61-C ,100-H ) :   0.9703 B( 62-C , 63-C ) :   1.1891 B( 62-C , 69-C ) :   1.1820
B( 63-C , 64-C ) :   1.2006 B( 64-C , 65-C ) :   1.0914 B( 64-C , 67-C ) :   1.5500
B( 65-C , 66-N ) :   2.9205 B( 66-N , 88-H ) :   0.1158 B( 67-C , 68-C ) :   1.2025
B( 67-C ,101-H ) :   0.9926 B( 68-C , 69-C ) :   1.5353 B( 68-C ,102-H ) :   0.9871
B( 69-C ,103-H ) :   1.0019

-----------------------------------------------------------------------------
         ABSORPTION SPECTRUM VIA TRANSITION ELECTRIC DIPOLE MOMENTS
-----------------------------------------------------------------------------
State   Energy  Wavelength   fosc         T2         TX        TY        TZ
        (cm-1)    (nm)                  (au**2)     (au)      (au)      (au)
-----------------------------------------------------------------------------
   0   10607.9    942.7   0.077699767   2.41139   1.41507  -0.58044  -0.26842
   1   10980.3    910.7   0.008395529   0.25171   0.25704  -0.32379   0.28427
   2   14990.6    667.1   0.035826503   0.78679   0.29601   0.52602   0.64998
   3   16422.8    608.9   0.160772911   3.22285   0.32760   1.76442   0.04857
   4   18798.0    532.0   0.184155659   3.22515  -1.43853  -0.39329   1.00055
   5   19304.0    518.0   0.003979534   0.06787  -0.17686   0.18790   0.03578
   6   20040.1    499.0   0.558841744   9.18046  -1.46707  -2.04204   1.69064
   7   21429.6    466.6   0.430825679   6.61855  -2.04976   0.57819   1.44317
   8   21905.5    456.5   0.009286537   0.13957  -0.18302   0.32564   0.00543
   9   21958.6    455.4   0.001341706   0.02012   0.06334  -0.02015  -0.12529
  10   23314.7    428.9   0.534320661   7.54479   1.40803   2.35830   0.02541
  11   24276.3    411.9   0.409198940   5.54917   1.45472  -1.85255  -0.03232
  12   24755.0    404.0   0.019927244   0.26501   0.27307   0.25637  -0.35314
  13   25190.3    397.0   0.016416237   0.21454  -0.04243  -0.42013   0.19035
  14   25819.8    387.3   0.043035352   0.54872   0.52738  -0.51781   0.04960
  15   26089.9    383.3   0.059939808   0.75634  -0.72520   0.39260   0.27622
  16   26152.1    382.4   0.022608753   0.28461  -0.36177   0.36131   0.15227
  17   26329.5    379.8   0.297895334   3.72475   1.44879  -1.26912  -0.12286
  18   26541.6    376.8   0.024892796   0.30876  -0.18132   0.52319  -0.04648
  19   26570.1    376.4   0.019941854   0.24709   0.08932   0.48898  -0.00270
  20   26611.2    375.8   0.036161786   0.44736   0.55461  -0.20730  -0.31112
  21   27066.1    369.5   0.110644898   1.34580   1.04841  -0.34123  -0.36083
  22   27316.6    366.1   0.002497997   0.03011  -0.13605   0.07741   0.07486
  23   27439.0    364.4   0.196641555   2.35930  -1.36459   0.47349   0.52249
  24   27630.0    361.9   0.024050569   0.28656  -0.01415   0.21046   0.49200
  25   28149.7    355.2   0.164829429   1.92769  -0.25826  -1.36306   0.05530
  26   28547.5    350.3   0.157916324   1.82110   1.16530  -0.02462  -0.68013
  27   28972.9    345.1   0.029137061   0.33108  -0.45875  -0.30349   0.16886
  28   29548.3    338.4   0.080635527   0.89840   0.73212  -0.25663  -0.54456
  29   30130.1    331.9   0.044453558   0.48572   0.14813  -0.68004   0.03625
  30   30260.8    330.5   0.024317224   0.26455  -0.35308  -0.28838   0.23817
  31   30596.8    326.8   0.000171260   0.00184   0.02317  -0.03163  -0.01749
  32   30814.6    324.5   0.242924408   2.59532   0.75450  -1.38151  -0.34276
  33   30907.0    323.6   0.001348120   0.01436   0.05202   0.09250  -0.05565
  34   31054.0    322.0   0.050818995   0.53875  -0.35355  -0.56569   0.30617
  35   31118.7    321.4   0.040801651   0.43165   0.39825   0.45130  -0.26340
  36   31373.6    318.7   0.079869436   0.83809   0.64245   0.21306  -0.61641
  37   31809.6    314.4   0.269359570   2.78773  -1.36063   0.29686   0.92103
  38   32250.8    310.1   0.108928820   1.11193   0.77351  -0.50594  -0.50758
  39   32499.2    307.7   0.001988180   0.02014  -0.13081   0.05259  -0.01623
  40   32542.7    307.3   0.003868042   0.03913  -0.10998   0.08074   0.14324
  41   32981.6    303.2   0.035130131   0.35066   0.38238  -0.44077  -0.10082
  42   33101.4    302.1   0.065506299   0.65150  -0.22030   0.62715   0.45787
  43   33336.7    300.0   0.028273403   0.27921  -0.47546  -0.04940  -0.22519
  44   33644.6    297.2   0.081402655   0.79652   0.68677  -0.56522  -0.07347
  45   33763.5    296.2   0.010920300   0.10648  -0.14590   0.23878  -0.16786
  46   33934.7    294.7   0.094416810   0.91597   0.66326  -0.65615  -0.21336
  47   34170.1    292.7   0.510259773   4.91611   1.20688  -1.85987  -0.02137
  48   34806.1    287.3   0.344925116   3.26246  -1.61968   0.32651   0.72971
  49   35314.7    283.2   0.035649078   0.33233   0.53205   0.21661   0.04833
  50   35682.7    280.2   0.027408626   0.25287  -0.23709  -0.04744  -0.44092
  51   35993.7    277.8   0.010655620   0.09746  -0.17779   0.25368  -0.03874
  52   36093.5    277.1   0.003485840   0.03179  -0.17556  -0.00895   0.02987
  53   36140.5    276.7   0.271678827   2.47478   0.61135  -1.44646  -0.09369
  54   36580.8    273.4   0.131220872   1.18093   0.81285  -0.18739  -0.69649
  55   36760.8    272.0   0.064065987   0.57374   0.06021  -0.71988   0.22778
  56   37088.4    269.6   0.025587898   0.22713  -0.33844  -0.21971   0.25361
  57   37400.2    267.4   0.014000530   0.12324  -0.25776  -0.14195   0.19144
  58   37514.2    266.6   0.008010456   0.07030   0.18398   0.03469  -0.18773
  59   37604.0    265.9   0.038051354   0.33313  -0.43926  -0.15066   0.34275
  60   37733.8    265.0   0.001373658   0.01198   0.07415  -0.07372  -0.03243
  61   38061.2    262.7   0.000477166   0.00413  -0.05877   0.00004  -0.02595
  62   38273.5    261.3   0.024476129   0.21053   0.13208  -0.41594  -0.14172
  63   38444.3    260.1   0.020755708   0.17774   0.06324   0.41549   0.03325
  64   38798.0    257.7   0.006753399   0.05730   0.09708   0.20612  -0.07345
  65   39355.9    254.1   0.092688449   0.77534  -0.62051   0.59461  -0.19166
  66   39469.2    253.4   0.029442469   0.24558  -0.47520   0.13731   0.03021
  67   39782.7    251.4   0.003543272   0.02932   0.05692   0.15972  -0.02392
  68   39952.6    250.3   0.002384677   0.01965  -0.10930   0.08676  -0.01327
  69   40043.8    249.7   0.000485680   0.00399  -0.02364   0.05297   0.02507
  70   40137.3    249.1   0.007200033   0.05906  -0.06177   0.20616   0.11286
  71   40261.0    248.4   0.011767736   0.09622  -0.14160   0.25326   0.10969

FINAL SINGLE POINT ENERGY     -3611.387491604175

DIPOLE MOMENT
-------------
                                X             Y             Z
Electronic contribution:     -7.47498      -8.40942      -2.94281
Nuclear contribution   :     10.84284      10.02257       2.28020
                        -----------------------------------------
Total Dipole Moment    :      3.36786       1.61316      -0.66261
                        -----------------------------------------
Magnitude (a.u.)       :      3.79260
Magnitude (Debye)      :      9.64002

Rotational constants in cm-1:     0.001554     0.000346     0.000299
Rotational constants in MHz :    46.589300    10.366814     8.962805

                             ****ORCA TERMINATED NORMALLY****
TOTAL RUN TIME: 0 days 0 hours 10 minutes 5 seconds 974 msec
