                         Program Version 4.2.0 -  RELEASE  -
|  1> # ORCA input file
|  2> # SCF done       -220.672425355409          0.000644133057
|  3> ! CAM-B3LYP def2-SVP def2/J RIJCOSX Grid4 TightSCF
|  4> %maxcore 5000
|  5> %tddft
|  6>     Mode sTDDFT
|  7>     Ethresh 5.0
|  8>     maxcore 5000
|  9> end
| 10>
| 11> %pal
| 12>   nprocs 6
| 13>   end
| 14> * xyz 0 1
| 15>    C       -0.91888         4.39667         0.70449
| 16>    O       -0.94827         3.19125         0.69044
| 17>    C        0.13690         5.27130         1.25019
| 18>    C       -0.22708         6.62315         1.10923
| 19>    C        0.62330         7.62946         1.53691
| 20>    C        1.84435         7.26637         2.08298
| 21>    C        2.23186         5.93174         2.20593
| 22>    C        1.36592         4.92390         1.78546
| 23>    F        1.75063         3.65246         1.86963
| 24>    F        3.42690         5.62039         2.70955
| 25>    F        2.67931         8.21584         2.49830
| 26>    C       -1.51502         6.69792         0.42897
| 27>    C       -2.14054         7.83968         0.02158
| 28>    C       -1.67065         9.14691         0.28841
| 29>    N       -1.36192        10.23346         0.48351
| 30>    C       -3.33015         7.88550        -0.74220
| 31>    N       -4.27168         8.00951        -1.38530
| 32>    C       -1.97121         5.33045         0.19556
| 33>    C       -3.17996         4.94081        -0.26355
| 34>    C       -3.63293         3.59343        -0.49529
| 35>    N       -4.81216         3.23371        -0.03790
| 36>    C       -4.96972         1.93552        -0.39180
| 37>    C       -3.81897         1.45717        -1.17193
| 38>    C       -4.00641         0.04644        -1.53556
| 39>    O       -3.26186        -0.68943        -2.15558
| 40>    C       -5.31219        -0.27923        -0.93571
| 41>    C       -5.86429         0.91010        -0.24239
| 42>    N       -7.06064         0.61546         0.32676
| 43>    C       -7.27523        -0.64193         0.04435
| 44>    C       -6.22051        -1.26480        -0.74516
| 45>    C       -2.94758         2.51823        -1.25597
| 46>    C       -1.69258         2.64856        -1.90895
| 47>    C       -1.09543         1.58809        -2.50871
| 48>    C        0.19539         1.53310        -3.09115
| 49>    S        0.55973         0.14835        -4.07125
| 50>    C        2.20140         0.68166        -4.32433
| 51>    C        2.42687         1.88664        -3.66240
| 52>    C        1.31105         2.35874        -2.96715
| 53>    C        1.35558         3.58150        -2.11905
| 54>    C        2.78056         4.05074        -1.82555
| 55>    C        2.70989         5.45243        -1.21555
| 56>    O        1.66164         6.01025        -1.00625
| 57>    O        3.86279         6.00652        -0.88064
| 58>    C        3.64763         4.00922        -3.09401
| 59>    O        4.93617         4.50150        -2.76405
| 60>    C        3.75307         2.56926        -3.61138
| 61>    C        3.12048        -0.13335        -5.01909
| 62>    C        2.80249        -1.40782        -5.37040
| 63>    C        3.68788        -2.37997        -5.88111
| 64>    N        4.85380        -2.12848        -6.45996
| 65>    C        5.40784        -3.32798        -6.70971
| 66>    C        4.55716        -4.42833        -6.22293
| 67>    C        5.20542        -5.73417        -6.44880
| 68>    O        4.79278        -6.83276        -6.15054
| 69>    C        6.46568        -5.35086        -7.10400
| 70>    C        6.55161        -3.87904        -7.24140
| 71>    N        7.72094        -3.52150        -7.81910
| 72>    C        8.35329        -4.65047        -8.04293
| 73>    C        7.63006        -5.82874        -7.61628
| 74>    C        3.44366        -3.83739        -5.69612
| 75>    C        2.38276        -4.33523        -4.89227
| 76>    C        2.35242        -5.53883        -4.27468
| 77>    C        1.36138        -5.83834        -3.29712
| 78>    C        0.76992        -4.96543        -2.43256
| 79>    C       -0.49842        -5.36480        -1.75799
| 80>    O       -0.98179        -6.46710        -1.72797
| 81>    C       -1.03398        -4.10876        -1.17664
| 82>    C       -0.11168        -3.06417        -1.37069
| 83>    C        1.07177        -3.59823        -2.04794
| 84>    C        2.28796        -2.96698        -2.07558
| 85>    C        2.51052        -1.62449        -1.70941
| 86>    N        2.76598        -0.52391        -1.50114
| 87>    C        3.50774        -3.57499        -2.44658
| 88>    N        4.55261        -3.99675        -2.66136
| 89>    C       -0.36790        -1.79357        -0.88214
| 90>    C       -1.55121        -1.58673        -0.19103
| 91>    C       -2.48020        -2.60773         0.00111
| 92>    C       -2.22350        -3.88213        -0.50473
| 93>    F       -3.11416        -4.84939        -0.31699
| 94>    F       -3.60770        -2.36808         0.67676
| 95>    F       -1.80730        -0.38339         0.32190
| 96>    H        0.38764         8.67676         1.44577
| 97>    H       -3.95667         5.68117        -0.41765
| 98>    H       -8.16756        -1.13406         0.39017
| 99>    H       -6.21079        -2.28617        -1.07044
|100>    H       -1.24295         3.62822        -1.91174
|101>    H       -1.64807         0.65726        -2.55320
|102>    H        0.84954         3.37747        -1.17379
|103>    H        0.81960         4.39960        -2.61241
|104>    H        3.24855         3.39471        -1.08181
|105>    H        4.61741         5.51775        -1.26510
|106>    H        3.18718         4.65076        -3.86225
|107>    H        5.50855         4.45436        -3.53710
|108>    H        4.40569         2.01031        -2.93167
|109>    H        4.22060         2.56584        -4.59958
|110>    H        4.12147         0.23129        -5.19464
|111>    H        1.79703        -1.74277        -5.14984
|112>    H        9.32534        -4.64430        -8.50482
|113>    H        7.97559        -6.83959        -7.70470
|114>    H        1.56745        -3.65078        -4.69201
|115>    H        3.06753        -6.30664        -4.53988
|116>    H        1.00064        -6.86074        -3.24221
|117>    H        0.30826        -0.96491        -1.00945
|118> *
|119>
|120>                          ****END OF INPUT****

CARTESIAN COORDINATES (ANGSTROEM)
---------------------------------
  C     -0.918880    4.396670    0.704490
  O     -0.948270    3.191250    0.690440
  C      0.136900    5.271300    1.250190
  C     -0.227080    6.623150    1.109230
  C      0.623300    7.629460    1.536910
  C      1.844350    7.266370    2.082980
  C      2.231860    5.931740    2.205930
  C      1.365920    4.923900    1.785460
  F      1.750630    3.652460    1.869630
  F      3.426900    5.620390    2.709550
  F      2.679310    8.215840    2.498300
  C     -1.515020    6.697920    0.428970
  C     -2.140540    7.839680    0.021580
  C     -1.670650    9.146910    0.288410
  N     -1.361920   10.233460    0.483510
  C     -3.330150    7.885500   -0.742200
  N     -4.271680    8.009510   -1.385300
  C     -1.971210    5.330450    0.195560
  C     -3.179960    4.940810   -0.263550
  C     -3.632930    3.593430   -0.495290
  N     -4.812160    3.233710   -0.037900
  C     -4.969720    1.935520   -0.391800
  C     -3.818970    1.457170   -1.171930
  C     -4.006410    0.046440   -1.535560
  O     -3.261860   -0.689430   -2.155580
  C     -5.312190   -0.279230   -0.935710
  C     -5.864290    0.910100   -0.242390
  N     -7.060640    0.615460    0.326760
  C     -7.275230   -0.641930    0.044350
  C     -6.220510   -1.264800   -0.745160
  C     -2.947580    2.518230   -1.255970
  C     -1.692580    2.648560   -1.908950
  C     -1.095430    1.588090   -2.508710
  C      0.195390    1.533100   -3.091150
  S      0.559730    0.148350   -4.071250
  C      2.201400    0.681660   -4.324330
  C      2.426870    1.886640   -3.662400
  C      1.311050    2.358740   -2.967150
  C      1.355580    3.581500   -2.119050
  C      2.780560    4.050740   -1.825550
  C      2.709890    5.452430   -1.215550
  O      1.661640    6.010250   -1.006250
  O      3.862790    6.006520   -0.880640
  C      3.647630    4.009220   -3.094010
  O      4.936170    4.501500   -2.764050
  C      3.753070    2.569260   -3.611380
  C      3.120480   -0.133350   -5.019090
  C      2.802490   -1.407820   -5.370400
  C      3.687880   -2.379970   -5.881110
  N      4.853800   -2.128480   -6.459960
  C      5.407840   -3.327980   -6.709710
  C      4.557160   -4.428330   -6.222930
  C      5.205420   -5.734170   -6.448800
  O      4.792780   -6.832760   -6.150540
  C      6.465680   -5.350860   -7.104000
  C      6.551610   -3.879040   -7.241400
  N      7.720940   -3.521500   -7.819100
  C      8.353290   -4.650470   -8.042930
  C      7.630060   -5.828740   -7.616280
  C      3.443660   -3.837390   -5.696120
  C      2.382760   -4.335230   -4.892270
  C      2.352420   -5.538830   -4.274680
  C      1.361380   -5.838340   -3.297120
  C      0.769920   -4.965430   -2.432560
  C     -0.498420   -5.364800   -1.757990
  O     -0.981790   -6.467100   -1.727970
  C     -1.033980   -4.108760   -1.176640
  C     -0.111680   -3.064170   -1.370690
  C      1.071770   -3.598230   -2.047940
  C      2.287960   -2.966980   -2.075580
  C      2.510520   -1.624490   -1.709410
  N      2.765980   -0.523910   -1.501140
  C      3.507740   -3.574990   -2.446580
  N      4.552610   -3.996750   -2.661360
  C     -0.367900   -1.793570   -0.882140
  C     -1.551210   -1.586730   -0.191030
  C     -2.480200   -2.607730    0.001110
  C     -2.223500   -3.882130   -0.504730
  F     -3.114160   -4.849390   -0.316990
  F     -3.607700   -2.368080    0.676760
  F     -1.807300   -0.383390    0.321900
  H      0.387640    8.676760    1.445770
  H     -3.956670    5.681170   -0.417650
  H     -8.167560   -1.134060    0.390170
  H     -6.210790   -2.286170   -1.070440
  H     -1.242950    3.628220   -1.911740
  H     -1.648070    0.657260   -2.553200
  H      0.849540    3.377470   -1.173790
  H      0.819600    4.399600   -2.612410
  H      3.248550    3.394710   -1.081810
  H      4.617410    5.517750   -1.265100
  H      3.187180    4.650760   -3.862250
  H      5.508550    4.454360   -3.537100
  H      4.405690    2.010310   -2.931670
  H      4.220600    2.565840   -4.599580
  H      4.121470    0.231290   -5.194640
  H      1.797030   -1.742770   -5.149840
  H      9.325340   -4.644300   -8.504820
  H      7.975590   -6.839590   -7.704700
  H      1.567450   -3.650780   -4.692010
  H      3.067530   -6.306640   -4.539880
  H      1.000640   -6.860740   -3.242210
  H      0.308260   -0.964910   -1.009450

 Total Charge           Charge          ....    0
 Multiplicity           Mult            ....    1
 Number of Electrons    NEL             ....  558
 Basis Dimension        Dim             .... 1248

ORBITAL ENERGIES
----------------

  NO   OCC          E(Eh)            E(eV)
   0   2.0000     -88.974917     -2421.1306
   1   2.0000     -24.821426      -675.4254
   2   2.0000     -24.820046      -675.3878
   3   2.0000     -24.817705      -675.3241
   4   2.0000     -24.817057      -675.3064
   5   2.0000     -24.814598      -675.2396
   6   2.0000     -24.813637      -675.2134
   7   2.0000     -19.266659      -524.2725
   8   2.0000     -19.266342      -524.2638
   9   2.0000     -19.244369      -523.6659
  10   2.0000     -19.230559      -523.2901
  11   2.0000     -19.226466      -523.1787
  12   2.0000     -19.216457      -522.9064
  13   2.0000     -19.212812      -522.8072
  14   2.0000     -14.435763      -392.8171
  15   2.0000     -14.434255      -392.7761
  16   2.0000     -14.433229      -392.7481
  17   2.0000     -14.430163      -392.6647
  18   2.0000     -14.426031      -392.5523
  19   2.0000     -14.419296      -392.3690
  20   2.0000     -14.408744      -392.0819
  21   2.0000     -14.403358      -391.9353
  22   2.0000     -10.415518      -283.4207
  23   2.0000     -10.405326      -283.1433
  24   2.0000     -10.402339      -283.0620
  25   2.0000     -10.401972      -283.0520
  26   2.0000     -10.400492      -283.0118
  27   2.0000     -10.400277      -283.0059
  28   2.0000     -10.397519      -282.9309
  29   2.0000     -10.397180      -282.9217
  30   2.0000     -10.388341      -282.6811
  31   2.0000     -10.382256      -282.5156
  32   2.0000     -10.372505      -282.2502
  33   2.0000     -10.369532      -282.1693
  34   2.0000     -10.363356      -282.0013
  35   2.0000     -10.362673      -281.9827
  36   2.0000     -10.360842      -281.9328
  37   2.0000     -10.359621      -281.8996
  38   2.0000     -10.358217      -281.8614
  39   2.0000     -10.344821      -281.4969
  40   2.0000     -10.344757      -281.4952
  41   2.0000     -10.339747      -281.3588
  42   2.0000     -10.339627      -281.3556
  43   2.0000     -10.338330      -281.3203
  44   2.0000     -10.336503      -281.2705
  45   2.0000     -10.336211      -281.2626
  46   2.0000     -10.335127      -281.2331
  47   2.0000     -10.334705      -281.2216
  48   2.0000     -10.334092      -281.2049
  49   2.0000     -10.333642      -281.1927
  50   2.0000     -10.332160      -281.1524
  51   2.0000     -10.327782      -281.0332
  52   2.0000     -10.326503      -280.9984
  53   2.0000     -10.325808      -280.9795
  54   2.0000     -10.321788      -280.8701
  55   2.0000     -10.321246      -280.8554
  56   2.0000     -10.321143      -280.8526
  57   2.0000     -10.320827      -280.8440
  58   2.0000     -10.319100      -280.7970
  59   2.0000     -10.318838      -280.7899
  60   2.0000     -10.316631      -280.7298
  61   2.0000     -10.314917      -280.6831
  62   2.0000     -10.314751      -280.6787
  63   2.0000     -10.311171      -280.5812
  64   2.0000     -10.310883      -280.5734
  65   2.0000     -10.310830      -280.5719
  66   2.0000     -10.309608      -280.5387
  67   2.0000     -10.306865      -280.4641
  68   2.0000     -10.304910      -280.4109
  69   2.0000     -10.303583      -280.3748
  70   2.0000     -10.301942      -280.3301
  71   2.0000     -10.301879      -280.3284
  72   2.0000     -10.301625      -280.3215
  73   2.0000     -10.300657      -280.2951
  74   2.0000     -10.299778      -280.2712
  75   2.0000     -10.298852      -280.2460
  76   2.0000     -10.297600      -280.2120
  77   2.0000     -10.296300      -280.1766
  78   2.0000     -10.295211      -280.1469
  79   2.0000     -10.287243      -279.9301
  80   2.0000     -10.286582      -279.9121
  81   2.0000      -8.070000      -219.5959
  82   2.0000      -6.039129      -164.3331
  83   2.0000      -6.035242      -164.2273
  84   2.0000      -6.032241      -164.1456
  85   2.0000      -1.345596       -36.6155
  86   2.0000      -1.344680       -36.5906
  87   2.0000      -1.334888       -36.3241
  88   2.0000      -1.333142       -36.2766
  89   2.0000      -1.323163       -36.0051
  90   2.0000      -1.322993       -36.0005
  91   2.0000      -1.199562       -32.6417
  92   2.0000      -1.162489       -31.6329
  93   2.0000      -1.151654       -31.3381
  94   2.0000      -1.144735       -31.1498
  95   2.0000      -1.143848       -31.1257
  96   2.0000      -1.127208       -30.6729
  97   2.0000      -1.110579       -30.2204
  98   2.0000      -1.093942       -29.7677
  99   2.0000      -1.077733       -29.3266
 100   2.0000      -1.074391       -29.2357
 101   2.0000      -1.057382       -28.7728
 102   2.0000      -1.040242       -28.3064
 103   2.0000      -1.035204       -28.1693
 104   2.0000      -1.020567       -27.7710
 105   2.0000      -1.017013       -27.6743
 106   2.0000      -1.014153       -27.5965
 107   2.0000      -1.012771       -27.5589
 108   2.0000      -1.007215       -27.4077
 109   2.0000      -0.976842       -26.5812
 110   2.0000      -0.971493       -26.4357
 111   2.0000      -0.952391       -25.9159
 112   2.0000      -0.947551       -25.7842
 113   2.0000      -0.941505       -25.6196
 114   2.0000      -0.938826       -25.5467
 115   2.0000      -0.933054       -25.3897
 116   2.0000      -0.925410       -25.1817
 117   2.0000      -0.917178       -24.9577
 118   2.0000      -0.914071       -24.8731
 119   2.0000      -0.903940       -24.5975
 120   2.0000      -0.893218       -24.3057
 121   2.0000      -0.884883       -24.0789
 122   2.0000      -0.883877       -24.0515
 123   2.0000      -0.881347       -23.9827
 124   2.0000      -0.872160       -23.7327
 125   2.0000      -0.860774       -23.4229
 126   2.0000      -0.853683       -23.2299
 127   2.0000      -0.851072       -23.1589
 128   2.0000      -0.843097       -22.9418
 129   2.0000      -0.829351       -22.5678
 130   2.0000      -0.819570       -22.3016
 131   2.0000      -0.803314       -21.8593
 132   2.0000      -0.795400       -21.6439
 133   2.0000      -0.788881       -21.4665
 134   2.0000      -0.785246       -21.3676
 135   2.0000      -0.776093       -21.1186
 136   2.0000      -0.768619       -20.9152
 137   2.0000      -0.761911       -20.7326
 138   2.0000      -0.754894       -20.5417
 139   2.0000      -0.743208       -20.2237
 140   2.0000      -0.741146       -20.1676
 141   2.0000      -0.738264       -20.0892
 142   2.0000      -0.735770       -20.0213
 143   2.0000      -0.732098       -19.9214
 144   2.0000      -0.727899       -19.8071
 145   2.0000      -0.714691       -19.4477
 146   2.0000      -0.712580       -19.3903
 147   2.0000      -0.706583       -19.2271
 148   2.0000      -0.696409       -18.9503
 149   2.0000      -0.693872       -18.8812
 150   2.0000      -0.691100       -18.8058
 151   2.0000      -0.683091       -18.5878
 152   2.0000      -0.672925       -18.3112
 153   2.0000      -0.668291       -18.1851
 154   2.0000      -0.665798       -18.1173
 155   2.0000      -0.663665       -18.0592
 156   2.0000      -0.662415       -18.0252
 157   2.0000      -0.657823       -17.9003
 158   2.0000      -0.653158       -17.7733
 159   2.0000      -0.651378       -17.7249
 160   2.0000      -0.647409       -17.6169
 161   2.0000      -0.645183       -17.5563
 162   2.0000      -0.641732       -17.4624
 163   2.0000      -0.635768       -17.3001
 164   2.0000      -0.629634       -17.1332
 165   2.0000      -0.628506       -17.1025
 166   2.0000      -0.624243       -16.9865
 167   2.0000      -0.622050       -16.9268
 168   2.0000      -0.618136       -16.8203
 169   2.0000      -0.616882       -16.7862
 170   2.0000      -0.616124       -16.7656
 171   2.0000      -0.614200       -16.7132
 172   2.0000      -0.609317       -16.5804
 173   2.0000      -0.608001       -16.5446
 174   2.0000      -0.602195       -16.3866
 175   2.0000      -0.598243       -16.2790
 176   2.0000      -0.593247       -16.1431
 177   2.0000      -0.591248       -16.0887
 178   2.0000      -0.582774       -15.8581
 179   2.0000      -0.581383       -15.8202
 180   2.0000      -0.579837       -15.7782
 181   2.0000      -0.577646       -15.7186
 182   2.0000      -0.570193       -15.5157
 183   2.0000      -0.569863       -15.5068
 184   2.0000      -0.565646       -15.3920
 185   2.0000      -0.562766       -15.3137
 186   2.0000      -0.561598       -15.2819
 187   2.0000      -0.560700       -15.2574
 188   2.0000      -0.558368       -15.1940
 189   2.0000      -0.555905       -15.1270
 190   2.0000      -0.553160       -15.0523
 191   2.0000      -0.552055       -15.0222
 192   2.0000      -0.549352       -14.9486
 193   2.0000      -0.548495       -14.9253
 194   2.0000      -0.548024       -14.9125
 195   2.0000      -0.545905       -14.8548
 196   2.0000      -0.543793       -14.7974
 197   2.0000      -0.540561       -14.7094
 198   2.0000      -0.539845       -14.6899
 199   2.0000      -0.538052       -14.6411
 200   2.0000      -0.535311       -14.5665
 201   2.0000      -0.533325       -14.5125
 202   2.0000      -0.532522       -14.4907
 203   2.0000      -0.527570       -14.3559
 204   2.0000      -0.524990       -14.2857
 205   2.0000      -0.523199       -14.2370
 206   2.0000      -0.519763       -14.1435
 207   2.0000      -0.517247       -14.0750
 208   2.0000      -0.516243       -14.0477
 209   2.0000      -0.512484       -13.9454
 210   2.0000      -0.511337       -13.9142
 211   2.0000      -0.510908       -13.9025
 212   2.0000      -0.509103       -13.8534
 213   2.0000      -0.507387       -13.8067
 214   2.0000      -0.502148       -13.6641
 215   2.0000      -0.499714       -13.5979
 216   2.0000      -0.497268       -13.5313
 217   2.0000      -0.495159       -13.4740
 218   2.0000      -0.492525       -13.4023
 219   2.0000      -0.491324       -13.3696
 220   2.0000      -0.487259       -13.2590
 221   2.0000      -0.486233       -13.2311
 222   2.0000      -0.485582       -13.2134
 223   2.0000      -0.480866       -13.0850
 224   2.0000      -0.480440       -13.0735
 225   2.0000      -0.478608       -13.0236
 226   2.0000      -0.476956       -12.9786
 227   2.0000      -0.476062       -12.9543
 228   2.0000      -0.473953       -12.8969
 229   2.0000      -0.472514       -12.8578
 230   2.0000      -0.470705       -12.8085
 231   2.0000      -0.465850       -12.6764
 232   2.0000      -0.465325       -12.6621
 233   2.0000      -0.463669       -12.6171
 234   2.0000      -0.461803       -12.5663
 235   2.0000      -0.461286       -12.5522
 236   2.0000      -0.460406       -12.5283
 237   2.0000      -0.459489       -12.5033
 238   2.0000      -0.456869       -12.4320
 239   2.0000      -0.454256       -12.3609
 240   2.0000      -0.449527       -12.2323
 241   2.0000      -0.446437       -12.1482
 242   2.0000      -0.443973       -12.0811
 243   2.0000      -0.440528       -11.9874
 244   2.0000      -0.438310       -11.9270
 245   2.0000      -0.434122       -11.8131
 246   2.0000      -0.431783       -11.7494
 247   2.0000      -0.428945       -11.6722
 248   2.0000      -0.426522       -11.6062
 249   2.0000      -0.425300       -11.5730
 250   2.0000      -0.419626       -11.4186
 251   2.0000      -0.417150       -11.3512
 252   2.0000      -0.406010       -11.0481
 253   2.0000      -0.396507       -10.7895
 254   2.0000      -0.394607       -10.7378
 255   2.0000      -0.394118       -10.7245
 256   2.0000      -0.377803       -10.2806
 257   2.0000      -0.376860       -10.2549
 258   2.0000      -0.368389       -10.0244
 259   2.0000      -0.368003       -10.0139
 260   2.0000      -0.364241        -9.9115
 261   2.0000      -0.362709        -9.8698
 262   2.0000      -0.360244        -9.8027
 263   2.0000      -0.356419        -9.6987
 264   2.0000      -0.352325        -9.5872
 265   2.0000      -0.351126        -9.5546
 266   2.0000      -0.348402        -9.4805
 267   2.0000      -0.347876        -9.4662
 268   2.0000      -0.344789        -9.3822
 269   2.0000      -0.343938        -9.3590
 270   2.0000      -0.335127        -9.1193
 271   2.0000      -0.332541        -9.0489
 272   2.0000      -0.331734        -9.0269
 273   2.0000      -0.330637        -8.9971
 274   2.0000      -0.324916        -8.8414
 275   2.0000      -0.324233        -8.8228
 276   2.0000      -0.312583        -8.5058
 277   2.0000      -0.292371        -7.9558
 278   2.0000      -0.262919        -7.1544
 279   0.0000      -0.133948        -3.6449
 280   0.0000      -0.123008        -3.3472
 281   0.0000      -0.101827        -2.7708
 282   0.0000      -0.093607        -2.5472
 283   0.0000      -0.080395        -2.1877

MULLIKEN ATOMIC CHARGES
-----------------------
   0 C :    0.127229
   1 O :   -0.112240
   2 C :   -0.069944
   3 C :    0.110240
   4 C :   -0.100802
   5 C :    0.255460
   6 C :    0.158019
   7 C :    0.148294
   8 F :   -0.144708
   9 F :   -0.150189
  10 F :   -0.151658
  11 C :    0.286135
  12 C :   -0.317207
  13 C :   -0.189098
  14 N :    0.175981
  15 C :   -0.203376
  16 N :    0.184690
  17 C :   -0.044035
  18 C :   -0.058017
  19 C :    0.015245
  20 N :   -0.021132
  21 C :    0.073188
  22 C :   -0.156833
  23 C :    0.217069
  24 O :   -0.176972
  25 C :    0.004950
  26 C :   -0.013957
  27 N :   -0.045644
  28 C :    0.096717
  29 C :   -0.095226
  30 C :    0.091179
  31 C :   -0.011451
  32 C :    0.027537
  33 C :   -0.099558
  34 S :    0.105700
  35 C :   -0.111653
  36 C :   -0.059485
  37 C :   -0.050392
  38 C :    0.156876
  39 C :   -0.169641
  40 C :    0.172323
  41 O :   -0.219926
  42 O :   -0.145595
  43 C :    0.093226
  44 O :   -0.308118
  45 C :    0.194270
  46 C :    0.060401
  47 C :   -0.090892
  48 C :    0.067076
  49 N :   -0.044284
  50 C :    0.079253
  51 C :   -0.135692
  52 C :    0.218772
  53 O :   -0.136236
  54 C :   -0.023586
  55 C :   -0.037594
  56 N :   -0.057505
  57 C :    0.090351
  58 C :   -0.096196
  59 C :    0.034036
  60 C :   -0.034940
  61 C :    0.029769
  62 C :    0.048796
  63 C :   -0.117974
  64 C :    0.129390
  65 O :   -0.113415
  66 C :   -0.069920
  67 C :    0.052046
  68 C :    0.266140
  69 C :   -0.368384
  70 C :   -0.158908
  71 N :    0.145964
  72 C :   -0.195167
  73 N :    0.188821
  74 C :   -0.093728
  75 C :    0.250558
  76 C :    0.168136
  77 C :    0.151245
  78 F :   -0.139617
  79 F :   -0.156028
  80 F :   -0.155298
  81 H :    0.015247
  82 H :    0.061963
  83 H :    0.017857
  84 H :    0.000250
  85 H :   -0.021679
  86 H :    0.002071
  87 H :    0.037131
  88 H :    0.044280
  89 H :    0.046534
  90 H :    0.191138
  91 H :    0.014505
  92 H :    0.192620
  93 H :    0.037969
  94 H :    0.018637
  95 H :    0.018305
  96 H :    0.009649
  97 H :    0.006914
  98 H :   -0.006567
  99 H :    0.001852
 100 H :    0.037259
 101 H :    0.040242
 102 H :    0.010958
Sum of atomic charges:   -0.0000000

LOEWDIN ATOMIC CHARGES
----------------------
   0 C :    0.085142
   1 O :   -0.108560
   2 C :   -0.076078
   3 C :    0.007105
   4 C :   -0.018772
   5 C :    0.091377
   6 C :    0.046241
   7 C :    0.082949
   8 F :   -0.025164
   9 F :   -0.030325
  10 F :   -0.029490
  11 C :    0.073456
  12 C :   -0.108026
  13 C :   -0.017868
  14 N :   -0.028327
  15 C :   -0.023507
  16 N :   -0.026367
  17 C :   -0.051673
  18 C :    0.057696
  19 C :    0.061324
  20 N :   -0.072497
  21 C :    0.046649
  22 C :   -0.054892
  23 C :    0.072966
  24 O :   -0.152044
  25 C :   -0.038706
  26 C :    0.039037
  27 N :   -0.088528
  28 C :    0.086587
  29 C :   -0.022081
  30 C :   -0.007911
  31 C :   -0.017004
  32 C :   -0.016500
  33 C :   -0.149527
  34 S :    0.457484
  35 C :   -0.175011
  36 C :   -0.026022
  37 C :   -0.046193
  38 C :   -0.020526
  39 C :   -0.070053
  40 C :    0.082024
  41 O :   -0.180076
  42 O :   -0.017410
  43 C :    0.076292
  44 O :   -0.112635
  45 C :   -0.035617
  46 C :    0.045311
  47 C :   -0.071468
  48 C :    0.069580
  49 N :   -0.113175
  50 C :    0.049602
  51 C :   -0.020193
  52 C :    0.068926
  53 O :   -0.140444
  54 C :   -0.042547
  55 C :    0.018876
  56 N :   -0.097710
  57 C :    0.071368
  58 C :   -0.037520
  59 C :   -0.036851
  60 C :    0.015669
  61 C :   -0.003672
  62 C :    0.082459
  63 C :   -0.090540
  64 C :    0.083200
  65 O :   -0.122150
  66 C :   -0.080051
  67 C :   -0.001850
  68 C :    0.067963
  69 C :   -0.135570
  70 C :   -0.013759
  71 N :   -0.059431
  72 C :   -0.019769
  73 N :   -0.034129
  74 C :   -0.030655
  75 C :    0.081909
  76 C :    0.042927
  77 C :    0.088211
  78 F :   -0.022589
  79 F :   -0.031003
  80 F :   -0.025605
  81 H :    0.052614
  82 H :    0.062417
  83 H :    0.027257
  84 H :    0.036160
  85 H :    0.026921
  86 H :    0.029458
  87 H :    0.041360
  88 H :    0.038159
  89 H :    0.047384
  90 H :    0.077851
  91 H :    0.017476
  92 H :    0.092322
  93 H :    0.047579
  94 H :    0.034179
  95 H :    0.045473
  96 H :    0.018150
  97 H :    0.022766
  98 H :    0.033964
  99 H :    0.029789
 100 H :    0.045448
 101 H :    0.051338
 102 H :    0.047675

  Mayer bond orders larger than 0.100000
B(  0-C ,  1-O ) :   2.2251 B(  0-C ,  2-C ) :   0.9576 B(  0-C , 17-C ) :   0.9197
B(  2-C ,  3-C ) :   1.3366 B(  2-C ,  7-C ) :   1.2678 B(  3-C ,  4-C ) :   1.3119
B(  3-C , 11-C ) :   1.0302 B(  4-C ,  5-C ) :   1.3386 B(  4-C , 81-H ) :   0.9936
B(  5-C ,  6-C ) :   1.2838 B(  5-C , 10-F ) :   1.1597 B(  6-C ,  7-C ) :   1.2729
B(  6-C ,  9-F ) :   1.1787 B(  7-C ,  8-F ) :   1.2235 B( 11-C , 12-C ) :   1.6893
B( 11-C , 17-C ) :   1.0247 B( 12-C , 13-C ) :   1.1317 B( 12-C , 15-C ) :   1.1404
B( 13-C , 14-N ) :   2.9842 B( 15-C , 16-N ) :   2.9893 B( 17-C , 18-C ) :   1.7506
B( 18-C , 19-C ) :   1.0144 B( 18-C , 82-H ) :   0.9298 B( 19-C , 20-N ) :   1.6448
B( 19-C , 21-C ) :   0.1125 B( 19-C , 30-C ) :   1.0183 B( 20-N , 21-C ) :   1.3016
B( 21-C , 22-C ) :   1.0644 B( 21-C , 26-C ) :   1.4640 B( 22-C , 23-C ) :   0.9173
B( 22-C , 30-C ) :   1.5306 B( 23-C , 24-O ) :   2.0912 B( 23-C , 25-C ) :   0.9356
B( 24-O , 86-H ) :   0.1080 B( 25-C , 26-C ) :   1.0530 B( 25-C , 29-C ) :   1.6207
B( 26-C , 27-N ) :   1.2960 B( 27-N , 28-C ) :   1.6756 B( 28-C , 29-C ) :   1.0469
B( 28-C , 83-H ) :   0.9883 B( 29-C , 84-H ) :   1.0112 B( 30-C , 31-C ) :   1.1318
B( 31-C , 32-C ) :   1.6645 B( 31-C , 85-H ) :   0.9502 B( 32-C , 33-C ) :   1.1333
B( 32-C , 86-H ) :   0.9218 B( 33-C , 34-S ) :   1.1390 B( 33-C , 37-C ) :   1.4628
B( 34-S , 35-C ) :   1.0995 B( 35-C , 36-C ) :   1.4241 B( 35-C , 46-C ) :   1.1772
B( 36-C , 37-C ) :   1.3594 B( 36-C , 45-C ) :   1.0422 B( 37-C , 38-C ) :   1.0340
B( 38-C , 39-C ) :   1.0353 B( 38-C , 87-H ) :   0.8998 B( 38-C , 88-H ) :   0.8922
B( 39-C , 40-C ) :   0.9097 B( 39-C , 43-C ) :   1.0072 B( 39-C , 89-H ) :   0.8908
B( 40-C , 41-O ) :   2.0654 B( 40-C , 42-O ) :   1.3030 B( 42-O , 90-H ) :   0.9077
B( 43-C , 44-O ) :   1.0044 B( 43-C , 45-C ) :   1.0504 B( 43-C , 91-H ) :   0.9387
B( 44-O , 90-H ) :   0.1077 B( 44-O , 92-H ) :   0.9607 B( 45-C , 93-H ) :   0.8820
B( 45-C , 94-H ) :   0.9037 B( 46-C , 47-C ) :   1.5959 B( 46-C , 95-H ) :   0.9850
B( 47-C , 48-C ) :   1.1688 B( 47-C , 96-H ) :   0.9427 B( 48-C , 49-N ) :   1.5817
B( 48-C , 50-C ) :   0.1175 B( 48-C , 59-C ) :   1.0153 B( 49-N , 50-C ) :   1.3678
B( 50-C , 51-C ) :   1.0570 B( 50-C , 55-C ) :   1.3851 B( 51-C , 52-C ) :   0.8869
B( 51-C , 59-C ) :   1.5753 B( 52-C , 53-O ) :   2.2309 B( 52-C , 54-C ) :   0.9194
B( 54-C , 55-C ) :   1.0706 B( 54-C , 58-C ) :   1.5876 B( 55-C , 56-N ) :   1.3303
B( 56-N , 57-C ) :   1.6393 B( 57-C , 58-C ) :   1.0858 B( 57-C , 97-H ) :   0.9890
B( 58-C , 98-H ) :   1.0113 B( 59-C , 60-C ) :   1.1338 B( 60-C , 61-C ) :   1.7131
B( 60-C , 99-H ) :   0.9461 B( 61-C , 62-C ) :   1.0989 B( 61-C ,100-H ) :   0.9413
B( 62-C , 63-C ) :   1.6886 B( 62-C ,101-H ) :   0.9355 B( 63-C , 64-C ) :   0.9432
B( 63-C , 68-C ) :   1.0299 B( 64-C , 65-O ) :   2.3144 B( 64-C , 66-C ) :   0.9050
B( 66-C , 67-C ) :   1.3563 B( 66-C , 77-C ) :   1.2697 B( 67-C , 68-C ) :   1.0305
B( 67-C , 74-C ) :   1.3251 B( 68-C , 69-C ) :   1.6476 B( 69-C , 70-C ) :   1.1347
B( 69-C , 72-C ) :   1.1640 B( 70-C , 71-N ) :   2.9453 B( 72-C , 73-N ) :   2.9922
B( 74-C , 75-C ) :   1.3399 B( 74-C ,102-H ) :   0.9985 B( 75-C , 76-C ) :   1.2940
B( 75-C , 80-F ) :   1.1228 B( 76-C , 77-C ) :   1.2758 B( 76-C , 79-F ) :   1.1491
B( 77-C , 78-F ) :   1.2473

-----------------------------------------------------------------------------
         ABSORPTION SPECTRUM VIA TRANSITION ELECTRIC DIPOLE MOMENTS
-----------------------------------------------------------------------------
State   Energy  Wavelength   fosc         T2         TX        TY        TZ
        (cm-1)    (nm)                  (au**2)     (au)      (au)      (au)
-----------------------------------------------------------------------------
   0   13043.2    766.7   0.124519245   3.14289  -1.63330   0.14949   0.67295
   1   16046.8    623.2   0.786169735  16.12883  -2.72494   2.37754   1.74666
   2   18111.5    552.1   0.049749341   0.90429   0.58141  -0.74333   0.11712
   3   18948.5    527.7   0.375371239   6.52171  -1.81983   1.16267   1.36313
   4   21602.6    462.9   0.002405319   0.03666   0.03894  -0.02607  -0.18563
   5   21953.6    455.5   0.005103918   0.07654  -0.11732  -0.24387   0.05747
   6   22283.4    448.8   0.391382391   5.78223   1.35309  -0.82940  -1.80651
   7   22933.8    436.0   0.039375316   0.56523  -0.41298   0.41768   0.46928
   8   23084.7    433.2   0.006098388   0.08697   0.18598   0.22347  -0.04940
   9   24285.5    411.8   0.014208475   0.19261  -0.07092   0.41493   0.12414
  10   24678.2    405.2   0.011620853   0.15502  -0.34659  -0.15228   0.10822
  11   24997.0    400.0   0.028165420   0.37094   0.51501   0.31223  -0.09062
  12   25245.9    396.1   0.054075522   0.70516  -0.33160  -0.77016  -0.04537
  13   25398.3    393.7   0.142728521   1.85004  -0.74120  -1.14046  -0.00456
  14   25609.9    390.5   0.000250980   0.00323  -0.02986   0.02835  -0.03913
  15   25730.8    388.6   0.079447636   1.01649   0.47000   0.89189  -0.01135
  16   26005.6    384.5   0.014516859   0.18377   0.08008   0.30758  -0.28767
  17   26600.9    375.9   0.034065338   0.42159  -0.59154   0.09280  -0.25112
  18   26966.4    370.8   0.000207185   0.00253   0.02412   0.03685   0.02428
  19   27014.7    370.2   0.012850007   0.15660  -0.36847   0.04480  -0.13717
  20   27377.0    365.3   0.040074894   0.48191   0.61634  -0.30459  -0.09622
  21   27620.6    362.0   0.069622907   0.82984   0.12920   0.75057  -0.49979
  22   27861.2    358.9   0.210477747   2.48703   1.12409   1.08621   0.20880
  23   28429.1    351.8   0.093667676   1.08468  -0.82788  -0.63066   0.03941
  24   28743.7    347.9   0.094793147   1.08570   0.37082   0.93999   0.25420
  25   29237.7    342.0   0.183020097   2.06078  -0.95121  -1.07437   0.04117
  26   29536.6    338.6   0.004505180   0.05021   0.12836  -0.13961  -0.11936
  27   29776.7    335.8   0.098846303   1.09285  -0.55287   0.39037   0.79673
  28   29862.5    334.9   0.010704389   0.11801  -0.16067  -0.29896   0.05305
  29   30083.1    332.4   0.079297177   0.86778   0.78734  -0.05759  -0.49454
  30   30484.6    328.0   0.061367161   0.66272  -0.06813   0.70061   0.40893
  31   30583.4    327.0   0.295032378   3.17585   1.50345  -0.45922  -0.83941
  32   30912.7    323.5   0.060850982   0.64805  -0.70176  -0.11745   0.37654
  33   31573.1    316.7   0.220056644   2.29453   1.26107   0.44432  -0.71191
  34   31803.3    314.4   0.036420132   0.37700  -0.11457  -0.59052   0.12314
  35   31855.2    313.9   0.099703585   1.03040   0.65790  -0.69731  -0.33367
  36   32087.3    311.7   0.263184330   2.70024   1.37908   0.64364  -0.61977
  37   32200.8    310.6   0.084727625   0.86623  -0.78149  -0.21769   0.45620
  38   32248.5    310.1   0.088792350   0.90645   0.91469   0.21268   0.15668
  39   32566.3    307.1   0.127591170   1.28982   0.94353  -0.06097  -0.62917
  40   32728.2    305.5   0.136228541   1.37032   1.11509   0.23385  -0.26871
  41   33096.1    302.2   0.061769560   0.61443   0.13695  -0.76555  -0.09798
  42   33474.9    298.7   0.022884372   0.22506   0.11206  -0.46093   0.00676
  43   33578.9    297.8   0.056294499   0.55192  -0.60570   0.05770   0.42628
  44   33773.0    296.1   0.007824686   0.07627  -0.03206   0.23511  -0.14131
  45   34065.0    293.6   0.195470126   1.88907   0.04226   1.37073  -0.09158
  46   34185.3    292.5   0.057671069   0.55538  -0.62878  -0.08042  -0.39186
  47   34362.3    291.0   0.029925604   0.28671   0.08254  -0.24285  -0.47002
  48   34521.6    289.7   0.098445619   0.93882  -0.73675   0.46906  -0.41952
  49   34627.8    288.8   0.145138571   1.37986   0.84427  -0.80896   0.11248
  50   35132.9    284.6   0.159462423   1.49424  -1.10951   0.00611  -0.51302
  51   35172.5    284.3   0.006798949   0.06364   0.02163  -0.05737   0.24470
  52   35227.1    283.9   0.053104958   0.49629  -0.28820   0.48959  -0.41657
  53   35477.0    281.9   0.041401619   0.38419  -0.61730  -0.04121   0.03779
  54   35534.0    281.4   0.031615490   0.29291  -0.43269  -0.29930  -0.12692
  55   35775.5    279.5   0.030814988   0.28356   0.49773   0.00457   0.18924
  56   35808.8    279.3   0.261267831   2.40200   0.44172   1.48399  -0.06822
  57   36043.9    277.4   0.119420910   1.09075   0.97364  -0.30355  -0.22502
  58   36444.8    274.4   0.017215395   0.15551   0.05287  -0.22484   0.31963
  59   36460.5    274.3   0.074526630   0.67292  -0.71197  -0.24454   0.32592
  60   36528.1    273.8   0.035537040   0.32028   0.15162  -0.54387   0.03874
  61   36593.3    273.3   0.065316170   0.58762   0.73899  -0.02154   0.20261
  62   36739.2    272.2   0.026897364   0.24102  -0.36193  -0.32748  -0.05279
  63   36797.2    271.8   0.018494189   0.16546   0.08711   0.39572   0.03570
  64   36894.5    271.0   0.073097465   0.65225  -0.71626   0.31107   0.20606
  65   37172.9    269.0   0.071167737   0.63028  -0.59974  -0.44081  -0.27619
  66   37337.8    267.8   0.051568041   0.45468  -0.47958   0.43489   0.18857
  67   37430.4    267.2   0.042623726   0.37489   0.16641  -0.55161  -0.20718
  68   37558.1    266.3   0.003540551   0.03103   0.03075   0.13189   0.11266
  69   37659.8    265.5   0.072100353   0.63028  -0.65503  -0.38361  -0.23251
  70   37827.4    264.4   0.004195038   0.03651  -0.02044   0.18900   0.01927
  71   37945.0    263.5   0.007253926   0.06294  -0.14141   0.16089   0.13058
  72   38005.1    263.1   0.027814898   0.24094   0.10125  -0.47415  -0.07661
  73   38080.8    262.6   0.024778312   0.21421   0.36929   0.10511  -0.25844
  74   38272.2    261.3   0.102125792   0.87847   0.70080   0.48422   0.39099
  75   38402.0    260.4   0.029889005   0.25623   0.48766  -0.12554  -0.05152
  76   38532.6    259.5   0.010947766   0.09353   0.17158   0.25269  -0.01567
  77   38783.3    257.8   0.001630103   0.01384   0.04053   0.02911   0.10652
  78   38980.5    256.5   0.048691879   0.41123   0.60545   0.18297   0.10574
  79   39148.2    255.4   0.038275558   0.32187  -0.40430  -0.14492  -0.37070
  80   39236.5    254.9   0.034307601   0.28786  -0.36939  -0.31299   0.23118
  81   39337.9    254.2   0.076518277   0.64037   0.30772  -0.59334  -0.44002
  82   39442.5    253.5   0.054121513   0.45173  -0.21891  -0.63065   0.07803
  83   39726.8    251.7   0.019133455   0.15856   0.37091  -0.03081   0.14153
  84   39903.2    250.6   0.013044671   0.10762  -0.14886  -0.26359   0.12641
  85   39992.0    250.0   0.067251023   0.55361   0.29316  -0.68380  -0.00905
  86   40137.6    249.1   0.010329257   0.08472  -0.24494  -0.03386   0.15356
  87   40241.9    248.5   0.031557984   0.25817   0.36581   0.33642  -0.10574

FINAL SINGLE POINT ENERGY     -4218.312673356822

DIPOLE MOMENT
-------------
                                X             Y             Z
Electronic contribution:    -24.67022       5.68932      39.33286
Nuclear contribution   :     25.55632      -5.97921     -40.08187
                        -----------------------------------------
Total Dipole Moment    :      0.88610      -0.28989      -0.74902
                        -----------------------------------------
Magnitude (a.u.)       :      1.19593
Magnitude (Debye)      :      3.03980

Rotational constants in cm-1:     0.001114     0.000544     0.000409
Rotational constants in MHz :    33.390629    16.299370    12.248097

                             ****ORCA TERMINATED NORMALLY****
TOTAL RUN TIME: 0 days 0 hours 14 minutes 25 seconds 397 msec
