                         Program Version 4.2.0 -  RELEASE  -
|  1> # ORCA input file
|  2> # SCF done       -193.360912851471          0.000742184927
|  3> ! CAM-B3LYP def2-SVP def2/J RIJCOSX Grid4 TightSCF
|  4> %maxcore 5000
|  5> %tddft
|  6>     Mode sTDDFT
|  7>     Ethresh 5.0
|  8>     maxcore 5000
|  9> end
| 10>
| 11> %pal
| 12>   nprocs 6
| 13>   end
| 14> * xyz 0 1
| 15>    C       -6.05986        -2.61417        -3.75474
| 16>    O       -6.42996        -1.57763        -4.22832
| 17>    C       -6.76146        -3.92516        -3.75264
| 18>    C       -5.87070        -4.94992        -3.37796
| 19>    C       -6.29136        -6.26852        -3.31131
| 20>    C       -7.61321        -6.54583        -3.62602
| 21>    C       -8.50849        -5.54540        -4.00815
| 22>    C       -8.07610        -4.21808        -4.07602
| 23>    F       -8.92946        -3.27199        -4.43892
| 24>    F       -9.76803        -5.85593        -4.30753
| 25>    F       -8.04467        -7.80391        -3.56403
| 26>    C       -4.55872        -4.36389        -3.12303
| 27>    C       -3.37628        -5.03549        -3.00125
| 28>    C       -3.25834        -6.44413        -3.01998
| 29>    N       -3.11180        -7.58080        -3.02316
| 30>    C       -2.11779        -4.39661        -2.92243
| 31>    N       -1.07555        -3.91742        -2.89737
| 32>    C       -4.72891        -2.91623        -3.13277
| 33>    C       -3.87213        -2.00879        -2.62451
| 34>    C       -4.07552        -0.58858        -2.55477
| 35>    N       -5.19642        -0.01804        -2.18676
| 36>    C       -4.95194         1.31820        -2.19883
| 37>    C       -3.56628         1.59941        -2.59884
| 38>    C       -3.31858         3.05108        -2.60799
| 39>    O       -2.29638         3.64393        -2.88012
| 40>    C       -4.62225         3.60463        -2.20017
| 41>    C       -5.59018         2.50507        -1.95291
| 42>    N       -6.79061         3.00975        -1.56948
| 43>    C       -6.63557         4.30680        -1.57090
| 44>    C       -5.30018         4.75032        -1.95913
| 45>    C       -2.97925         0.37518        -2.82295
| 46>    C       -1.66293         0.03059        -3.23653
| 47>    C       -0.74429         1.00411        -3.45238
| 48>    C        0.60405         0.88674        -3.86140
| 49>    O        1.24503         2.06719        -3.99134
| 50>    C        2.50670         1.82701        -4.38736
| 51>    C        2.69226         0.45067        -4.51638
| 52>    C        1.48314        -0.16096        -4.18301
| 53>    C        1.19183        -1.61562        -4.18134
| 54>    C        3.39262         2.90414        -4.61986
| 55>    N        4.63087         2.69422        -5.04814
| 56>    C        5.17806         3.91334        -5.19376
| 57>    C        4.21953         4.97935        -4.85600
| 58>    C        4.84460         6.30583        -5.02044
| 59>    O        4.34076         7.40051        -4.87315
| 60>    C        6.21468         5.96827        -5.42703
| 61>    C        6.37458         4.50036        -5.53609
| 62>    N        7.63632         4.18464        -5.90537
| 63>    C        8.25955         5.33442        -6.01948
| 64>    C        7.43323         6.48751        -5.72896
| 65>    C        3.06739         4.34489        -4.46019
| 66>    C        1.84601         4.88556        -3.96709
| 67>    C        1.61015         6.21895        -3.90008
| 68>    C        0.41350         6.75949        -3.36736
| 69>    C        0.22317         8.07366        -3.06591
| 70>    C       -1.14002         8.63793        -2.89474
| 71>    O       -2.16520         8.03313        -2.70598
| 72>    C       -0.95647        10.10399        -3.06276
| 73>    C        0.41435        10.40336        -3.18436
| 74>    C        1.17774         9.16400        -3.03216
| 75>    C        2.50019         9.07872        -2.69521
| 76>    C        3.37016        10.18917        -2.63857
| 77>    N        4.10990        11.06401        -2.58507
| 78>    C        3.12285         7.89693        -2.23055
| 79>    N        3.65728         6.99807        -1.75950
| 80>    C        0.84090        11.70419        -3.38866
| 81>    C       -0.12137        12.70034        -3.46662
| 82>    C       -1.48198        12.42558        -3.33658
| 83>    C       -1.90432        11.11048        -3.13200
| 84>    F       -3.20318        10.85289        -3.01281
| 85>    F       -2.37661        13.41408        -3.41159
| 86>    F        0.26218        13.96119        -3.67434
| 87>    H       -5.64219        -7.07874        -3.02190
| 88>    H       -2.92739        -2.34439        -2.21407
| 89>    H       -7.45112         4.95287        -1.29577
| 90>    H       -4.97203         5.76924        -2.02217
| 91>    H       -1.42400        -1.01352        -3.37042
| 92>    H       -1.04663         2.03465        -3.30426
| 93>    H        3.60575        -0.01912        -4.81807
| 94>    H        2.08036        -2.17321        -4.46284
| 95>    H        0.39630        -1.84681        -4.88866
| 96>    H        0.86801        -1.94810        -3.19666
| 97>    H        9.29531         5.36279        -6.31012
| 98>    H        7.75384         7.50987        -5.75934
| 99>    H        1.10219         4.19988        -3.59091
|100>    H        2.35467         6.90481        -4.28029
|101>    H       -0.44091         6.10110        -3.24878
|102>    H        1.87976        11.96841        -3.49958
|103> *
|104>
|105>                          ****END OF INPUT****

CARTESIAN COORDINATES (ANGSTROEM)
---------------------------------
  C     -6.059860   -2.614170   -3.754740
  O     -6.429960   -1.577630   -4.228320
  C     -6.761460   -3.925160   -3.752640
  C     -5.870700   -4.949920   -3.377960
  C     -6.291360   -6.268520   -3.311310
  C     -7.613210   -6.545830   -3.626020
  C     -8.508490   -5.545400   -4.008150
  C     -8.076100   -4.218080   -4.076020
  F     -8.929460   -3.271990   -4.438920
  F     -9.768030   -5.855930   -4.307530
  F     -8.044670   -7.803910   -3.564030
  C     -4.558720   -4.363890   -3.123030
  C     -3.376280   -5.035490   -3.001250
  C     -3.258340   -6.444130   -3.019980
  N     -3.111800   -7.580800   -3.023160
  C     -2.117790   -4.396610   -2.922430
  N     -1.075550   -3.917420   -2.897370
  C     -4.728910   -2.916230   -3.132770
  C     -3.872130   -2.008790   -2.624510
  C     -4.075520   -0.588580   -2.554770
  N     -5.196420   -0.018040   -2.186760
  C     -4.951940    1.318200   -2.198830
  C     -3.566280    1.599410   -2.598840
  C     -3.318580    3.051080   -2.607990
  O     -2.296380    3.643930   -2.880120
  C     -4.622250    3.604630   -2.200170
  C     -5.590180    2.505070   -1.952910
  N     -6.790610    3.009750   -1.569480
  C     -6.635570    4.306800   -1.570900
  C     -5.300180    4.750320   -1.959130
  C     -2.979250    0.375180   -2.822950
  C     -1.662930    0.030590   -3.236530
  C     -0.744290    1.004110   -3.452380
  C      0.604050    0.886740   -3.861400
  O      1.245030    2.067190   -3.991340
  C      2.506700    1.827010   -4.387360
  C      2.692260    0.450670   -4.516380
  C      1.483140   -0.160960   -4.183010
  C      1.191830   -1.615620   -4.181340
  C      3.392620    2.904140   -4.619860
  N      4.630870    2.694220   -5.048140
  C      5.178060    3.913340   -5.193760
  C      4.219530    4.979350   -4.856000
  C      4.844600    6.305830   -5.020440
  O      4.340760    7.400510   -4.873150
  C      6.214680    5.968270   -5.427030
  C      6.374580    4.500360   -5.536090
  N      7.636320    4.184640   -5.905370
  C      8.259550    5.334420   -6.019480
  C      7.433230    6.487510   -5.728960
  C      3.067390    4.344890   -4.460190
  C      1.846010    4.885560   -3.967090
  C      1.610150    6.218950   -3.900080
  C      0.413500    6.759490   -3.367360
  C      0.223170    8.073660   -3.065910
  C     -1.140020    8.637930   -2.894740
  O     -2.165200    8.033130   -2.705980
  C     -0.956470   10.103990   -3.062760
  C      0.414350   10.403360   -3.184360
  C      1.177740    9.164000   -3.032160
  C      2.500190    9.078720   -2.695210
  C      3.370160   10.189170   -2.638570
  N      4.109900   11.064010   -2.585070
  C      3.122850    7.896930   -2.230550
  N      3.657280    6.998070   -1.759500
  C      0.840900   11.704190   -3.388660
  C     -0.121370   12.700340   -3.466620
  C     -1.481980   12.425580   -3.336580
  C     -1.904320   11.110480   -3.132000
  F     -3.203180   10.852890   -3.012810
  F     -2.376610   13.414080   -3.411590
  F      0.262180   13.961190   -3.674340
  H     -5.642190   -7.078740   -3.021900
  H     -2.927390   -2.344390   -2.214070
  H     -7.451120    4.952870   -1.295770
  H     -4.972030    5.769240   -2.022170
  H     -1.424000   -1.013520   -3.370420
  H     -1.046630    2.034650   -3.304260
  H      3.605750   -0.019120   -4.818070
  H      2.080360   -2.173210   -4.462840
  H      0.396300   -1.846810   -4.888660
  H      0.868010   -1.948100   -3.196660
  H      9.295310    5.362790   -6.310120
  H      7.753840    7.509870   -5.759340
  H      1.102190    4.199880   -3.590910
  H      2.354670    6.904810   -4.280290
  H     -0.440910    6.101100   -3.248780
  H      1.879760   11.968410   -3.499580

 Total Charge           Charge          ....    0
 Multiplicity           Mult            ....    1
 Number of Electrons    NEL             ....  484
 Basis Dimension        Dim             .... 1088

ORBITAL ENERGIES
----------------

  NO   OCC          E(Eh)            E(eV)
   0   2.0000     -24.829181      -675.6364
   1   2.0000     -24.827327      -675.5859
   2   2.0000     -24.826715      -675.5692
   3   2.0000     -24.809149      -675.0913
   4   2.0000     -24.808847      -675.0831
   5   2.0000     -24.806618      -675.0224
   6   2.0000     -19.316143      -525.6190
   7   2.0000     -19.244623      -523.6728
   8   2.0000     -19.229998      -523.2748
   9   2.0000     -19.219905      -523.0002
  10   2.0000     -19.216521      -522.9081
  11   2.0000     -14.454006      -393.3135
  12   2.0000     -14.446986      -393.1225
  13   2.0000     -14.432722      -392.7343
  14   2.0000     -14.421025      -392.4160
  15   2.0000     -14.416991      -392.3063
  16   2.0000     -14.413014      -392.1980
  17   2.0000     -14.410987      -392.1429
  18   2.0000     -14.404833      -391.9754
  19   2.0000     -10.418593      -283.5043
  20   2.0000     -10.416438      -283.4457
  21   2.0000     -10.414704      -283.3985
  22   2.0000     -10.401391      -283.0362
  23   2.0000     -10.397063      -282.9185
  24   2.0000     -10.394262      -282.8423
  25   2.0000     -10.391566      -282.7689
  26   2.0000     -10.388169      -282.6764
  27   2.0000     -10.382840      -282.5314
  28   2.0000     -10.378312      -282.4082
  29   2.0000     -10.376029      -282.3461
  30   2.0000     -10.375703      -282.3372
  31   2.0000     -10.361431      -281.9489
  32   2.0000     -10.356519      -281.8152
  33   2.0000     -10.356153      -281.8053
  34   2.0000     -10.352958      -281.7183
  35   2.0000     -10.351528      -281.6794
  36   2.0000     -10.350557      -281.6530
  37   2.0000     -10.348596      -281.5996
  38   2.0000     -10.347866      -281.5798
  39   2.0000     -10.346574      -281.5446
  40   2.0000     -10.345149      -281.5058
  41   2.0000     -10.343587      -281.4633
  42   2.0000     -10.343067      -281.4492
  43   2.0000     -10.342064      -281.4219
  44   2.0000     -10.341875      -281.4167
  45   2.0000     -10.335018      -281.2301
  46   2.0000     -10.333192      -281.1805
  47   2.0000     -10.332654      -281.1658
  48   2.0000     -10.325120      -280.9608
  49   2.0000     -10.323670      -280.9213
  50   2.0000     -10.323571      -280.9186
  51   2.0000     -10.321434      -280.8605
  52   2.0000     -10.318640      -280.7845
  53   2.0000     -10.313890      -280.6552
  54   2.0000     -10.312086      -280.6061
  55   2.0000     -10.310528      -280.5637
  56   2.0000     -10.309032      -280.5230
  57   2.0000     -10.307944      -280.4934
  58   2.0000     -10.306911      -280.4653
  59   2.0000     -10.305253      -280.4202
  60   2.0000     -10.305214      -280.4191
  61   2.0000     -10.304025      -280.3868
  62   2.0000     -10.302832      -280.3543
  63   2.0000     -10.302518      -280.3458
  64   2.0000     -10.298603      -280.2392
  65   2.0000     -10.298430      -280.2345
  66   2.0000     -10.298250      -280.2296
  67   2.0000     -10.298212      -280.2286
  68   2.0000     -10.288910      -279.9755
  69   2.0000     -10.288211      -279.9565
  70   2.0000     -10.285983      -279.8958
  71   2.0000     -10.281617      -279.7770
  72   2.0000      -1.356984       -36.9254
  73   2.0000      -1.345887       -36.6234
  74   2.0000      -1.336027       -36.3551
  75   2.0000      -1.335170       -36.3318
  76   2.0000      -1.325355       -36.0647
  77   2.0000      -1.314311       -35.7642
  78   2.0000      -1.239172       -33.7196
  79   2.0000      -1.164078       -31.6762
  80   2.0000      -1.143794       -31.1242
  81   2.0000      -1.136997       -30.9393
  82   2.0000      -1.130199       -30.7543
  83   2.0000      -1.095877       -29.8203
  84   2.0000      -1.080731       -29.4082
  85   2.0000      -1.076310       -29.2879
  86   2.0000      -1.059602       -28.8332
  87   2.0000      -1.054898       -28.7052
  88   2.0000      -1.035815       -28.1860
  89   2.0000      -1.027509       -27.9599
  90   2.0000      -1.023338       -27.8464
  91   2.0000      -1.004083       -27.3225
  92   2.0000      -0.992254       -27.0006
  93   2.0000      -0.989960       -26.9382
  94   2.0000      -0.962221       -26.1834
  95   2.0000      -0.954870       -25.9833
  96   2.0000      -0.946711       -25.7613
  97   2.0000      -0.940826       -25.6012
  98   2.0000      -0.936654       -25.4877
  99   2.0000      -0.928919       -25.2772
 100   2.0000      -0.927291       -25.2329
 101   2.0000      -0.915473       -24.9113
 102   2.0000      -0.905329       -24.6353
 103   2.0000      -0.900082       -24.4925
 104   2.0000      -0.898069       -24.4377
 105   2.0000      -0.884672       -24.0731
 106   2.0000      -0.874553       -23.7978
 107   2.0000      -0.873713       -23.7749
 108   2.0000      -0.861841       -23.4519
 109   2.0000      -0.845591       -23.0097
 110   2.0000      -0.838545       -22.8180
 111   2.0000      -0.836159       -22.7530
 112   2.0000      -0.814381       -22.1604
 113   2.0000      -0.806082       -21.9346
 114   2.0000      -0.795421       -21.6445
 115   2.0000      -0.793283       -21.5863
 116   2.0000      -0.781700       -21.2711
 117   2.0000      -0.778403       -21.1814
 118   2.0000      -0.766171       -20.8486
 119   2.0000      -0.759592       -20.6695
 120   2.0000      -0.750367       -20.4185
 121   2.0000      -0.746475       -20.3126
 122   2.0000      -0.732192       -19.9240
 123   2.0000      -0.727734       -19.8026
 124   2.0000      -0.724240       -19.7076
 125   2.0000      -0.722290       -19.6545
 126   2.0000      -0.711171       -19.3520
 127   2.0000      -0.706333       -19.2203
 128   2.0000      -0.693851       -18.8807
 129   2.0000      -0.689591       -18.7647
 130   2.0000      -0.689186       -18.7537
 131   2.0000      -0.684861       -18.6360
 132   2.0000      -0.676848       -18.4180
 133   2.0000      -0.669141       -18.2082
 134   2.0000      -0.666359       -18.1325
 135   2.0000      -0.661410       -17.9979
 136   2.0000      -0.657179       -17.8827
 137   2.0000      -0.650939       -17.7130
 138   2.0000      -0.649657       -17.6781
 139   2.0000      -0.640477       -17.4283
 140   2.0000      -0.636220       -17.3124
 141   2.0000      -0.634824       -17.2744
 142   2.0000      -0.630641       -17.1606
 143   2.0000      -0.627880       -17.0855
 144   2.0000      -0.626570       -17.0498
 145   2.0000      -0.625181       -17.0120
 146   2.0000      -0.621290       -16.9062
 147   2.0000      -0.612272       -16.6608
 148   2.0000      -0.606687       -16.5088
 149   2.0000      -0.605900       -16.4874
 150   2.0000      -0.605530       -16.4773
 151   2.0000      -0.599208       -16.3053
 152   2.0000      -0.597042       -16.2463
 153   2.0000      -0.590539       -16.0694
 154   2.0000      -0.587503       -15.9868
 155   2.0000      -0.585311       -15.9271
 156   2.0000      -0.582934       -15.8624
 157   2.0000      -0.573727       -15.6119
 158   2.0000      -0.572343       -15.5742
 159   2.0000      -0.570771       -15.5315
 160   2.0000      -0.570600       -15.5268
 161   2.0000      -0.566536       -15.4162
 162   2.0000      -0.563252       -15.3269
 163   2.0000      -0.560973       -15.2649
 164   2.0000      -0.560374       -15.2485
 165   2.0000      -0.555972       -15.1288
 166   2.0000      -0.552391       -15.0313
 167   2.0000      -0.551949       -15.0193
 168   2.0000      -0.550038       -14.9673
 169   2.0000      -0.547774       -14.9057
 170   2.0000      -0.545675       -14.8486
 171   2.0000      -0.543788       -14.7972
 172   2.0000      -0.540735       -14.7142
 173   2.0000      -0.532977       -14.5030
 174   2.0000      -0.530583       -14.4379
 175   2.0000      -0.527582       -14.3562
 176   2.0000      -0.526984       -14.3400
 177   2.0000      -0.524935       -14.2842
 178   2.0000      -0.523897       -14.2560
 179   2.0000      -0.523003       -14.2316
 180   2.0000      -0.521842       -14.2000
 181   2.0000      -0.517764       -14.0891
 182   2.0000      -0.513167       -13.9640
 183   2.0000      -0.509976       -13.8771
 184   2.0000      -0.504868       -13.7382
 185   2.0000      -0.502036       -13.6611
 186   2.0000      -0.501373       -13.6431
 187   2.0000      -0.500120       -13.6090
 188   2.0000      -0.498397       -13.5621
 189   2.0000      -0.494343       -13.4518
 190   2.0000      -0.492202       -13.3935
 191   2.0000      -0.490740       -13.3537
 192   2.0000      -0.490065       -13.3353
 193   2.0000      -0.489366       -13.3163
 194   2.0000      -0.487937       -13.2774
 195   2.0000      -0.483658       -13.1610
 196   2.0000      -0.479449       -13.0465
 197   2.0000      -0.478720       -13.0266
 198   2.0000      -0.476089       -12.9550
 199   2.0000      -0.475913       -12.9503
 200   2.0000      -0.474864       -12.9217
 201   2.0000      -0.473776       -12.8921
 202   2.0000      -0.470798       -12.8111
 203   2.0000      -0.467774       -12.7288
 204   2.0000      -0.462932       -12.5970
 205   2.0000      -0.460579       -12.5330
 206   2.0000      -0.459361       -12.4998
 207   2.0000      -0.453828       -12.3493
 208   2.0000      -0.451270       -12.2797
 209   2.0000      -0.448088       -12.1931
 210   2.0000      -0.445750       -12.1295
 211   2.0000      -0.442847       -12.0505
 212   2.0000      -0.440553       -11.9880
 213   2.0000      -0.438249       -11.9254
 214   2.0000      -0.437390       -11.9020
 215   2.0000      -0.428303       -11.6547
 216   2.0000      -0.424243       -11.5442
 217   2.0000      -0.420587       -11.4447
 218   2.0000      -0.405219       -11.0266
 219   2.0000      -0.393590       -10.7101
 220   2.0000      -0.390506       -10.6262
 221   2.0000      -0.378931       -10.3112
 222   2.0000      -0.377510       -10.2726
 223   2.0000      -0.368797       -10.0355
 224   2.0000      -0.367581       -10.0024
 225   2.0000      -0.366325        -9.9682
 226   2.0000      -0.364187        -9.9100
 227   2.0000      -0.360545        -9.8109
 228   2.0000      -0.357693        -9.7333
 229   2.0000      -0.354078        -9.6350
 230   2.0000      -0.351020        -9.5517
 231   2.0000      -0.346371        -9.4252
 232   2.0000      -0.345147        -9.3919
 233   2.0000      -0.344819        -9.3830
 234   2.0000      -0.341760        -9.2998
 235   2.0000      -0.334363        -9.0985
 236   2.0000      -0.333379        -9.0717
 237   2.0000      -0.333025        -9.0621
 238   2.0000      -0.325536        -8.8583
 239   2.0000      -0.317731        -8.6459
 240   2.0000      -0.285785        -7.7766
 241   2.0000      -0.267541        -7.2802
 242   0.0000      -0.138983        -3.7819
 243   0.0000      -0.121572        -3.3081
 244   0.0000      -0.103848        -2.8258
 245   0.0000      -0.090898        -2.4735
 246   0.0000      -0.075930        -2.0662

MULLIKEN ATOMIC CHARGES
-----------------------
   0 C :    0.150695
   1 O :   -0.075721
   2 C :   -0.086385
   3 C :    0.064767
   4 C :   -0.090621
   5 C :    0.235436
   6 C :    0.160757
   7 C :    0.163233
   8 F :   -0.128554
   9 F :   -0.143192
  10 F :   -0.151911
  11 C :    0.257016
  12 C :   -0.311252
  13 C :   -0.186752
  14 N :    0.179033
  15 C :   -0.175493
  16 N :    0.160272
  17 C :   -0.040350
  18 C :   -0.069022
  19 C :    0.019687
  20 N :    0.000410
  21 C :    0.078630
  22 C :   -0.170461
  23 C :    0.238229
  24 O :   -0.143437
  25 C :   -0.003401
  26 C :   -0.022620
  27 N :   -0.046271
  28 C :    0.099023
  29 C :   -0.094974
  30 C :    0.043357
  31 C :   -0.041582
  32 C :   -0.011496
  33 C :    0.183703
  34 O :   -0.189751
  35 C :    0.134377
  36 C :   -0.064134
  37 C :   -0.129931
  38 C :    0.137098
  39 C :    0.041811
  40 N :   -0.036479
  41 C :    0.080173
  42 C :   -0.153086
  43 C :    0.241922
  44 O :   -0.154105
  45 C :   -0.010976
  46 C :   -0.038703
  47 N :   -0.051606
  48 C :    0.092291
  49 C :   -0.095098
  50 C :    0.044264
  51 C :   -0.025166
  52 C :    0.015006
  53 C :    0.028131
  54 C :   -0.101141
  55 C :    0.142959
  56 O :   -0.120794
  57 C :   -0.083395
  58 C :    0.051451
  59 C :    0.244629
  60 C :   -0.292876
  61 C :   -0.182085
  62 N :    0.159660
  63 C :   -0.201955
  64 N :    0.169233
  65 C :   -0.096298
  66 C :    0.235431
  67 C :    0.151835
  68 C :    0.153994
  69 F :   -0.142870
  70 F :   -0.155659
  71 F :   -0.159568
  72 H :    0.022195
  73 H :    0.053345
  74 H :    0.021067
  75 H :    0.019209
  76 H :   -0.026006
  77 H :    0.017051
  78 H :    0.005260
  79 H :    0.017244
  80 H :    0.035616
  81 H :    0.049655
  82 H :    0.010126
  83 H :   -0.002197
  84 H :    0.013181
  85 H :    0.039143
  86 H :    0.026960
  87 H :    0.018805
Sum of atomic charges:   -0.0000000

LOEWDIN ATOMIC CHARGES
----------------------
   0 C :    0.084123
   1 O :   -0.083315
   2 C :   -0.075518
   3 C :   -0.007010
   4 C :   -0.026886
   5 C :    0.082814
   6 C :    0.046880
   7 C :    0.088351
   8 F :   -0.013013
   9 F :   -0.024703
  10 F :   -0.029705
  11 C :    0.075127
  12 C :   -0.117652
  13 C :   -0.022502
  14 N :   -0.024960
  15 C :   -0.009751
  16 N :   -0.039764
  17 C :   -0.037918
  18 C :    0.045142
  19 C :    0.050560
  20 N :   -0.063903
  21 C :    0.044185
  22 C :   -0.056541
  23 C :    0.076511
  24 O :   -0.139856
  25 C :   -0.037389
  26 C :    0.044027
  27 N :   -0.089255
  28 C :    0.090803
  29 C :   -0.014458
  30 C :   -0.020374
  31 C :   -0.035772
  32 C :    0.003102
  33 C :    0.041014
  34 O :    0.039774
  35 C :    0.013821
  36 C :    0.000862
  37 C :   -0.039894
  38 C :   -0.044108
  39 C :    0.054555
  40 N :   -0.104116
  41 C :    0.045314
  42 C :   -0.022066
  43 C :    0.077666
  44 O :   -0.142617
  45 C :   -0.040155
  46 C :    0.023129
  47 N :   -0.095432
  48 C :    0.075132
  49 C :   -0.032894
  50 C :   -0.027847
  51 C :    0.016128
  52 C :   -0.006309
  53 C :    0.074167
  54 C :   -0.087291
  55 C :    0.084152
  56 O :   -0.131549
  57 C :   -0.083362
  58 C :    0.001020
  59 C :    0.064243
  60 C :   -0.112452
  61 C :   -0.015194
  62 N :   -0.042795
  63 C :   -0.016884
  64 N :   -0.045131
  65 C :   -0.031632
  66 C :    0.079997
  67 C :    0.037258
  68 C :    0.085259
  69 F :   -0.024969
  70 F :   -0.035635
  71 F :   -0.036641
  72 H :    0.054076
  73 H :    0.050939
  74 H :    0.028295
  75 H :    0.044258
  76 H :    0.028940
  77 H :    0.041810
  78 H :    0.044106
  79 H :    0.039874
  80 H :    0.040523
  81 H :    0.042704
  82 H :    0.024068
  83 H :    0.035774
  84 H :    0.034339
  85 H :    0.032079
  86 H :    0.049502
  87 H :    0.052811

  Mayer bond orders larger than 0.100000
B(  0-C ,  1-O ) :   2.3329 B(  0-C ,  2-C ) :   0.9115 B(  0-C , 17-C ) :   0.9004
B(  2-C ,  3-C ) :   1.3437 B(  2-C ,  7-C ) :   1.2797 B(  3-C ,  4-C ) :   1.3200
B(  3-C , 11-C ) :   1.0260 B(  4-C ,  5-C ) :   1.3374 B(  4-C , 72-H ) :   0.9969
B(  5-C ,  6-C ) :   1.2852 B(  5-C , 10-F ) :   1.1554 B(  6-C ,  7-C ) :   1.2640
B(  6-C ,  9-F ) :   1.1830 B(  7-C ,  8-F ) :   1.2523 B( 11-C , 12-C ) :   1.6835
B( 11-C , 17-C ) :   1.0250 B( 12-C , 13-C ) :   1.1249 B( 12-C , 15-C ) :   1.1399
B( 13-C , 14-N ) :   2.9946 B( 15-C , 16-N ) :   2.9689 B( 17-C , 18-C ) :   1.7894
B( 18-C , 19-C ) :   1.0317 B( 18-C , 73-H ) :   0.9189 B( 19-C , 20-N ) :   1.6477
B( 19-C , 21-C ) :   0.1158 B( 19-C , 30-C ) :   1.0137 B( 20-N , 21-C ) :   1.2991
B( 21-C , 22-C ) :   1.0637 B( 21-C , 26-C ) :   1.4590 B( 22-C , 23-C ) :   0.9081
B( 22-C , 30-C ) :   1.5335 B( 23-C , 24-O ) :   2.1425 B( 23-C , 25-C ) :   0.9296
B( 24-O , 77-H ) :   0.1112 B( 25-C , 26-C ) :   1.0556 B( 25-C , 29-C ) :   1.6326
B( 26-C , 27-N ) :   1.2922 B( 27-N , 28-C ) :   1.6792 B( 28-C , 29-C ) :   1.0355
B( 28-C , 74-H ) :   0.9879 B( 29-C , 75-H ) :   1.0124 B( 30-C , 31-C ) :   1.1430
B( 31-C , 32-C ) :   1.6235 B( 31-C , 76-H ) :   0.9577 B( 32-C , 33-C ) :   1.1386
B( 32-C , 77-H ) :   0.9260 B( 33-C , 34-O ) :   1.1319 B( 33-C , 35-C ) :   0.1180
B( 33-C , 37-C ) :   1.3866 B( 34-O , 35-C ) :   1.1628 B( 35-C , 36-C ) :   1.3776
B( 35-C , 39-C ) :   1.0646 B( 36-C , 37-C ) :   1.2808 B( 36-C , 78-H ) :   1.0301
B( 37-C , 38-C ) :   1.0988 B( 38-C , 79-H ) :   0.9412 B( 38-C , 80-H ) :   0.9384
B( 38-C , 81-H ) :   0.9375 B( 39-C , 40-N ) :   1.6407 B( 39-C , 41-C ) :   0.1280
B( 39-C , 50-C ) :   1.0076 B( 40-N , 41-C ) :   1.3637 B( 41-C , 42-C ) :   1.0611
B( 41-C , 46-C ) :   1.3852 B( 42-C , 43-C ) :   0.8899 B( 42-C , 50-C ) :   1.5498
B( 43-C , 44-O ) :   2.1428 B( 43-C , 45-C ) :   0.9411 B( 45-C , 46-C ) :   1.0727
B( 45-C , 49-C ) :   1.5872 B( 46-C , 47-N ) :   1.3310 B( 47-N , 48-C ) :   1.6371
B( 48-C , 49-C ) :   1.0805 B( 48-C , 82-H ) :   0.9890 B( 49-C , 83-H ) :   1.0119
B( 50-C , 51-C ) :   1.0960 B( 51-C , 52-C ) :   1.6522 B( 51-C , 84-H ) :   0.9787
B( 52-C , 53-C ) :   1.1044 B( 52-C , 85-H ) :   0.9309 B( 53-C , 54-C ) :   1.6116
B( 53-C , 86-H ) :   0.9675 B( 54-C , 55-C ) :   0.9466 B( 54-C , 59-C ) :   1.0445
B( 55-C , 56-O ) :   2.3099 B( 55-C , 57-C ) :   0.9050 B( 57-C , 58-C ) :   1.3536
B( 57-C , 68-C ) :   1.2781 B( 58-C , 59-C ) :   1.0169 B( 58-C , 65-C ) :   1.3347
B( 59-C , 60-C ) :   1.6785 B( 60-C , 61-C ) :   1.1342 B( 60-C , 63-C ) :   1.1545
B( 61-C , 62-N ) :   2.9938 B( 63-C , 64-N ) :   2.9999 B( 65-C , 66-C ) :   1.3234
B( 65-C , 87-H ) :   1.0006 B( 66-C , 67-C ) :   1.2949 B( 66-C , 71-F ) :   1.1464
B( 67-C , 68-C ) :   1.2646 B( 67-C , 70-F ) :   1.1708 B( 68-C , 69-F ) :   1.2395

-----------------------------------------------------------------------------
         ABSORPTION SPECTRUM VIA TRANSITION ELECTRIC DIPOLE MOMENTS
-----------------------------------------------------------------------------
State   Energy  Wavelength   fosc         T2         TX        TY        TZ
        (cm-1)    (nm)                  (au**2)     (au)      (au)      (au)
-----------------------------------------------------------------------------
   0   12952.5    772.1   0.111442698   2.83253  -1.59048   0.19701   0.51389
   1   17264.8    579.2   0.276940233   5.28080  -1.69473  -1.51801   0.32299
   2   17884.7    559.1   0.817590658  15.04977   3.48758   1.30278  -1.09055
   3   21050.5    475.0   0.065781891   1.02877   0.27913  -0.89201  -0.39392
   4   21148.7    472.8   0.031673419   0.49305   0.16466  -0.66974  -0.13183
   5   21459.1    466.0   0.049457881   0.75875   0.65643   0.57041  -0.04986
   6   21785.1    459.0   0.000300445   0.00454  -0.04822   0.01811  -0.04345
   7   22797.0    438.7   0.164627534   2.37739  -0.49886  -1.44878  -0.17197
   8   23783.1    420.5   0.183856573   2.54499   0.70788  -1.35222  -0.46412
   9   24412.9    409.6   0.223280321   3.01098   1.51308  -0.20796  -0.82361
  10   24542.6    407.5   0.070352492   0.94370  -0.84617   0.07835   0.47070
  11   24648.6    405.7   0.011050996   0.14760   0.10327   0.36066   0.08280
  12   25647.2    389.9   0.072309312   0.92818  -0.10448   0.94948   0.12545
  13   25762.6    388.2   0.000405842   0.00519   0.02017   0.01471  -0.06755
  14   26117.0    382.9   0.037073099   0.46732  -0.05616   0.65331   0.19326
  15   26645.7    375.3   0.010186490   0.12586   0.26941  -0.22018   0.06924
  16   27007.3    370.3   0.234148160   2.85420  -0.52788   1.54449   0.43600
  17   27053.2    369.6   0.035544709   0.43254   0.53397  -0.38296   0.02753
  18   27487.3    363.8   0.001125414   0.01348  -0.05135   0.04857  -0.09210
  19   27958.2    357.7   0.015379619   0.18110   0.35054  -0.23175  -0.06715
  20   28353.9    352.7   0.213225700   2.47573   0.24935  -1.54021  -0.20324
  21   28807.6    347.1   0.239936649   2.74199  -1.09931   1.15859   0.43723
  22   29379.9    340.4   0.057305089   0.64212  -0.63029   0.49179   0.05476
  23   29638.5    337.4   0.000813183   0.00903  -0.06808   0.03939   0.05335
  24   29820.5    335.3   0.213534085   2.35737   1.29436   0.82231   0.07619
  25   29883.2    334.6   0.278445633   3.06753  -0.73142   1.48659   0.56799
  26   30071.1    332.5   0.069870946   0.76493  -0.75377   0.40675   0.17695
  27   30291.5    330.1   0.053935227   0.58618   0.75655  -0.11242  -0.03421
  28   30384.3    329.1   0.000558338   0.00605  -0.04982  -0.05110  -0.03091
  29   30674.9    326.0   0.002821335   0.03028  -0.12528   0.02706   0.11769
  30   31821.3    314.3   0.007039158   0.07282   0.14743   0.21764  -0.06100
  31   31915.1    313.3   0.033725689   0.34789   0.31063   0.46626  -0.18439
  32   32082.2    311.7   0.000675789   0.00693   0.03723  -0.07135  -0.02141
  33   32324.6    309.4   0.040142208   0.40883  -0.38002  -0.50783   0.08079
  34   32497.2    307.7   0.201826801   2.04460   1.22023  -0.74270  -0.06342
  35   32740.7    305.4   0.073300717   0.73705   0.85724  -0.03960   0.02492
  36   32984.6    303.2   0.164113521   1.63798  -0.49792   1.17821  -0.04326
  37   33454.9    298.9   0.001219428   0.01200  -0.10669   0.02469   0.00258
  38   33515.3    298.4   0.010330438   0.10147   0.26859   0.16977   0.02254
  39   33814.9    295.7   0.021391277   0.20826  -0.22380   0.39732  -0.01754
  40   34312.5    291.4   0.045665650   0.43814   0.45133  -0.47381  -0.09974
  41   34505.8    289.8   0.047293866   0.45122   0.56240  -0.36162  -0.06450
  42   34614.5    288.9   0.027258378   0.25925   0.43966   0.23096   0.11225
  43   34773.3    287.6   0.200254784   1.89589  -1.21891  -0.62611  -0.13463
  44   35041.7    285.4   0.018775391   0.17639   0.09252   0.38059  -0.15160
  45   35365.6    282.8   0.044022792   0.40980   0.56387  -0.29988   0.04390
  46   35568.2    281.2   0.309411382   2.86385   1.56032   0.53752   0.37459
  47   35632.3    280.6   0.140989802   1.30263   0.11926  -1.12629  -0.14096
  48   36551.2    273.6   0.057323073   0.51630  -0.42249  -0.58050   0.02861
  49   36606.2    273.2   0.026706012   0.24018  -0.28652   0.39613   0.03412
  50   36726.3    272.3   0.080285728   0.71968  -0.68536  -0.49464   0.07274
  51   36758.1    272.0   0.082589658   0.73969  -0.80151   0.29248  -0.10828
  52   36973.5    270.5   0.450729632   4.01330   1.60131  -1.17916   0.24229
  53   37011.0    270.2   0.026362327   0.23449  -0.38528   0.26940  -0.11609
  54   37095.8    269.6   0.024838163   0.22043  -0.43353  -0.15138  -0.09782
  55   37172.3    269.0   0.041513129   0.36766   0.55656  -0.23430  -0.05483
  56   37215.3    268.7   0.005154461   0.04560  -0.02496  -0.19873  -0.07404
  57   37247.6    268.5   0.038881957   0.34366   0.22614  -0.53667   0.06711
  58   37470.5    266.9   0.279015716   2.45140   1.53430  -0.26468   0.16516
  59   37710.1    265.2   0.151359038   1.32137  -0.45778  -1.05319   0.05100
  60   37773.6    264.7   0.146681365   1.27839   1.07505   0.35016   0.00712
  61   38005.4    263.1   0.109257204   0.94641  -0.10876  -0.96668   0.01077
  62   38014.9    263.1   0.009728068   0.08425   0.15640  -0.23447  -0.06933
  63   38161.5    262.0   0.048023703   0.41429  -0.58785   0.11493   0.23563
  64   38393.6    260.5   0.003332579   0.02858   0.14615  -0.07678   0.03632
  65   38530.7    259.5   0.014788791   0.12636  -0.35539   0.00016  -0.00753
  66   38895.1    257.1   0.024463905   0.20706  -0.05624   0.44606   0.07025
  67   39052.7    256.1   0.029660632   0.25004  -0.44216   0.23151   0.03065
  68   39099.4    255.8   0.001611765   0.01357  -0.09649   0.05935  -0.02718
  69   39260.6    254.7   0.050515296   0.42359   0.53346   0.29116   0.23289
  70   39532.4    253.0   0.234741715   1.95485  -0.40581   1.33372  -0.10656
  71   39775.2    251.4   0.037391786   0.30948  -0.21756  -0.50341   0.09342
  72   39857.2    250.9   0.004517895   0.03732  -0.08070  -0.17210   0.03443
  73   40093.4    249.4   0.006481975   0.05322   0.02948   0.21077  -0.08906
  74   40131.7    249.2   0.000793599   0.00651   0.01901   0.07227   0.03042

FINAL SINGLE POINT ENERGY     -3437.988109776216

DIPOLE MOMENT
-------------
                                X             Y             Z
Electronic contribution:    -48.43346       8.88198       1.16844
Nuclear contribution   :     46.72989     -10.95924      -1.62159
                        -----------------------------------------
Total Dipole Moment    :     -1.70358      -2.07726      -0.45315
                        -----------------------------------------
Magnitude (a.u.)       :      2.72443
Magnitude (Debye)      :      6.92495

Rotational constants in cm-1:     0.001408     0.000394     0.000315
Rotational constants in MHz :    42.219178    11.801203     9.432527

                             ****ORCA TERMINATED NORMALLY****
TOTAL RUN TIME: 0 days 0 hours 8 minutes 48 seconds 331 msec
