                         Program Version 4.2.0 -  RELEASE  -
|  1> # ORCA input file
|  2> # SCF done       -186.598684064984          0.000679186182
|  3> ! CAM-B3LYP def2-SVP def2/J RIJCOSX Grid4 TightSCF
|  4> %maxcore 5000
|  5> %tddft
|  6>     Mode sTDDFT
|  7>     Ethresh 5.0
|  8>     maxcore 5000
|  9> end
| 10>
| 11> %pal
| 12>   nprocs 6
| 13>   end
| 14> * xyz 0 1
| 15>    C        2.90926        -2.38636         9.27079
| 16>    S        3.45169        -2.32882         7.63166
| 17>    C        2.91331        -3.96463         7.25740
| 18>    C        2.34642        -4.47514         8.39943
| 19>    C        2.34740        -3.59702         9.51129
| 20>    O        1.75890        -4.24787        10.55072
| 21>    C        1.41341        -5.47520        10.08848
| 22>    S        0.68370        -6.60208        10.97650
| 23>    O        1.75980        -5.63452         8.78889
| 24>    C        3.07532        -4.57244         5.98877
| 25>    C        3.67077        -3.97637         4.92818
| 26>    C        3.82059        -4.63870         3.68052
| 27>    N        3.36263        -5.86989         3.48867
| 28>    C        3.69361        -6.19357         2.22541
| 29>    C        4.42192        -5.10338         1.56291
| 30>    C        4.77831        -5.48899         0.19032
| 31>    O        5.39497        -4.85394        -0.64274
| 32>    C        4.20917        -6.84326         0.07251
| 33>    C        3.55804        -7.23619         1.33609
| 34>    N        3.02938        -8.47914         1.23706
| 35>    C        3.30662        -8.87236         0.01608
| 36>    C        4.04004        -7.89937        -0.76584
| 37>    C        4.49995        -4.08485         2.48516
| 38>    C        5.06724        -2.78387         2.38691
| 39>    C        5.74817        -2.37387         1.29138
| 40>    C        6.34937        -1.08843         1.07427
| 41>    C        7.16150        -0.93633        -0.03652
| 42>    C        7.77995         0.29442        -0.30768
| 43>    C        8.63839         0.70173        -1.33157
| 44>    C        9.17853        -0.09051        -2.46767
| 45>    C       10.03852        -1.28738        -1.97650
| 46>    N       11.21450        -0.91383        -1.22985
| 47>    C        8.05181        -0.56890        -3.40260
| 48>    N        7.42673         0.59237        -4.01114
| 49>    C        8.93785         2.09269        -1.09288
| 50>    C        9.69096         2.96768        -1.78639
| 51>    C        9.85576         4.37724        -1.33254
| 52>    C        9.04172         4.75076        -0.13855
| 53>    C        8.29593         3.86066         0.54743
| 54>    C        8.21740         2.51867         0.11532
| 55>    C        7.52834         1.41493         0.58772
| 56>    C        6.69074         1.23972         1.71103
| 57>    C        6.12853         0.02549         1.94616
| 58>    C       11.31333         4.56623        -0.98248
| 59>    C       12.21309         5.10756        -1.80821
| 60>    C       13.60228         5.29670        -1.49519
| 61>    N       14.52589         5.13719        -2.42601
| 62>    C       15.71043         5.34996        -1.81488
| 63>    C       15.52362         5.69922        -0.40074
| 64>    C       16.82162         5.95142         0.24469
| 65>    O       17.04278         6.26602         1.39627
| 66>    C       17.77636         5.72690        -0.85299
| 67>    C       17.05793         5.36185        -2.09204
| 68>    N       17.92876         5.16677        -3.10936
| 69>    C       19.11553         5.38537        -2.59195
| 70>    C       19.09281         5.74318        -1.19037
| 71>    C       14.16593         5.68379        -0.18230
| 72>    C       13.40964         6.06209         0.96091
| 73>    C       13.96786         6.44550         2.13402
| 74>    C       13.18306         6.85653         3.24279
| 75>    S       13.89410         7.48171         4.71645
| 76>    C       12.36140         7.76239         5.51372
| 77>    C       11.36951         7.37150         4.64881
| 78>    C       11.81674         6.87975         3.40905
| 79>    O       10.71483         6.52811         2.67935
| 80>    C        9.64480         6.79644         3.45816
| 81>    S        8.11735         6.52520         3.00983
| 82>    O       10.00385         7.31137         4.65000
| 83>    C       12.28299         8.31623         6.83427
| 84>    C       11.13319         8.56161         7.46061
| 85>    H        3.04028        -1.54716         9.92056
| 86>    H        2.69788        -5.58000         5.87718
| 87>    H        4.05638        -2.97101         5.02883
| 88>    H        2.99377        -9.84384        -0.32530
| 89>    H        4.35974        -8.02731        -1.78129
| 90>    H        4.93862        -2.12928         3.23741
| 91>    H        5.87413        -3.08244         0.48276
| 92>    H        7.31469        -1.78419        -0.68696
| 93>    H        9.82490         0.55894        -3.06781
| 94>    H       10.36520        -1.85966        -2.84842
| 95>    H        9.43801        -1.94149        -1.34269
| 96>    H       11.83351        -0.33478        -1.78603
| 97>    H       10.96436        -0.40116        -0.39153
| 98>    H        7.34973        -1.20299        -2.84209
| 99>    H        8.48803        -1.17037        -4.20452
|100>    H        6.93664         1.13572        -3.30739
|101>    H        6.75447         0.30929        -4.71459
|102>    H       10.22894         2.68845        -2.68140
|103>    H        9.62072         5.04346        -2.17303
|104>    H        9.10882         5.77767         0.18495
|105>    H        7.73727         4.17464         1.41626
|106>    H        6.50643         2.07570         2.36952
|107>    H        5.48192        -0.10561         2.79966
|108>    H       11.59799         4.18391        -0.01266
|109>    H       11.93577         5.37663        -2.81975
|110>    H       19.99762         5.29266        -3.20148
|111>    H       19.95180         5.96344        -0.58783
|112>    H       12.33372         6.07907         0.85589
|113>    H       15.04208         6.46165         2.25755
|114>    H       13.23381         8.53010         7.30112
|115>    H       10.18321         8.34942         7.00039
|116>    H       11.11453         8.97814         8.45142
|117> *
|118>
|119>                          ****END OF INPUT****

CARTESIAN COORDINATES (ANGSTROEM)
---------------------------------
  C      2.909260   -2.386360    9.270790
  S      3.451690   -2.328820    7.631660
  C      2.913310   -3.964630    7.257400
  C      2.346420   -4.475140    8.399430
  C      2.347400   -3.597020    9.511290
  O      1.758900   -4.247870   10.550720
  C      1.413410   -5.475200   10.088480
  S      0.683700   -6.602080   10.976500
  O      1.759800   -5.634520    8.788890
  C      3.075320   -4.572440    5.988770
  C      3.670770   -3.976370    4.928180
  C      3.820590   -4.638700    3.680520
  N      3.362630   -5.869890    3.488670
  C      3.693610   -6.193570    2.225410
  C      4.421920   -5.103380    1.562910
  C      4.778310   -5.488990    0.190320
  O      5.394970   -4.853940   -0.642740
  C      4.209170   -6.843260    0.072510
  C      3.558040   -7.236190    1.336090
  N      3.029380   -8.479140    1.237060
  C      3.306620   -8.872360    0.016080
  C      4.040040   -7.899370   -0.765840
  C      4.499950   -4.084850    2.485160
  C      5.067240   -2.783870    2.386910
  C      5.748170   -2.373870    1.291380
  C      6.349370   -1.088430    1.074270
  C      7.161500   -0.936330   -0.036520
  C      7.779950    0.294420   -0.307680
  C      8.638390    0.701730   -1.331570
  C      9.178530   -0.090510   -2.467670
  C     10.038520   -1.287380   -1.976500
  N     11.214500   -0.913830   -1.229850
  C      8.051810   -0.568900   -3.402600
  N      7.426730    0.592370   -4.011140
  C      8.937850    2.092690   -1.092880
  C      9.690960    2.967680   -1.786390
  C      9.855760    4.377240   -1.332540
  C      9.041720    4.750760   -0.138550
  C      8.295930    3.860660    0.547430
  C      8.217400    2.518670    0.115320
  C      7.528340    1.414930    0.587720
  C      6.690740    1.239720    1.711030
  C      6.128530    0.025490    1.946160
  C     11.313330    4.566230   -0.982480
  C     12.213090    5.107560   -1.808210
  C     13.602280    5.296700   -1.495190
  N     14.525890    5.137190   -2.426010
  C     15.710430    5.349960   -1.814880
  C     15.523620    5.699220   -0.400740
  C     16.821620    5.951420    0.244690
  O     17.042780    6.266020    1.396270
  C     17.776360    5.726900   -0.852990
  C     17.057930    5.361850   -2.092040
  N     17.928760    5.166770   -3.109360
  C     19.115530    5.385370   -2.591950
  C     19.092810    5.743180   -1.190370
  C     14.165930    5.683790   -0.182300
  C     13.409640    6.062090    0.960910
  C     13.967860    6.445500    2.134020
  C     13.183060    6.856530    3.242790
  S     13.894100    7.481710    4.716450
  C     12.361400    7.762390    5.513720
  C     11.369510    7.371500    4.648810
  C     11.816740    6.879750    3.409050
  O     10.714830    6.528110    2.679350
  C      9.644800    6.796440    3.458160
  S      8.117350    6.525200    3.009830
  O     10.003850    7.311370    4.650000
  C     12.282990    8.316230    6.834270
  C     11.133190    8.561610    7.460610
  H      3.040280   -1.547160    9.920560
  H      2.697880   -5.580000    5.877180
  H      4.056380   -2.971010    5.028830
  H      2.993770   -9.843840   -0.325300
  H      4.359740   -8.027310   -1.781290
  H      4.938620   -2.129280    3.237410
  H      5.874130   -3.082440    0.482760
  H      7.314690   -1.784190   -0.686960
  H      9.824900    0.558940   -3.067810
  H     10.365200   -1.859660   -2.848420
  H      9.438010   -1.941490   -1.342690
  H     11.833510   -0.334780   -1.786030
  H     10.964360   -0.401160   -0.391530
  H      7.349730   -1.202990   -2.842090
  H      8.488030   -1.170370   -4.204520
  H      6.936640    1.135720   -3.307390
  H      6.754470    0.309290   -4.714590
  H     10.228940    2.688450   -2.681400
  H      9.620720    5.043460   -2.173030
  H      9.108820    5.777670    0.184950
  H      7.737270    4.174640    1.416260
  H      6.506430    2.075700    2.369520
  H      5.481920   -0.105610    2.799660
  H     11.597990    4.183910   -0.012660
  H     11.935770    5.376630   -2.819750
  H     19.997620    5.292660   -3.201480
  H     19.951800    5.963440   -0.587830
  H     12.333720    6.079070    0.855890
  H     15.042080    6.461650    2.257550
  H     13.233810    8.530100    7.301120
  H     10.183210    8.349420    7.000390
  H     11.114530    8.978140    8.451420

 Total Charge           Charge          ....    0
 Multiplicity           Mult            ....    1
 Number of Electrons    NEL             ....  510
 Basis Dimension        Dim             .... 1156

ORBITAL ENERGIES
----------------

  NO   OCC          E(Eh)            E(eV)
   0   2.0000     -88.988651     -2421.5043
   1   2.0000     -88.984209     -2421.3834
   2   2.0000     -88.904081     -2419.2030
   3   2.0000     -88.896598     -2418.9994
   4   2.0000     -19.333044      -526.0789
   5   2.0000     -19.331503      -526.0369
   6   2.0000     -19.328139      -525.9454
   7   2.0000     -19.323898      -525.8300
   8   2.0000     -19.216216      -522.8998
   9   2.0000     -19.202422      -522.5245
  10   2.0000     -14.411617      -392.1600
  11   2.0000     -14.407138      -392.0381
  12   2.0000     -14.401989      -391.8980
  13   2.0000     -14.394640      -391.6981
  14   2.0000     -14.369985      -391.0272
  15   2.0000     -14.366491      -390.9321
  16   2.0000     -10.456375      -284.5324
  17   2.0000     -10.448961      -284.3307
  18   2.0000     -10.375595      -282.3343
  19   2.0000     -10.372829      -282.2590
  20   2.0000     -10.369095      -282.1574
  21   2.0000     -10.365915      -282.0709
  22   2.0000     -10.364540      -282.0335
  23   2.0000     -10.362344      -281.9737
  24   2.0000     -10.346429      -281.5406
  25   2.0000     -10.338472      -281.3241
  26   2.0000     -10.337736      -281.3041
  27   2.0000     -10.335131      -281.2332
  28   2.0000     -10.335017      -281.2301
  29   2.0000     -10.335011      -281.2299
  30   2.0000     -10.333765      -281.1960
  31   2.0000     -10.326338      -280.9939
  32   2.0000     -10.325181      -280.9625
  33   2.0000     -10.323680      -280.9216
  34   2.0000     -10.317669      -280.7580
  35   2.0000     -10.312714      -280.6232
  36   2.0000     -10.311876      -280.6004
  37   2.0000     -10.310432      -280.5611
  38   2.0000     -10.309289      -280.5300
  39   2.0000     -10.306470      -280.4533
  40   2.0000     -10.302335      -280.3408
  41   2.0000     -10.301885      -280.3285
  42   2.0000     -10.301759      -280.3251
  43   2.0000     -10.297874      -280.2194
  44   2.0000     -10.296728      -280.1882
  45   2.0000     -10.294665      -280.1321
  46   2.0000     -10.294408      -280.1251
  47   2.0000     -10.292488      -280.0728
  48   2.0000     -10.291596      -280.0486
  49   2.0000     -10.290868      -280.0288
  50   2.0000     -10.285747      -279.8894
  51   2.0000     -10.279199      -279.7112
  52   2.0000     -10.277386      -279.6619
  53   2.0000     -10.277102      -279.6542
  54   2.0000     -10.277083      -279.6536
  55   2.0000     -10.276456      -279.6366
  56   2.0000     -10.276377      -279.6344
  57   2.0000     -10.275653      -279.6147
  58   2.0000     -10.274693      -279.5886
  59   2.0000     -10.273235      -279.5489
  60   2.0000     -10.271427      -279.4997
  61   2.0000     -10.271304      -279.4964
  62   2.0000     -10.270957      -279.4870
  63   2.0000     -10.269378      -279.4440
  64   2.0000     -10.268411      -279.4177
  65   2.0000     -10.267415      -279.3906
  66   2.0000     -10.265066      -279.3266
  67   2.0000     -10.264186      -279.3027
  68   2.0000     -10.262380      -279.2535
  69   2.0000     -10.256543      -279.0947
  70   2.0000      -8.083587      -219.9656
  71   2.0000      -8.079145      -219.8447
  72   2.0000      -8.001569      -217.7338
  73   2.0000      -7.994658      -217.5457
  74   2.0000      -6.053182      -164.7155
  75   2.0000      -6.049016      -164.6021
  76   2.0000      -6.048610      -164.5910
  77   2.0000      -6.045134      -164.4965
  78   2.0000      -6.044688      -164.4843
  79   2.0000      -6.040686      -164.3754
  80   2.0000      -5.971544      -162.4940
  81   2.0000      -5.967722      -162.3900
  82   2.0000      -5.964487      -162.3020
  83   2.0000      -5.961688      -162.2258
  84   2.0000      -5.961101      -162.2098
  85   2.0000      -5.954513      -162.0305
  86   2.0000      -1.299552       -35.3626
  87   2.0000      -1.295176       -35.2435
  88   2.0000      -1.190639       -32.3989
  89   2.0000      -1.186920       -32.2977
  90   2.0000      -1.129904       -30.7463
  91   2.0000      -1.115801       -30.3625
  92   2.0000      -1.080578       -29.4040
  93   2.0000      -1.069369       -29.0990
  94   2.0000      -1.061224       -28.8774
  95   2.0000      -1.048767       -28.5384
  96   2.0000      -1.019714       -27.7478
  97   2.0000      -1.017773       -27.6950
  98   2.0000      -0.986075       -26.8325
  99   2.0000      -0.958953       -26.0944
 100   2.0000      -0.951974       -25.9045
 101   2.0000      -0.944449       -25.6998
 102   2.0000      -0.939397       -25.5623
 103   2.0000      -0.935206       -25.4482
 104   2.0000      -0.933037       -25.3892
 105   2.0000      -0.923492       -25.1295
 106   2.0000      -0.916251       -24.9325
 107   2.0000      -0.915384       -24.9089
 108   2.0000      -0.906589       -24.6695
 109   2.0000      -0.904047       -24.6004
 110   2.0000      -0.897436       -24.4205
 111   2.0000      -0.884404       -24.0658
 112   2.0000      -0.868798       -23.6412
 113   2.0000      -0.861957       -23.4550
 114   2.0000      -0.860705       -23.4210
 115   2.0000      -0.856642       -23.3104
 116   2.0000      -0.842529       -22.9264
 117   2.0000      -0.839689       -22.8491
 118   2.0000      -0.833269       -22.6744
 119   2.0000      -0.825041       -22.4505
 120   2.0000      -0.824020       -22.4227
 121   2.0000      -0.823345       -22.4044
 122   2.0000      -0.814609       -22.1666
 123   2.0000      -0.803025       -21.8514
 124   2.0000      -0.783001       -21.3065
 125   2.0000      -0.772317       -21.0158
 126   2.0000      -0.766363       -20.8538
 127   2.0000      -0.758891       -20.6505
 128   2.0000      -0.751385       -20.4462
 129   2.0000      -0.750420       -20.4200
 130   2.0000      -0.743703       -20.2372
 131   2.0000      -0.740963       -20.1626
 132   2.0000      -0.732783       -19.9400
 133   2.0000      -0.730118       -19.8675
 134   2.0000      -0.721241       -19.6260
 135   2.0000      -0.720383       -19.6026
 136   2.0000      -0.706770       -19.2322
 137   2.0000      -0.705770       -19.2050
 138   2.0000      -0.698504       -19.0073
 139   2.0000      -0.693865       -18.8810
 140   2.0000      -0.693059       -18.8591
 141   2.0000      -0.680957       -18.5298
 142   2.0000      -0.675178       -18.3725
 143   2.0000      -0.666743       -18.1430
 144   2.0000      -0.663057       -18.0427
 145   2.0000      -0.659025       -17.9330
 146   2.0000      -0.652966       -17.7681
 147   2.0000      -0.644399       -17.5350
 148   2.0000      -0.639751       -17.4085
 149   2.0000      -0.632218       -17.2035
 150   2.0000      -0.630106       -17.1461
 151   2.0000      -0.626051       -17.0357
 152   2.0000      -0.623834       -16.9754
 153   2.0000      -0.618318       -16.8253
 154   2.0000      -0.616869       -16.7858
 155   2.0000      -0.607726       -16.5371
 156   2.0000      -0.603955       -16.4345
 157   2.0000      -0.600340       -16.3361
 158   2.0000      -0.599164       -16.3041
 159   2.0000      -0.590708       -16.0740
 160   2.0000      -0.589226       -16.0337
 161   2.0000      -0.583139       -15.8680
 162   2.0000      -0.575763       -15.6673
 163   2.0000      -0.575230       -15.6528
 164   2.0000      -0.569413       -15.4945
 165   2.0000      -0.561375       -15.2758
 166   2.0000      -0.560259       -15.2454
 167   2.0000      -0.558509       -15.1978
 168   2.0000      -0.555959       -15.1284
 169   2.0000      -0.549184       -14.9440
 170   2.0000      -0.546896       -14.8818
 171   2.0000      -0.543425       -14.7873
 172   2.0000      -0.536819       -14.6076
 173   2.0000      -0.534996       -14.5580
 174   2.0000      -0.533690       -14.5224
 175   2.0000      -0.531753       -14.4697
 176   2.0000      -0.529923       -14.4200
 177   2.0000      -0.524204       -14.2643
 178   2.0000      -0.522475       -14.2173
 179   2.0000      -0.520186       -14.1550
 180   2.0000      -0.517832       -14.0909
 181   2.0000      -0.514940       -14.0122
 182   2.0000      -0.513097       -13.9621
 183   2.0000      -0.512830       -13.9548
 184   2.0000      -0.511858       -13.9284
 185   2.0000      -0.511656       -13.9229
 186   2.0000      -0.510698       -13.8968
 187   2.0000      -0.508565       -13.8387
 188   2.0000      -0.501313       -13.6414
 189   2.0000      -0.500416       -13.6170
 190   2.0000      -0.499284       -13.5862
 191   2.0000      -0.497289       -13.5319
 192   2.0000      -0.495810       -13.4917
 193   2.0000      -0.494684       -13.4610
 194   2.0000      -0.493100       -13.4179
 195   2.0000      -0.490418       -13.3449
 196   2.0000      -0.487767       -13.2728
 197   2.0000      -0.484621       -13.1872
 198   2.0000      -0.484250       -13.1771
 199   2.0000      -0.482150       -13.1200
 200   2.0000      -0.480735       -13.0815
 201   2.0000      -0.479365       -13.0442
 202   2.0000      -0.477326       -12.9887
 203   2.0000      -0.476666       -12.9707
 204   2.0000      -0.472874       -12.8676
 205   2.0000      -0.469549       -12.7771
 206   2.0000      -0.464535       -12.6406
 207   2.0000      -0.463654       -12.6167
 208   2.0000      -0.461091       -12.5469
 209   2.0000      -0.456772       -12.4294
 210   2.0000      -0.453161       -12.3311
 211   2.0000      -0.452441       -12.3115
 212   2.0000      -0.449982       -12.2446
 213   2.0000      -0.448110       -12.1937
 214   2.0000      -0.445126       -12.1125
 215   2.0000      -0.443219       -12.0606
 216   2.0000      -0.440244       -11.9796
 217   2.0000      -0.434315       -11.8183
 218   2.0000      -0.431343       -11.7374
 219   2.0000      -0.428606       -11.6630
 220   2.0000      -0.426365       -11.6020
 221   2.0000      -0.425535       -11.5794
 222   2.0000      -0.411346       -11.1933
 223   2.0000      -0.409080       -11.1316
 224   2.0000      -0.394874       -10.7451
 225   2.0000      -0.391258       -10.6467
 226   2.0000      -0.385526       -10.4907
 227   2.0000      -0.385220       -10.4824
 228   2.0000      -0.381579       -10.3833
 229   2.0000      -0.373784       -10.1712
 230   2.0000      -0.373488       -10.1631
 231   2.0000      -0.366598        -9.9756
 232   2.0000      -0.361495        -9.8368
 233   2.0000      -0.355409        -9.6712
 234   2.0000      -0.352994        -9.6055
 235   2.0000      -0.343699        -9.3525
 236   2.0000      -0.343468        -9.3463
 237   2.0000      -0.339359        -9.2344
 238   2.0000      -0.336407        -9.1541
 239   2.0000      -0.333640        -9.0788
 240   2.0000      -0.330525        -8.9940
 241   2.0000      -0.326791        -8.8924
 242   2.0000      -0.321574        -8.7505
 243   2.0000      -0.320666        -8.7258
 244   2.0000      -0.314976        -8.5709
 245   2.0000      -0.312538        -8.5046
 246   2.0000      -0.307643        -8.3714
 247   2.0000      -0.306736        -8.3467
 248   2.0000      -0.305314        -8.3080
 249   2.0000      -0.299302        -8.1444
 250   2.0000      -0.286287        -7.7903
 251   2.0000      -0.284811        -7.7501
 252   2.0000      -0.269009        -7.3201
 253   2.0000      -0.268311        -7.3011
 254   2.0000      -0.222098        -6.0436
 255   0.0000      -0.115936        -3.1548
 256   0.0000      -0.111960        -3.0466
 257   0.0000      -0.075609        -2.0574
 258   0.0000      -0.067156        -1.8274
 259   0.0000      -0.043887        -1.1942

MULLIKEN ATOMIC CHARGES
-----------------------
   0 C :   -0.164505
   1 S :    0.129400
   2 C :   -0.177982
   3 C :    0.193379
   4 C :    0.228753
   5 O :   -0.168121
   6 C :    0.233152
   7 S :   -0.135655
   8 O :   -0.162903
   9 C :    0.084904
  10 C :   -0.060131
  11 C :    0.041642
  12 N :   -0.047451
  13 C :    0.069263
  14 C :   -0.170356
  15 C :    0.214429
  16 O :   -0.153559
  17 C :   -0.006862
  18 C :   -0.039327
  19 N :   -0.057041
  20 C :    0.085962
  21 C :   -0.100792
  22 C :    0.065175
  23 C :   -0.035194
  24 C :    0.003901
  25 C :    0.126394
  26 C :   -0.117624
  27 C :    0.070461
  28 C :   -0.084945
  29 C :   -0.042270
  30 C :    0.153234
  31 N :   -0.216590
  32 C :    0.139724
  33 N :   -0.228751
  34 C :    0.109990
  35 C :   -0.111364
  36 C :    0.118382
  37 C :   -0.056636
  38 C :    0.025018
  39 C :    0.019979
  40 C :    0.032017
  41 C :   -0.001519
  42 C :   -0.014183
  43 C :   -0.034294
  44 C :   -0.002020
  45 C :    0.037919
  46 N :   -0.036263
  47 C :    0.080351
  48 C :   -0.172952
  49 C :    0.219203
  50 O :   -0.146036
  51 C :   -0.014175
  52 C :   -0.035868
  53 N :   -0.052952
  54 C :    0.091695
  55 C :   -0.094726
  56 C :    0.057251
  57 C :   -0.078001
  58 C :    0.099382
  59 C :   -0.198315
  60 S :    0.178474
  61 C :   -0.203496
  62 C :    0.184670
  63 C :    0.180007
  64 O :   -0.182195
  65 C :    0.245136
  66 S :   -0.155173
  67 O :   -0.173306
  68 C :    0.051486
  69 C :   -0.010789
  70 H :    0.050614
  71 H :    0.040678
  72 H :   -0.006161
  73 H :    0.003479
  74 H :   -0.010531
  75 H :   -0.040049
  76 H :   -0.000455
  77 H :   -0.008562
  78 H :   -0.033538
  79 H :   -0.002977
  80 H :   -0.003793
  81 H :    0.083737
  82 H :    0.093156
  83 H :   -0.012357
  84 H :   -0.007756
  85 H :    0.096936
  86 H :    0.090691
  87 H :    0.001672
  88 H :    0.035504
  89 H :   -0.008618
  90 H :   -0.036976
  91 H :   -0.034977
  92 H :   -0.034978
  93 H :    0.032656
  94 H :    0.020320
  95 H :    0.010649
  96 H :   -0.004983
  97 H :   -0.001264
  98 H :   -0.005405
  99 H :   -0.007523
 100 H :    0.039196
 101 H :    0.035203
Sum of atomic charges:   -0.0000000

LOEWDIN ATOMIC CHARGES
----------------------
   0 C :   -0.184318
   1 S :    0.455218
   2 C :   -0.196447
   3 C :    0.009473
   4 C :   -0.012611
   5 O :   -0.014999
   6 C :   -0.063183
   7 S :    0.024984
   8 O :   -0.006200
   9 C :    0.044082
  10 C :   -0.055753
  11 C :    0.069422
  12 N :   -0.108775
  13 C :    0.049597
  14 C :   -0.061237
  15 C :    0.069488
  16 O :   -0.151474
  17 C :   -0.041886
  18 C :    0.013668
  19 N :   -0.098424
  20 C :    0.065726
  21 C :   -0.039828
  22 C :   -0.018008
  23 C :   -0.056841
  24 C :    0.031471
  25 C :   -0.029567
  26 C :   -0.000188
  27 C :   -0.023584
  28 C :   -0.038039
  29 C :   -0.054265
  30 C :    0.024475
  31 N :   -0.108875
  32 C :    0.028793
  33 N :   -0.122546
  34 C :   -0.020370
  35 C :    0.071121
  36 C :   -0.028938
  37 C :   -0.034261
  38 C :   -0.011359
  39 C :   -0.035640
  40 C :   -0.030526
  41 C :   -0.005820
  42 C :   -0.027680
  43 C :    0.043191
  44 C :   -0.046329
  45 C :    0.074879
  46 N :   -0.098671
  47 C :    0.049765
  48 C :   -0.051397
  49 C :    0.069749
  50 O :   -0.146643
  51 C :   -0.039790
  52 C :    0.021746
  53 N :   -0.094300
  54 C :    0.074112
  55 C :   -0.033912
  56 C :   -0.026502
  57 C :   -0.034602
  58 C :   -0.003259
  59 C :   -0.192529
  60 S :    0.472188
  61 C :   -0.187157
  62 C :   -0.007722
  63 C :   -0.002869
  64 O :   -0.012911
  65 C :   -0.058889
  66 S :    0.015161
  67 O :   -0.008731
  68 C :   -0.042987
  69 C :   -0.019842
  70 H :    0.039343
  71 H :    0.055302
  72 H :    0.023872
  73 H :    0.021205
  74 H :    0.032141
  75 H :    0.019803
  76 H :    0.033861
  77 H :    0.028857
  78 H :    0.020147
  79 H :    0.017070
  80 H :    0.017739
  81 H :    0.049033
  82 H :    0.050473
  83 H :    0.001683
  84 H :    0.016231
  85 H :    0.051951
  86 H :    0.053688
  87 H :    0.033222
  88 H :    0.057415
  89 H :    0.019365
  90 H :    0.021954
  91 H :    0.028553
  92 H :    0.022924
  93 H :    0.035489
  94 H :    0.043897
  95 H :    0.024147
  96 H :    0.034536
  97 H :    0.029092
  98 H :    0.034970
  99 H :    0.033531
 100 H :    0.029099
 101 H :    0.031781

  Mayer bond orders larger than 0.100000
B(  0-C ,  1-S ) :   1.1325 B(  0-C ,  4-C ) :   1.5404 B(  0-C , 70-H ) :   0.9875
B(  1-S ,  2-C ) :   1.0902 B(  2-C ,  3-C ) :   1.4800 B(  2-C ,  9-C ) :   1.1382
B(  3-C ,  4-C ) :   1.2224 B(  3-C ,  8-O ) :   1.1021 B(  4-C ,  5-O ) :   1.0693
B(  5-O ,  6-C ) :   1.0927 B(  6-C ,  7-S ) :   1.8156 B(  6-C ,  8-O ) :   1.0837
B(  9-C , 10-C ) :   1.6314 B(  9-C , 71-H ) :   0.9858 B( 10-C , 11-C ) :   1.1434
B( 10-C , 72-H ) :   0.9632 B( 11-C , 12-N ) :   1.5943 B( 11-C , 13-C ) :   0.1127
B( 11-C , 22-C ) :   0.9981 B( 12-N , 13-C ) :   1.3559 B( 13-C , 14-C ) :   1.0607
B( 13-C , 18-C ) :   1.4045 B( 14-C , 15-C ) :   0.9034 B( 14-C , 22-C ) :   1.5343
B( 15-C , 16-O ) :   2.1667 B( 15-C , 17-C ) :   0.9386 B( 16-O , 76-H ) :   0.1113
B( 17-C , 18-C ) :   1.0764 B( 17-C , 21-C ) :   1.5907 B( 18-C , 19-N ) :   1.3177
B( 19-N , 20-C ) :   1.6517 B( 20-C , 21-C ) :   1.0778 B( 20-C , 73-H ) :   0.9894
B( 21-C , 74-H ) :   1.0106 B( 22-C , 23-C ) :   1.1358 B( 23-C , 24-C ) :   1.6288
B( 23-C , 75-H ) :   0.9589 B( 24-C , 25-C ) :   1.0796 B( 24-C , 76-H ) :   0.9688
B( 25-C , 26-C ) :   1.4873 B( 25-C , 42-C ) :   1.1224 B( 26-C , 27-C ) :   1.1090
B( 26-C , 77-H ) :   1.0032 B( 27-C , 28-C ) :   1.4379 B( 27-C , 40-C ) :   1.1283
B( 28-C , 29-C ) :   1.0243 B( 28-C , 34-C ) :   1.1110 B( 29-C , 30-C ) :   1.0077
B( 29-C , 32-C ) :   1.0233 B( 29-C , 78-H ) :   0.8796 B( 30-C , 31-N ) :   1.1230
B( 30-C , 79-H ) :   0.9438 B( 30-C , 80-H ) :   0.9470 B( 31-N , 81-H ) :   0.9769
B( 31-N , 82-H ) :   0.9809 B( 32-C , 33-N ) :   1.0896 B( 32-C , 83-H ) :   0.9408
B( 32-C , 84-H ) :   0.9359 B( 33-N , 85-H ) :   0.9718 B( 33-N , 86-H ) :   0.9678
B( 34-C , 35-C ) :   1.6502 B( 34-C , 39-C ) :   1.0405 B( 35-C , 36-C ) :   0.9722
B( 35-C , 87-H ) :   0.9711 B( 36-C , 37-C ) :   0.9711 B( 36-C , 43-C ) :   0.9604
B( 36-C , 88-H ) :   0.8799 B( 37-C , 38-C ) :   1.7109 B( 37-C , 89-H ) :   0.9704
B( 38-C , 39-C ) :   1.1287 B( 38-C , 90-H ) :   0.9882 B( 39-C , 40-C ) :   1.4295
B( 40-C , 41-C ) :   1.1445 B( 41-C , 42-C ) :   1.6123 B( 41-C , 91-H ) :   0.9902
B( 42-C , 92-H ) :   0.9840 B( 43-C , 44-C ) :   1.7784 B( 43-C , 93-H ) :   0.9678
B( 44-C , 45-C ) :   1.0684 B( 44-C , 94-H ) :   0.9551 B( 45-C , 46-N ) :   1.6074
B( 45-C , 47-C ) :   0.1082 B( 45-C , 56-C ) :   1.0220 B( 46-N , 47-C ) :   1.3288
B( 47-C , 48-C ) :   1.0541 B( 47-C , 52-C ) :   1.4279 B( 48-C , 49-C ) :   0.9043
B( 48-C , 56-C ) :   1.5381 B( 49-C , 50-O ) :   2.1789 B( 49-C , 51-C ) :   0.9304
B( 50-O , 98-H ) :   0.1055 B( 51-C , 52-C ) :   1.0687 B( 51-C , 55-C ) :   1.6023
B( 52-C , 53-N ) :   1.3142 B( 53-N , 54-C ) :   1.6545 B( 54-C , 55-C ) :   1.0708
B( 54-C , 95-H ) :   0.9898 B( 55-C , 96-H ) :   1.0111 B( 56-C , 57-C ) :   1.1217
B( 57-C , 58-C ) :   1.6574 B( 57-C , 97-H ) :   0.9641 B( 58-C , 59-C ) :   1.1239
B( 58-C , 98-H ) :   0.9411 B( 59-C , 60-S ) :   1.1043 B( 59-C , 61-C ) :   0.1021
B( 59-C , 63-C ) :   1.4785 B( 60-S , 61-C ) :   1.1043 B( 61-C , 62-C ) :   1.5128
B( 61-C , 68-C ) :   1.1057 B( 62-C , 63-C ) :   1.2623 B( 62-C , 67-O ) :   1.0519
B( 63-C , 64-O ) :   1.0495 B( 64-O , 65-C ) :   1.1007 B( 65-C , 66-S ) :   1.7771
B( 65-C , 67-O ) :   1.1157 B( 68-C , 69-C ) :   1.9340 B( 68-C , 99-H ) :   0.9514
B( 69-C ,100-H ) :   0.9511 B( 69-C ,101-H ) :   0.9473

-----------------------------------------------------------------------------
         ABSORPTION SPECTRUM VIA TRANSITION ELECTRIC DIPOLE MOMENTS
-----------------------------------------------------------------------------
State   Energy  Wavelength   fosc         T2         TX        TY        TZ
        (cm-1)    (nm)                  (au**2)     (au)      (au)      (au)
-----------------------------------------------------------------------------
   0   10606.7    942.8   0.157934208   4.90198   1.67912   1.34947  -0.51133
   1   11488.4    870.4   0.013542872   0.38809   0.11209  -0.58024   0.19710
   2   14092.1    709.6   0.072279512   1.68855   0.20654   1.10478   0.65220
   3   16494.5    606.3   0.192604673   3.84418   1.43595  -0.33741  -1.29166
   4   18078.6    553.1   0.013508177   0.24598   0.24346   0.42912   0.05061
   5   21280.9    469.9   0.036427752   0.56353   0.54756   0.51326   0.01683
   6   21669.7    461.5   0.022841933   0.34702  -0.03206   0.18548   0.55820
   7   21883.4    457.0   0.875390311  13.16932  -0.72933   1.08743   3.38451
   8   22121.3    452.1   0.009448647   0.14062   0.36012   0.09898  -0.03362
   9   23442.1    426.6   0.066950940   0.94023   0.58248   0.66372  -0.40053
  10   24009.0    416.5   0.190922871   2.61794  -0.80203  -1.40521  -0.00826
  11   24067.3    415.5   0.379554741   5.19185  -0.86494  -2.00286  -0.65747
  12   24507.7    408.0   0.203152337   2.72894   1.21543   0.87385  -0.69860
  13   24918.9    401.3   0.050171078   0.66283   0.28280  -0.05760  -0.76127
  14   25167.1    397.3   0.144568841   1.89111  -1.19605  -0.59838   0.32020
  15   25565.3    391.2   0.000918338   0.01183  -0.05120  -0.09424   0.01798
  16   25689.2    389.3   0.565322204   7.24470  -1.21156  -2.39373   0.21656
  17   25886.5    386.3   0.144784389   1.84130   0.92720  -0.18527  -0.97327
  18   26180.6    382.0   0.948340165  11.92505   2.17704  -0.47195  -2.63871
  19   26951.2    371.0   0.130817813   1.59795  -1.23999   0.21670   0.11581
  20   27122.9    368.7   0.038647130   0.46909   0.67417  -0.00251   0.12072
  21   27291.2    366.4   0.005766466   0.06956  -0.00150   0.22674   0.13472
  22   27409.1    364.8   0.003926620   0.04716  -0.14661  -0.08466  -0.13602
  23   27680.7    361.3   0.070874025   0.84292  -0.77647  -0.48987   0.00652
  24   27704.5    361.0   0.057679974   0.68541   0.08480   0.78556  -0.24721
  25   27856.8    359.0   0.006941978   0.08204  -0.13242  -0.11762   0.22510
  26   27873.3    358.8   0.003497727   0.04131   0.06192   0.08369  -0.17457
  27   27954.6    357.7   0.041183166   0.48500  -0.24732  -0.48829   0.43059
  28   28778.3    347.5   0.002510030   0.02871   0.16259   0.00937  -0.04681
  29   28892.3    346.1   0.000000901   0.00001  -0.00065   0.00272   0.00156
  30   28909.0    345.9   0.001683312   0.01917  -0.11258  -0.05147  -0.06202
  31   30107.8    332.1   0.009122459   0.09975   0.25506  -0.02441  -0.18466
  32   30152.7    331.6   0.000243287   0.00266  -0.03327   0.03439  -0.01915
  33   30325.9    329.8   0.004653263   0.05051  -0.16001  -0.12306  -0.09882
  34   30592.3    326.9   0.242374199   2.60825  -1.29504  -0.19423   0.94519
  35   30771.4    325.0   0.032788431   0.35079  -0.12213  -0.43452   0.38349
  36   31181.6    320.7   0.005474108   0.05780  -0.17787   0.10628   0.12191
  37   31243.2    320.1   0.009982013   0.10518   0.06565   0.22758  -0.22154
  38   31362.5    318.9   0.005589203   0.05867  -0.04596  -0.23730   0.01573
  39   31534.6    317.1   0.207299999   2.16415  -0.52978  -1.35263   0.23210
  40   32504.1    307.7   0.260969229   2.64318  -0.01357   0.88028   1.36679
  41   33047.4    302.6   0.011717639   0.11673   0.15352  -0.08394  -0.29345
  42   33206.9    301.1   0.181434288   1.79873  -0.35939   0.24510   1.26866
  43   33814.9    295.7   0.071819892   0.69922   0.44158  -0.12385  -0.69921
  44   33917.5    294.8   0.018712894   0.18163   0.17532   0.35132   0.16574
  45   34058.8    293.6   0.017855721   0.17259  -0.12089  -0.04019   0.39543
  46   34137.0    292.9   0.269462764   2.59866   0.81781   1.38636  -0.08861
  47   34215.1    292.3   0.054012312   0.51970  -0.01448  -0.38678  -0.60819
  48   34456.1    290.2   0.034711230   0.33165  -0.26147  -0.51076  -0.04905
  49   34614.2    288.9   0.045053035   0.42849  -0.42228  -0.41566  -0.27821
  50   35125.2    284.7   0.023813309   0.22319   0.18144   0.40489  -0.16228
  51   35467.9    281.9   0.042710459   0.39644   0.07948   0.16106   0.60347
  52   35580.0    281.1   0.017886420   0.16550  -0.32961  -0.19611  -0.13562
  53   35783.4    279.5   0.059251827   0.54512   0.71885  -0.08225   0.14703
  54   35792.1    279.4   0.005655953   0.05202  -0.22276  -0.04881   0.00448
  55   35929.8    278.3   0.063083341   0.57801  -0.73466  -0.18813   0.05380
  56   36101.0    277.0   0.174016449   1.58689   1.09029   0.51352  -0.36668
  57   36675.9    272.7   0.004886024   0.04386  -0.00087   0.19898   0.06530
  58   36924.4    270.8   0.277416677   2.47340   1.56852   0.10673  -0.04186
  59   36967.1    270.5   0.000417611   0.00372   0.05615   0.01405  -0.01921
  60   36978.5    270.4   0.135656222   1.20772  -1.00484  -0.25730   0.36306
  61   37449.6    267.0   0.037459530   0.32930   0.45826  -0.11679   0.32505
  62   37567.7    266.2   0.143357653   1.25627   0.16606   0.22836  -1.08469
  63   37649.5    265.6   0.000056854   0.00050   0.01465  -0.01641   0.00365
  64   37734.1    265.0   0.014390545   0.12555  -0.12195   0.02040   0.33206
  65   38159.2    262.1   0.113227097   0.97685   0.18796   0.40204   0.88311
  66   38673.7    258.6   0.022650677   0.19281   0.10502   0.22471   0.36234
  67   38946.4    256.8   0.036665807   0.30993   0.20043   0.27072  -0.44326
  68   39004.4    256.4   0.006611160   0.05580  -0.10585  -0.17023   0.12497
  69   39039.7    256.1   0.008165895   0.06886   0.06690   0.03075  -0.25187
  70   39725.2    251.7   0.059752305   0.49518   0.29936   0.63663  -0.01618
  71   39771.4    251.4   0.023305396   0.19291  -0.10405  -0.02536  -0.42596
  72   40087.8    249.5   0.023508310   0.19306   0.09157   0.21120  -0.37426
  73   40108.8    249.3   0.000860462   0.00706   0.01743   0.05033   0.06501
  74   40166.6    249.0   0.001937864   0.01588  -0.00093  -0.02053   0.12434
  75   40214.5    248.7   0.115187595   0.94297  -0.44315  -0.76413   0.40337
  76   40272.5    248.3   0.000208342   0.00170   0.00836   0.03697  -0.01632
  77   40294.3    248.2   0.003774127   0.03084  -0.01947  -0.16991   0.03983

FINAL SINGLE POINT ENERGY     -4445.262370268122

DIPOLE MOMENT
-------------
                                X             Y             Z
Electronic contribution:    -16.26247      -6.19108      52.59331
Nuclear contribution   :     17.42435       9.47161     -51.61077
                        -----------------------------------------
Total Dipole Moment    :      1.16188       3.28052       0.98254
                        -----------------------------------------
Magnitude (a.u.)       :      3.61624
Magnitude (Debye)      :      9.19175

Rotational constants in cm-1:     0.001068     0.000315     0.000261
Rotational constants in MHz :    32.004921     9.434308     7.828228

                             ****ORCA TERMINATED NORMALLY****
TOTAL RUN TIME: 0 days 0 hours 13 minutes 37 seconds 277 msec
