                         Program Version 4.2.0 -  RELEASE  -
|  1> # ORCA input file
|  2> # SCF done       -174.376241162204          0.000564215698
|  3> ! CAM-B3LYP def2-SVP def2/J RIJCOSX Grid4 TightSCF
|  4> %maxcore 5000
|  5> %tddft
|  6>     Mode sTDDFT
|  7>     Ethresh 5.0
|  8>     maxcore 5000
|  9> end
| 10>
| 11> %pal
| 12>   nprocs 6
| 13>   end
| 14> * xyz 0 1
| 15>    C       -0.85869        -7.01329         5.64048
| 16>    S       -0.56125        -7.27996         3.95802
| 17>    C        1.18350        -7.11853         4.10882
| 18>    C        1.45723        -6.87044         5.43002
| 19>    C        0.32246        -6.81278         6.27523
| 20>    O        0.76283        -6.56005         7.53925
| 21>    C        2.11177        -6.46759         7.46357
| 22>    S        3.07059        -6.17459         8.72457
| 23>    O        2.55800        -6.65149         6.19939
| 24>    C        2.08353        -7.22967         3.01548
| 25>    C        1.68895        -7.46931         1.74462
| 26>    C        2.55661        -7.56840         0.62655
| 27>    C        4.01929        -7.45176         0.59359
| 28>    N        4.53939        -7.55770        -0.59516
| 29>    C        3.48633        -7.75392        -1.44095
| 30>    C        2.22508        -7.78624        -0.69459
| 31>    C        1.11455        -7.95537        -1.59717
| 32>    S       -0.47937        -7.99322        -1.17939
| 33>    C        1.72111        -8.01876        -2.90313
| 34>    C        3.18350        -7.88886        -2.77276
| 35>    N        3.77919        -7.87953        -3.99799
| 36>    C        2.80310        -7.93934        -4.85747
| 37>    C        1.46826        -8.01781        -4.26033
| 38>    C        0.23264        -8.07979        -4.98831
| 39>    C       -0.88185        -8.66835        -4.42067
| 40>    C       -2.09209        -8.69548        -5.13012
| 41>    C       -3.33672        -9.21633        -4.78091
| 42>    C       -3.67309        -9.90191        -3.50512
| 43>    C       -4.93284        -9.32322        -2.82935
| 44>    N       -4.77772        -9.40037        -1.39273
| 45>    C       -3.80721       -11.42212        -3.73258
| 46>    N       -2.50727       -11.97374        -4.05430
| 47>    C       -4.21727        -8.96620        -5.89996
| 48>    C       -5.51111        -9.27561        -6.10999
| 49>    C       -6.21255        -8.89633        -7.37054
| 50>    C       -5.37508        -8.14455        -8.34988
| 51>    C       -4.07831        -7.85487        -8.13446
| 52>    C       -3.44953        -8.25205        -6.93139
| 53>    C       -2.15932        -8.10406        -6.45695
| 54>    C       -0.99934        -7.52498        -7.01844
| 55>    C        0.15695        -7.52117        -6.30548
| 56>    C       -6.82518       -10.14688        -7.95872
| 57>    C       -6.37875       -10.72571        -9.07674
| 58>    C       -6.94457       -11.89103        -9.68429
| 59>    C       -8.03023       -12.74868        -9.20448
| 60>    N       -8.33760       -13.72936       -10.00729
| 61>    C       -7.49864       -13.60426       -11.07542
| 62>    C       -6.59770       -12.45658       -10.88786
| 63>    C       -5.72637       -12.31402       -12.02704
| 64>    S       -4.56496       -11.17320       -12.26602
| 65>    C       -6.12032       -13.38287       -12.90428
| 66>    C       -7.21151       -14.16305       -12.29555
| 67>    N       -7.60754       -15.16827       -13.12825
| 68>    C       -6.86242       -15.06370       -14.18829
| 69>    C       -5.89635       -13.95783       -14.13502
| 70>    C       -4.99176       -13.63777       -15.17227
| 71>    S       -3.82593       -12.32747       -15.09251
| 72>    C       -3.18032       -12.62485       -16.68984
| 73>    C       -3.85705       -13.69167       -17.22823
| 74>    C       -4.84648       -14.24726       -16.39903
| 75>    O       -5.42138       -15.28367       -17.06825
| 76>    C       -4.79826       -15.35425       -18.26896
| 77>    S       -5.15153       -16.43947       -19.40682
| 78>    O       -3.84666       -14.40290       -18.39316
| 79>    C       -2.12626       -11.82040       -17.23522
| 80>    C       -1.61512       -12.00636       -18.45159
| 81>    H       -1.85518        -7.02320         6.02789
| 82>    H        3.12797        -7.10557         3.26591
| 83>    H        0.63206        -7.58912         1.53750
| 84>    H        4.65551        -7.30189         1.44775
| 85>    H        3.01604        -7.97357        -5.91191
| 86>    H       -0.81733        -9.12615        -3.44732
| 87>    H       -2.84777        -9.75242        -2.80423
| 88>    H       -5.83019        -9.84913        -3.20030
| 89>    H       -5.02796        -8.26565        -3.09163
| 90>    H       -4.72422       -10.36322        -1.08110
| 91>    H       -5.54590        -8.94794        -0.91270
| 92>    H       -4.56995       -11.60448        -4.51082
| 93>    H       -4.14450       -11.89628        -2.80664
| 94>    H       -2.16556       -11.59436        -4.93101
| 95>    H       -2.54797       -12.98268        -4.13646
| 96>    H       -6.09572        -9.82339        -5.38504
| 97>    H       -7.05798        -8.24864        -7.08162
| 98>    H       -5.87136        -7.84185        -9.25919
| 99>    H       -3.50479        -7.31250        -8.87133
|100>    H       -1.04364        -7.08781        -8.00479
|101>    H        1.04279        -7.06376        -6.71871
|102>    H       -7.65346       -10.56603        -7.40464
|103>    H       -5.54190       -10.29539        -9.61144
|104>    H       -8.55854       -12.63235        -8.27454
|105>    H       -6.96861       -15.74502       -15.01383
|106>    H       -1.76415       -11.03549       -16.58617
|107>    H       -1.97467       -12.78626       -19.10147
|108>    H       -0.82431       -11.38181       -18.82706
|109> *
|110>
|111>                          ****END OF INPUT****

CARTESIAN COORDINATES (ANGSTROEM)
---------------------------------
  C     -0.858690   -7.013290    5.640480
  S     -0.561250   -7.279960    3.958020
  C      1.183500   -7.118530    4.108820
  C      1.457230   -6.870440    5.430020
  C      0.322460   -6.812780    6.275230
  O      0.762830   -6.560050    7.539250
  C      2.111770   -6.467590    7.463570
  S      3.070590   -6.174590    8.724570
  O      2.558000   -6.651490    6.199390
  C      2.083530   -7.229670    3.015480
  C      1.688950   -7.469310    1.744620
  C      2.556610   -7.568400    0.626550
  C      4.019290   -7.451760    0.593590
  N      4.539390   -7.557700   -0.595160
  C      3.486330   -7.753920   -1.440950
  C      2.225080   -7.786240   -0.694590
  C      1.114550   -7.955370   -1.597170
  S     -0.479370   -7.993220   -1.179390
  C      1.721110   -8.018760   -2.903130
  C      3.183500   -7.888860   -2.772760
  N      3.779190   -7.879530   -3.997990
  C      2.803100   -7.939340   -4.857470
  C      1.468260   -8.017810   -4.260330
  C      0.232640   -8.079790   -4.988310
  C     -0.881850   -8.668350   -4.420670
  C     -2.092090   -8.695480   -5.130120
  C     -3.336720   -9.216330   -4.780910
  C     -3.673090   -9.901910   -3.505120
  C     -4.932840   -9.323220   -2.829350
  N     -4.777720   -9.400370   -1.392730
  C     -3.807210  -11.422120   -3.732580
  N     -2.507270  -11.973740   -4.054300
  C     -4.217270   -8.966200   -5.899960
  C     -5.511110   -9.275610   -6.109990
  C     -6.212550   -8.896330   -7.370540
  C     -5.375080   -8.144550   -8.349880
  C     -4.078310   -7.854870   -8.134460
  C     -3.449530   -8.252050   -6.931390
  C     -2.159320   -8.104060   -6.456950
  C     -0.999340   -7.524980   -7.018440
  C      0.156950   -7.521170   -6.305480
  C     -6.825180  -10.146880   -7.958720
  C     -6.378750  -10.725710   -9.076740
  C     -6.944570  -11.891030   -9.684290
  C     -8.030230  -12.748680   -9.204480
  N     -8.337600  -13.729360  -10.007290
  C     -7.498640  -13.604260  -11.075420
  C     -6.597700  -12.456580  -10.887860
  C     -5.726370  -12.314020  -12.027040
  S     -4.564960  -11.173200  -12.266020
  C     -6.120320  -13.382870  -12.904280
  C     -7.211510  -14.163050  -12.295550
  N     -7.607540  -15.168270  -13.128250
  C     -6.862420  -15.063700  -14.188290
  C     -5.896350  -13.957830  -14.135020
  C     -4.991760  -13.637770  -15.172270
  S     -3.825930  -12.327470  -15.092510
  C     -3.180320  -12.624850  -16.689840
  C     -3.857050  -13.691670  -17.228230
  C     -4.846480  -14.247260  -16.399030
  O     -5.421380  -15.283670  -17.068250
  C     -4.798260  -15.354250  -18.268960
  S     -5.151530  -16.439470  -19.406820
  O     -3.846660  -14.402900  -18.393160
  C     -2.126260  -11.820400  -17.235220
  C     -1.615120  -12.006360  -18.451590
  H     -1.855180   -7.023200    6.027890
  H      3.127970   -7.105570    3.265910
  H      0.632060   -7.589120    1.537500
  H      4.655510   -7.301890    1.447750
  H      3.016040   -7.973570   -5.911910
  H     -0.817330   -9.126150   -3.447320
  H     -2.847770   -9.752420   -2.804230
  H     -5.830190   -9.849130   -3.200300
  H     -5.027960   -8.265650   -3.091630
  H     -4.724220  -10.363220   -1.081100
  H     -5.545900   -8.947940   -0.912700
  H     -4.569950  -11.604480   -4.510820
  H     -4.144500  -11.896280   -2.806640
  H     -2.165560  -11.594360   -4.931010
  H     -2.547970  -12.982680   -4.136460
  H     -6.095720   -9.823390   -5.385040
  H     -7.057980   -8.248640   -7.081620
  H     -5.871360   -7.841850   -9.259190
  H     -3.504790   -7.312500   -8.871330
  H     -1.043640   -7.087810   -8.004790
  H      1.042790   -7.063760   -6.718710
  H     -7.653460  -10.566030   -7.404640
  H     -5.541900  -10.295390   -9.611440
  H     -8.558540  -12.632350   -8.274540
  H     -6.968610  -15.745020  -15.013830
  H     -1.764150  -11.035490  -16.586170
  H     -1.974670  -12.786260  -19.101470
  H     -0.824310  -11.381810  -18.827060

 Total Charge           Charge          ....    0
 Multiplicity           Mult            ....    1
 Number of Electrons    NEL             ....  498
 Basis Dimension        Dim             .... 1088

ORBITAL ENERGIES
----------------

  NO   OCC          E(Eh)            E(eV)
   0   2.0000     -88.981229     -2421.3023
   1   2.0000     -88.976252     -2421.1669
   2   2.0000     -88.908512     -2419.3236
   3   2.0000     -88.895751     -2418.9764
   4   2.0000     -88.892399     -2418.8852
   5   2.0000     -88.888510     -2418.7793
   6   2.0000     -19.329185      -525.9739
   7   2.0000     -19.325008      -525.8602
   8   2.0000     -19.318748      -525.6899
   9   2.0000     -19.315576      -525.6036
  10   2.0000     -14.425271      -392.5316
  11   2.0000     -14.422993      -392.4696
  12   2.0000     -14.410799      -392.1378
  13   2.0000     -14.409792      -392.1104
  14   2.0000     -14.378834      -391.2680
  15   2.0000     -14.376418      -391.2022
  16   2.0000     -10.449295      -284.3398
  17   2.0000     -10.441611      -284.1307
  18   2.0000     -10.369239      -282.1613
  19   2.0000     -10.360977      -281.9365
  20   2.0000     -10.357813      -281.8504
  21   2.0000     -10.357510      -281.8422
  22   2.0000     -10.350453      -281.6501
  23   2.0000     -10.344610      -281.4911
  24   2.0000     -10.341854      -281.4162
  25   2.0000     -10.338886      -281.3354
  26   2.0000     -10.338625      -281.3283
  27   2.0000     -10.336051      -281.2582
  28   2.0000     -10.334381      -281.2128
  29   2.0000     -10.331557      -281.1359
  30   2.0000     -10.329505      -281.0801
  31   2.0000     -10.328229      -281.0454
  32   2.0000     -10.327687      -281.0307
  33   2.0000     -10.325321      -280.9663
  34   2.0000     -10.324029      -280.9311
  35   2.0000     -10.321461      -280.8612
  36   2.0000     -10.320860      -280.8449
  37   2.0000     -10.311949      -280.6024
  38   2.0000     -10.311031      -280.5774
  39   2.0000     -10.305659      -280.4312
  40   2.0000     -10.304491      -280.3995
  41   2.0000     -10.303348      -280.3684
  42   2.0000     -10.302939      -280.3572
  43   2.0000     -10.300710      -280.2966
  44   2.0000     -10.299838      -280.2729
  45   2.0000     -10.298617      -280.2396
  46   2.0000     -10.298322      -280.2316
  47   2.0000     -10.291057      -280.0339
  48   2.0000     -10.290916      -280.0301
  49   2.0000     -10.286813      -279.9184
  50   2.0000     -10.286192      -279.9015
  51   2.0000     -10.285806      -279.8910
  52   2.0000     -10.285645      -279.8866
  53   2.0000     -10.284748      -279.8622
  54   2.0000     -10.281633      -279.7775
  55   2.0000     -10.281037      -279.7612
  56   2.0000     -10.276998      -279.6513
  57   2.0000     -10.273839      -279.5654
  58   2.0000     -10.272680      -279.5338
  59   2.0000     -10.271574      -279.5037
  60   2.0000     -10.271201      -279.4936
  61   2.0000     -10.268219      -279.4124
  62   2.0000     -10.266244      -279.3587
  63   2.0000     -10.265977      -279.3514
  64   2.0000     -10.265568      -279.3403
  65   2.0000     -10.261230      -279.2223
  66   2.0000      -8.075012      -219.7323
  67   2.0000      -8.071158      -219.6274
  68   2.0000      -8.004165      -217.8044
  69   2.0000      -7.993871      -217.5243
  70   2.0000      -7.987822      -217.3597
  71   2.0000      -7.986671      -217.3284
  72   2.0000      -6.044555      -164.4807
  73   2.0000      -6.040769      -164.3777
  74   2.0000      -6.040526      -164.3711
  75   2.0000      -6.036575      -164.2636
  76   2.0000      -6.036454      -164.2603
  77   2.0000      -6.032681      -164.1576
  78   2.0000      -5.972896      -162.5308
  79   2.0000      -5.972541      -162.5211
  80   2.0000      -5.963766      -162.2823
  81   2.0000      -5.963680      -162.2800
  82   2.0000      -5.960173      -162.1846
  83   2.0000      -5.956690      -162.0898
  84   2.0000      -5.956557      -162.0862
  85   2.0000      -5.956195      -162.0763
  86   2.0000      -5.953780      -162.0106
  87   2.0000      -5.952990      -161.9891
  88   2.0000      -5.947219      -161.8320
  89   2.0000      -5.946580      -161.8147
  90   2.0000      -1.294944       -35.2372
  91   2.0000      -1.285556       -34.9818
  92   2.0000      -1.186363       -32.2826
  93   2.0000      -1.177417       -32.0392
  94   2.0000      -1.091715       -29.7071
  95   2.0000      -1.077322       -29.3154
  96   2.0000      -1.072603       -29.1870
  97   2.0000      -1.058551       -28.8046
  98   2.0000      -1.015633       -27.6368
  99   2.0000      -1.007866       -27.4254
 100   2.0000      -0.988734       -26.9048
 101   2.0000      -0.970905       -26.4197
 102   2.0000      -0.967669       -26.3316
 103   2.0000      -0.956360       -26.0239
 104   2.0000      -0.953381       -25.9428
 105   2.0000      -0.951691       -25.8968
 106   2.0000      -0.926224       -25.2038
 107   2.0000      -0.922703       -25.1080
 108   2.0000      -0.921826       -25.0841
 109   2.0000      -0.910861       -24.7858
 110   2.0000      -0.904339       -24.6083
 111   2.0000      -0.898879       -24.4597
 112   2.0000      -0.881367       -23.9832
 113   2.0000      -0.878844       -23.9145
 114   2.0000      -0.871862       -23.7246
 115   2.0000      -0.868961       -23.6456
 116   2.0000      -0.859436       -23.3864
 117   2.0000      -0.845398       -23.0044
 118   2.0000      -0.841524       -22.8990
 119   2.0000      -0.836309       -22.7571
 120   2.0000      -0.829318       -22.5669
 121   2.0000      -0.824297       -22.4303
 122   2.0000      -0.820459       -22.3258
 123   2.0000      -0.820306       -22.3217
 124   2.0000      -0.810528       -22.0556
 125   2.0000      -0.799908       -21.7666
 126   2.0000      -0.781940       -21.2777
 127   2.0000      -0.773116       -21.0376
 128   2.0000      -0.761311       -20.7163
 129   2.0000      -0.755622       -20.5615
 130   2.0000      -0.748940       -20.3797
 131   2.0000      -0.744802       -20.2671
 132   2.0000      -0.737279       -20.0624
 133   2.0000      -0.733635       -19.9632
 134   2.0000      -0.731150       -19.8956
 135   2.0000      -0.724172       -19.7057
 136   2.0000      -0.722870       -19.6703
 137   2.0000      -0.717399       -19.5214
 138   2.0000      -0.710649       -19.3377
 139   2.0000      -0.706033       -19.2121
 140   2.0000      -0.699604       -19.0372
 141   2.0000      -0.696084       -18.9414
 142   2.0000      -0.681105       -18.5338
 143   2.0000      -0.675737       -18.3877
 144   2.0000      -0.671852       -18.2820
 145   2.0000      -0.668839       -18.2000
 146   2.0000      -0.666669       -18.1410
 147   2.0000      -0.655884       -17.8475
 148   2.0000      -0.648202       -17.6385
 149   2.0000      -0.643383       -17.5073
 150   2.0000      -0.635302       -17.2875
 151   2.0000      -0.626078       -17.0365
 152   2.0000      -0.620322       -16.8798
 153   2.0000      -0.616764       -16.7830
 154   2.0000      -0.615045       -16.7362
 155   2.0000      -0.610305       -16.6072
 156   2.0000      -0.605950       -16.4887
 157   2.0000      -0.596287       -16.2258
 158   2.0000      -0.590924       -16.0799
 159   2.0000      -0.585326       -15.9275
 160   2.0000      -0.583069       -15.8661
 161   2.0000      -0.581545       -15.8247
 162   2.0000      -0.574129       -15.6228
 163   2.0000      -0.571198       -15.5431
 164   2.0000      -0.567280       -15.4365
 165   2.0000      -0.563070       -15.3219
 166   2.0000      -0.562484       -15.3060
 167   2.0000      -0.559267       -15.2184
 168   2.0000      -0.553493       -15.0613
 169   2.0000      -0.551999       -15.0207
 170   2.0000      -0.551138       -14.9972
 171   2.0000      -0.541851       -14.7445
 172   2.0000      -0.536604       -14.6017
 173   2.0000      -0.532003       -14.4765
 174   2.0000      -0.526662       -14.3312
 175   2.0000      -0.520598       -14.1662
 176   2.0000      -0.518473       -14.1084
 177   2.0000      -0.515620       -14.0307
 178   2.0000      -0.515238       -14.0203
 179   2.0000      -0.513280       -13.9671
 180   2.0000      -0.512753       -13.9527
 181   2.0000      -0.510226       -13.8840
 182   2.0000      -0.506109       -13.7719
 183   2.0000      -0.505945       -13.7675
 184   2.0000      -0.504996       -13.7416
 185   2.0000      -0.502720       -13.6797
 186   2.0000      -0.502380       -13.6705
 187   2.0000      -0.501495       -13.6464
 188   2.0000      -0.499048       -13.5798
 189   2.0000      -0.496267       -13.5041
 190   2.0000      -0.493703       -13.4343
 191   2.0000      -0.491369       -13.3708
 192   2.0000      -0.489489       -13.3197
 193   2.0000      -0.487582       -13.2678
 194   2.0000      -0.486768       -13.2456
 195   2.0000      -0.485493       -13.2109
 196   2.0000      -0.484247       -13.1770
 197   2.0000      -0.482526       -13.1302
 198   2.0000      -0.480682       -13.0800
 199   2.0000      -0.476730       -12.9725
 200   2.0000      -0.474536       -12.9128
 201   2.0000      -0.471723       -12.8362
 202   2.0000      -0.467452       -12.7200
 203   2.0000      -0.466184       -12.6855
 204   2.0000      -0.463188       -12.6040
 205   2.0000      -0.455641       -12.3986
 206   2.0000      -0.453095       -12.3293
 207   2.0000      -0.449659       -12.2358
 208   2.0000      -0.444100       -12.0846
 209   2.0000      -0.437314       -11.8999
 210   2.0000      -0.436386       -11.8747
 211   2.0000      -0.435722       -11.8566
 212   2.0000      -0.433603       -11.7989
 213   2.0000      -0.428273       -11.6539
 214   2.0000      -0.423081       -11.5126
 215   2.0000      -0.417158       -11.3514
 216   2.0000      -0.415663       -11.3108
 217   2.0000      -0.412266       -11.2183
 218   2.0000      -0.410515       -11.1707
 219   2.0000      -0.409769       -11.1504
 220   2.0000      -0.401908       -10.9365
 221   2.0000      -0.395537       -10.7631
 222   2.0000      -0.389536       -10.5998
 223   2.0000      -0.374484       -10.1902
 224   2.0000      -0.370593       -10.0843
 225   2.0000      -0.363802        -9.8996
 226   2.0000      -0.363530        -9.8922
 227   2.0000      -0.360083        -9.7984
 228   2.0000      -0.352392        -9.5891
 229   2.0000      -0.351117        -9.5544
 230   2.0000      -0.349028        -9.4975
 231   2.0000      -0.346312        -9.4236
 232   2.0000      -0.343411        -9.3447
 233   2.0000      -0.331738        -9.0270
 234   2.0000      -0.326237        -8.8774
 235   2.0000      -0.310365        -8.4455
 236   2.0000      -0.307795        -8.3755
 237   2.0000      -0.305375        -8.3097
 238   2.0000      -0.304455        -8.2846
 239   2.0000      -0.300661        -8.1814
 240   2.0000      -0.299151        -8.1403
 241   2.0000      -0.297927        -8.1070
 242   2.0000      -0.296386        -8.0651
 243   2.0000      -0.293097        -7.9756
 244   2.0000      -0.288408        -7.8480
 245   2.0000      -0.278777        -7.5859
 246   2.0000      -0.278288        -7.5726
 247   2.0000      -0.268538        -7.3073
 248   2.0000      -0.224581        -6.1112
 249   0.0000      -0.119205        -3.2437
 250   0.0000      -0.107900        -2.9361
 251   0.0000      -0.089494        -2.4353
 252   0.0000      -0.081615        -2.2209
 253   0.0000      -0.063845        -1.7373

MULLIKEN ATOMIC CHARGES
-----------------------
   0 C :   -0.179467
   1 S :    0.139029
   2 C :   -0.178461
   3 C :    0.173741
   4 C :    0.236625
   5 O :   -0.170623
   6 C :    0.235451
   7 S :   -0.154932
   8 O :   -0.173455
   9 C :    0.035274
  10 C :   -0.030374
  11 C :    0.003481
  12 C :    0.052246
  13 N :   -0.026448
  14 C :    0.021399
  15 C :   -0.002760
  16 C :   -0.006890
  17 S :   -0.124732
  18 C :   -0.017979
  19 C :   -0.010700
  20 N :   -0.028686
  21 C :    0.045634
  22 C :    0.012065
  23 C :    0.063838
  24 C :   -0.040928
  25 C :    0.035146
  26 C :   -0.069558
  27 C :   -0.027992
  28 C :    0.130342
  29 N :   -0.207621
  30 C :    0.157529
  31 N :   -0.224260
  32 C :    0.091559
  33 C :   -0.110902
  34 C :    0.178720
  35 C :   -0.061380
  36 C :    0.020062
  37 C :    0.008429
  38 C :    0.044292
  39 C :   -0.005250
  40 C :   -0.021558
  41 C :   -0.103779
  42 C :    0.020600
  43 C :    0.009967
  44 C :    0.053366
  45 N :   -0.026942
  46 C :    0.011281
  47 C :   -0.005010
  48 C :   -0.003204
  49 S :   -0.125314
  50 C :   -0.041147
  51 C :    0.005910
  52 N :   -0.015094
  53 C :    0.057673
  54 C :    0.022227
  55 C :   -0.207448
  56 S :    0.206378
  57 C :   -0.192463
  58 C :    0.184616
  59 C :    0.172394
  60 O :   -0.181158
  61 C :    0.235998
  62 S :   -0.149160
  63 O :   -0.175649
  64 C :    0.052269
  65 C :   -0.009202
  66 H :    0.043595
  67 H :    0.005915
  68 H :    0.005239
  69 H :    0.008492
  70 H :    0.009724
  71 H :   -0.019114
  72 H :    0.002191
  73 H :   -0.025370
  74 H :    0.002405
  75 H :    0.087580
  76 H :    0.089881
  77 H :   -0.030319
  78 H :   -0.018846
  79 H :    0.099273
  80 H :    0.091846
  81 H :   -0.010938
  82 H :    0.042033
  83 H :   -0.004497
  84 H :   -0.033707
  85 H :   -0.038199
  86 H :   -0.030420
  87 H :   -0.000921
  88 H :    0.012946
  89 H :    0.006254
  90 H :    0.024964
  91 H :   -0.006503
  92 H :    0.042912
  93 H :    0.036570
Sum of atomic charges:   -0.0000000

LOEWDIN ATOMIC CHARGES
----------------------
   0 C :   -0.196202
   1 S :    0.461646
   2 C :   -0.190117
   3 C :   -0.007014
   4 C :   -0.012587
   5 O :   -0.015869
   6 C :   -0.062842
   7 S :    0.007762
   8 O :   -0.014400
   9 C :   -0.022565
  10 C :   -0.016297
  11 C :   -0.040740
  12 C :    0.082810
  13 N :   -0.078603
  14 C :    0.029552
  15 C :   -0.035511
  16 C :   -0.138180
  17 S :    0.062841
  18 C :   -0.048133
  19 C :    0.040219
  20 N :   -0.080394
  21 C :    0.083387
  22 C :   -0.019715
  23 C :   -0.043986
  24 C :    0.030073
  25 C :   -0.024872
  26 C :   -0.019958
  27 C :   -0.039654
  28 C :    0.026174
  29 N :   -0.111313
  30 C :    0.027433
  31 N :   -0.116460
  32 C :   -0.017601
  33 C :    0.069156
  34 C :   -0.030445
  35 C :   -0.036469
  36 C :   -0.011947
  37 C :   -0.040115
  38 C :   -0.028078
  39 C :   -0.012658
  40 C :   -0.027185
  41 C :    0.008944
  42 C :   -0.023296
  43 C :   -0.031240
  44 C :    0.086357
  45 N :   -0.078356
  46 C :    0.035219
  47 C :   -0.039352
  48 C :   -0.140711
  49 S :    0.046760
  50 C :   -0.051097
  51 C :    0.039526
  52 N :   -0.071549
  53 C :    0.092212
  54 C :   -0.047079
  55 C :   -0.199086
  56 S :    0.490440
  57 C :   -0.183685
  58 C :   -0.012750
  59 C :    0.002183
  60 O :   -0.015723
  61 C :   -0.064260
  62 S :    0.012657
  63 O :   -0.013069
  64 C :   -0.043405
  65 C :   -0.013708
  66 H :    0.036324
  67 H :    0.038843
  68 H :    0.024746
  69 H :    0.023247
  70 H :    0.024582
  71 H :    0.019671
  72 H :    0.034990
  73 H :   -0.007787
  74 H :    0.020540
  75 H :    0.049508
  76 H :    0.053952
  77 H :   -0.006958
  78 H :    0.010717
  79 H :    0.053124
  80 H :    0.054774
  81 H :    0.024618
  82 H :    0.063260
  83 H :    0.026600
  84 H :    0.031398
  85 H :    0.027131
  86 H :    0.024339
  87 H :    0.022425
  88 H :    0.033065
  89 H :    0.023419
  90 H :    0.030017
  91 H :    0.033562
  92 H :    0.030558
  93 H :    0.032260

  Mayer bond orders larger than 0.100000
B(  0-C ,  1-S ) :   1.1241 B(  0-C ,  4-C ) :   1.5406 B(  0-C , 66-H ) :   0.9899
B(  1-S ,  2-C ) :   1.1017 B(  2-C ,  3-C ) :   1.4949 B(  2-C ,  9-C ) :   1.1601
B(  3-C ,  4-C ) :   1.2245 B(  3-C ,  8-O ) :   1.0805 B(  4-C ,  5-O ) :   1.0605
B(  5-O ,  6-C ) :   1.1006 B(  6-C ,  7-S ) :   1.7998 B(  6-C ,  8-O ) :   1.0937
B(  9-C , 10-C ) :   1.6299 B(  9-C , 67-H ) :   0.9801 B( 10-C , 11-C ) :   1.1182
B( 10-C , 68-H ) :   0.9701 B( 11-C , 12-C ) :   1.0119 B( 11-C , 15-C ) :   1.5104
B( 12-C , 13-N ) :   1.7388 B( 12-C , 69-H ) :   0.9890 B( 13-N , 14-C ) :   1.2610
B( 14-C , 15-C ) :   1.0721 B( 14-C , 19-C ) :   1.5139 B( 15-C , 16-C ) :   1.0336
B( 16-C , 17-S ) :   1.6735 B( 16-C , 18-C ) :   1.0454 B( 18-C , 19-C ) :   1.0715
B( 18-C , 22-C ) :   1.5312 B( 19-C , 20-N ) :   1.2667 B( 20-N , 21-C ) :   1.7202
B( 21-C , 22-C ) :   1.0332 B( 21-C , 70-H ) :   0.9887 B( 22-C , 23-C ) :   1.0242
B( 23-C , 24-C ) :   1.5057 B( 23-C , 40-C ) :   1.1133 B( 24-C , 25-C ) :   1.1637
B( 24-C , 71-H ) :   0.9804 B( 25-C , 26-C ) :   1.4795 B( 25-C , 38-C ) :   1.1073
B( 26-C , 27-C ) :   1.0509 B( 26-C , 32-C ) :   1.0728 B( 27-C , 28-C ) :   1.0276
B( 27-C , 30-C ) :   1.0297 B( 27-C , 72-H ) :   0.8744 B( 28-C , 29-N ) :   1.1093
B( 28-C , 73-H ) :   0.9222 B( 28-C , 74-H ) :   0.9464 B( 29-N , 75-H ) :   0.9705
B( 29-N , 76-H ) :   0.9681 B( 30-C , 31-N ) :   1.0987 B( 30-C , 77-H ) :   0.9290
B( 30-C , 78-H ) :   0.9339 B( 31-N , 79-H ) :   0.9683 B( 31-N , 80-H ) :   0.9667
B( 32-C , 33-C ) :   1.6926 B( 32-C , 37-C ) :   1.0487 B( 33-C , 34-C ) :   0.9581
B( 33-C , 81-H ) :   0.9573 B( 34-C , 35-C ) :   1.0106 B( 34-C , 41-C ) :   0.9430
B( 34-C , 82-H ) :   0.8490 B( 35-C , 36-C ) :   1.7149 B( 35-C , 83-H ) :   0.9673
B( 36-C , 37-C ) :   1.1282 B( 36-C , 84-H ) :   0.9924 B( 37-C , 38-C ) :   1.4410
B( 38-C , 39-C ) :   1.1416 B( 39-C , 40-C ) :   1.6136 B( 39-C , 85-H ) :   0.9907
B( 40-C , 86-H ) :   0.9842 B( 41-C , 42-C ) :   1.8147 B( 41-C , 87-H ) :   0.9709
B( 42-C , 43-C ) :   1.0743 B( 42-C , 88-H ) :   0.9476 B( 43-C , 44-C ) :   1.0098
B( 43-C , 47-C ) :   1.5405 B( 44-C , 45-N ) :   1.7297 B( 44-C , 89-H ) :   0.9911
B( 45-N , 46-C ) :   1.2611 B( 46-C , 47-C ) :   1.0725 B( 46-C , 51-C ) :   1.5254
B( 47-C , 48-C ) :   1.0258 B( 48-C , 49-S ) :   1.6993 B( 48-C , 50-C ) :   1.0385
B( 50-C , 51-C ) :   1.0755 B( 50-C , 54-C ) :   1.5256 B( 51-C , 52-N ) :   1.2615
B( 52-N , 53-C ) :   1.7311 B( 53-C , 54-C ) :   1.0287 B( 53-C , 90-H ) :   0.9863
B( 54-C , 55-C ) :   1.1532 B( 55-C , 56-S ) :   1.1057 B( 55-C , 57-C ) :   0.1027
B( 55-C , 59-C ) :   1.4775 B( 56-S , 57-C ) :   1.0897 B( 57-C , 58-C ) :   1.4968
B( 57-C , 64-C ) :   1.1083 B( 58-C , 59-C ) :   1.2641 B( 58-C , 63-O ) :   1.0541
B( 59-C , 60-O ) :   1.0744 B( 60-O , 61-C ) :   1.0827 B( 61-C , 62-S ) :   1.8052
B( 61-C , 63-O ) :   1.1035 B( 64-C , 65-C ) :   1.9278 B( 64-C , 91-H ) :   0.9508
B( 65-C , 92-H ) :   0.9508 B( 65-C , 93-H ) :   0.9485

-----------------------------------------------------------------------------
         ABSORPTION SPECTRUM VIA TRANSITION ELECTRIC DIPOLE MOMENTS
-----------------------------------------------------------------------------
State   Energy  Wavelength   fosc         T2         TX        TY        TZ
        (cm-1)    (nm)                  (au**2)     (au)      (au)      (au)
-----------------------------------------------------------------------------
   0    9962.5   1003.8   0.069077334   2.28268  -1.02279  -0.55733  -0.96227
   1   10908.9    916.7   0.004295682   0.12964  -0.30873   0.16308  -0.08791
   2   13776.9    725.9   0.026948085   0.64395   0.02949  -0.28096   0.75109
   3   15868.8    630.2   0.001843604   0.03825  -0.10671   0.01737  -0.16297
   4   16251.2    615.3   0.022797377   0.46182  -0.38487   0.03035  -0.55926
   5   16420.6    609.0   0.000288885   0.00579  -0.02079  -0.03079  -0.06642
   6   16959.6    589.6   0.343360638   6.66517   0.25974  -0.47154  -2.52495
   7   17095.8    584.9   0.101440013   1.95342  -0.58979  -0.10849  -1.26246
   8   17241.1    580.0   0.064919701   1.23962  -0.86687   0.12378  -0.68763
   9   18696.0    534.9   0.000134294   0.00236  -0.01809   0.00173  -0.04511
  10   18755.0    533.2   0.124420487   2.18399  -0.69771  -0.16160  -1.29270
  11   19870.4    503.3   0.013524805   0.22408   0.28534   0.36938   0.07887
  12   20659.6    484.0   0.015835391   0.25234  -0.48093  -0.10259  -0.10254
  13   23482.8    425.8   0.241761924   3.38932  -0.74458   0.08423   1.68161
  14   23756.0    420.9   0.101293250   1.40373   0.19953  -0.38951  -1.10100
  15   24286.5    411.8   0.196215002   2.65976  -0.36390   0.23428   1.57240
  16   24700.9    404.8   0.657733182   8.76624   0.99937   0.64068   2.71239
  17   25124.2    398.0   0.029977655   0.39281   0.05124  -0.02274  -0.62423
  18   25522.1    391.8   0.025166478   0.32463  -0.31761  -0.37684   0.28591
  19   25694.6    389.2   0.052411318   0.67152   0.29831  -0.26612  -0.71534
  20   25882.2    386.4   0.085899433   1.09261   0.01731  -0.20862  -1.02410
  21   26027.1    384.2   0.209948761   2.65561  -0.44608   0.34584   1.52873
  22   26349.2    379.5   0.006561673   0.08198  -0.14735   0.11535   0.21672
  23   26445.6    378.1   0.170325383   2.12032  -0.13892  -0.17760  -1.43857
  24   26539.7    376.8   0.026029462   0.32288   0.19172   0.13625   0.51727
  25   26869.6    372.2   0.333966010   4.09182   1.24981   0.52555   1.50120
  26   27096.8    369.0   0.008444172   0.10259  -0.21488  -0.11093  -0.21004
  27   27191.0    367.8   0.000259578   0.00314   0.04477  -0.02051   0.02680
  28   27687.5    361.2   0.020934172   0.24891   0.11085  -0.14446  -0.46450
  29   28005.6    357.1   0.003984610   0.04684   0.16850  -0.08234   0.10802
  30   28215.7    354.4   0.012839218   0.14980   0.35293   0.04180   0.15329
  31   28614.8    349.5   0.326478835   3.75612   0.37942  -0.80414  -1.72207
  32   29233.8    342.1   0.037636655   0.42384  -0.64835   0.03451   0.04790
  33   29599.9    337.8   0.018371646   0.20433   0.31912  -0.18945  -0.25807
  34   29853.3    335.0   0.025204191   0.27794  -0.06974  -0.00538  -0.52254
  35   29999.3    333.3   0.029339213   0.32197  -0.07939   0.04469  -0.56006
  36   30237.0    330.7   0.049067727   0.53424  -0.28646  -0.56541  -0.36399
  37   30414.5    328.8   0.015823261   0.17127  -0.16884   0.12338   0.35713
  38   30591.1    326.9   0.000002061   0.00002  -0.00130   0.00306  -0.00333
  39   31151.8    321.0   0.011923854   0.12601   0.02731  -0.06703   0.34752
  40   31282.1    319.7   0.011902996   0.12527  -0.19447  -0.09195   0.28106
  41   31453.0    317.9   0.032700260   0.34227  -0.01426  -0.04248  -0.58332
  42   31558.2    316.9   0.024562928   0.25624  -0.41811  -0.21991  -0.18183
  43   31671.6    315.7   0.003734823   0.03882  -0.18669   0.01811  -0.06034
  44   31786.9    314.6   0.031742881   0.32876  -0.06994   0.04415   0.56738
  45   32064.4    311.9   0.037990583   0.39006   0.51881   0.08445  -0.33729
  46   32420.8    308.4   0.019026567   0.19320   0.41378  -0.05163  -0.13900
  47   32883.3    304.1   0.004614286   0.04620   0.06061  -0.15862  -0.13177
  48   33109.3    302.0   0.123836408   1.23133  -0.09287  -0.54285  -0.96334
  49   33372.4    299.6   0.025938884   0.25588  -0.21816  -0.17751  -0.42045
  50   33395.8    299.4   0.008141176   0.08025   0.02840  -0.07745   0.27102
  51   33570.4    297.9   0.000011551   0.00011   0.00324  -0.00905   0.00457
  52   33680.3    296.9   0.074198702   0.72526   0.24348  -0.24114  -0.77964
  53   33770.5    296.1   0.150625890   1.46838   0.44291   0.11667   1.12187
  54   33821.1    295.7   0.035655301   0.34707   0.00336  -0.28480  -0.51570
  55   33977.1    294.3   0.066310780   0.64250  -0.17099  -0.23179  -0.74802
  56   34099.9    293.3   0.112598650   1.08707   0.00540   0.24334   1.01382
  57   34265.1    291.8   0.028301494   0.27192   0.07902  -0.07969  -0.50923
  58   34388.7    290.8   0.003034893   0.02905   0.16286  -0.04300  -0.02613
  59   34530.6    289.6   0.043404139   0.41381  -0.38745   0.17952   0.48111
  60   34772.3    287.6   0.005413502   0.05125  -0.05550  -0.10206  -0.19431
  61   34980.7    285.9   0.000000621   0.00001   0.00223  -0.00089  -0.00027
  62   35203.8    284.1   0.193132483   1.80610  -0.42807  -0.05279  -1.27282
  63   35463.0    282.0   0.083699136   0.77700  -0.42835  -0.31969  -0.70094
  64   35495.2    281.7   0.179999453   1.66947   0.34145   0.06063  -1.24467
  65   35543.4    281.3   0.011352061   0.10515  -0.25081   0.00293   0.20550
  66   35759.2    279.6   0.035434537   0.32622   0.37684  -0.09059  -0.41953
  67   35915.3    278.4   0.005766609   0.05286   0.05373   0.04597  -0.21877
  68   36057.7    277.3   0.002002991   0.01829  -0.08558   0.06953   0.07829
  69   36129.2    276.8   0.000144744   0.00132  -0.02686   0.01436   0.01978
  70   36176.6    276.4   0.000826773   0.00752  -0.00142  -0.03929   0.07732
  71   36312.8    275.4   0.005695018   0.05163   0.17745   0.12485  -0.06748
  72   36334.7    275.2   0.007646775   0.06928  -0.25388   0.05024  -0.04800
  73   36545.1    273.6   0.001026779   0.00925  -0.07769  -0.02018  -0.05298
  74   36720.9    272.3   0.001947143   0.01746   0.03872  -0.08211   0.09600
  75   36861.5    271.3   0.002949858   0.02635  -0.15588  -0.04448  -0.00830
  76   37047.9    269.9   0.057763300   0.51329  -0.66387  -0.11992  -0.24121
  77   37375.7    267.6   0.010811767   0.09523  -0.23997   0.03230   0.19131
  78   37623.8    265.8   0.115414044   1.00988  -0.73835  -0.02926  -0.68108
  79   37819.5    264.4   0.172913840   1.50518   0.59833   0.75985  -0.75486
  80   38042.3    262.9   0.090524839   0.78339   0.68176   0.34202  -0.44902
  81   38147.2    262.1   1.028403465   8.87517  -2.88752  -0.33010   0.65456
  82   38268.0    261.3   0.000069676   0.00060  -0.02167  -0.00394   0.01069
  83   38496.5    259.8   0.060643769   0.51861   0.50065   0.49861   0.13911
  84   39093.7    255.8   0.032212848   0.27127  -0.50192   0.13098   0.04678
  85   39286.8    254.5   0.033652002   0.28199   0.21669   0.33683   0.34869
  86   39408.5    253.8   0.012624568   0.10546  -0.28954   0.14439  -0.02796
  87   39527.0    253.0   0.020363131   0.16960  -0.40763  -0.05847   0.00427
  88   39713.7    251.8   0.079140859   0.65605  -0.73555  -0.30424  -0.14984
  89   39781.7    251.4   0.002193004   0.01815   0.08989  -0.04745   0.08841
  90   39822.9    251.1   0.272710169   2.25447  -0.63879  -1.25256  -0.52679
  91   40060.8    249.6   0.098605110   0.81032  -0.17565  -0.62826  -0.62028

FINAL SINGLE POINT ENERGY     -4936.485597668016

DIPOLE MOMENT
-------------
                                X             Y             Z
Electronic contribution:     17.51853      -7.85919      -7.30325
Nuclear contribution   :    -19.87779       8.52304       6.34200
                        -----------------------------------------
Total Dipole Moment    :     -2.35926       0.66384      -0.96125
                        -----------------------------------------
Magnitude (a.u.)       :      2.63264
Magnitude (Debye)      :      6.69164

Rotational constants in cm-1:     0.002342     0.000224     0.000211
Rotational constants in MHz :    70.201402     6.711443     6.333970

                             ****ORCA TERMINATED NORMALLY****
TOTAL RUN TIME: 0 days 0 hours 8 minutes 42 seconds 55 msec
