                         Program Version 4.2.0 -  RELEASE  -
|  1> # ORCA input file
|  2> # SCF done       -180.152147294605          0.000621350910
|  3> ! CAM-B3LYP def2-SVP def2/J RIJCOSX Grid4 TightSCF
|  4> %maxcore 5000
|  5> %tddft
|  6>     Mode sTDDFT
|  7>     Ethresh 5.0
|  8>     maxcore 5000
|  9> end
| 10>
| 11> %pal
| 12>   nprocs 6
| 13>   end
| 14> * xyz 0 1
| 15>    C       -4.31704         2.92982        -3.11154
| 16>    S       -2.79451         2.28130        -2.68292
| 17>    C       -2.35190         3.76202        -1.86453
| 18>    C       -3.35997         4.69942        -1.96707
| 19>    C       -4.48101         4.21340        -2.68305
| 20>    C       -5.70561         5.03732        -2.93070
| 21>    C       -5.36048         6.53268        -2.87257
| 22>    C       -4.53428         6.89417        -4.00142
| 23>    N       -3.87050         7.17077        -4.88930
| 24>    C       -4.60418         6.84393        -1.56066
| 25>    C       -5.43218         6.45224        -0.44063
| 26>    N       -6.10861         6.13938         0.42507
| 27>    C       -3.25294         6.11579        -1.51053
| 28>    C       -1.05441         3.82934        -1.27522
| 29>    C        0.09738         3.14371        -1.87720
| 30>    N        1.21657         3.30204        -1.23721
| 31>    C        0.90775         4.06955        -0.15612
| 32>    C       -0.52517         4.42885        -0.15355
| 33>    C       -0.83432         5.12751         1.07072
| 34>    S       -2.32781         5.53026         1.64838
| 35>    C        0.42971         5.26213         1.75306
| 36>    C        1.47517         4.56989         0.98402
| 37>    N        2.66350         4.58686         1.65500
| 38>    C        2.41808         5.20457         2.77262
| 39>    C        1.03576         5.66803         2.92359
| 40>    C        0.54091         6.40966         4.04956
| 41>    C        1.13262         6.26215         5.29007
| 42>    C        0.62553         6.96289         6.39979
| 43>    C        1.01348         6.99201         7.74093
| 44>    C        2.13427         6.29450         8.43393
| 45>    C        1.85815         4.78625         8.63742
| 46>    N        1.69008         4.08834         7.37740
| 47>    C        3.48516         6.51667         7.73230
| 48>    N        3.77713         7.93928         7.70051
| 49>    C        0.10750         7.89488         8.41334
| 50>    C        0.03425         8.28601         9.70057
| 51>    C       -1.02807         9.21255        10.16984
| 52>    C       -1.89937         9.77009         9.08828
| 53>    C       -1.81811         9.36458         7.80604
| 54>    C       -0.83816         8.42151         7.42134
| 55>    C       -0.51623         7.84792         6.20578
| 56>    C       -1.08484         7.99391         4.92133
| 57>    C       -0.56764         7.29705         3.87789
| 58>    C       -1.96651         8.46468        11.08930
| 59>    C       -2.39371         8.95306        12.25828
| 60>    C       -3.34660         8.31557        13.11227
| 61>    C       -3.98016         7.00419        12.95527
| 62>    N       -4.83635         6.70364        13.89077
| 63>    C       -4.84494         7.77628        14.73452
| 64>    C       -3.89063         8.79620        14.28022
| 65>    C       -3.93059         9.94279        15.15255
| 66>    S       -3.05178        11.32437        14.98842
| 67>    C       -4.93693         9.61002        16.12868
| 68>    C       -5.47490         8.26719        15.84849
| 69>    N       -6.45532         7.94643        16.73883
| 70>    C       -6.59259         8.99281        17.49879
| 71>    C       -5.69506        10.10710        17.16910
| 72>    C       -5.63958        11.36781        17.82600
| 73>    S       -4.17826        12.31678        17.76169
| 74>    C       -4.88272        13.53485        18.72135
| 75>    C       -6.17988        13.26267        19.06057
| 76>    C       -6.61933        12.02093        18.55680
| 77>    C       -8.01159        11.51901        18.78506
| 78>    C       -8.94954        12.66515        19.19769
| 79>    C       -9.20779        13.52900        18.06776
| 80>    N       -9.40211        14.21692        17.17660
| 81>    C       -8.31834        13.49029        20.34235
| 82>    C       -7.99946        12.61364        21.44654
| 83>    N       -7.74193        11.91296        22.31126
| 84>    C       -7.04924        14.19747        19.84475
| 85>    H       -5.01326         2.32942        -3.66316
| 86>    H       -6.45373         4.82090        -2.16082
| 87>    H       -6.13940         4.78388        -3.90096
| 88>    H       -6.28172         7.12670        -2.92019
| 89>    H       -4.43004         7.92434        -1.48068
| 90>    H       -2.86942         6.15192        -0.48571
| 91>    H       -2.53564         6.64260        -2.14908
| 92>    H        0.05237         2.56708        -2.78498
| 93>    H        3.20870         5.36865         3.48394
| 94>    H        1.94070         5.56140         5.42324
| 95>    H        2.23078         6.73205         9.43221
| 96>    H        0.98589         4.68865         9.30502
| 97>    H        2.72321         4.35706         9.14922
| 98>    H        0.76465         4.25754         6.99849
| 99>    H        1.79594         3.08904         7.50451
|100>    H        3.46901         6.04164         6.74328
|101>    H        4.26744         6.03269         8.32350
|102>    H        3.09445         8.42428         7.12679
|103>    H        4.69548         8.10587         7.30554
|104>    H        0.71384         7.91594        10.45580
|105>    H       -0.57190        10.03073        10.74138
|106>    H       -2.63915        10.48835         9.40598
|107>    H       -2.48199         9.76835         7.05577
|108>    H       -1.92375         8.65880         4.78180
|109>    H       -0.98401         7.40432         2.88996
|110>    H       -2.33063         7.52391        10.70312
|111>    H       -2.02864         9.90805        12.61536
|112>    H       -3.77833         6.30160        12.16598
|113>    H       -7.28145         8.96725        18.32283
|114>    H       -4.31439        14.40684        18.97884
|115>    H       -8.00728        10.77776        19.59171
|116>    H       -8.39482        11.03790        17.88134
|117>    H       -9.90877        12.24643        19.52710
|118>    H       -9.03701        14.23690        20.70262
|119>    H       -6.49103        14.60758        20.69038
|120>    H       -7.34266        15.03519        19.20334
|121> *
|122>
|123>                          ****END OF INPUT****

CARTESIAN COORDINATES (ANGSTROEM)
---------------------------------
  C     -4.317040    2.929820   -3.111540
  S     -2.794510    2.281300   -2.682920
  C     -2.351900    3.762020   -1.864530
  C     -3.359970    4.699420   -1.967070
  C     -4.481010    4.213400   -2.683050
  C     -5.705610    5.037320   -2.930700
  C     -5.360480    6.532680   -2.872570
  C     -4.534280    6.894170   -4.001420
  N     -3.870500    7.170770   -4.889300
  C     -4.604180    6.843930   -1.560660
  C     -5.432180    6.452240   -0.440630
  N     -6.108610    6.139380    0.425070
  C     -3.252940    6.115790   -1.510530
  C     -1.054410    3.829340   -1.275220
  C      0.097380    3.143710   -1.877200
  N      1.216570    3.302040   -1.237210
  C      0.907750    4.069550   -0.156120
  C     -0.525170    4.428850   -0.153550
  C     -0.834320    5.127510    1.070720
  S     -2.327810    5.530260    1.648380
  C      0.429710    5.262130    1.753060
  C      1.475170    4.569890    0.984020
  N      2.663500    4.586860    1.655000
  C      2.418080    5.204570    2.772620
  C      1.035760    5.668030    2.923590
  C      0.540910    6.409660    4.049560
  C      1.132620    6.262150    5.290070
  C      0.625530    6.962890    6.399790
  C      1.013480    6.992010    7.740930
  C      2.134270    6.294500    8.433930
  C      1.858150    4.786250    8.637420
  N      1.690080    4.088340    7.377400
  C      3.485160    6.516670    7.732300
  N      3.777130    7.939280    7.700510
  C      0.107500    7.894880    8.413340
  C      0.034250    8.286010    9.700570
  C     -1.028070    9.212550   10.169840
  C     -1.899370    9.770090    9.088280
  C     -1.818110    9.364580    7.806040
  C     -0.838160    8.421510    7.421340
  C     -0.516230    7.847920    6.205780
  C     -1.084840    7.993910    4.921330
  C     -0.567640    7.297050    3.877890
  C     -1.966510    8.464680   11.089300
  C     -2.393710    8.953060   12.258280
  C     -3.346600    8.315570   13.112270
  C     -3.980160    7.004190   12.955270
  N     -4.836350    6.703640   13.890770
  C     -4.844940    7.776280   14.734520
  C     -3.890630    8.796200   14.280220
  C     -3.930590    9.942790   15.152550
  S     -3.051780   11.324370   14.988420
  C     -4.936930    9.610020   16.128680
  C     -5.474900    8.267190   15.848490
  N     -6.455320    7.946430   16.738830
  C     -6.592590    8.992810   17.498790
  C     -5.695060   10.107100   17.169100
  C     -5.639580   11.367810   17.826000
  S     -4.178260   12.316780   17.761690
  C     -4.882720   13.534850   18.721350
  C     -6.179880   13.262670   19.060570
  C     -6.619330   12.020930   18.556800
  C     -8.011590   11.519010   18.785060
  C     -8.949540   12.665150   19.197690
  C     -9.207790   13.529000   18.067760
  N     -9.402110   14.216920   17.176600
  C     -8.318340   13.490290   20.342350
  C     -7.999460   12.613640   21.446540
  N     -7.741930   11.912960   22.311260
  C     -7.049240   14.197470   19.844750
  H     -5.013260    2.329420   -3.663160
  H     -6.453730    4.820900   -2.160820
  H     -6.139400    4.783880   -3.900960
  H     -6.281720    7.126700   -2.920190
  H     -4.430040    7.924340   -1.480680
  H     -2.869420    6.151920   -0.485710
  H     -2.535640    6.642600   -2.149080
  H      0.052370    2.567080   -2.784980
  H      3.208700    5.368650    3.483940
  H      1.940700    5.561400    5.423240
  H      2.230780    6.732050    9.432210
  H      0.985890    4.688650    9.305020
  H      2.723210    4.357060    9.149220
  H      0.764650    4.257540    6.998490
  H      1.795940    3.089040    7.504510
  H      3.469010    6.041640    6.743280
  H      4.267440    6.032690    8.323500
  H      3.094450    8.424280    7.126790
  H      4.695480    8.105870    7.305540
  H      0.713840    7.915940   10.455800
  H     -0.571900   10.030730   10.741380
  H     -2.639150   10.488350    9.405980
  H     -2.481990    9.768350    7.055770
  H     -1.923750    8.658800    4.781800
  H     -0.984010    7.404320    2.889960
  H     -2.330630    7.523910   10.703120
  H     -2.028640    9.908050   12.615360
  H     -3.778330    6.301600   12.165980
  H     -7.281450    8.967250   18.322830
  H     -4.314390   14.406840   18.978840
  H     -8.007280   10.777760   19.591710
  H     -8.394820   11.037900   17.881340
  H     -9.908770   12.246430   19.527100
  H     -9.037010   14.236900   20.702620
  H     -6.491030   14.607580   20.690380
  H     -7.342660   15.035190   19.203340

 Total Charge           Charge          ....    0
 Multiplicity           Mult            ....    1
 Number of Electrons    NEL             ....  506
 Basis Dimension        Dim             .... 1176

ORBITAL ENERGIES
----------------

  NO   OCC          E(Eh)            E(eV)
   0   2.0000     -88.963103     -2420.8091
   1   2.0000     -88.962966     -2420.8054
   2   2.0000     -88.899847     -2419.0878
   3   2.0000     -88.896527     -2418.9975
   4   2.0000     -14.419508      -392.3748
   5   2.0000     -14.418785      -392.3551
   6   2.0000     -14.418172      -392.3384
   7   2.0000     -14.417619      -392.3234
   8   2.0000     -14.413448      -392.2099
   9   2.0000     -14.411858      -392.1666
  10   2.0000     -14.410446      -392.1282
  11   2.0000     -14.406549      -392.0221
  12   2.0000     -14.386193      -391.4682
  13   2.0000     -14.370963      -391.0538
  14   2.0000     -10.346004      -281.5291
  15   2.0000     -10.344883      -281.4986
  16   2.0000     -10.343536      -281.4619
  17   2.0000     -10.341139      -281.3967
  18   2.0000     -10.338806      -281.3332
  19   2.0000     -10.336868      -281.2805
  20   2.0000     -10.335789      -281.2511
  21   2.0000     -10.333506      -281.1890
  22   2.0000     -10.331886      -281.1449
  23   2.0000     -10.330762      -281.1143
  24   2.0000     -10.330305      -281.1019
  25   2.0000     -10.329960      -281.0925
  26   2.0000     -10.325712      -280.9769
  27   2.0000     -10.324714      -280.9498
  28   2.0000     -10.317263      -280.7470
  29   2.0000     -10.316610      -280.7292
  30   2.0000     -10.315961      -280.7116
  31   2.0000     -10.312411      -280.6150
  32   2.0000     -10.310705      -280.5685
  33   2.0000     -10.309551      -280.5371
  34   2.0000     -10.309257      -280.5292
  35   2.0000     -10.309070      -280.5241
  36   2.0000     -10.308115      -280.4981
  37   2.0000     -10.305695      -280.4322
  38   2.0000     -10.305419      -280.4247
  39   2.0000     -10.304349      -280.3956
  40   2.0000     -10.301654      -280.3223
  41   2.0000     -10.300932      -280.3026
  42   2.0000     -10.300709      -280.2965
  43   2.0000     -10.300509      -280.2911
  44   2.0000     -10.299864      -280.2735
  45   2.0000     -10.298361      -280.2327
  46   2.0000     -10.296780      -280.1896
  47   2.0000     -10.296186      -280.1735
  48   2.0000     -10.294600      -280.1303
  49   2.0000     -10.292361      -280.0694
  50   2.0000     -10.291183      -280.0373
  51   2.0000     -10.289535      -279.9925
  52   2.0000     -10.288625      -279.9677
  53   2.0000     -10.288225      -279.9568
  54   2.0000     -10.287167      -279.9281
  55   2.0000     -10.286912      -279.9211
  56   2.0000     -10.285912      -279.8939
  57   2.0000     -10.284794      -279.8635
  58   2.0000     -10.279165      -279.7103
  59   2.0000     -10.276695      -279.6431
  60   2.0000     -10.276591      -279.6402
  61   2.0000     -10.276251      -279.6310
  62   2.0000     -10.275563      -279.6123
  63   2.0000     -10.272448      -279.5275
  64   2.0000     -10.269503      -279.4474
  65   2.0000     -10.268068      -279.4083
  66   2.0000     -10.266452      -279.3644
  67   2.0000     -10.266308      -279.3605
  68   2.0000     -10.265876      -279.3487
  69   2.0000     -10.263714      -279.2898
  70   2.0000      -8.058748      -219.2897
  71   2.0000      -8.058195      -219.2746
  72   2.0000      -7.995710      -217.5743
  73   2.0000      -7.991963      -217.4724
  74   2.0000      -6.028013      -164.0306
  75   2.0000      -6.027305      -164.0113
  76   2.0000      -6.023730      -163.9140
  77   2.0000      -6.022957      -163.8930
  78   2.0000      -6.021060      -163.8414
  79   2.0000      -6.020757      -163.8331
  80   2.0000      -5.964542      -162.3034
  81   2.0000      -5.964059      -162.2903
  82   2.0000      -5.960861      -162.2033
  83   2.0000      -5.960390      -162.1904
  84   2.0000      -5.955083      -162.0460
  85   2.0000      -5.951273      -161.9424
  86   2.0000      -1.086123       -29.5549
  87   2.0000      -1.080746       -29.4086
  88   2.0000      -1.067143       -29.0384
  89   2.0000      -1.061814       -28.8934
  90   2.0000      -1.022381       -27.8204
  91   2.0000      -1.013247       -27.5718
  92   2.0000      -1.003467       -27.3057
  93   2.0000      -0.996447       -27.1147
  94   2.0000      -0.993704       -27.0400
  95   2.0000      -0.991103       -26.9693
  96   2.0000      -0.989670       -26.9303
  97   2.0000      -0.968791       -26.3622
  98   2.0000      -0.964858       -26.2551
  99   2.0000      -0.959447       -26.1079
 100   2.0000      -0.957910       -26.0661
 101   2.0000      -0.952018       -25.9057
 102   2.0000      -0.949881       -25.8476
 103   2.0000      -0.949683       -25.8422
 104   2.0000      -0.925295       -25.1785
 105   2.0000      -0.903312       -24.5804
 106   2.0000      -0.902422       -24.5562
 107   2.0000      -0.896459       -24.3939
 108   2.0000      -0.880260       -23.9531
 109   2.0000      -0.877843       -23.8873
 110   2.0000      -0.870931       -23.6992
 111   2.0000      -0.867091       -23.5948
 112   2.0000      -0.858457       -23.3598
 113   2.0000      -0.854686       -23.2572
 114   2.0000      -0.853699       -23.2303
 115   2.0000      -0.847741       -23.0682
 116   2.0000      -0.839618       -22.8472
 117   2.0000      -0.835569       -22.7370
 118   2.0000      -0.830510       -22.5993
 119   2.0000      -0.814265       -22.1573
 120   2.0000      -0.808738       -22.0069
 121   2.0000      -0.797493       -21.7009
 122   2.0000      -0.778491       -21.1838
 123   2.0000      -0.773445       -21.0465
 124   2.0000      -0.762702       -20.7542
 125   2.0000      -0.761566       -20.7233
 126   2.0000      -0.756322       -20.5806
 127   2.0000      -0.751703       -20.4549
 128   2.0000      -0.747002       -20.3270
 129   2.0000      -0.742975       -20.2174
 130   2.0000      -0.735925       -20.0255
 131   2.0000      -0.725069       -19.7301
 132   2.0000      -0.720335       -19.6013
 133   2.0000      -0.708120       -19.2689
 134   2.0000      -0.701734       -19.0952
 135   2.0000      -0.690291       -18.7838
 136   2.0000      -0.686336       -18.6762
 137   2.0000      -0.683522       -18.5996
 138   2.0000      -0.679779       -18.4977
 139   2.0000      -0.672450       -18.2983
 140   2.0000      -0.662450       -18.0262
 141   2.0000      -0.657871       -17.9016
 142   2.0000      -0.654961       -17.8224
 143   2.0000      -0.647038       -17.6068
 144   2.0000      -0.641187       -17.4476
 145   2.0000      -0.630810       -17.1652
 146   2.0000      -0.630115       -17.1463
 147   2.0000      -0.620982       -16.8978
 148   2.0000      -0.618119       -16.8199
 149   2.0000      -0.607353       -16.5269
 150   2.0000      -0.604091       -16.4382
 151   2.0000      -0.595494       -16.2042
 152   2.0000      -0.593634       -16.1536
 153   2.0000      -0.592920       -16.1342
 154   2.0000      -0.586619       -15.9627
 155   2.0000      -0.581483       -15.8229
 156   2.0000      -0.580215       -15.7885
 157   2.0000      -0.578045       -15.7294
 158   2.0000      -0.573632       -15.6093
 159   2.0000      -0.571415       -15.5490
 160   2.0000      -0.566340       -15.4109
 161   2.0000      -0.562526       -15.3071
 162   2.0000      -0.559738       -15.2313
 163   2.0000      -0.552929       -15.0460
 164   2.0000      -0.550900       -14.9907
 165   2.0000      -0.547905       -14.9093
 166   2.0000      -0.546231       -14.8637
 167   2.0000      -0.541759       -14.7420
 168   2.0000      -0.541078       -14.7235
 169   2.0000      -0.538672       -14.6580
 170   2.0000      -0.536851       -14.6085
 171   2.0000      -0.532476       -14.4894
 172   2.0000      -0.530174       -14.4268
 173   2.0000      -0.527813       -14.3625
 174   2.0000      -0.526921       -14.3383
 175   2.0000      -0.522028       -14.2051
 176   2.0000      -0.517021       -14.0689
 177   2.0000      -0.515428       -14.0255
 178   2.0000      -0.510969       -13.9042
 179   2.0000      -0.509950       -13.8765
 180   2.0000      -0.507854       -13.8194
 181   2.0000      -0.505273       -13.7492
 182   2.0000      -0.503876       -13.7112
 183   2.0000      -0.501565       -13.6483
 184   2.0000      -0.500387       -13.6162
 185   2.0000      -0.499904       -13.6031
 186   2.0000      -0.498200       -13.5567
 187   2.0000      -0.492504       -13.4017
 188   2.0000      -0.490116       -13.3367
 189   2.0000      -0.489060       -13.3080
 190   2.0000      -0.486449       -13.2369
 191   2.0000      -0.484628       -13.1874
 192   2.0000      -0.483929       -13.1684
 193   2.0000      -0.480238       -13.0679
 194   2.0000      -0.479948       -13.0601
 195   2.0000      -0.469651       -12.7798
 196   2.0000      -0.463445       -12.6110
 197   2.0000      -0.461615       -12.5612
 198   2.0000      -0.457340       -12.4449
 199   2.0000      -0.455499       -12.3948
 200   2.0000      -0.450967       -12.2714
 201   2.0000      -0.449982       -12.2446
 202   2.0000      -0.448192       -12.1959
 203   2.0000      -0.448073       -12.1927
 204   2.0000      -0.446825       -12.1587
 205   2.0000      -0.445193       -12.1143
 206   2.0000      -0.443320       -12.0634
 207   2.0000      -0.443110       -12.0576
 208   2.0000      -0.439730       -11.9657
 209   2.0000      -0.438699       -11.9376
 210   2.0000      -0.436588       -11.8802
 211   2.0000      -0.434468       -11.8225
 212   2.0000      -0.434081       -11.8119
 213   2.0000      -0.432313       -11.7638
 214   2.0000      -0.429430       -11.6854
 215   2.0000      -0.428754       -11.6670
 216   2.0000      -0.426693       -11.6109
 217   2.0000      -0.426034       -11.5930
 218   2.0000      -0.423919       -11.5354
 219   2.0000      -0.419583       -11.4174
 220   2.0000      -0.417321       -11.3559
 221   2.0000      -0.415129       -11.2962
 222   2.0000      -0.414593       -11.2816
 223   2.0000      -0.408878       -11.1261
 224   2.0000      -0.407842       -11.0979
 225   2.0000      -0.402630       -10.9561
 226   2.0000      -0.400332       -10.8936
 227   2.0000      -0.399100       -10.8601
 228   2.0000      -0.395632       -10.7657
 229   2.0000      -0.392358       -10.6766
 230   2.0000      -0.387888       -10.5550
 231   2.0000      -0.370775       -10.0893
 232   2.0000      -0.365797        -9.9539
 233   2.0000      -0.361419        -9.8347
 234   2.0000      -0.358268        -9.7490
 235   2.0000      -0.354876        -9.6567
 236   2.0000      -0.353125        -9.6090
 237   2.0000      -0.350496        -9.5375
 238   2.0000      -0.346709        -9.4344
 239   2.0000      -0.332963        -9.0604
 240   2.0000      -0.325777        -8.8648
 241   2.0000      -0.319761        -8.7011
 242   2.0000      -0.318951        -8.6791
 243   2.0000      -0.315447        -8.5837
 244   2.0000      -0.311771        -8.4837
 245   2.0000      -0.296896        -8.0790
 246   2.0000      -0.292844        -7.9687
 247   2.0000      -0.288634        -7.8541
 248   2.0000      -0.283321        -7.7096
 249   2.0000      -0.282797        -7.6953
 250   2.0000      -0.277523        -7.5518
 251   2.0000      -0.277130        -7.5411
 252   2.0000      -0.225505        -6.1363
 253   0.0000      -0.113295        -3.0829
 254   0.0000      -0.108488        -2.9521
 255   0.0000      -0.083645        -2.2761
 256   0.0000      -0.080472        -2.1898
 257   0.0000      -0.062507        -1.7009

MULLIKEN ATOMIC CHARGES
-----------------------
   0 C :   -0.116210
   1 S :    0.132546
   2 C :   -0.187384
   3 C :    0.023255
   4 C :   -0.072008
   5 C :    0.170449
   6 C :   -0.091692
   7 C :   -0.244266
   8 N :    0.142670
   9 C :   -0.086847
  10 C :   -0.247380
  11 N :    0.140007
  12 C :    0.178812
  13 C :   -0.016519
  14 C :    0.044639
  15 N :   -0.024270
  16 C :   -0.001854
  17 C :    0.002817
  18 C :   -0.030944
  19 S :   -0.113644
  20 C :   -0.027304
  21 C :    0.017689
  22 N :   -0.028138
  23 C :    0.055181
  24 C :    0.005397
  25 C :    0.084722
  26 C :   -0.133781
  27 C :    0.030445
  28 C :   -0.084400
  29 C :    0.013243
  30 C :    0.139547
  31 N :   -0.228014
  32 C :    0.134269
  33 N :   -0.226359
  34 C :    0.110648
  35 C :   -0.130752
  36 C :    0.121881
  37 C :   -0.028321
  38 C :    0.023493
  39 C :    0.011681
  40 C :    0.045386
  41 C :   -0.016854
  42 C :    0.027722
  43 C :   -0.037211
  44 C :    0.003988
  45 C :   -0.005027
  46 C :    0.055909
  47 N :   -0.025023
  48 C :    0.022029
  49 C :   -0.003384
  50 C :   -0.003935
  51 S :   -0.128806
  52 C :   -0.035210
  53 C :   -0.009642
  54 N :   -0.020032
  55 C :    0.037761
  56 C :   -0.000985
  57 C :   -0.178633
  58 S :    0.206353
  59 C :   -0.118696
  60 C :   -0.060023
  61 C :   -0.030423
  62 C :    0.119946
  63 C :   -0.066801
  64 C :   -0.246932
  65 N :    0.148527
  66 C :   -0.090498
  67 C :   -0.242984
  68 N :    0.142503
  69 C :    0.158547
  70 H :    0.018931
  71 H :    0.057497
  72 H :    0.028037
  73 H :    0.052164
  74 H :    0.051249
  75 H :    0.015438
  76 H :    0.044824
  77 H :    0.013363
  78 H :    0.009469
  79 H :   -0.010494
  80 H :   -0.024556
  81 H :   -0.015889
  82 H :   -0.005258
  83 H :    0.108920
  84 H :    0.098929
  85 H :   -0.009643
  86 H :   -0.014154
  87 H :    0.097825
  88 H :    0.089855
  89 H :    0.001665
  90 H :    0.032819
  91 H :   -0.004966
  92 H :   -0.030372
  93 H :   -0.034372
  94 H :   -0.033079
  95 H :    0.009851
  96 H :   -0.006228
  97 H :    0.010322
  98 H :    0.005562
  99 H :    0.017909
 100 H :    0.065168
 101 H :    0.046338
 102 H :    0.053573
 103 H :    0.056220
 104 H :    0.037344
 105 H :    0.054858
Sum of atomic charges:   -0.0000000

LOEWDIN ATOMIC CHARGES
----------------------
   0 C :   -0.176077
   1 S :    0.450819
   2 C :   -0.174928
   3 C :   -0.035203
   4 C :   -0.067461
   5 C :   -0.003910
   6 C :   -0.037089
   7 C :   -0.034991
   8 N :   -0.055212
   9 C :   -0.033596
  10 C :   -0.035179
  11 N :   -0.055585
  12 C :   -0.016806
  13 C :   -0.049717
  14 C :    0.073346
  15 N :   -0.073932
  16 C :    0.030258
  17 C :   -0.043837
  18 C :   -0.133411
  19 S :    0.084309
  20 C :   -0.053328
  21 C :    0.039357
  22 N :   -0.079511
  23 C :    0.088512
  24 C :   -0.017684
  25 C :   -0.031793
  26 C :   -0.002846
  27 C :   -0.028385
  28 C :   -0.030439
  29 C :   -0.040989
  30 C :    0.029058
  31 N :   -0.111072
  32 C :    0.029033
  33 N :   -0.123361
  34 C :   -0.017765
  35 C :    0.071915
  36 C :   -0.027850
  37 C :   -0.027180
  38 C :   -0.014162
  39 C :   -0.037586
  40 C :   -0.028711
  41 C :   -0.009649
  42 C :   -0.017798
  43 C :    0.021602
  44 C :   -0.034095
  45 C :   -0.031810
  46 C :    0.089465
  47 N :   -0.079630
  48 C :    0.038029
  49 C :   -0.040971
  50 C :   -0.141173
  51 S :    0.043658
  52 C :   -0.050724
  53 C :    0.034937
  54 N :   -0.074825
  55 C :    0.078347
  56 C :   -0.046882
  57 C :   -0.184918
  58 S :    0.503431
  59 C :   -0.180513
  60 C :   -0.074069
  61 C :   -0.052319
  62 C :   -0.010829
  63 C :   -0.033069
  64 C :   -0.036218
  65 N :   -0.049629
  66 C :   -0.035745
  67 C :   -0.036025
  68 N :   -0.052708
  69 C :   -0.005208
  70 H :    0.025420
  71 H :    0.046939
  72 H :    0.041299
  73 H :    0.059993
  74 H :    0.061444
  75 H :    0.013940
  76 H :    0.045220
  77 H :    0.021894
  78 H :    0.026022
  79 H :    0.023732
  80 H :    0.026678
  81 H :    0.000331
  82 H :    0.017477
  83 H :    0.057569
  84 H :    0.058734
  85 H :   -0.000974
  86 H :    0.015984
  87 H :    0.051325
  88 H :    0.053454
  89 H :    0.033013
  90 H :    0.056374
  91 H :    0.027701
  92 H :    0.032110
  93 H :    0.028864
  94 H :    0.015652
  95 H :    0.027259
  96 H :    0.028675
  97 H :    0.024690
  98 H :    0.024546
  99 H :    0.025172
 100 H :    0.043935
 101 H :    0.043587
 102 H :    0.061850
 103 H :    0.062086
 104 H :    0.044119
 105 H :    0.046214

  Mayer bond orders larger than 0.100000
B(  0-C ,  1-S ) :   1.1688 B(  0-C ,  2-C ) :   0.1003 B(  0-C ,  4-C ) :   1.5681
B(  0-C , 70-H ) :   0.9716 B(  1-S ,  2-C ) :   1.1399 B(  2-C ,  3-C ) :   1.5353
B(  2-C , 13-C ) :   1.0644 B(  3-C ,  4-C ) :   1.2815 B(  3-C , 12-C ) :   1.0566
B(  4-C ,  5-C ) :   1.0087 B(  5-C ,  6-C ) :   1.0625 B(  5-C , 71-H ) :   0.9108
B(  5-C , 72-H ) :   0.9244 B(  6-C ,  7-C ) :   1.1017 B(  6-C ,  9-C ) :   1.0772
B(  6-C , 73-H ) :   0.8608 B(  7-C ,  8-N ) :   3.1112 B(  9-C , 10-C ) :   1.1104
B(  9-C , 12-C ) :   1.0643 B(  9-C , 74-H ) :   0.8562 B( 10-C , 11-N ) :   3.0963
B( 12-C , 75-H ) :   0.8600 B( 12-C , 76-H ) :   0.8930 B( 13-C , 14-C ) :   1.0379
B( 13-C , 17-C ) :   1.5496 B( 14-C , 15-N ) :   1.7254 B( 14-C , 77-H ) :   0.9879
B( 15-N , 16-C ) :   1.2715 B( 16-C , 17-C ) :   1.0574 B( 16-C , 21-C ) :   1.5157
B( 17-C , 18-C ) :   1.0450 B( 18-C , 19-S ) :   1.6598 B( 18-C , 20-C ) :   1.0361
B( 19-S , 75-H ) :   0.1049 B( 20-C , 21-C ) :   1.0599 B( 20-C , 24-C ) :   1.5229
B( 21-C , 22-N ) :   1.2621 B( 22-N , 23-C ) :   1.7278 B( 23-C , 24-C ) :   1.0381
B( 23-C , 78-H ) :   0.9870 B( 24-C , 25-C ) :   1.0206 B( 25-C , 26-C ) :   1.4693
B( 25-C , 42-C ) :   1.1456 B( 26-C , 27-C ) :   1.1384 B( 26-C , 79-H ) :   0.9827
B( 27-C , 28-C ) :   1.4415 B( 27-C , 40-C ) :   1.1235 B( 28-C , 29-C ) :   1.0445
B( 28-C , 34-C ) :   1.1137 B( 29-C , 30-C ) :   1.0347 B( 29-C , 32-C ) :   1.0314
B( 29-C , 80-H ) :   0.8732 B( 30-C , 31-N ) :   1.1055 B( 30-C , 81-H ) :   0.9420
B( 30-C , 82-H ) :   0.9398 B( 31-N , 83-H ) :   0.9568 B( 31-N , 84-H ) :   0.9692
B( 32-C , 33-N ) :   1.0886 B( 32-C , 85-H ) :   0.9427 B( 32-C , 86-H ) :   0.9367
B( 33-N , 87-H ) :   0.9705 B( 33-N , 88-H ) :   0.9688 B( 34-C , 35-C ) :   1.6471
B( 34-C , 39-C ) :   1.0456 B( 35-C , 36-C ) :   0.9662 B( 35-C , 89-H ) :   0.9782
B( 36-C , 37-C ) :   0.9914 B( 36-C , 43-C ) :   0.9524 B( 36-C , 90-H ) :   0.8816
B( 37-C , 38-C ) :   1.7036 B( 37-C , 91-H ) :   0.9711 B( 38-C , 39-C ) :   1.1350
B( 38-C , 92-H ) :   0.9897 B( 39-C , 40-C ) :   1.4320 B( 40-C , 41-C ) :   1.1396
B( 41-C , 42-C ) :   1.6055 B( 41-C , 93-H ) :   0.9947 B( 42-C , 94-H ) :   0.9704
B( 43-C , 44-C ) :   1.7568 B( 43-C , 95-H ) :   0.9621 B( 44-C , 45-C ) :   1.0905
B( 44-C , 96-H ) :   0.9677 B( 45-C , 46-C ) :   1.0117 B( 45-C , 49-C ) :   1.5384
B( 46-C , 47-N ) :   1.7314 B( 46-C , 97-H ) :   0.9896 B( 47-N , 48-C ) :   1.2623
B( 48-C , 49-C ) :   1.0665 B( 48-C , 53-C ) :   1.5249 B( 49-C , 50-C ) :   1.0323
B( 50-C , 51-S ) :   1.6957 B( 50-C , 52-C ) :   1.0350 B( 52-C , 53-C ) :   1.0730
B( 52-C , 56-C ) :   1.5353 B( 53-C , 54-N ) :   1.2660 B( 54-N , 55-C ) :   1.7252
B( 55-C , 56-C ) :   1.0300 B( 55-C , 98-H ) :   0.9891 B( 56-C , 57-C ) :   1.1101
B( 57-C , 58-S ) :   1.1645 B( 57-C , 61-C ) :   1.4872 B( 58-S , 59-C ) :   1.1990
B( 59-C , 60-C ) :   1.5278 B( 59-C , 99-H ) :   0.9724 B( 60-C , 61-C ) :   1.3311
B( 60-C , 69-C ) :   1.0074 B( 61-C , 62-C ) :   1.0394 B( 62-C , 63-C ) :   1.0563
B( 62-C ,100-H ) :   0.8968 B( 62-C ,101-H ) :   0.9156 B( 63-C , 64-C ) :   1.1086
B( 63-C , 66-C ) :   1.0767 B( 63-C ,102-H ) :   0.8551 B( 64-C , 65-N ) :   3.1064
B( 66-C , 67-C ) :   1.1051 B( 66-C , 69-C ) :   1.0666 B( 66-C ,103-H ) :   0.8590
B( 67-C , 68-N ) :   3.1009 B( 69-C ,104-H ) :   0.9239 B( 69-C ,105-H ) :   0.9098

-----------------------------------------------------------------------------
         ABSORPTION SPECTRUM VIA TRANSITION ELECTRIC DIPOLE MOMENTS
-----------------------------------------------------------------------------
State   Energy  Wavelength   fosc         T2         TX        TY        TZ
        (cm-1)    (nm)                  (au**2)     (au)      (au)      (au)
-----------------------------------------------------------------------------
   0   10496.2    952.7   0.142605456   4.47282  -0.28786  -0.51723  -2.03038
   1   12661.8    789.8   0.046922215   1.21999   0.54187  -0.10362  -0.95689
   2   14161.5    706.1   0.064203483   1.49254  -0.80251   0.75017   0.53456
   3   14995.6    666.9   0.005755817   0.12636  -0.06040  -0.27723  -0.21414
   4   16157.0    618.9   0.038921025   0.79305   0.17990   0.33295   0.80612
   5   17380.9    575.3   0.163888814   3.10423  -0.55761   0.96474   1.36476
   6   17542.2    570.1   0.000591010   0.01109  -0.06457  -0.00752   0.08286
   7   17725.1    564.2   0.006508260   0.12088  -0.07581   0.22262   0.25607
   8   18951.8    527.7   0.134964255   2.34447  -0.09778   0.75257   1.32987
   9   19010.6    526.0   0.123406010   2.13705  -0.23617   0.66496   1.28028
  10   19167.3    521.7   0.059327407   1.01899  -0.86673  -0.04041  -0.51589
  11   20025.9    499.4   0.032846585   0.53998   0.42601   0.00768  -0.59869
  12   20619.9    485.0   0.008415567   0.13436  -0.23017   0.06947   0.27668
  13   23581.4    424.1   0.096741011   1.35057  -0.33771  -0.28756  -1.07416
  14   24773.6    403.7   0.086497877   1.14946   0.21813  -0.64460  -0.82847
  15   24870.1    402.1   0.083818018   1.10952   0.10283   0.33156   0.99449
  16   25268.0    395.8   0.326219046   4.25025  -0.41687   1.10243   1.69149
  17   25508.9    392.0   0.325256456   4.19768   1.13220   0.50481   1.63125
  18   25805.4    387.5   0.033018266   0.42123  -0.21919   0.28669   0.53944
  19   25948.8    385.4   0.027398299   0.34760   0.01726  -0.05056  -0.58715
  20   26706.6    374.4   0.352618059   4.34672   0.16551  -0.71199  -1.95254
  21   27207.8    367.5   0.007331849   0.08871   0.21321  -0.20673   0.02278
  22   27270.7    366.7   0.194729387   2.35077  -0.30076   0.73231   1.31303
  23   27471.1    364.0   0.373471427   4.47566  -0.79129  -0.56462  -1.87902
  24   28111.7    355.7   0.007213766   0.08448  -0.28608  -0.01038   0.05027
  25   28150.5    355.2   0.012973899   0.15173  -0.06327  -0.19717  -0.32992
  26   28498.8    350.9   0.155156115   1.79233  -0.04752  -0.73381  -1.11875
  27   28640.8    349.2   0.068449363   0.78679  -0.54285   0.36635   0.59824
  28   29006.7    344.7   0.012812379   0.14541   0.22873  -0.00533  -0.30507
  29   29100.3    343.6   0.035471642   0.40129   0.51270  -0.02728  -0.37106
  30   29259.3    341.8   0.015777934   0.17753  -0.36928   0.03530   0.19978
  31   29569.8    338.2   0.297461015   3.31175   0.91973  -0.62390  -1.44104
  32   29934.2    334.1   0.004048934   0.04453   0.00053  -0.10114  -0.18520
  33   30305.8    330.0   0.005684535   0.06175   0.19682  -0.15025  -0.02096
  34   30746.4    325.2   0.006244447   0.06686   0.01399  -0.10684  -0.23506
  35   30995.2    322.6   0.056790205   0.60319  -0.10844   0.38698   0.66459
  36   31669.2    315.8   0.008138532   0.08460   0.07057  -0.17216  -0.22357
  37   32278.1    309.8   0.004688039   0.04781   0.03693   0.13530   0.16776
  38   33178.1    301.4   0.038733036   0.38433   0.10522   0.26697   0.54953
  39   33451.5    298.9   0.000820915   0.00808   0.07553  -0.03571  -0.03316
  40   33585.9    297.7   0.095163608   0.93280   0.00765  -0.25737  -0.93086
  41   33723.8    296.5   0.034832915   0.34004  -0.15365   0.29000   0.48201
  42   33842.8    295.5   0.001622495   0.01578   0.07649   0.01198  -0.09893
  43   33914.9    294.9   0.001983531   0.01925  -0.00852  -0.02254   0.13665
  44   34107.9    293.2   0.017701973   0.17086   0.15263   0.37431   0.08636
  45   34155.2    292.8   0.087343969   0.84188   0.69221  -0.38463  -0.46345
  46   34405.6    290.6   0.194863744   1.86456  -0.50556   0.64890   1.08991
  47   34479.1    290.0   0.001525434   0.01457   0.02323  -0.10872   0.04696
  48   34986.1    285.8   0.142562092   1.34148   0.56945  -0.36278  -0.94107
  49   35327.3    283.1   0.043269981   0.40323   0.27944  -0.22199  -0.52523
  50   35698.7    280.1   0.030122373   0.27779   0.37663   0.03231   0.36728
  51   35801.1    279.3   0.006939589   0.06381   0.08170  -0.11123  -0.21158
  52   35838.5    279.0   0.055849790   0.51303   0.26591  -0.26264  -0.61102
  53   35922.6    278.4   0.009366685   0.08584   0.19560  -0.16109  -0.14707
  54   36096.9    277.0   0.024575915   0.22414  -0.00981   0.23606   0.41026
  55   36230.7    276.0   0.085990543   0.78136   0.72999  -0.35876  -0.34608
  56   36348.0    275.1   0.003323797   0.03010  -0.05410  -0.04290   0.15918
  57   36434.3    274.5   0.147574644   1.33345   0.20982  -0.56076  -0.98741
  58   36793.8    271.8   0.352281269   3.15203  -0.73765   0.76782   1.42069
  59   37046.6    269.9   0.057176987   0.50810   0.40872   0.15562  -0.56288
  60   37577.6    266.1   0.038374827   0.33620  -0.36605  -0.22730   0.38799
  61   37619.5    265.8   0.004416978   0.03865   0.10524   0.07672  -0.14728
  62   37720.7    265.1   0.049606305   0.43295  -0.41628  -0.49469   0.12224
  63   37762.1    264.8   0.152966250   1.33357  -0.69676  -0.90295   0.18103
  64   38198.2    261.8   0.002486762   0.02143   0.08565  -0.05292   0.10628
  65   38268.6    261.3   0.258186001   2.22109   1.32293   0.26602   0.63260
  66   38472.0    259.9   0.032240819   0.27589   0.12717   0.47435  -0.18631
  67   38617.5    258.9   0.045008285   0.38369   0.52513   0.10344   0.31182
  68   38971.6    256.6   0.000377643   0.00319   0.03840   0.02780   0.03070
  69   39031.1    256.2   0.008968657   0.07565   0.08850   0.10597   0.23788
  70   39092.1    255.8   0.003366657   0.02835  -0.09969   0.07244   0.11475
  71   39821.6    251.1   0.145412030   1.20214  -0.61618   0.53080   0.73534
  72   40284.8    248.2   0.009054088   0.07399   0.26364  -0.03197   0.05885

FINAL SINGLE POINT ENERGY     -4291.689765364035

DIPOLE MOMENT
-------------
                                X             Y             Z
Electronic contribution:    -19.49516      -2.87822      -5.42539
Nuclear contribution   :     19.18056       3.67206       6.60192
                        -----------------------------------------
Total Dipole Moment    :     -0.31460       0.79384       1.17653
                        -----------------------------------------
Magnitude (a.u.)       :      1.45374
Magnitude (Debye)      :      3.69512

Rotational constants in cm-1:     0.001735     0.000223     0.000206
Rotational constants in MHz :    52.011589     6.673125     6.174332

                             ****ORCA TERMINATED NORMALLY****
TOTAL RUN TIME: 0 days 0 hours 10 minutes 32 seconds 183 msec
