                         Program Version 4.2.0 -  RELEASE  -
|  1> # ORCA input file
|  2> # SCF done       -192.374698850599          0.000613797978
|  3> ! CAM-B3LYP def2-SVP def2/J RIJCOSX Grid4 TightSCF
|  4> %maxcore 5000
|  5> %tddft
|  6>     Mode sTDDFT
|  7>     Ethresh 5.0
|  8>     maxcore 5000
|  9> end
| 10>
| 11> %pal
| 12>   nprocs 6
| 13>   end
| 14> * xyz 0 1
| 15>    C       10.37018         0.79902         0.17503
| 16>    S        9.03650         0.93009        -0.87929
| 17>    C        8.20151         1.98857         0.22717
| 18>    C        8.97879         2.20994         1.36072
| 19>    C       10.21218         1.52700         1.31997
| 20>    C       11.22709         1.60486         2.41750
| 21>    C       10.56391         2.05507         3.72763
| 22>    C        9.71271         1.00156         4.23324
| 23>    N        9.04434         0.16032         4.62118
| 24>    C        9.72534         3.32982         3.47967
| 25>    C       10.58265         4.35599         2.93084
| 26>    N       11.27235         5.15124         2.48625
| 27>    C        8.55988         3.04586         2.51984
| 28>    C        6.90245         2.51585         0.00330
| 29>    N        6.32598         3.21945         0.97295
| 30>    C        5.11204         3.57201         0.51044
| 31>    C        4.88408         3.05981        -0.84073
| 32>    C        3.55018         3.46089        -1.31170
| 33>    O        3.00839         3.21816        -2.37311
| 34>    C        3.01816         4.23433        -0.17555
| 35>    C        4.00234         4.27823         0.91659
| 36>    N        3.52788         4.99345         1.96486
| 37>    C        2.33090         5.38724         1.59361
| 38>    C        1.95103         4.95121         0.26933
| 39>    C        6.03263         2.38402        -1.19487
| 40>    C        6.35431         1.71826        -2.40746
| 41>    C        5.46998         1.59439        -3.42630
| 42>    C        5.68975         0.94556        -4.68540
| 43>    C        4.64072         0.93107        -5.58925
| 44>    C        4.77769         0.31960        -6.84564
| 45>    C        3.90122         0.16846        -7.92068
| 46>    C        2.47193         0.54670        -8.08212
| 47>    C        1.57592        -0.66779        -7.71543
| 48>    N        1.59516        -1.65073        -8.78187
| 49>    C        2.01796         1.77728        -7.28679
| 50>    N        0.73744         2.22968        -7.80961
| 51>    C        4.60578        -0.59445        -8.92271
| 52>    C        4.20279        -1.04103       -10.12707
| 53>    C        5.08818        -1.90804       -10.95994
| 54>    C        6.47736        -2.07042       -10.43548
| 55>    C        6.86965        -1.58748        -9.24157
| 56>    C        5.95785        -0.87099        -8.42932
| 57>    C        6.05279        -0.31294        -7.16988
| 58>    C        7.10928        -0.28843        -6.23038
| 59>    C        6.93244         0.32190        -5.03168
| 60>    C        4.34292        -3.21568       -11.04692
| 61>    C        4.68577        -4.31795       -10.36719
| 62>    C        3.94139        -5.53453       -10.46169
| 63>    N        2.82943        -5.62331       -11.17547
| 64>    C        2.40793        -6.89714       -11.04388
| 65>    C        3.31513        -7.67700       -10.18823
| 66>    C        2.83991        -9.06218       -10.06691
| 67>    O        3.32907        -9.97991        -9.44018
| 68>    C        1.61894        -9.06018       -10.89323
| 69>    C        1.39071        -7.71997       -11.46635
| 70>    N        0.27041        -7.70968       -12.22972
| 71>    C       -0.19564        -8.93485       -12.16775
| 72>    C        0.59712        -9.82921       -11.35230
| 73>    C        4.31148        -6.81191        -9.80664
| 74>    C        5.47232        -7.01209        -9.00647
| 75>    C        5.76822        -8.19573        -8.42178
| 76>    C        6.91771        -8.48430        -7.63009
| 77>    S        6.84428        -9.87746        -6.58449
| 78>    C        8.42498        -9.58238        -6.00891
| 79>    C        9.00286        -8.49200        -6.59444
| 80>    C        8.14826        -7.85978        -7.52595
| 81>    C        8.59191        -6.67516        -8.32721
| 82>    C       10.12492        -6.55874        -8.33576
| 83>    C       10.70192        -7.61272        -9.13927
| 84>    N       11.15846        -8.44854        -9.76998
| 85>    C       10.67840        -6.64900        -6.89536
| 86>    C       10.06283        -5.62063        -6.08808
| 87>    N        9.57232        -4.79872        -5.46363
| 88>    C       10.40384        -8.04175        -6.30923
| 89>    H       11.20709         0.18897        -0.10311
| 90>    H       12.00155         2.33030         2.14702
| 91>    H       11.71084         0.63397         2.55052
| 92>    H       11.33606         2.25727         4.48044
| 93>    H        9.32380         3.70163         4.42993
| 94>    H        8.11869         3.97900         2.16187
| 95>    H        7.76063         2.52357         3.05459
| 96>    H        1.72566         5.98108         2.25642
| 97>    H        1.02029         5.16804        -0.21703
| 98>    H        7.34741         1.30709        -2.49576
| 99>    H        4.48524         2.02428        -3.29805
|100>    H        3.71226         1.39754        -5.30438
|101>    H        2.29082         0.76020        -9.14148
|102>    H        0.57225        -0.27150        -7.51199
|103>    H        1.96357        -1.12711        -6.80354
|104>    H        0.93983        -1.39654        -9.51243
|105>    H        1.34984        -2.57302        -8.44653
|106>    H        2.80464         2.54759        -7.33111
|107>    H        1.85510         1.50634        -6.24210
|108>    H        0.34765         2.95043        -7.21346
|109>    H        0.85194         2.62501        -8.73725
|110>    H        3.21179        -0.85204       -10.50666
|111>    H        5.13405        -1.49321       -11.97754
|112>    H        7.15424        -2.62907       -11.06505
|113>    H        7.88059        -1.73565        -8.88894
|114>    H        8.04787        -0.76333        -6.47590
|115>    H        7.73892         0.33652        -4.31557
|116>    H        3.46184        -3.24103       -11.67102
|117>    H        5.55510        -4.31029        -9.72557
|118>    H       -1.09456        -9.20055       -12.69676
|119>    H        0.38692       -10.86571       -11.17641
|120>    H        6.11030        -6.15483        -8.86026
|121>    H        5.06629        -9.01358        -8.52855
|122>    H        8.85605       -10.22843        -5.26992
|123>    H        8.18205        -5.75660        -7.89208
|124>    H        8.22521        -6.76218        -9.35399
|125>    H       10.41377        -5.59928        -8.78381
|126>    H       11.76013        -6.46353        -6.90119
|127>    H       10.58289        -8.03658        -5.23074
|128>    H       11.10507        -8.75327        -6.75766
|129> *
|130>
|131>                          ****END OF INPUT****

CARTESIAN COORDINATES (ANGSTROEM)
---------------------------------
  C     10.370180    0.799020    0.175030
  S      9.036500    0.930090   -0.879290
  C      8.201510    1.988570    0.227170
  C      8.978790    2.209940    1.360720
  C     10.212180    1.527000    1.319970
  C     11.227090    1.604860    2.417500
  C     10.563910    2.055070    3.727630
  C      9.712710    1.001560    4.233240
  N      9.044340    0.160320    4.621180
  C      9.725340    3.329820    3.479670
  C     10.582650    4.355990    2.930840
  N     11.272350    5.151240    2.486250
  C      8.559880    3.045860    2.519840
  C      6.902450    2.515850    0.003300
  N      6.325980    3.219450    0.972950
  C      5.112040    3.572010    0.510440
  C      4.884080    3.059810   -0.840730
  C      3.550180    3.460890   -1.311700
  O      3.008390    3.218160   -2.373110
  C      3.018160    4.234330   -0.175550
  C      4.002340    4.278230    0.916590
  N      3.527880    4.993450    1.964860
  C      2.330900    5.387240    1.593610
  C      1.951030    4.951210    0.269330
  C      6.032630    2.384020   -1.194870
  C      6.354310    1.718260   -2.407460
  C      5.469980    1.594390   -3.426300
  C      5.689750    0.945560   -4.685400
  C      4.640720    0.931070   -5.589250
  C      4.777690    0.319600   -6.845640
  C      3.901220    0.168460   -7.920680
  C      2.471930    0.546700   -8.082120
  C      1.575920   -0.667790   -7.715430
  N      1.595160   -1.650730   -8.781870
  C      2.017960    1.777280   -7.286790
  N      0.737440    2.229680   -7.809610
  C      4.605780   -0.594450   -8.922710
  C      4.202790   -1.041030  -10.127070
  C      5.088180   -1.908040  -10.959940
  C      6.477360   -2.070420  -10.435480
  C      6.869650   -1.587480   -9.241570
  C      5.957850   -0.870990   -8.429320
  C      6.052790   -0.312940   -7.169880
  C      7.109280   -0.288430   -6.230380
  C      6.932440    0.321900   -5.031680
  C      4.342920   -3.215680  -11.046920
  C      4.685770   -4.317950  -10.367190
  C      3.941390   -5.534530  -10.461690
  N      2.829430   -5.623310  -11.175470
  C      2.407930   -6.897140  -11.043880
  C      3.315130   -7.677000  -10.188230
  C      2.839910   -9.062180  -10.066910
  O      3.329070   -9.979910   -9.440180
  C      1.618940   -9.060180  -10.893230
  C      1.390710   -7.719970  -11.466350
  N      0.270410   -7.709680  -12.229720
  C     -0.195640   -8.934850  -12.167750
  C      0.597120   -9.829210  -11.352300
  C      4.311480   -6.811910   -9.806640
  C      5.472320   -7.012090   -9.006470
  C      5.768220   -8.195730   -8.421780
  C      6.917710   -8.484300   -7.630090
  S      6.844280   -9.877460   -6.584490
  C      8.424980   -9.582380   -6.008910
  C      9.002860   -8.492000   -6.594440
  C      8.148260   -7.859780   -7.525950
  C      8.591910   -6.675160   -8.327210
  C     10.124920   -6.558740   -8.335760
  C     10.701920   -7.612720   -9.139270
  N     11.158460   -8.448540   -9.769980
  C     10.678400   -6.649000   -6.895360
  C     10.062830   -5.620630   -6.088080
  N      9.572320   -4.798720   -5.463630
  C     10.403840   -8.041750   -6.309230
  H     11.207090    0.188970   -0.103110
  H     12.001550    2.330300    2.147020
  H     11.710840    0.633970    2.550520
  H     11.336060    2.257270    4.480440
  H      9.323800    3.701630    4.429930
  H      8.118690    3.979000    2.161870
  H      7.760630    2.523570    3.054590
  H      1.725660    5.981080    2.256420
  H      1.020290    5.168040   -0.217030
  H      7.347410    1.307090   -2.495760
  H      4.485240    2.024280   -3.298050
  H      3.712260    1.397540   -5.304380
  H      2.290820    0.760200   -9.141480
  H      0.572250   -0.271500   -7.511990
  H      1.963570   -1.127110   -6.803540
  H      0.939830   -1.396540   -9.512430
  H      1.349840   -2.573020   -8.446530
  H      2.804640    2.547590   -7.331110
  H      1.855100    1.506340   -6.242100
  H      0.347650    2.950430   -7.213460
  H      0.851940    2.625010   -8.737250
  H      3.211790   -0.852040  -10.506660
  H      5.134050   -1.493210  -11.977540
  H      7.154240   -2.629070  -11.065050
  H      7.880590   -1.735650   -8.888940
  H      8.047870   -0.763330   -6.475900
  H      7.738920    0.336520   -4.315570
  H      3.461840   -3.241030  -11.671020
  H      5.555100   -4.310290   -9.725570
  H     -1.094560   -9.200550  -12.696760
  H      0.386920  -10.865710  -11.176410
  H      6.110300   -6.154830   -8.860260
  H      5.066290   -9.013580   -8.528550
  H      8.856050  -10.228430   -5.269920
  H      8.182050   -5.756600   -7.892080
  H      8.225210   -6.762180   -9.353990
  H     10.413770   -5.599280   -8.783810
  H     11.760130   -6.463530   -6.901190
  H     10.582890   -8.036580   -5.230740
  H     11.105070   -8.753270   -6.757660

 Total Charge           Charge          ....    0
 Multiplicity           Mult            ....    1
 Number of Electrons    NEL             ....  518
 Basis Dimension        Dim             .... 1244

ORBITAL ENERGIES
----------------

  NO   OCC          E(Eh)            E(eV)
   0   2.0000     -88.976499     -2421.1736
   1   2.0000     -88.959854     -2420.7207
   2   2.0000     -19.207377      -522.6593
   3   2.0000     -19.202157      -522.5173
   4   2.0000     -14.419297      -392.3690
   5   2.0000     -14.416636      -392.2966
   6   2.0000     -14.412394      -392.1812
   7   2.0000     -14.411224      -392.1493
   8   2.0000     -14.404684      -391.9714
   9   2.0000     -14.402937      -391.9239
  10   2.0000     -14.399615      -391.8334
  11   2.0000     -14.393710      -391.6728
  12   2.0000     -14.383482      -391.3944
  13   2.0000     -14.381638      -391.3443
  14   2.0000     -10.366984      -282.1000
  15   2.0000     -10.362061      -281.9660
  16   2.0000     -10.346059      -281.5306
  17   2.0000     -10.344267      -281.4818
  18   2.0000     -10.344011      -281.4748
  19   2.0000     -10.340012      -281.3660
  20   2.0000     -10.339513      -281.3524
  21   2.0000     -10.334492      -281.2158
  22   2.0000     -10.328488      -281.0525
  23   2.0000     -10.323923      -280.9282
  24   2.0000     -10.317851      -280.7630
  25   2.0000     -10.317500      -280.7534
  26   2.0000     -10.315312      -280.6939
  27   2.0000     -10.315102      -280.6882
  28   2.0000     -10.314951      -280.6841
  29   2.0000     -10.314513      -280.6722
  30   2.0000     -10.310868      -280.5730
  31   2.0000     -10.310413      -280.5606
  32   2.0000     -10.309798      -280.5439
  33   2.0000     -10.307999      -280.4949
  34   2.0000     -10.307433      -280.4795
  35   2.0000     -10.304777      -280.4072
  36   2.0000     -10.304774      -280.4072
  37   2.0000     -10.304567      -280.4015
  38   2.0000     -10.304076      -280.3882
  39   2.0000     -10.303673      -280.3772
  40   2.0000     -10.302658      -280.3496
  41   2.0000     -10.301844      -280.3274
  42   2.0000     -10.301214      -280.3103
  43   2.0000     -10.300281      -280.2849
  44   2.0000     -10.298153      -280.2270
  45   2.0000     -10.296839      -280.1912
  46   2.0000     -10.290915      -280.0300
  47   2.0000     -10.289923      -280.0030
  48   2.0000     -10.288176      -279.9555
  49   2.0000     -10.288117      -279.9539
  50   2.0000     -10.285275      -279.8766
  51   2.0000     -10.284993      -279.8689
  52   2.0000     -10.283634      -279.8319
  53   2.0000     -10.283115      -279.8178
  54   2.0000     -10.282832      -279.8101
  55   2.0000     -10.282088      -279.7898
  56   2.0000     -10.278230      -279.6849
  57   2.0000     -10.278002      -279.6787
  58   2.0000     -10.275375      -279.6072
  59   2.0000     -10.275117      -279.6002
  60   2.0000     -10.274772      -279.5908
  61   2.0000     -10.271556      -279.5033
  62   2.0000     -10.270687      -279.4796
  63   2.0000     -10.270287      -279.4687
  64   2.0000     -10.270043      -279.4621
  65   2.0000     -10.268489      -279.4198
  66   2.0000     -10.267376      -279.3895
  67   2.0000     -10.265328      -279.3338
  68   2.0000     -10.265134      -279.3285
  69   2.0000     -10.264135      -279.3013
  70   2.0000     -10.263462      -279.2830
  71   2.0000     -10.261961      -279.2421
  72   2.0000     -10.260253      -279.1957
  73   2.0000     -10.256554      -279.0950
  74   2.0000      -8.071213      -219.6289
  75   2.0000      -8.055725      -219.2074
  76   2.0000      -6.040461      -164.3693
  77   2.0000      -6.036136      -164.2516
  78   2.0000      -6.033759      -164.1869
  79   2.0000      -6.024839      -163.9442
  80   2.0000      -6.020632      -163.8297
  81   2.0000      -6.018217      -163.7640
  82   2.0000      -1.121148       -30.5080
  83   2.0000      -1.115426       -30.3523
  84   2.0000      -1.072962       -29.1968
  85   2.0000      -1.071592       -29.1595
  86   2.0000      -1.052995       -28.6535
  87   2.0000      -1.048315       -28.5261
  88   2.0000      -1.020897       -27.7800
  89   2.0000      -1.018126       -27.7046
  90   2.0000      -1.002893       -27.2901
  91   2.0000      -0.998188       -27.1621
  92   2.0000      -0.996791       -27.1241
  93   2.0000      -0.993625       -27.0379
  94   2.0000      -0.983276       -26.7563
  95   2.0000      -0.967448       -26.3256
  96   2.0000      -0.956780       -26.0353
  97   2.0000      -0.954195       -25.9650
  98   2.0000      -0.953783       -25.9538
  99   2.0000      -0.949297       -25.8317
 100   2.0000      -0.932227       -25.3672
 101   2.0000      -0.927061       -25.2266
 102   2.0000      -0.920034       -25.0354
 103   2.0000      -0.915709       -24.9177
 104   2.0000      -0.897607       -24.4251
 105   2.0000      -0.889265       -24.1981
 106   2.0000      -0.888390       -24.1743
 107   2.0000      -0.880712       -23.9654
 108   2.0000      -0.868141       -23.6233
 109   2.0000      -0.862181       -23.4611
 110   2.0000      -0.859450       -23.3868
 111   2.0000      -0.854025       -23.2392
 112   2.0000      -0.850901       -23.1542
 113   2.0000      -0.849414       -23.1137
 114   2.0000      -0.839505       -22.8441
 115   2.0000      -0.835324       -22.7303
 116   2.0000      -0.831087       -22.6150
 117   2.0000      -0.824487       -22.4354
 118   2.0000      -0.803546       -21.8656
 119   2.0000      -0.799159       -21.7462
 120   2.0000      -0.776350       -21.1256
 121   2.0000      -0.770729       -20.9726
 122   2.0000      -0.761081       -20.7101
 123   2.0000      -0.755369       -20.5546
 124   2.0000      -0.753972       -20.5166
 125   2.0000      -0.753563       -20.5055
 126   2.0000      -0.748403       -20.3651
 127   2.0000      -0.744969       -20.2716
 128   2.0000      -0.743850       -20.2412
 129   2.0000      -0.726748       -19.7758
 130   2.0000      -0.720463       -19.6048
 131   2.0000      -0.706174       -19.2160
 132   2.0000      -0.703682       -19.1482
 133   2.0000      -0.702698       -19.1214
 134   2.0000      -0.695073       -18.9139
 135   2.0000      -0.679220       -18.4825
 136   2.0000      -0.673056       -18.3148
 137   2.0000      -0.666493       -18.1362
 138   2.0000      -0.658998       -17.9322
 139   2.0000      -0.655743       -17.8437
 140   2.0000      -0.649667       -17.6783
 141   2.0000      -0.643409       -17.5081
 142   2.0000      -0.642147       -17.4737
 143   2.0000      -0.636185       -17.3115
 144   2.0000      -0.632844       -17.2206
 145   2.0000      -0.624820       -17.0022
 146   2.0000      -0.617435       -16.8013
 147   2.0000      -0.611050       -16.6275
 148   2.0000      -0.606322       -16.4989
 149   2.0000      -0.603612       -16.4251
 150   2.0000      -0.599930       -16.3249
 151   2.0000      -0.598773       -16.2934
 152   2.0000      -0.597773       -16.2662
 153   2.0000      -0.596358       -16.2277
 154   2.0000      -0.595938       -16.2163
 155   2.0000      -0.587300       -15.9812
 156   2.0000      -0.586618       -15.9627
 157   2.0000      -0.576569       -15.6892
 158   2.0000      -0.573351       -15.6017
 159   2.0000      -0.571261       -15.5448
 160   2.0000      -0.567549       -15.4438
 161   2.0000      -0.557707       -15.1760
 162   2.0000      -0.557174       -15.1615
 163   2.0000      -0.554439       -15.0871
 164   2.0000      -0.552191       -15.0259
 165   2.0000      -0.547624       -14.9016
 166   2.0000      -0.547159       -14.8890
 167   2.0000      -0.543351       -14.7853
 168   2.0000      -0.540824       -14.7166
 169   2.0000      -0.539780       -14.6882
 170   2.0000      -0.539128       -14.6704
 171   2.0000      -0.536530       -14.5997
 172   2.0000      -0.530861       -14.4455
 173   2.0000      -0.528034       -14.3685
 174   2.0000      -0.527776       -14.3615
 175   2.0000      -0.525798       -14.3077
 176   2.0000      -0.523569       -14.2470
 177   2.0000      -0.520708       -14.1692
 178   2.0000      -0.516915       -14.0660
 179   2.0000      -0.515059       -14.0155
 180   2.0000      -0.510933       -13.9032
 181   2.0000      -0.508599       -13.8397
 182   2.0000      -0.508292       -13.8313
 183   2.0000      -0.505634       -13.7590
 184   2.0000      -0.504098       -13.7172
 185   2.0000      -0.502385       -13.6706
 186   2.0000      -0.499145       -13.5824
 187   2.0000      -0.496725       -13.5166
 188   2.0000      -0.495876       -13.4935
 189   2.0000      -0.493090       -13.4177
 190   2.0000      -0.492252       -13.3949
 191   2.0000      -0.489069       -13.3083
 192   2.0000      -0.487224       -13.2580
 193   2.0000      -0.485430       -13.2092
 194   2.0000      -0.480875       -13.0853
 195   2.0000      -0.477955       -13.0058
 196   2.0000      -0.475404       -12.9364
 197   2.0000      -0.468634       -12.7522
 198   2.0000      -0.468293       -12.7429
 199   2.0000      -0.464166       -12.6306
 200   2.0000      -0.463357       -12.6086
 201   2.0000      -0.462989       -12.5986
 202   2.0000      -0.460693       -12.5361
 203   2.0000      -0.459358       -12.4998
 204   2.0000      -0.456816       -12.4306
 205   2.0000      -0.455143       -12.3851
 206   2.0000      -0.453653       -12.3445
 207   2.0000      -0.453071       -12.3287
 208   2.0000      -0.451058       -12.2739
 209   2.0000      -0.449365       -12.2278
 210   2.0000      -0.448284       -12.1984
 211   2.0000      -0.446419       -12.1477
 212   2.0000      -0.443665       -12.0727
 213   2.0000      -0.442159       -12.0318
 214   2.0000      -0.440555       -11.9881
 215   2.0000      -0.439299       -11.9539
 216   2.0000      -0.437276       -11.8989
 217   2.0000      -0.434407       -11.8208
 218   2.0000      -0.433745       -11.8028
 219   2.0000      -0.433053       -11.7840
 220   2.0000      -0.427530       -11.6337
 221   2.0000      -0.426946       -11.6178
 222   2.0000      -0.426341       -11.6013
 223   2.0000      -0.419818       -11.4238
 224   2.0000      -0.415537       -11.3073
 225   2.0000      -0.414003       -11.2656
 226   2.0000      -0.410544       -11.1715
 227   2.0000      -0.408305       -11.1106
 228   2.0000      -0.406740       -11.0680
 229   2.0000      -0.403310       -10.9746
 230   2.0000      -0.402572       -10.9545
 231   2.0000      -0.400189       -10.8897
 232   2.0000      -0.397729       -10.8228
 233   2.0000      -0.393576       -10.7097
 234   2.0000      -0.387950       -10.5567
 235   2.0000      -0.382462       -10.4073
 236   2.0000      -0.380709       -10.3596
 237   2.0000      -0.362637        -9.8678
 238   2.0000      -0.357366        -9.7244
 239   2.0000      -0.356057        -9.6888
 240   2.0000      -0.349999        -9.5240
 241   2.0000      -0.348625        -9.4866
 242   2.0000      -0.343257        -9.3405
 243   2.0000      -0.337266        -9.1775
 244   2.0000      -0.334911        -9.1134
 245   2.0000      -0.329808        -8.9745
 246   2.0000      -0.327326        -8.9070
 247   2.0000      -0.326818        -8.8932
 248   2.0000      -0.325316        -8.8523
 249   2.0000      -0.321182        -8.7398
 250   2.0000      -0.319937        -8.7059
 251   2.0000      -0.318687        -8.6719
 252   2.0000      -0.309203        -8.4138
 253   2.0000      -0.300446        -8.1756
 254   2.0000      -0.294038        -8.0012
 255   2.0000      -0.288817        -7.8591
 256   2.0000      -0.265342        -7.2203
 257   2.0000      -0.264644        -7.2013
 258   2.0000      -0.218009        -5.9323
 259   0.0000      -0.109440        -2.9780
 260   0.0000      -0.104998        -2.8571
 261   0.0000      -0.067745        -1.8434
 262   0.0000      -0.049940        -1.3589
 263   0.0000      -0.037684        -1.0254

MULLIKEN ATOMIC CHARGES
-----------------------
   0 C :   -0.082195
   1 S :    0.134258
   2 C :   -0.165181
   3 C :   -0.054133
   4 C :   -0.066359
   5 C :    0.166789
   6 C :   -0.106374
   7 C :   -0.239269
   8 N :    0.149347
   9 C :   -0.037376
  10 C :   -0.254569
  11 N :    0.138705
  12 C :    0.195207
  13 C :    0.054578
  14 N :   -0.086383
  15 C :    0.067621
  16 C :   -0.182359
  17 C :    0.217727
  18 O :   -0.156738
  19 C :   -0.010249
  20 C :   -0.038168
  21 N :   -0.060176
  22 C :    0.080709
  23 C :   -0.099685
  24 C :    0.059209
  25 C :   -0.045757
  26 C :    0.004154
  27 C :    0.127414
  28 C :   -0.111109
  29 C :    0.049092
  30 C :    0.006580
  31 C :   -0.062539
  32 C :    0.142176
  33 N :   -0.224485
  34 C :    0.095879
  35 N :   -0.210045
  36 C :    0.077589
  37 C :   -0.052574
  38 C :    0.153189
  39 C :   -0.060823
  40 C :    0.017059
  41 C :    0.008613
  42 C :    0.034975
  43 C :   -0.003535
  44 C :   -0.011367
  45 C :   -0.029953
  46 C :   -0.016027
  47 C :    0.052710
  48 N :   -0.048558
  49 C :    0.068566
  50 C :   -0.168356
  51 C :    0.218804
  52 O :   -0.147249
  53 C :   -0.011603
  54 C :   -0.035860
  55 N :   -0.060568
  56 C :    0.085816
  57 C :   -0.097904
  58 C :    0.053510
  59 C :   -0.061318
  60 C :    0.071581
  61 C :   -0.168361
  62 S :    0.159761
  63 C :   -0.122629
  64 C :   -0.057078
  65 C :   -0.030852
  66 C :    0.123249
  67 C :   -0.069471
  68 C :   -0.245091
  69 N :    0.149914
  70 C :   -0.094272
  71 C :   -0.239640
  72 N :    0.139886
  73 C :    0.154938
  74 H :    0.026977
  75 H :    0.057646
  76 H :    0.033478
  77 H :    0.055230
  78 H :    0.053661
  79 H :    0.056660
  80 H :    0.053035
  81 H :    0.002716
  82 H :   -0.013154
  83 H :   -0.021904
  84 H :   -0.006953
  85 H :   -0.029248
  86 H :   -0.031720
  87 H :    0.008279
  88 H :   -0.001898
  89 H :    0.096713
  90 H :    0.101392
  91 H :    0.004864
  92 H :    0.022732
  93 H :    0.095856
  94 H :    0.089171
  95 H :   -0.017168
  96 H :    0.034109
  97 H :   -0.013211
  98 H :   -0.038634
  99 H :   -0.038466
 100 H :   -0.033033
 101 H :    0.030603
 102 H :    0.003942
 103 H :    0.004825
 104 H :   -0.008008
 105 H :   -0.043794
 106 H :    0.006000
 107 H :    0.017791
 108 H :    0.067327
 109 H :    0.043232
 110 H :    0.049709
 111 H :    0.055618
 112 H :    0.038434
 113 H :    0.053822
Sum of atomic charges:   -0.0000000

LOEWDIN ATOMIC CHARGES
----------------------
   0 C :   -0.158161
   1 S :    0.485775
   2 C :   -0.196189
   3 C :   -0.004728
   4 C :   -0.069517
   5 C :   -0.004544
   6 C :   -0.036397
   7 C :   -0.036928
   8 N :   -0.050596
   9 C :   -0.037013
  10 C :   -0.034843
  11 N :   -0.057190
  12 C :   -0.008753
  13 C :    0.065504
  14 N :   -0.105911
  15 C :    0.051231
  16 C :   -0.067540
  17 C :    0.071719
  18 O :   -0.153707
  19 C :   -0.042884
  20 C :    0.005856
  21 N :   -0.101378
  22 C :    0.060470
  23 C :   -0.040634
  24 C :   -0.015036
  25 C :   -0.072843
  26 C :    0.037029
  27 C :   -0.037913
  28 C :    0.008398
  29 C :   -0.032222
  30 C :   -0.009950
  31 C :   -0.041738
  32 C :    0.031425
  33 N :   -0.101546
  34 C :    0.023580
  35 N :   -0.114685
  36 C :   -0.018020
  37 C :    0.090329
  38 C :   -0.031401
  39 C :   -0.048383
  40 C :   -0.013664
  41 C :   -0.050371
  42 C :   -0.023052
  43 C :   -0.009208
  44 C :   -0.022120
  45 C :    0.086756
  46 C :   -0.060436
  47 C :    0.077755
  48 N :   -0.110551
  49 C :    0.050666
  50 C :   -0.056641
  51 C :    0.068886
  52 O :   -0.147025
  53 C :   -0.040755
  54 C :    0.013076
  55 N :   -0.099541
  56 C :    0.066656
  57 C :   -0.038891
  58 C :   -0.021614
  59 C :   -0.051622
  60 C :    0.004342
  61 C :   -0.175948
  62 S :    0.472107
  63 C :   -0.181983
  64 C :   -0.070910
  65 C :   -0.055345
  66 C :   -0.010430
  67 C :   -0.034429
  68 C :   -0.036125
  69 N :   -0.050482
  70 C :   -0.036675
  71 C :   -0.034779
  72 N :   -0.055759
  73 C :   -0.005269
  74 H :    0.029545
  75 H :    0.047294
  76 H :    0.042992
  77 H :    0.060864
  78 H :    0.063535
  79 H :    0.051923
  80 H :    0.054242
  81 H :    0.020503
  82 H :    0.031126
  83 H :    0.003378
  84 H :    0.031964
  85 H :    0.030376
  86 H :    0.019729
  87 H :    0.006859
  88 H :    0.019514
  89 H :    0.053941
  90 H :    0.059154
  91 H :    0.005890
  92 H :    0.021040
  93 H :    0.057529
  94 H :    0.051387
  95 H :    0.025031
  96 H :    0.057891
  97 H :    0.021894
  98 H :    0.028388
  99 H :    0.027342
 100 H :    0.024338
 101 H :    0.037987
 102 H :    0.030876
 103 H :    0.021712
 104 H :    0.033123
 105 H :    0.023997
 106 H :    0.033821
 107 H :    0.024419
 108 H :    0.043086
 109 H :    0.043791
 110 H :    0.059995
 111 H :    0.061629
 112 H :    0.044298
 113 H :    0.046310

  Mayer bond orders larger than 0.100000
B(  0-C ,  1-S ) :   1.1986 B(  0-C ,  4-C ) :   1.5301 B(  0-C , 74-H ) :   0.9714
B(  1-S ,  2-C ) :   1.1270 B(  2-C ,  3-C ) :   1.4752 B(  2-C , 13-C ) :   1.1418
B(  3-C ,  4-C ) :   1.3188 B(  3-C , 12-C ) :   1.0774 B(  4-C ,  5-C ) :   1.0063
B(  5-C ,  6-C ) :   1.0665 B(  5-C , 75-H ) :   0.9097 B(  5-C , 76-H ) :   0.9244
B(  6-C ,  7-C ) :   1.1046 B(  6-C ,  9-C ) :   1.0712 B(  6-C , 77-H ) :   0.8614
B(  7-C ,  8-N ) :   3.1122 B(  9-C , 10-C ) :   1.1035 B(  9-C , 12-C ) :   1.0134
B(  9-C , 78-H ) :   0.8494 B( 10-C , 11-N ) :   3.1017 B( 12-C , 79-H ) :   0.8889
B( 12-C , 80-H ) :   0.8873 B( 13-C , 14-N ) :   1.5700 B( 13-C , 15-C ) :   0.1158
B( 13-C , 24-C ) :   1.0105 B( 14-N , 15-C ) :   1.3492 B( 15-C , 16-C ) :   1.0672
B( 15-C , 20-C ) :   1.4095 B( 16-C , 17-C ) :   0.9012 B( 16-C , 24-C ) :   1.5360
B( 17-C , 18-O ) :   2.1568 B( 17-C , 19-C ) :   0.9409 B( 18-O , 84-H ) :   0.1161
B( 19-C , 20-C ) :   1.0790 B( 19-C , 23-C ) :   1.5861 B( 20-C , 21-N ) :   1.3163
B( 21-N , 22-C ) :   1.6482 B( 22-C , 23-C ) :   1.0835 B( 22-C , 81-H ) :   0.9897
B( 23-C , 82-H ) :   1.0111 B( 24-C , 25-C ) :   1.1321 B( 25-C , 26-C ) :   1.6232
B( 25-C , 83-H ) :   0.9490 B( 26-C , 27-C ) :   1.0908 B( 26-C , 84-H ) :   0.9707
B( 27-C , 28-C ) :   1.4656 B( 27-C , 44-C ) :   1.1188 B( 28-C , 29-C ) :   1.1130
B( 28-C , 85-H ) :   1.0095 B( 29-C , 30-C ) :   1.4553 B( 29-C , 42-C ) :   1.1202
B( 30-C , 31-C ) :   1.0180 B( 30-C , 36-C ) :   1.1263 B( 31-C , 32-C ) :   1.0024
B( 31-C , 34-C ) :   1.0378 B( 31-C , 86-H ) :   0.8955 B( 32-C , 33-N ) :   1.1090
B( 32-C , 87-H ) :   0.9406 B( 32-C , 88-H ) :   0.9360 B( 33-N , 89-H ) :   0.9687
B( 33-N , 90-H ) :   0.9675 B( 34-C , 35-N ) :   1.0704 B( 34-C , 91-H ) :   0.9554
B( 34-C , 92-H ) :   0.9233 B( 35-N , 93-H ) :   0.9671 B( 35-N , 94-H ) :   0.9708
B( 36-C , 37-C ) :   1.6944 B( 36-C , 41-C ) :   1.0517 B( 37-C , 38-C ) :   0.9685
B( 37-C , 95-H ) :   0.9352 B( 38-C , 39-C ) :   1.0013 B( 38-C , 45-C ) :   0.9400
B( 38-C , 96-H ) :   0.8635 B( 39-C , 40-C ) :   1.7112 B( 39-C , 97-H ) :   0.9707
B( 40-C , 41-C ) :   1.1253 B( 40-C , 98-H ) :   0.9918 B( 41-C , 42-C ) :   1.4396
B( 42-C , 43-C ) :   1.1380 B( 43-C , 44-C ) :   1.6249 B( 43-C , 99-H ) :   0.9881
B( 44-C ,100-H ) :   0.9835 B( 45-C , 46-C ) :   1.7976 B( 45-C ,101-H ) :   0.9682
B( 46-C , 47-C ) :   1.1029 B( 46-C ,102-H ) :   0.9410 B( 47-C , 48-N ) :   1.6096
B( 47-C , 49-C ) :   0.1095 B( 47-C , 58-C ) :   0.9970 B( 48-N , 49-C ) :   1.3471
B( 49-C , 50-C ) :   1.0529 B( 49-C , 54-C ) :   1.4154 B( 50-C , 51-C ) :   0.9025
B( 50-C , 58-C ) :   1.5438 B( 51-C , 52-O ) :   2.1765 B( 51-C , 53-C ) :   0.9337
B( 52-O ,106-H ) :   0.1075 B( 53-C , 54-C ) :   1.0744 B( 53-C , 57-C ) :   1.5961
B( 54-C , 55-N ) :   1.3127 B( 55-N , 56-C ) :   1.6541 B( 56-C , 57-C ) :   1.0777
B( 56-C ,103-H ) :   0.9894 B( 57-C ,104-H ) :   1.0112 B( 58-C , 59-C ) :   1.1389
B( 59-C , 60-C ) :   1.6701 B( 59-C ,105-H ) :   0.9542 B( 60-C , 61-C ) :   1.1139
B( 60-C ,106-H ) :   0.9282 B( 61-C , 62-S ) :   1.1538 B( 61-C , 65-C ) :   1.4979
B( 62-S , 63-C ) :   1.1823 B( 63-C , 64-C ) :   1.5506 B( 63-C ,107-H ) :   0.9723
B( 64-C , 65-C ) :   1.3148 B( 64-C , 73-C ) :   1.0081 B( 65-C , 66-C ) :   1.0474
B( 66-C , 67-C ) :   1.0504 B( 66-C ,108-H ) :   0.8931 B( 66-C ,109-H ) :   0.9113
B( 67-C , 68-C ) :   1.1083 B( 67-C , 70-C ) :   1.0770 B( 67-C ,110-H ) :   0.8574
B( 68-C , 69-N ) :   3.1084 B( 70-C , 71-C ) :   1.1075 B( 70-C , 73-C ) :   1.0659
B( 70-C ,111-H ) :   0.8612 B( 71-C , 72-N ) :   3.0994 B( 73-C ,112-H ) :   0.9247
B( 73-C ,113-H ) :   0.9104

-----------------------------------------------------------------------------
         ABSORPTION SPECTRUM VIA TRANSITION ELECTRIC DIPOLE MOMENTS
-----------------------------------------------------------------------------
State   Energy  Wavelength   fosc         T2         TX        TY        TZ
        (cm-1)    (nm)                  (au**2)     (au)      (au)      (au)
-----------------------------------------------------------------------------
   0    9895.0   1010.6   0.052776846   1.75592   0.49611   0.87700   0.86062
   1   11417.9    875.8   0.091733893   2.64495   0.22616  -0.65808  -1.46994
   2   15121.7    661.3   0.069948002   1.52283  -0.92798   0.75334   0.30686
   3   16731.2    597.7   0.116749529   2.29722   1.28432   0.08489   0.80034
   4   18626.9    536.9   0.008534755   0.15084  -0.08938   0.23380   0.29698
   5   22127.5    451.9   0.146870165   2.18513   0.41222   0.89631   1.10083
   6   22337.4    447.7   0.091647397   1.35072  -0.36086  -0.72880  -0.83027
   7   22341.2    447.6   0.023718717   0.34951  -0.47041  -0.14032  -0.32944
   8   22830.2    438.0   0.331947608   4.78669   1.05832   0.62943   1.80845
   9   24222.5    412.8   0.891935745  12.12243   1.98394  -2.36357  -1.61243
  10   24400.1    409.8   0.091350690   1.23252   0.31496   0.95027   0.47991
  11   24698.3    404.9   0.299131868   3.98722   1.76048   0.85654   0.39278
  12   25608.9    390.5   0.187966571   2.41638  -0.25951   0.98717   1.17240
  13   25673.8    389.5   0.197194424   2.52860   1.27251   0.03748   0.95285
  14   25795.8    387.7   0.130757466   1.66876   0.27073  -0.80693  -0.97177
  15   26245.9    381.0   0.001043209   0.01309   0.02997   0.05225  -0.09725
  16   26449.4    378.1   0.038489733   0.47908  -0.27424  -0.63077  -0.07743
  17   26501.8    377.3   0.205408929   2.55164  -1.43548  -0.66994   0.20544
  18   26950.8    371.0   0.058859651   0.71899   0.71125   0.28491   0.36324
  19   27782.3    359.9   0.459005608   5.43908   1.82480  -0.50913   1.36013
  20   28068.0    356.3   0.140018760   1.64229   0.96317  -0.07449   0.84205
  21   28144.8    355.3   0.007814667   0.09141  -0.08877   0.28221   0.06235
  22   28447.4    351.5   0.053705461   0.62152  -0.61885   0.24991   0.41962
  23   29916.8    334.3   0.021204952   0.23334   0.41388   0.10784   0.22453
  24   30636.5    326.4   0.174572223   1.87591  -0.37995  -0.62261  -1.15927
  25   30668.0    326.1   0.084374161   0.90573  -0.57100  -0.24885  -0.71956
  26   30903.4    323.6   0.029626158   0.31561   0.45536  -0.17176   0.28063
  27   31059.6    322.0   0.003614957   0.03832   0.05003  -0.05323  -0.18160
  28   31103.1    321.5   0.182393935   1.93055   0.10052  -0.45409  -1.30929
  29   31268.6    319.8   0.070313574   0.74030   0.03502  -0.59190  -0.62348
  30   31334.8    319.1   0.006431444   0.06757  -0.14969  -0.13673   0.16269
  31   31367.7    318.8   0.007055633   0.07405  -0.04899  -0.23644   0.12548
  32   31538.9    317.1   0.005976738   0.06239   0.20263  -0.04867   0.13769
  33   31956.7    312.9   0.028180176   0.29031   0.46584  -0.20624  -0.17541
  34   32081.1    311.7   0.110303822   1.13192   0.93477   0.45321   0.22964
  35   32788.0    305.0   0.046146788   0.46334  -0.18451   0.25190   0.60485
  36   33573.0    297.9   0.004973370   0.04877  -0.16625   0.14416   0.01861
  37   33620.6    297.4   0.014999385   0.14687  -0.05425  -0.37929  -0.00812
  38   34334.2    291.3   0.041076597   0.39386  -0.25207   0.50447   0.27537
  39   34788.7    287.4   0.133728586   1.26550  -0.82412   0.75509   0.12712
  40   35199.3    284.1   0.328861919   3.07578   1.64450  -0.58849  -0.15840
  41   35819.1    279.2   0.312503949   2.87221  -0.81592  -1.03349  -1.06696
  42   36163.5    276.5   0.027154766   0.24720  -0.20279  -0.43727   0.12194
  43   36399.9    274.7   0.017082813   0.15450  -0.02985  -0.39043  -0.03430
  44   36443.8    274.4   0.020607953   0.18616   0.42428  -0.04036  -0.06723
  45   36952.7    270.6   0.189306149   1.68653   1.26544  -0.01488   0.29149
  46   37096.8    269.6   0.121121746   1.07488  -0.47032  -0.64171  -0.66475
  47   37510.9    266.6   0.083812488   0.73558  -0.12739  -0.23270  -0.81560
  48   38099.3    262.5   0.000441001   0.00381  -0.01567  -0.05199  -0.02937
  49   38282.3    261.2   0.196418350   1.68912   0.09022   1.23198  -0.40399
  50   38442.7    260.1   0.178994523   1.53286  -0.14344   1.03941  -0.65720
  51   38613.0    259.0   0.062969196   0.53687   0.25757   0.68590   0.00805
  52   38820.7    257.6   0.001612535   0.01367   0.06076   0.09798  -0.01954
  53   39166.0    255.3   0.003882477   0.03263   0.14008  -0.10174  -0.05159
  54   39515.7    253.1   0.015427331   0.12853  -0.01483  -0.03578  -0.35641
  55   39765.5    251.5   0.234465910   1.94110  -0.91170   0.36123  -0.98966
  56   40247.2    248.5   0.001284696   0.01051  -0.03262  -0.01528  -0.09597

FINAL SINGLE POINT ENERGY     -3800.470672348481

DIPOLE MOMENT
-------------
                                X             Y             Z
Electronic contribution:      8.85143     -15.16305      20.23411
Nuclear contribution   :     -7.95440      15.09271     -21.29790
                        -----------------------------------------
Total Dipole Moment    :      0.89703      -0.07034      -1.06379
                        -----------------------------------------
Magnitude (a.u.)       :      1.39329
Magnitude (Debye)      :      3.54147

Rotational constants in cm-1:     0.001100     0.000368     0.000306
Rotational constants in MHz :    32.983631    11.022305     9.160092

                             ****ORCA TERMINATED NORMALLY****
TOTAL RUN TIME: 0 days 0 hours 17 minutes 1 seconds 433 msec
