                         Program Version 4.2.0 -  RELEASE  -
|  1> # ORCA input file
|  2> # SCF done       -180.394128541960          0.000963073425
|  3> ! CAM-B3LYP def2-SVP def2/J RIJCOSX Grid4 TightSCF
|  4> %maxcore 5000
|  5> %tddft
|  6>     Mode sTDDFT
|  7>     Ethresh 5.0
|  8>     maxcore 5000
|  9> end
| 10>
| 11> %pal
| 12>   nprocs 6
| 13>   end
| 14> * xyz 0 1
| 15>    C        3.13737         6.78110         0.57044
| 16>    C        2.71819         7.22939         1.92946
| 17>    O        2.11295         6.56716         2.74304
| 18>    C        3.24949         8.59876         2.05908
| 19>    C        3.79902         9.00361         0.84153
| 20>    C        3.59361         7.95293        -0.14870
| 21>    C        3.54915         8.12967        -1.50557
| 22>    C        3.05225         7.15040        -2.39215
| 23>    N        2.60205         6.39633        -3.13115
| 24>    C        3.89298         9.32942        -2.16030
| 25>    N        4.17447        10.27638        -2.74477
| 26>    C        4.39688        10.26301         0.70853
| 27>    C        4.42629        11.09432         1.79750
| 28>    C        3.86646        10.72301         3.03986
| 29>    C        3.26033         9.44123         3.18800
| 30>    C        2.70694         9.07500         4.43162
| 31>    C        2.74895         9.94546         5.48566
| 32>    C        3.34270        11.20998         5.34485
| 33>    C        3.88972        11.59082         4.15048
| 34>    C        3.13744         5.46198         0.25329
| 35>    C        3.85536         4.80561        -0.77969
| 36>    C        3.55648         3.57638        -1.33196
| 37>    C        4.47882         3.19851        -2.30542
| 38>    C        5.52602         4.11527        -2.47086
| 39>    S        5.34946         5.47254        -1.43132
| 40>    C        6.44038         3.70653        -3.44307
| 41>    C        6.08515         2.48623        -4.02947
| 42>    S        4.61847         1.82419        -3.36539
| 43>    C        6.97094         2.06040        -5.02231
| 44>    C        8.01388         2.93959        -5.20007
| 45>    S        7.89794         4.32349        -4.11524
| 46>    C        9.11983         2.87411        -6.11681
| 47>    C       10.20516         3.72355        -5.96183
| 48>    C       11.27971         3.72152        -6.83585
| 49>    C       11.34026         2.87984        -7.93653
| 50>    C       10.25117         1.97614        -8.12984
| 51>    N       10.27160         1.11418        -9.16263
| 52>    C        9.26551         0.29638        -9.31893
| 53>    C        8.17040         0.30673        -8.43990
| 54>    N        8.12356         1.12159        -7.42052
| 55>    C        9.14885         1.96986        -7.22198
| 56>    C       12.46391         2.94009        -8.83171
| 57>    C       12.60911         2.39575       -10.08712
| 58>    C       13.84395         2.70980       -10.65905
| 59>    C       14.66325         3.49254        -9.83763
| 60>    S       13.88948         3.85307        -8.34460
| 61>    C       15.88591         3.79888       -10.43890
| 62>    C       15.99435         3.24944       -11.72630
| 63>    S       14.58022         2.34764       -12.19525
| 64>    C       17.20533         3.52429       -12.35162
| 65>    C       18.04311         4.28459       -11.55386
| 66>    S       17.29306         4.68349       -10.01281
| 67>    C       19.32333         4.82086       -11.81687
| 68>    C       20.23354         4.50548       -12.77715
| 69>    C       21.31131         5.49021       -13.08477
| 70>    O       21.60661         6.45172       -12.40946
| 71>    C       21.87125         5.06133       -14.37785
| 72>    C       21.28283         3.85567       -14.76044
| 73>    C       20.37674         3.40697       -13.70518
| 74>    C       19.97180         2.11242       -13.50836
| 75>    C       19.34559         1.66577       -12.32728
| 76>    N       18.86700         1.25330       -11.36908
| 77>    C       20.21193         1.05855       -14.41352
| 78>    N       20.35997         0.16218       -15.11539
| 79>    C       21.62019         3.25330       -15.97915
| 80>    C       22.54758         3.86568       -16.78162
| 81>    C       23.17812         5.07427       -16.41334
| 82>    C       22.83633         5.70084       -15.17953
| 83>    C       23.46726         6.90770       -14.81489
| 84>    C       24.40294         7.46954       -15.63883
| 85>    C       24.74394         6.85662       -16.85542
| 86>    C       24.14537         5.68699       -17.23581
| 87>    H        4.83651        10.56773        -0.22741
| 88>    H        4.88810        12.06768         1.71573
| 89>    H        2.25387         8.10102         4.52816
| 90>    H        2.32361         9.66484         6.43752
| 91>    H        3.36429        11.88166         6.19028
| 92>    H        4.34679        12.56350         4.03944
| 93>    H        2.57643         4.81640         0.92220
| 94>    H        2.68533         3.00837        -1.06245
| 95>    H        6.86731         1.15976        -5.59572
| 96>    H       10.21524         4.41353        -5.13062
| 97>    H       12.09252         4.41064        -6.65827
| 98>    H        9.31932        -0.38506       -10.15718
| 99>    H        7.32713        -0.35834        -8.56921
|100>    H       11.84685         1.80262       -10.55389
|101>    H       17.44403         3.22365       -13.35511
|102>    H       19.60649         5.66715       -11.19686
|103>    H       21.15311         2.33248       -16.28874
|104>    H       22.81502         3.41733       -17.72762
|105>    H       23.19670         7.36912       -13.87832
|106>    H       24.88814         8.39238       -15.35799
|107>    H       25.48538         7.31827       -17.49063
|108>    H       24.40680         5.21336       -18.17108
|109> *
|110>
|111>                          ****END OF INPUT****

CARTESIAN COORDINATES (ANGSTROEM)
---------------------------------
  C      3.137370    6.781100    0.570440
  C      2.718190    7.229390    1.929460
  O      2.112950    6.567160    2.743040
  C      3.249490    8.598760    2.059080
  C      3.799020    9.003610    0.841530
  C      3.593610    7.952930   -0.148700
  C      3.549150    8.129670   -1.505570
  C      3.052250    7.150400   -2.392150
  N      2.602050    6.396330   -3.131150
  C      3.892980    9.329420   -2.160300
  N      4.174470   10.276380   -2.744770
  C      4.396880   10.263010    0.708530
  C      4.426290   11.094320    1.797500
  C      3.866460   10.723010    3.039860
  C      3.260330    9.441230    3.188000
  C      2.706940    9.075000    4.431620
  C      2.748950    9.945460    5.485660
  C      3.342700   11.209980    5.344850
  C      3.889720   11.590820    4.150480
  C      3.137440    5.461980    0.253290
  C      3.855360    4.805610   -0.779690
  C      3.556480    3.576380   -1.331960
  C      4.478820    3.198510   -2.305420
  C      5.526020    4.115270   -2.470860
  S      5.349460    5.472540   -1.431320
  C      6.440380    3.706530   -3.443070
  C      6.085150    2.486230   -4.029470
  S      4.618470    1.824190   -3.365390
  C      6.970940    2.060400   -5.022310
  C      8.013880    2.939590   -5.200070
  S      7.897940    4.323490   -4.115240
  C      9.119830    2.874110   -6.116810
  C     10.205160    3.723550   -5.961830
  C     11.279710    3.721520   -6.835850
  C     11.340260    2.879840   -7.936530
  C     10.251170    1.976140   -8.129840
  N     10.271600    1.114180   -9.162630
  C      9.265510    0.296380   -9.318930
  C      8.170400    0.306730   -8.439900
  N      8.123560    1.121590   -7.420520
  C      9.148850    1.969860   -7.221980
  C     12.463910    2.940090   -8.831710
  C     12.609110    2.395750  -10.087120
  C     13.843950    2.709800  -10.659050
  C     14.663250    3.492540   -9.837630
  S     13.889480    3.853070   -8.344600
  C     15.885910    3.798880  -10.438900
  C     15.994350    3.249440  -11.726300
  S     14.580220    2.347640  -12.195250
  C     17.205330    3.524290  -12.351620
  C     18.043110    4.284590  -11.553860
  S     17.293060    4.683490  -10.012810
  C     19.323330    4.820860  -11.816870
  C     20.233540    4.505480  -12.777150
  C     21.311310    5.490210  -13.084770
  O     21.606610    6.451720  -12.409460
  C     21.871250    5.061330  -14.377850
  C     21.282830    3.855670  -14.760440
  C     20.376740    3.406970  -13.705180
  C     19.971800    2.112420  -13.508360
  C     19.345590    1.665770  -12.327280
  N     18.867000    1.253300  -11.369080
  C     20.211930    1.058550  -14.413520
  N     20.359970    0.162180  -15.115390
  C     21.620190    3.253300  -15.979150
  C     22.547580    3.865680  -16.781620
  C     23.178120    5.074270  -16.413340
  C     22.836330    5.700840  -15.179530
  C     23.467260    6.907700  -14.814890
  C     24.402940    7.469540  -15.638830
  C     24.743940    6.856620  -16.855420
  C     24.145370    5.686990  -17.235810
  H      4.836510   10.567730   -0.227410
  H      4.888100   12.067680    1.715730
  H      2.253870    8.101020    4.528160
  H      2.323610    9.664840    6.437520
  H      3.364290   11.881660    6.190280
  H      4.346790   12.563500    4.039440
  H      2.576430    4.816400    0.922200
  H      2.685330    3.008370   -1.062450
  H      6.867310    1.159760   -5.595720
  H     10.215240    4.413530   -5.130620
  H     12.092520    4.410640   -6.658270
  H      9.319320   -0.385060  -10.157180
  H      7.327130   -0.358340   -8.569210
  H     11.846850    1.802620  -10.553890
  H     17.444030    3.223650  -13.355110
  H     19.606490    5.667150  -11.196860
  H     21.153110    2.332480  -16.288740
  H     22.815020    3.417330  -17.727620
  H     23.196700    7.369120  -13.878320
  H     24.888140    8.392380  -15.357990
  H     25.485380    7.318270  -17.490630
  H     24.406800    5.213360  -18.171080

 Total Charge           Charge          ....    0
 Multiplicity           Mult            ....    1
 Number of Electrons    NEL             ....  524
 Basis Dimension        Dim             .... 1142

ORBITAL ENERGIES
----------------

  NO   OCC          E(Eh)            E(eV)
   0   2.0000     -88.968613     -2420.9590
   1   2.0000     -88.968365     -2420.9523
   2   2.0000     -88.964475     -2420.8464
   3   2.0000     -88.964083     -2420.8358
   4   2.0000     -88.962549     -2420.7940
   5   2.0000     -88.962070     -2420.7810
   6   2.0000     -19.214901      -522.8640
   7   2.0000     -19.214586      -522.8555
   8   2.0000     -14.434982      -392.7958
   9   2.0000     -14.434856      -392.7924
  10   2.0000     -14.413262      -392.2048
  11   2.0000     -14.412600      -392.1868
  12   2.0000     -14.412049      -392.1718
  13   2.0000     -14.408758      -392.0822
  14   2.0000     -10.366106      -282.0761
  15   2.0000     -10.364884      -282.0428
  16   2.0000     -10.341778      -281.4141
  17   2.0000     -10.341424      -281.4045
  18   2.0000     -10.339696      -281.3574
  19   2.0000     -10.338124      -281.3147
  20   2.0000     -10.330856      -281.1169
  21   2.0000     -10.330543      -281.1084
  22   2.0000     -10.329375      -281.0766
  23   2.0000     -10.329073      -281.0684
  24   2.0000     -10.318514      -280.7810
  25   2.0000     -10.317428      -280.7515
  26   2.0000     -10.316705      -280.7318
  27   2.0000     -10.316483      -280.7258
  28   2.0000     -10.316114      -280.7157
  29   2.0000     -10.315817      -280.7077
  30   2.0000     -10.315125      -280.6888
  31   2.0000     -10.315054      -280.6869
  32   2.0000     -10.313950      -280.6568
  33   2.0000     -10.313501      -280.6446
  34   2.0000     -10.312913      -280.6286
  35   2.0000     -10.310964      -280.5756
  36   2.0000     -10.310795      -280.5710
  37   2.0000     -10.310619      -280.5662
  38   2.0000     -10.309365      -280.5321
  39   2.0000     -10.308919      -280.5200
  40   2.0000     -10.307961      -280.4939
  41   2.0000     -10.307656      -280.4856
  42   2.0000     -10.306859      -280.4639
  43   2.0000     -10.306703      -280.4597
  44   2.0000     -10.305229      -280.4195
  45   2.0000     -10.305096      -280.4159
  46   2.0000     -10.300835      -280.3000
  47   2.0000     -10.300430      -280.2890
  48   2.0000     -10.294584      -280.1299
  49   2.0000     -10.294394      -280.1247
  50   2.0000     -10.294073      -280.1160
  51   2.0000     -10.293686      -280.1054
  52   2.0000     -10.293675      -280.1051
  53   2.0000     -10.293595      -280.1030
  54   2.0000     -10.293531      -280.1012
  55   2.0000     -10.293096      -280.0894
  56   2.0000     -10.292964      -280.0858
  57   2.0000     -10.292928      -280.0848
  58   2.0000     -10.292759      -280.0802
  59   2.0000     -10.292487      -280.0728
  60   2.0000     -10.289428      -279.9896
  61   2.0000     -10.289386      -279.9884
  62   2.0000     -10.281978      -279.7868
  63   2.0000     -10.281914      -279.7851
  64   2.0000     -10.281467      -279.7730
  65   2.0000     -10.281376      -279.7705
  66   2.0000     -10.281347      -279.7697
  67   2.0000     -10.281232      -279.7665
  68   2.0000     -10.279617      -279.7226
  69   2.0000     -10.279433      -279.7176
  70   2.0000     -10.275479      -279.6100
  71   2.0000     -10.275330      -279.6059
  72   2.0000      -8.063968      -219.4317
  73   2.0000      -8.063162      -219.4098
  74   2.0000      -8.059594      -219.3127
  75   2.0000      -8.059223      -219.3026
  76   2.0000      -8.057722      -219.2618
  77   2.0000      -8.057292      -219.2501
  78   2.0000      -6.033435      -164.1781
  79   2.0000      -6.032769      -164.1600
  80   2.0000      -6.029408      -164.0685
  81   2.0000      -6.029144      -164.0614
  82   2.0000      -6.028790      -164.0517
  83   2.0000      -6.028654      -164.0480
  84   2.0000      -6.027461      -164.0155
  85   2.0000      -6.027014      -164.0034
  86   2.0000      -6.025597      -163.9648
  87   2.0000      -6.025107      -163.9515
  88   2.0000      -6.024713      -163.9408
  89   2.0000      -6.024665      -163.9395
  90   2.0000      -6.023586      -163.9101
  91   2.0000      -6.023193      -163.8994
  92   2.0000      -6.021137      -163.8435
  93   2.0000      -6.020768      -163.8334
  94   2.0000      -6.018703      -163.7772
  95   2.0000      -6.018233      -163.7644
  96   2.0000      -1.129833       -30.7443
  97   2.0000      -1.129680       -30.7402
  98   2.0000      -1.092264       -29.7220
  99   2.0000      -1.025684       -27.9103
 100   2.0000      -1.025300       -27.8998
 101   2.0000      -1.016446       -27.6589
 102   2.0000      -1.015699       -27.6386
 103   2.0000      -1.014298       -27.6005
 104   2.0000      -0.996533       -27.1170
 105   2.0000      -0.995953       -27.1013
 106   2.0000      -0.992113       -26.9968
 107   2.0000      -0.990649       -26.9569
 108   2.0000      -0.987552       -26.8727
 109   2.0000      -0.983646       -26.7664
 110   2.0000      -0.967966       -26.3397
 111   2.0000      -0.966051       -26.2876
 112   2.0000      -0.963018       -26.2051
 113   2.0000      -0.937489       -25.5104
 114   2.0000      -0.928756       -25.2727
 115   2.0000      -0.919116       -25.0104
 116   2.0000      -0.917978       -24.9795
 117   2.0000      -0.900892       -24.5145
 118   2.0000      -0.900507       -24.5040
 119   2.0000      -0.886147       -24.1133
 120   2.0000      -0.885522       -24.0963
 121   2.0000      -0.885228       -24.0883
 122   2.0000      -0.870680       -23.6924
 123   2.0000      -0.865248       -23.5446
 124   2.0000      -0.859772       -23.3956
 125   2.0000      -0.852663       -23.2021
 126   2.0000      -0.847608       -23.0646
 127   2.0000      -0.840719       -22.8771
 128   2.0000      -0.838592       -22.8193
 129   2.0000      -0.835494       -22.7349
 130   2.0000      -0.833851       -22.6902
 131   2.0000      -0.805591       -21.9212
 132   2.0000      -0.798053       -21.7161
 133   2.0000      -0.793098       -21.5813
 134   2.0000      -0.788261       -21.4497
 135   2.0000      -0.776865       -21.1396
 136   2.0000      -0.770527       -20.9671
 137   2.0000      -0.768863       -20.9218
 138   2.0000      -0.761587       -20.7238
 139   2.0000      -0.755657       -20.5625
 140   2.0000      -0.749298       -20.3894
 141   2.0000      -0.728779       -19.8311
 142   2.0000      -0.712045       -19.3757
 143   2.0000      -0.711652       -19.3650
 144   2.0000      -0.710405       -19.3311
 145   2.0000      -0.705190       -19.1892
 146   2.0000      -0.699796       -19.0424
 147   2.0000      -0.687177       -18.6990
 148   2.0000      -0.674841       -18.3634
 149   2.0000      -0.673531       -18.3277
 150   2.0000      -0.665566       -18.1110
 151   2.0000      -0.661689       -18.0055
 152   2.0000      -0.656128       -17.8542
 153   2.0000      -0.655584       -17.8393
 154   2.0000      -0.645058       -17.5529
 155   2.0000      -0.643197       -17.5023
 156   2.0000      -0.636517       -17.3205
 157   2.0000      -0.630408       -17.1543
 158   2.0000      -0.628385       -17.0992
 159   2.0000      -0.626827       -17.0568
 160   2.0000      -0.626297       -17.0424
 161   2.0000      -0.624175       -16.9847
 162   2.0000      -0.607345       -16.5267
 163   2.0000      -0.604672       -16.4540
 164   2.0000      -0.593171       -16.1410
 165   2.0000      -0.592501       -16.1228
 166   2.0000      -0.586568       -15.9613
 167   2.0000      -0.586040       -15.9470
 168   2.0000      -0.585538       -15.9333
 169   2.0000      -0.576707       -15.6930
 170   2.0000      -0.571603       -15.5541
 171   2.0000      -0.568893       -15.4804
 172   2.0000      -0.567760       -15.4495
 173   2.0000      -0.557242       -15.1633
 174   2.0000      -0.554247       -15.0818
 175   2.0000      -0.545647       -14.8478
 176   2.0000      -0.545339       -14.8394
 177   2.0000      -0.543415       -14.7871
 178   2.0000      -0.539482       -14.6801
 179   2.0000      -0.534384       -14.5413
 180   2.0000      -0.533566       -14.5191
 181   2.0000      -0.533022       -14.5043
 182   2.0000      -0.531237       -14.4557
 183   2.0000      -0.525106       -14.2889
 184   2.0000      -0.524512       -14.2727
 185   2.0000      -0.523708       -14.2508
 186   2.0000      -0.521069       -14.1790
 187   2.0000      -0.519981       -14.1494
 188   2.0000      -0.514762       -14.0074
 189   2.0000      -0.513161       -13.9638
 190   2.0000      -0.509608       -13.8671
 191   2.0000      -0.507226       -13.8023
 192   2.0000      -0.503983       -13.7141
 193   2.0000      -0.503683       -13.7059
 194   2.0000      -0.499956       -13.6045
 195   2.0000      -0.497714       -13.5435
 196   2.0000      -0.496913       -13.5217
 197   2.0000      -0.494289       -13.4503
 198   2.0000      -0.488013       -13.2795
 199   2.0000      -0.487282       -13.2596
 200   2.0000      -0.482311       -13.1243
 201   2.0000      -0.481944       -13.1144
 202   2.0000      -0.479795       -13.0559
 203   2.0000      -0.477450       -12.9921
 204   2.0000      -0.473893       -12.8953
 205   2.0000      -0.473032       -12.8719
 206   2.0000      -0.469292       -12.7701
 207   2.0000      -0.468586       -12.7509
 208   2.0000      -0.467320       -12.7164
 209   2.0000      -0.464669       -12.6443
 210   2.0000      -0.460075       -12.5193
 211   2.0000      -0.456399       -12.4192
 212   2.0000      -0.453483       -12.3399
 213   2.0000      -0.448671       -12.2090
 214   2.0000      -0.447478       -12.1765
 215   2.0000      -0.445916       -12.1340
 216   2.0000      -0.444416       -12.0932
 217   2.0000      -0.442153       -12.0316
 218   2.0000      -0.438736       -11.9386
 219   2.0000      -0.437671       -11.9096
 220   2.0000      -0.436512       -11.8781
 221   2.0000      -0.435885       -11.8610
 222   2.0000      -0.431289       -11.7360
 223   2.0000      -0.430810       -11.7229
 224   2.0000      -0.428188       -11.6516
 225   2.0000      -0.428012       -11.6468
 226   2.0000      -0.426206       -11.5977
 227   2.0000      -0.424698       -11.5566
 228   2.0000      -0.423671       -11.5287
 229   2.0000      -0.421047       -11.4573
 230   2.0000      -0.419902       -11.4261
 231   2.0000      -0.418992       -11.4014
 232   2.0000      -0.414249       -11.2723
 233   2.0000      -0.413684       -11.2569
 234   2.0000      -0.412620       -11.2280
 235   2.0000      -0.411551       -11.1989
 236   2.0000      -0.403898       -10.9906
 237   2.0000      -0.399673       -10.8757
 238   2.0000      -0.393772       -10.7151
 239   2.0000      -0.390923       -10.6376
 240   2.0000      -0.389176       -10.5900
 241   2.0000      -0.378016       -10.2863
 242   2.0000      -0.375319       -10.2129
 243   2.0000      -0.368150       -10.0179
 244   2.0000      -0.361255        -9.8302
 245   2.0000      -0.352060        -9.5800
 246   2.0000      -0.343750        -9.3539
 247   2.0000      -0.337992        -9.1972
 248   2.0000      -0.336976        -9.1696
 249   2.0000      -0.335333        -9.1249
 250   2.0000      -0.332703        -9.0533
 251   2.0000      -0.329204        -8.9581
 252   2.0000      -0.328938        -8.9509
 253   2.0000      -0.317263        -8.6332
 254   2.0000      -0.312460        -8.5025
 255   2.0000      -0.302025        -8.2185
 256   2.0000      -0.292163        -7.9502
 257   2.0000      -0.291375        -7.9287
 258   2.0000      -0.287286        -7.8174
 259   2.0000      -0.286507        -7.7962
 260   2.0000      -0.265819        -7.2333
 261   2.0000      -0.242126        -6.5886
 262   0.0000      -0.092235        -2.5098
 263   0.0000      -0.083973        -2.2850
 264   0.0000      -0.072698        -1.9782
 265   0.0000      -0.066635        -1.8132
 266   0.0000      -0.058432        -1.5900

MULLIKEN ATOMIC CHARGES
-----------------------
   0 C :   -0.127775
   1 C :    0.119257
   2 O :   -0.151718
   3 C :    0.011211
   4 C :   -0.006811
   5 C :    0.235726
   6 C :   -0.318488
   7 C :   -0.199572
   8 N :    0.173362
   9 C :   -0.176960
  10 N :    0.155589
  11 C :   -0.018917
  12 C :    0.007860
  13 C :    0.076608
  14 C :    0.032354
  15 C :   -0.022869
  16 C :    0.038685
  17 C :    0.036071
  18 C :   -0.018357
  19 C :    0.055220
  20 C :   -0.107949
  21 C :    0.018219
  22 C :   -0.018997
  23 C :   -0.066664
  24 S :    0.162468
  25 C :   -0.060518
  26 C :   -0.016041
  27 S :    0.165990
  28 C :   -0.033758
  29 C :   -0.107753
  30 S :    0.124250
  31 C :    0.159137
  32 C :   -0.063245
  33 C :   -0.062443
  34 C :    0.162575
  35 C :   -0.053108
  36 N :   -0.026867
  37 C :    0.034970
  38 C :    0.035946
  39 N :   -0.028606
  40 C :   -0.044013
  41 C :   -0.104288
  42 C :   -0.040124
  43 C :   -0.009401
  44 C :   -0.064850
  45 S :    0.123534
  46 C :   -0.056897
  47 C :   -0.045643
  48 S :    0.168617
  49 C :    0.014405
  50 C :   -0.112245
  51 S :    0.168224
  52 C :    0.079957
  53 C :   -0.129541
  54 C :    0.117663
  55 O :   -0.152991
  56 C :    0.012056
  57 C :   -0.009841
  58 C :    0.262751
  59 C :   -0.341054
  60 C :   -0.210588
  61 N :    0.179830
  62 C :   -0.174250
  63 N :    0.155627
  64 C :   -0.022976
  65 C :    0.006840
  66 C :    0.076454
  67 C :    0.033738
  68 C :   -0.023152
  69 C :    0.038787
  70 C :    0.035164
  71 C :   -0.017495
  72 H :    0.000526
  73 H :   -0.013887
  74 H :   -0.000902
  75 H :   -0.008060
  76 H :   -0.006320
  77 H :   -0.022722
  78 H :    0.025674
  79 H :   -0.002922
  80 H :   -0.002881
  81 H :   -0.000765
  82 H :   -0.000657
  83 H :    0.016167
  84 H :    0.016021
  85 H :   -0.002268
  86 H :    0.001811
  87 H :    0.020684
  88 H :   -0.000144
  89 H :   -0.014189
  90 H :   -0.000701
  91 H :   -0.007633
  92 H :   -0.006528
  93 H :   -0.022684
Sum of atomic charges:   -0.0000000

LOEWDIN ATOMIC CHARGES
----------------------
   0 C :   -0.095499
   1 C :    0.087234
   2 O :   -0.144026
   3 C :   -0.033814
   4 C :   -0.003484
   5 C :    0.059520
   6 C :   -0.137068
   7 C :   -0.033494
   8 N :   -0.045834
   9 C :   -0.020591
  10 N :   -0.050318
  11 C :   -0.017485
  12 C :    0.018566
  13 C :   -0.010008
  14 C :   -0.003080
  15 C :   -0.002346
  16 C :   -0.012665
  17 C :   -0.013655
  18 C :   -0.012466
  19 C :    0.046390
  20 C :   -0.176193
  21 C :   -0.019322
  22 C :   -0.193182
  23 C :   -0.195597
  24 S :    0.452255
  25 C :   -0.218372
  26 C :   -0.183200
  27 S :    0.414699
  28 C :   -0.052587
  29 C :   -0.146185
  30 S :    0.426955
  31 C :   -0.034394
  32 C :   -0.015699
  33 C :   -0.015294
  34 C :   -0.034531
  35 C :    0.001556
  36 N :   -0.026713
  37 C :    0.008721
  38 C :    0.008715
  39 N :   -0.026798
  40 C :    0.001775
  41 C :   -0.145410
  42 C :   -0.052870
  43 C :   -0.181794
  44 C :   -0.219523
  45 S :    0.427066
  46 C :   -0.197158
  47 C :   -0.189003
  48 S :    0.414496
  49 C :   -0.021820
  50 C :   -0.178715
  51 S :    0.447560
  52 C :    0.042408
  53 C :   -0.095424
  54 C :    0.087457
  55 O :   -0.144485
  56 C :   -0.033537
  57 C :   -0.004792
  58 C :    0.066797
  59 C :   -0.141223
  60 C :   -0.020620
  61 N :   -0.038190
  62 C :   -0.022045
  63 N :   -0.051807
  64 C :   -0.018316
  65 C :    0.017941
  66 C :   -0.009971
  67 C :   -0.002895
  68 C :   -0.002095
  69 C :   -0.012704
  70 C :   -0.013593
  71 C :   -0.012517
  72 H :    0.039375
  73 H :    0.035300
  74 H :    0.035321
  75 H :    0.032173
  76 H :    0.031809
  77 H :    0.030026
  78 H :    0.051046
  79 H :    0.040176
  80 H :    0.032626
  81 H :    0.025838
  82 H :    0.025687
  83 H :    0.028105
  84 H :    0.028069
  85 H :    0.032789
  86 H :    0.037495
  87 H :    0.044969
  88 H :    0.039113
  89 H :    0.035133
  90 H :    0.035273
  91 H :    0.032282
  92 H :    0.031778
  93 H :    0.029914

  Mayer bond orders larger than 0.100000
B(  0-C ,  1-C ) :   0.9546 B(  0-C ,  5-C ) :   1.0242 B(  0-C , 19-C ) :   1.6674
B(  1-C ,  2-O ) :   2.1991 B(  1-C ,  3-C ) :   0.9406 B(  3-C ,  4-C ) :   1.4160
B(  3-C , 14-C ) :   1.2354 B(  4-C ,  5-C ) :   1.0038 B(  4-C , 11-C ) :   1.2627
B(  5-C ,  6-C ) :   1.6637 B(  6-C ,  7-C ) :   1.1489 B(  6-C ,  9-C ) :   1.1315
B(  7-C ,  8-N ) :   3.0263 B(  9-C , 10-N ) :   2.9975 B( 11-C , 12-C ) :   1.4684
B( 11-C , 72-H ) :   0.9862 B( 12-C , 13-C ) :   1.2244 B( 12-C , 73-H ) :   0.9932
B( 13-C , 14-C ) :   1.2438 B( 13-C , 18-C ) :   1.2406 B( 14-C , 15-C ) :   1.2763
B( 15-C , 16-C ) :   1.4760 B( 15-C , 74-H ) :   0.9857 B( 16-C , 17-C ) :   1.2562
B( 16-C , 75-H ) :   0.9869 B( 17-C , 18-C ) :   1.4957 B( 17-C , 76-H ) :   0.9889
B( 18-C , 77-H ) :   0.9968 B( 19-C , 20-C ) :   1.1217 B( 19-C , 78-H ) :   0.9481
B( 20-C , 21-C ) :   1.4622 B( 20-C , 24-S ) :   1.0841 B( 21-C , 22-C ) :   1.2858
B( 21-C , 79-H ) :   1.0036 B( 22-C , 23-C ) :   1.4317 B( 22-C , 27-S ) :   1.0455
B( 23-C , 24-S ) :   1.0884 B( 23-C , 25-C ) :   1.3135 B( 25-C , 26-C ) :   1.4501
B( 25-C , 30-S ) :   1.0708 B( 26-C , 27-S ) :   1.0591 B( 26-C , 28-C ) :   1.2202
B( 28-C , 29-C ) :   1.5467 B( 28-C , 80-H ) :   0.9904 B( 29-C , 30-S ) :   1.0857
B( 29-C , 31-C ) :   1.1046 B( 31-C , 32-C ) :   1.3962 B( 31-C , 34-C ) :   0.1161
B( 31-C , 40-C ) :   1.2228 B( 32-C , 33-C ) :   1.2947 B( 32-C , 81-H ) :   0.9858
B( 33-C , 34-C ) :   1.3968 B( 33-C , 82-H ) :   0.9849 B( 34-C , 35-C ) :   1.2225
B( 34-C , 41-C ) :   1.1049 B( 35-C , 36-N ) :   1.4757 B( 35-C , 40-C ) :   1.2293
B( 36-N , 37-C ) :   1.6359 B( 37-C , 38-C ) :   1.2386 B( 37-C , 83-H ) :   0.9742
B( 38-C , 39-N ) :   1.6378 B( 38-C , 84-H ) :   0.9740 B( 39-N , 40-C ) :   1.4730
B( 41-C , 42-C ) :   1.5459 B( 41-C , 45-S ) :   1.0856 B( 42-C , 43-C ) :   1.2213
B( 42-C , 85-H ) :   0.9897 B( 43-C , 44-C ) :   1.4541 B( 43-C , 48-S ) :   1.0560
B( 44-C , 45-S ) :   1.0708 B( 44-C , 46-C ) :   1.3044 B( 46-C , 47-C ) :   1.4327
B( 46-C , 51-S ) :   1.0961 B( 47-C , 48-S ) :   1.0457 B( 47-C , 49-C ) :   1.3362
B( 49-C , 50-C ) :   1.4512 B( 49-C , 86-H ) :   0.9871 B( 50-C , 51-S ) :   1.0770
B( 50-C , 52-C ) :   1.1418 B( 52-C , 53-C ) :   1.6692 B( 52-C , 87-H ) :   0.9236
B( 53-C , 54-C ) :   0.9635 B( 53-C , 58-C ) :   1.0352 B( 54-C , 55-O ) :   2.1865
B( 54-C , 56-C ) :   0.9391 B( 56-C , 57-C ) :   1.4218 B( 56-C , 67-C ) :   1.2367
B( 57-C , 58-C ) :   0.9984 B( 57-C , 64-C ) :   1.2595 B( 58-C , 59-C ) :   1.6414
B( 59-C , 60-C ) :   1.1673 B( 59-C , 62-C ) :   1.1250 B( 60-C , 61-N ) :   3.0093
B( 62-C , 63-N ) :   2.9953 B( 64-C , 65-C ) :   1.4681 B( 64-C , 88-H ) :   0.9866
B( 65-C , 66-C ) :   1.2251 B( 65-C , 89-H ) :   0.9938 B( 66-C , 67-C ) :   1.2411
B( 66-C , 71-C ) :   1.2397 B( 67-C , 68-C ) :   1.2739 B( 68-C , 69-C ) :   1.4762
B( 68-C , 90-H ) :   0.9866 B( 69-C , 70-C ) :   1.2532 B( 69-C , 91-H ) :   0.9877
B( 70-C , 71-C ) :   1.4964 B( 70-C , 92-H ) :   0.9894 B( 71-C , 93-H ) :   0.9975

-----------------------------------------------------------------------------
         ABSORPTION SPECTRUM VIA TRANSITION ELECTRIC DIPOLE MOMENTS
-----------------------------------------------------------------------------
State   Energy  Wavelength   fosc         T2         TX        TY        TZ
        (cm-1)    (nm)                  (au**2)     (au)      (au)      (au)
-----------------------------------------------------------------------------
   0   17691.5    565.2   2.153337839  40.07039   4.84918  -1.29621  -3.85690
   1   19904.0    502.4   0.216363672   3.57864   1.10535   1.53431  -0.05234
   2   22203.1    450.4   0.234691626   3.47984   1.28622   0.70719  -1.15125
   3   24640.5    405.8   0.171772922   2.29499  -0.86334  -1.22760  -0.20645
   4   25228.7    396.4   0.216658168   2.82720   1.29986  -0.59772  -0.88335
   5   25737.0    388.5   0.032383494   0.41423  -0.06875   0.37474   0.51872
   6   26275.2    380.6   0.085782570   1.07480  -0.38585  -0.85116  -0.44883
   7   26652.6    375.2   0.122024876   1.50724   0.03528   0.74746   0.97330
   8   27724.2    360.7   0.198337751   2.35517   0.33223  -0.38683  -1.44746
   9   27914.6    358.2   0.160972951   1.89844   0.87967   0.99876  -0.35649
  10   29033.7    344.4   0.105257162   1.19351  -0.00826  -1.04341   0.32364
  11   30129.7    331.9   0.011638916   0.12717  -0.06220  -0.35098   0.01093
  12   30301.7    330.0   0.004498699   0.04888  -0.14196   0.12844  -0.11058
  13   30533.0    327.5   0.062954682   0.67879  -0.38762  -0.72457  -0.05948
  14   30746.8    325.2   0.066766994   0.71489  -0.04237   0.55504   0.63641
  15   30782.7    324.9   0.080278073   0.85855  -0.54735  -0.53051   0.52679
  16   30931.1    323.3   0.042619316   0.45361  -0.06916  -0.15906  -0.65079
  17   31100.7    321.5   0.019098664   0.20217  -0.21802  -0.39300  -0.01369
  18   31279.7    319.7   0.012935760   0.13615  -0.01453  -0.08773  -0.35810
  19   31889.1    313.6   0.290994364   3.00413  -0.77847  -0.77443   1.34103
  20   32079.9    311.7   0.120807985   1.23976   0.44447   0.82957   0.59500
  21   32764.9    305.2   0.069722068   0.70055  -0.27316   0.09133  -0.78587
  22   32933.4    303.6   0.002783173   0.02782  -0.09966   0.11081  -0.07490
  23   33034.2    302.7   0.572534939   5.70576   0.86037  -0.82580  -2.06968
  24   33183.0    301.4   0.433715941   4.30294   1.29253   1.32957  -0.92980
  25   33269.3    300.6   0.032526228   0.32186  -0.28548   0.34625   0.34710
  26   33615.8    297.5   0.131468266   1.28752   0.77742   0.31412  -0.76450
  27   34083.9    293.4   0.032149866   0.31053   0.12404   0.08510  -0.53657
  28   34382.6    290.8   0.114829396   1.09949  -0.48732  -0.71576  -0.59135
  29   34787.2    287.5   0.306250345   2.89823   1.25274   0.71035  -0.90790
  30   35186.6    284.2   0.195573262   1.82982  -0.60965  -1.05333  -0.59047
  31   35543.4    281.3   0.048505642   0.44927  -0.02318  -0.30340   0.59723
  32   35944.0    278.2   0.030969937   0.28365  -0.25821  -0.20553   0.41802
  33   36826.2    271.5   0.035281815   0.31541  -0.09529  -0.38719  -0.39548
  34   37067.6    269.8   0.006592163   0.05855  -0.08619  -0.00015   0.22610
  35   37176.9    269.0   0.012089713   0.10706  -0.19201   0.03730   0.26229
  36   37646.2    265.6   0.009577415   0.08375  -0.12354  -0.26164   0.00587
  37   37783.8    264.7   0.043078956   0.37535   0.17150  -0.14774   0.56931
  38   38019.5    263.0   0.002485010   0.02152   0.09928   0.06305  -0.08767
  39   38125.4    262.3   0.111976102   0.96691   0.02974   0.86303   0.47033
  40   38506.5    259.7   0.061036874   0.52184  -0.48070  -0.34824   0.41170
  41   39355.9    254.1   0.016955680   0.14183  -0.02217   0.02184   0.37532
  42   39892.9    250.7   0.207412611   1.71165  -0.47170  -0.93146  -0.78837

FINAL SINGLE POINT ENERGY     -5087.315241812865

DIPOLE MOMENT
-------------
                                X             Y             Z
Electronic contribution:    -12.66339     -18.81207      -1.15425
Nuclear contribution   :     12.98924      19.44427       1.43787
                        -----------------------------------------
Total Dipole Moment    :      0.32585       0.63220       0.28362
                        -----------------------------------------
Magnitude (a.u.)       :      0.76569
Magnitude (Debye)      :      1.94624

Rotational constants in cm-1:     0.001824     0.000178     0.000165
Rotational constants in MHz :    54.686858     5.335114     4.956106

                             ****ORCA TERMINATED NORMALLY****
TOTAL RUN TIME: 0 days 0 hours 9 minutes 35 seconds 122 msec
