                         Program Version 4.2.0 -  RELEASE  -
|  1> # ORCA input file
|  2> # SCF done       -197.604021230377          0.000656588407
|  3> ! CAM-B3LYP def2-SVP def2/J RIJCOSX Grid4 TightSCF
|  4> %maxcore 5000
|  5> %tddft
|  6>     Mode sTDDFT
|  7>     Ethresh 5.0
|  8>     maxcore 5000
|  9> end
| 10>
| 11> %pal
| 12>   nprocs 6
| 13>   end
| 14> * xyz 0 1
| 15>    C        7.21750         0.87055         7.39657
| 16>    C        7.66451        -0.25211         8.28683
| 17>    O        6.93530        -0.99290         8.90463
| 18>    C        9.12734        -0.26283         8.16370
| 19>    C        9.54533         0.85280         7.43057
| 20>    C        8.38769         1.66991         7.08373
| 21>    C        8.39861         2.99212         6.74679
| 22>    C        7.23319         3.78780         6.66883
| 23>    N        6.33741         4.50438         6.69197
| 24>    C        9.57682         3.74724         6.56116
| 25>    N       10.50691         4.40030         6.40540
| 26>    C       10.90152         1.04945         7.14346
| 27>    C       11.81079         0.13055         7.60062
| 28>    C       11.42419        -1.00083         8.35316
| 29>    C       10.04614        -1.21570         8.64866
| 30>    C        9.66401        -2.35024         9.39175
| 31>    C       10.61104        -3.23686         9.82757
| 32>    C       11.96940        -3.02961         9.54130
| 33>    C       12.36862        -1.93651         8.82093
| 34>    C        5.95169         0.87499         6.91537
| 35>    C        5.46997         1.59374         5.78588
| 36>    N        6.28389         2.17769         4.92131
| 37>    C        5.49508         2.67569         3.94772
| 38>    C        4.07876         2.36455         4.19682
| 39>    C        3.23560         2.92632         3.12766
| 40>    O        2.03750         2.82802         2.97962
| 41>    C        4.21845         3.61999         2.27218
| 42>    C        5.58835         3.42174         2.80176
| 43>    N        6.49875         4.05697         2.02298
| 44>    C        5.79871         4.63462         1.08059
| 45>    C        4.36541         4.40795         1.17966
| 46>    C        4.04381         1.68139         5.38642
| 47>    C        2.95089         1.16951         6.14199
| 48>    C        1.68918         1.11805         5.65844
| 49>    C        0.55440         0.61049         6.37400
| 50>    C       -0.65158         0.42887         5.71161
| 51>    C       -1.78206        -0.08873         6.34383
| 52>    F       -2.88681        -0.22381         5.60271
| 53>    C       -1.83308        -0.39499         7.69616
| 54>    C       -0.62838        -0.19200         8.41121
| 55>    C        0.56829         0.27242         7.75696
| 56>    N        1.59218         0.33362         8.60750
| 57>    S        1.10607        -0.14342        10.06354
| 58>    N       -0.42306        -0.45163         9.70213
| 59>    C       -3.00689        -0.95743         8.32496
| 60>    N       -3.64983        -1.96291         7.77825
| 61>    C       -4.65085        -2.27351         8.63584
| 62>    C       -4.66327        -1.35794         9.78882
| 63>    C       -5.76271        -1.70645        10.70489
| 64>    O       -6.10836        -1.14780        11.72528
| 65>    C       -6.35373        -2.89372        10.06455
| 66>    C       -5.64991        -3.19629         8.79576
| 67>    N       -6.19098        -4.28935         8.20136
| 68>    C       -7.15174        -4.67475         9.00114
| 69>    C       -7.30738        -3.84938        10.18650
| 70>    C       -3.60165        -0.50463         9.60699
| 71>    C       -3.18406         0.61789        10.37244
| 72>    C       -3.83717         0.98961        11.50033
| 73>    C       -3.49568         2.11843        12.28576
| 74>    C       -4.06062         2.42662        13.48186
| 75>    C       -3.98699         3.80796        14.03767
| 76>    O       -3.19728         4.66653        13.71124
| 77>    C       -5.10649         3.88973        14.99203
| 78>    C       -5.70292         2.63343        15.12386
| 79>    C       -4.96844         1.66364        14.31727
| 80>    C       -4.97534         0.30588        14.47842
| 81>    C       -4.02882        -0.56167        13.88715
| 82>    N       -3.23576        -1.29596        13.50255
| 83>    C       -5.83942        -0.38048        15.35811
| 84>    N       -6.51849        -0.98445        16.05883
| 85>    C       -6.81919         2.45645        15.95112
| 86>    C       -7.31107         3.53865        16.63326
| 87>    C       -6.72476         4.81970        16.53251
| 88>    C       -5.59144         5.01356        15.69014
| 89>    C       -5.01485         6.29563        15.58702
| 90>    C       -5.53874         7.34370        16.29277
| 91>    C       -6.65356         7.15805        17.12570
| 92>    C       -7.23425         5.92502        17.24362
| 93>    H       11.22405         1.89849         6.56332
| 94>    H       12.86069         0.26431         7.38382
| 95>    H        8.61780        -2.50130         9.60561
| 96>    H       10.31755        -4.10599        10.39677
| 97>    H       12.69942        -3.74249         9.89447
| 98>    H       13.41353        -1.77462         8.60003
| 99>    H        5.26446         0.18001         7.38512
|100>    H        6.28848         5.21369         0.31700
|101>    H        3.62613         4.79813         0.50859
|102>    H        3.15239         0.80907         7.14012
|103>    H        1.49146         1.46324         4.65176
|104>    H       -0.72807         0.67593         4.66357
|105>    H       -7.74995        -5.53543         8.75658
|106>    H       -8.03236        -4.00116        10.96147
|107>    H       -2.31776         1.16821        10.03499
|108>    H       -4.70073         0.41600        11.80539
|109>    H       -2.80007         2.84280        11.87618
|110>    H       -7.29146         1.49163        16.03923
|111>    H       -8.17524         3.42145        17.27118
|112>    H       -4.15939         6.42715        14.94348
|113>    H       -5.09658         8.32554        16.21300
|114>    H       -7.05086         7.99962        17.67363
|115>    H       -8.09224         5.77948        17.88395
|116> *
|117>
|118>                          ****END OF INPUT****

CARTESIAN COORDINATES (ANGSTROEM)
---------------------------------
  C      7.217500    0.870550    7.396570
  C      7.664510   -0.252110    8.286830
  O      6.935300   -0.992900    8.904630
  C      9.127340   -0.262830    8.163700
  C      9.545330    0.852800    7.430570
  C      8.387690    1.669910    7.083730
  C      8.398610    2.992120    6.746790
  C      7.233190    3.787800    6.668830
  N      6.337410    4.504380    6.691970
  C      9.576820    3.747240    6.561160
  N     10.506910    4.400300    6.405400
  C     10.901520    1.049450    7.143460
  C     11.810790    0.130550    7.600620
  C     11.424190   -1.000830    8.353160
  C     10.046140   -1.215700    8.648660
  C      9.664010   -2.350240    9.391750
  C     10.611040   -3.236860    9.827570
  C     11.969400   -3.029610    9.541300
  C     12.368620   -1.936510    8.820930
  C      5.951690    0.874990    6.915370
  C      5.469970    1.593740    5.785880
  N      6.283890    2.177690    4.921310
  C      5.495080    2.675690    3.947720
  C      4.078760    2.364550    4.196820
  C      3.235600    2.926320    3.127660
  O      2.037500    2.828020    2.979620
  C      4.218450    3.619990    2.272180
  C      5.588350    3.421740    2.801760
  N      6.498750    4.056970    2.022980
  C      5.798710    4.634620    1.080590
  C      4.365410    4.407950    1.179660
  C      4.043810    1.681390    5.386420
  C      2.950890    1.169510    6.141990
  C      1.689180    1.118050    5.658440
  C      0.554400    0.610490    6.374000
  C     -0.651580    0.428870    5.711610
  C     -1.782060   -0.088730    6.343830
  F     -2.886810   -0.223810    5.602710
  C     -1.833080   -0.394990    7.696160
  C     -0.628380   -0.192000    8.411210
  C      0.568290    0.272420    7.756960
  N      1.592180    0.333620    8.607500
  S      1.106070   -0.143420   10.063540
  N     -0.423060   -0.451630    9.702130
  C     -3.006890   -0.957430    8.324960
  N     -3.649830   -1.962910    7.778250
  C     -4.650850   -2.273510    8.635840
  C     -4.663270   -1.357940    9.788820
  C     -5.762710   -1.706450   10.704890
  O     -6.108360   -1.147800   11.725280
  C     -6.353730   -2.893720   10.064550
  C     -5.649910   -3.196290    8.795760
  N     -6.190980   -4.289350    8.201360
  C     -7.151740   -4.674750    9.001140
  C     -7.307380   -3.849380   10.186500
  C     -3.601650   -0.504630    9.606990
  C     -3.184060    0.617890   10.372440
  C     -3.837170    0.989610   11.500330
  C     -3.495680    2.118430   12.285760
  C     -4.060620    2.426620   13.481860
  C     -3.986990    3.807960   14.037670
  O     -3.197280    4.666530   13.711240
  C     -5.106490    3.889730   14.992030
  C     -5.702920    2.633430   15.123860
  C     -4.968440    1.663640   14.317270
  C     -4.975340    0.305880   14.478420
  C     -4.028820   -0.561670   13.887150
  N     -3.235760   -1.295960   13.502550
  C     -5.839420   -0.380480   15.358110
  N     -6.518490   -0.984450   16.058830
  C     -6.819190    2.456450   15.951120
  C     -7.311070    3.538650   16.633260
  C     -6.724760    4.819700   16.532510
  C     -5.591440    5.013560   15.690140
  C     -5.014850    6.295630   15.587020
  C     -5.538740    7.343700   16.292770
  C     -6.653560    7.158050   17.125700
  C     -7.234250    5.925020   17.243620
  H     11.224050    1.898490    6.563320
  H     12.860690    0.264310    7.383820
  H      8.617800   -2.501300    9.605610
  H     10.317550   -4.105990   10.396770
  H     12.699420   -3.742490    9.894470
  H     13.413530   -1.774620    8.600030
  H      5.264460    0.180010    7.385120
  H      6.288480    5.213690    0.317000
  H      3.626130    4.798130    0.508590
  H      3.152390    0.809070    7.140120
  H      1.491460    1.463240    4.651760
  H     -0.728070    0.675930    4.663570
  H     -7.749950   -5.535430    8.756580
  H     -8.032360   -4.001160   10.961470
  H     -2.317760    1.168210   10.034990
  H     -4.700730    0.416000   11.805390
  H     -2.800070    2.842800   11.876180
  H     -7.291460    1.491630   16.039230
  H     -8.175240    3.421450   17.271180
  H     -4.159390    6.427150   14.943480
  H     -5.096580    8.325540   16.213000
  H     -7.050860    7.999620   17.673630
  H     -8.092240    5.779480   17.883950

 Total Charge           Charge          ....    0
 Multiplicity           Mult            ....    1
 Number of Electrons    NEL             ....  522
 Basis Dimension        Dim             .... 1211

ORBITAL ENERGIES
----------------

  NO   OCC          E(Eh)            E(eV)
   0   2.0000     -89.037571     -2422.8355
   1   2.0000     -24.797730      -674.7805
   2   2.0000     -19.233319      -523.3652
   3   2.0000     -19.222059      -523.0588
   4   2.0000     -19.216950      -522.9198
   5   2.0000     -19.213554      -522.8274
   6   2.0000     -14.453648      -393.3037
   7   2.0000     -14.449671      -393.1955
   8   2.0000     -14.425359      -392.5340
   9   2.0000     -14.423007      -392.4700
  10   2.0000     -14.417848      -392.3296
  11   2.0000     -14.415557      -392.2672
  12   2.0000     -14.414085      -392.2272
  13   2.0000     -14.409065      -392.0906
  14   2.0000     -14.408674      -392.0799
  15   2.0000     -14.404583      -391.9686
  16   2.0000     -10.389598      -282.7153
  17   2.0000     -10.382900      -282.5331
  18   2.0000     -10.381645      -282.4989
  19   2.0000     -10.376218      -282.3512
  20   2.0000     -10.364152      -282.0229
  21   2.0000     -10.356010      -281.8014
  22   2.0000     -10.353479      -281.7325
  23   2.0000     -10.349892      -281.6349
  24   2.0000     -10.347473      -281.5690
  25   2.0000     -10.343004      -281.4475
  26   2.0000     -10.341557      -281.4081
  27   2.0000     -10.339995      -281.3656
  28   2.0000     -10.339102      -281.3413
  29   2.0000     -10.336415      -281.2682
  30   2.0000     -10.336208      -281.2625
  31   2.0000     -10.334683      -281.2210
  32   2.0000     -10.333641      -281.1927
  33   2.0000     -10.328649      -281.0568
  34   2.0000     -10.327861      -281.0354
  35   2.0000     -10.325026      -280.9582
  36   2.0000     -10.323976      -280.9297
  37   2.0000     -10.322183      -280.8809
  38   2.0000     -10.321125      -280.8521
  39   2.0000     -10.320492      -280.8349
  40   2.0000     -10.320479      -280.8345
  41   2.0000     -10.313185      -280.6360
  42   2.0000     -10.311254      -280.5835
  43   2.0000     -10.311019      -280.5771
  44   2.0000     -10.307305      -280.4760
  45   2.0000     -10.307273      -280.4752
  46   2.0000     -10.305586      -280.4292
  47   2.0000     -10.305407      -280.4244
  48   2.0000     -10.305202      -280.4188
  49   2.0000     -10.305142      -280.4172
  50   2.0000     -10.304959      -280.4122
  51   2.0000     -10.304875      -280.4099
  52   2.0000     -10.302919      -280.3567
  53   2.0000     -10.300476      -280.2902
  54   2.0000     -10.299024      -280.2507
  55   2.0000     -10.299005      -280.2502
  56   2.0000     -10.298504      -280.2365
  57   2.0000     -10.295795      -280.1628
  58   2.0000     -10.293983      -280.1135
  59   2.0000     -10.293531      -280.1012
  60   2.0000     -10.293375      -280.0970
  61   2.0000     -10.293060      -280.0884
  62   2.0000     -10.292830      -280.0822
  63   2.0000     -10.292544      -280.0744
  64   2.0000     -10.291677      -280.0508
  65   2.0000     -10.291609      -280.0489
  66   2.0000     -10.291021      -280.0329
  67   2.0000     -10.291018      -280.0328
  68   2.0000     -10.290759      -280.0258
  69   2.0000     -10.290107      -280.0080
  70   2.0000     -10.288884      -279.9748
  71   2.0000     -10.286552      -279.9113
  72   2.0000     -10.285314      -279.8776
  73   2.0000     -10.282656      -279.8053
  74   2.0000     -10.280237      -279.7395
  75   2.0000     -10.279677      -279.7242
  76   2.0000     -10.277752      -279.6718
  77   2.0000     -10.273736      -279.5626
  78   2.0000      -8.129136      -221.2050
  79   2.0000      -6.100401      -166.0003
  80   2.0000      -6.092516      -165.7858
  81   2.0000      -6.091580      -165.7603
  82   2.0000      -1.315097       -35.7856
  83   2.0000      -1.148234       -31.2450
  84   2.0000      -1.139161       -30.9981
  85   2.0000      -1.136621       -30.9290
  86   2.0000      -1.130675       -30.7672
  87   2.0000      -1.128015       -30.6948
  88   2.0000      -1.090540       -29.6751
  89   2.0000      -1.082194       -29.4480
  90   2.0000      -1.070831       -29.1388
  91   2.0000      -1.063142       -28.9296
  92   2.0000      -1.026048       -27.9202
  93   2.0000      -1.011954       -27.5367
  94   2.0000      -1.007150       -27.4060
  95   2.0000      -0.998225       -27.1631
  96   2.0000      -0.994591       -27.0642
  97   2.0000      -0.992989       -27.0206
  98   2.0000      -0.984978       -26.8026
  99   2.0000      -0.983533       -26.7633
 100   2.0000      -0.977721       -26.6051
 101   2.0000      -0.964307       -26.2401
 102   2.0000      -0.948357       -25.8061
 103   2.0000      -0.940375       -25.5889
 104   2.0000      -0.930501       -25.3202
 105   2.0000      -0.928779       -25.2734
 106   2.0000      -0.925005       -25.1707
 107   2.0000      -0.914650       -24.8889
 108   2.0000      -0.912920       -24.8418
 109   2.0000      -0.899025       -24.4637
 110   2.0000      -0.896495       -24.3949
 111   2.0000      -0.890457       -24.2306
 112   2.0000      -0.880159       -23.9503
 113   2.0000      -0.872850       -23.7515
 114   2.0000      -0.870778       -23.6951
 115   2.0000      -0.863182       -23.4884
 116   2.0000      -0.861271       -23.4364
 117   2.0000      -0.855324       -23.2746
 118   2.0000      -0.846914       -23.0457
 119   2.0000      -0.840153       -22.8617
 120   2.0000      -0.837547       -22.7908
 121   2.0000      -0.818448       -22.2711
 122   2.0000      -0.806056       -21.9339
 123   2.0000      -0.791535       -21.5388
 124   2.0000      -0.782384       -21.2897
 125   2.0000      -0.777824       -21.1657
 126   2.0000      -0.767480       -20.8842
 127   2.0000      -0.763896       -20.7867
 128   2.0000      -0.758325       -20.6351
 129   2.0000      -0.752926       -20.4882
 130   2.0000      -0.752002       -20.4630
 131   2.0000      -0.731198       -19.8969
 132   2.0000      -0.724355       -19.7107
 133   2.0000      -0.722160       -19.6510
 134   2.0000      -0.720261       -19.5993
 135   2.0000      -0.712291       -19.3824
 136   2.0000      -0.711514       -19.3613
 137   2.0000      -0.705640       -19.2014
 138   2.0000      -0.702572       -19.1180
 139   2.0000      -0.698725       -19.0133
 140   2.0000      -0.684501       -18.6262
 141   2.0000      -0.675744       -18.3879
 142   2.0000      -0.672153       -18.2902
 143   2.0000      -0.667212       -18.1558
 144   2.0000      -0.662665       -18.0320
 145   2.0000      -0.652223       -17.7479
 146   2.0000      -0.648920       -17.6580
 147   2.0000      -0.644807       -17.5461
 148   2.0000      -0.639141       -17.3919
 149   2.0000      -0.636130       -17.3100
 150   2.0000      -0.630403       -17.1541
 151   2.0000      -0.629218       -17.1219
 152   2.0000      -0.625236       -17.0135
 153   2.0000      -0.623101       -16.9554
 154   2.0000      -0.620732       -16.8910
 155   2.0000      -0.607372       -16.5274
 156   2.0000      -0.606046       -16.4913
 157   2.0000      -0.600781       -16.3481
 158   2.0000      -0.596664       -16.2360
 159   2.0000      -0.594774       -16.1846
 160   2.0000      -0.590428       -16.0664
 161   2.0000      -0.587483       -15.9862
 162   2.0000      -0.584039       -15.8925
 163   2.0000      -0.581558       -15.8250
 164   2.0000      -0.580197       -15.7880
 165   2.0000      -0.569820       -15.5056
 166   2.0000      -0.569428       -15.4949
 167   2.0000      -0.566129       -15.4052
 168   2.0000      -0.561622       -15.2825
 169   2.0000      -0.557429       -15.1684
 170   2.0000      -0.553957       -15.0739
 171   2.0000      -0.552920       -15.0457
 172   2.0000      -0.551422       -15.0050
 173   2.0000      -0.548011       -14.9121
 174   2.0000      -0.546821       -14.8797
 175   2.0000      -0.545316       -14.8388
 176   2.0000      -0.542489       -14.7619
 177   2.0000      -0.539523       -14.6812
 178   2.0000      -0.533124       -14.5070
 179   2.0000      -0.530503       -14.4357
 180   2.0000      -0.529572       -14.4104
 181   2.0000      -0.528910       -14.3924
 182   2.0000      -0.524217       -14.2647
 183   2.0000      -0.521027       -14.1779
 184   2.0000      -0.519678       -14.1411
 185   2.0000      -0.517899       -14.0927
 186   2.0000      -0.515763       -14.0346
 187   2.0000      -0.513410       -13.9706
 188   2.0000      -0.512103       -13.9350
 189   2.0000      -0.510657       -13.8957
 190   2.0000      -0.508918       -13.8484
 191   2.0000      -0.507755       -13.8167
 192   2.0000      -0.502439       -13.6721
 193   2.0000      -0.498992       -13.5783
 194   2.0000      -0.496076       -13.4989
 195   2.0000      -0.493759       -13.4359
 196   2.0000      -0.489673       -13.3247
 197   2.0000      -0.489347       -13.3158
 198   2.0000      -0.486659       -13.2427
 199   2.0000      -0.486373       -13.2349
 200   2.0000      -0.484913       -13.1951
 201   2.0000      -0.483488       -13.1564
 202   2.0000      -0.479893       -13.0586
 203   2.0000      -0.477731       -12.9997
 204   2.0000      -0.476444       -12.9647
 205   2.0000      -0.475476       -12.9384
 206   2.0000      -0.472617       -12.8606
 207   2.0000      -0.471592       -12.8327
 208   2.0000      -0.468784       -12.7563
 209   2.0000      -0.468493       -12.7483
 210   2.0000      -0.464890       -12.6503
 211   2.0000      -0.462601       -12.5880
 212   2.0000      -0.459033       -12.4909
 213   2.0000      -0.454048       -12.3553
 214   2.0000      -0.447563       -12.1788
 215   2.0000      -0.447251       -12.1703
 216   2.0000      -0.445980       -12.1357
 217   2.0000      -0.442954       -12.0534
 218   2.0000      -0.441481       -12.0133
 219   2.0000      -0.438004       -11.9187
 220   2.0000      -0.437957       -11.9174
 221   2.0000      -0.434032       -11.8106
 222   2.0000      -0.433665       -11.8006
 223   2.0000      -0.430922       -11.7260
 224   2.0000      -0.429538       -11.6883
 225   2.0000      -0.428030       -11.6473
 226   2.0000      -0.426624       -11.6090
 227   2.0000      -0.425393       -11.5755
 228   2.0000      -0.419201       -11.4070
 229   2.0000      -0.415688       -11.3114
 230   2.0000      -0.412491       -11.2245
 231   2.0000      -0.410019       -11.1572
 232   2.0000      -0.407759       -11.0957
 233   2.0000      -0.398452       -10.8424
 234   2.0000      -0.396598       -10.7920
 235   2.0000      -0.387046       -10.5321
 236   2.0000      -0.384979       -10.4758
 237   2.0000      -0.377835       -10.2814
 238   2.0000      -0.372702       -10.1417
 239   2.0000      -0.366805        -9.9813
 240   2.0000      -0.366532        -9.9738
 241   2.0000      -0.363383        -9.8882
 242   2.0000      -0.360880        -9.8200
 243   2.0000      -0.356515        -9.7013
 244   2.0000      -0.355090        -9.6625
 245   2.0000      -0.349242        -9.5034
 246   2.0000      -0.347196        -9.4477
 247   2.0000      -0.344730        -9.3806
 248   2.0000      -0.342983        -9.3330
 249   2.0000      -0.339755        -9.2452
 250   2.0000      -0.337303        -9.1785
 251   2.0000      -0.333853        -9.0846
 252   2.0000      -0.330487        -8.9930
 253   2.0000      -0.328728        -8.9452
 254   2.0000      -0.325380        -8.8541
 255   2.0000      -0.312894        -8.5143
 256   2.0000      -0.312202        -8.4954
 257   2.0000      -0.300374        -8.1736
 258   2.0000      -0.289801        -7.8859
 259   2.0000      -0.281811        -7.6685
 260   2.0000      -0.277014        -7.5379
 261   0.0000      -0.133785        -3.6405
 262   0.0000      -0.117347        -3.1932
 263   0.0000      -0.089668        -2.4400
 264   0.0000      -0.083806        -2.2805
 265   0.0000      -0.075910        -2.0656

MULLIKEN ATOMIC CHARGES
-----------------------
   0 C :   -0.049871
   1 C :    0.113162
   2 O :   -0.138451
   3 C :    0.006105
   4 C :    0.004445
   5 C :    0.254835
   6 C :   -0.258962
   7 C :   -0.179895
   8 N :    0.166780
   9 C :   -0.194172
  10 N :    0.166146
  11 C :   -0.020779
  12 C :    0.010689
  13 C :    0.077413
  14 C :    0.040741
  15 C :   -0.027957
  16 C :    0.041257
  17 C :    0.039329
  18 C :   -0.019352
  19 C :   -0.020480
  20 C :    0.038475
  21 N :   -0.057258
  22 C :    0.081644
  23 C :   -0.157519
  24 C :    0.224479
  25 O :   -0.137476
  26 C :   -0.007111
  27 C :   -0.018840
  28 N :   -0.047829
  29 C :    0.097939
  30 C :   -0.095946
  31 C :    0.077866
  32 C :   -0.015750
  33 C :   -0.034346
  34 C :    0.124442
  35 C :   -0.124022
  36 C :    0.268323
  37 F :   -0.154531
  38 C :   -0.049133
  39 C :    0.018824
  40 C :    0.031125
  41 N :   -0.281351
  42 S :    0.538323
  43 N :   -0.259748
  44 C :   -0.026876
  45 N :   -0.017519
  46 C :    0.070604
  47 C :   -0.171202
  48 C :    0.241785
  49 O :   -0.146674
  50 C :   -0.004988
  51 C :   -0.022261
  52 N :   -0.049221
  53 C :    0.093298
  54 C :   -0.095819
  55 C :    0.085652
  56 C :    0.004879
  57 C :    0.008793
  58 C :    0.032676
  59 C :   -0.097132
  60 C :    0.127943
  61 O :   -0.150258
  62 C :   -0.002201
  63 C :    0.001675
  64 C :    0.257652
  65 C :   -0.296654
  66 C :   -0.207273
  67 N :    0.166440
  68 C :   -0.178959
  69 N :    0.154317
  70 C :   -0.019893
  71 C :    0.004523
  72 C :    0.078787
  73 C :    0.036946
  74 C :   -0.026288
  75 C :    0.037320
  76 C :    0.039194
  77 C :   -0.022492
  78 H :    0.005918
  79 H :   -0.007707
  80 H :    0.001408
  81 H :   -0.003461
  82 H :   -0.002991
  83 H :   -0.017778
  84 H :    0.021509
  85 H :    0.016833
  86 H :    0.000832
  87 H :    0.007543
  88 H :   -0.004831
  89 H :    0.011449
  90 H :    0.013279
  91 H :    0.001857
  92 H :   -0.017467
  93 H :    0.036902
  94 H :    0.007570
  95 H :    0.001487
  96 H :   -0.013162
  97 H :    0.000082
  98 H :   -0.008033
  99 H :   -0.007870
 100 H :   -0.021708
Sum of atomic charges:   -0.0000000

LOEWDIN ATOMIC CHARGES
----------------------
   0 C :   -0.010451
   1 C :    0.087200
   2 O :   -0.129914
   3 C :   -0.037845
   4 C :    0.005424
   5 C :    0.060913
   6 C :   -0.094366
   7 C :   -0.014636
   8 N :   -0.044396
   9 C :   -0.017041
  10 N :   -0.035887
  11 C :   -0.016844
  12 C :    0.027806
  13 C :   -0.010073
  14 C :   -0.001269
  15 C :   -0.002780
  16 C :   -0.007915
  17 C :   -0.010635
  18 C :   -0.009477
  19 C :    0.020826
  20 C :    0.062506
  21 N :   -0.077819
  22 C :    0.047436
  23 C :   -0.040252
  24 C :    0.071576
  25 O :   -0.136689
  26 C :   -0.036120
  27 C :    0.038784
  28 N :   -0.091973
  29 C :    0.086122
  30 C :   -0.027274
  31 C :   -0.017612
  32 C :   -0.014756
  33 C :    0.011904
  34 C :   -0.001738
  35 C :   -0.026068
  36 C :    0.121385
  37 F :   -0.037266
  38 C :   -0.087244
  39 C :   -0.039175
  40 C :   -0.045268
  41 N :   -0.277181
  42 S :    0.665819
  43 N :   -0.280659
  44 C :    0.079860
  45 N :   -0.080677
  46 C :    0.048522
  47 C :   -0.037118
  48 C :    0.078032
  49 O :   -0.137956
  50 C :   -0.034794
  51 C :    0.032169
  52 N :   -0.091674
  53 C :    0.080479
  54 C :   -0.028068
  55 C :   -0.017178
  56 C :    0.012360
  57 C :   -0.000592
  58 C :    0.055277
  59 C :   -0.070772
  60 C :    0.086024
  61 O :   -0.142526
  62 C :   -0.035091
  63 C :   -0.000883
  64 C :    0.066327
  65 C :   -0.116619
  66 C :   -0.018683
  67 N :   -0.047470
  68 C :   -0.014526
  69 N :   -0.048710
  70 C :   -0.016702
  71 C :    0.018996
  72 C :   -0.010270
  73 C :   -0.002987
  74 C :   -0.002710
  75 C :   -0.013070
  76 C :   -0.013881
  77 C :   -0.012737
  78 H :    0.041578
  79 H :    0.037708
  80 H :    0.035751
  81 H :    0.034113
  82 H :    0.033537
  83 H :    0.031673
  84 H :    0.048897
  85 H :    0.026755
  86 H :    0.036807
  87 H :    0.029025
  88 H :    0.034268
  89 H :    0.050158
  90 H :    0.025282
  91 H :    0.037072
  92 H :    0.029088
  93 H :    0.032573
  94 H :    0.042102
  95 H :    0.040114
  96 H :    0.035275
  97 H :    0.035223
  98 H :    0.032123
  99 H :    0.031464
 100 H :    0.029983

  Mayer bond orders larger than 0.100000
B(  0-C ,  1-C ) :   0.9290 B(  0-C ,  5-C ) :   1.0039 B(  0-C , 19-C ) :   1.7216
B(  1-C ,  2-O ) :   2.1987 B(  1-C ,  3-C ) :   0.9494 B(  3-C ,  4-C ) :   1.3982
B(  3-C , 14-C ) :   1.2304 B(  4-C ,  5-C ) :   1.0028 B(  4-C , 11-C ) :   1.2651
B(  5-C ,  6-C ) :   1.7094 B(  6-C ,  7-C ) :   1.1515 B(  6-C ,  9-C ) :   1.1353
B(  7-C ,  8-N ) :   2.9864 B(  9-C , 10-N ) :   2.9939 B( 11-C , 12-C ) :   1.4668
B( 11-C , 78-H ) :   0.9862 B( 12-C , 13-C ) :   1.2221 B( 12-C , 79-H ) :   0.9944
B( 13-C , 14-C ) :   1.2424 B( 13-C , 18-C ) :   1.2408 B( 14-C , 15-C ) :   1.2798
B( 15-C , 16-C ) :   1.4726 B( 15-C , 80-H ) :   0.9872 B( 16-C , 17-C ) :   1.2583
B( 16-C , 81-H ) :   0.9870 B( 17-C , 18-C ) :   1.4923 B( 17-C , 82-H ) :   0.9893
B( 18-C , 83-H ) :   0.9984 B( 19-C , 20-C ) :   1.0671 B( 19-C , 84-H ) :   0.9410
B( 20-C , 21-N ) :   1.5710 B( 20-C , 22-C ) :   0.1107 B( 20-C , 31-C ) :   1.0199
B( 21-N , 22-C ) :   1.3143 B( 22-C , 23-C ) :   1.0573 B( 22-C , 27-C ) :   1.4368
B( 23-C , 24-C ) :   0.8960 B( 23-C , 31-C ) :   1.5513 B( 24-C , 25-O ) :   2.1931
B( 24-C , 26-C ) :   0.9253 B( 26-C , 27-C ) :   1.0600 B( 26-C , 30-C ) :   1.6215
B( 27-C , 28-N ) :   1.3050 B( 28-N , 29-C ) :   1.6659 B( 29-C , 30-C ) :   1.0530
B( 29-C , 85-H ) :   0.9885 B( 30-C , 86-H ) :   1.0110 B( 31-C , 32-C ) :   1.1052
B( 32-C , 33-C ) :   1.6626 B( 32-C , 87-H ) :   0.9408 B( 33-C , 34-C ) :   1.1076
B( 33-C , 88-H ) :   0.9593 B( 34-C , 35-C ) :   1.3957 B( 34-C , 38-C ) :   0.1129
B( 34-C , 40-C ) :   1.1455 B( 35-C , 36-C ) :   1.1757 B( 35-C , 89-H ) :   1.0128
B( 36-C , 37-F ) :   1.1727 B( 36-C , 38-C ) :   1.4323 B( 38-C , 39-C ) :   1.2291
B( 38-C , 44-C ) :   0.9288 B( 39-C , 40-C ) :   1.1647 B( 39-C , 43-N ) :   1.5483
B( 40-C , 41-N ) :   1.5256 B( 41-N , 42-S ) :   1.2664 B( 41-N , 43-N ) :   0.1436
B( 42-S , 43-N ) :   1.2649 B( 44-C , 45-N ) :   1.7025 B( 44-C , 46-C ) :   0.1289
B( 44-C , 55-C ) :   1.0452 B( 45-N , 46-C ) :   1.3109 B( 46-C , 47-C ) :   1.0580
B( 46-C , 51-C ) :   1.4504 B( 47-C , 48-C ) :   0.8943 B( 47-C , 55-C ) :   1.5463
B( 48-C , 49-O ) :   2.1498 B( 48-C , 50-C ) :   0.9361 B( 49-O , 93-H ) :   0.1065
B( 50-C , 51-C ) :   1.0597 B( 50-C , 54-C ) :   1.6164 B( 51-C , 52-N ) :   1.3001
B( 52-N , 53-C ) :   1.6681 B( 53-C , 54-C ) :   1.0575 B( 53-C , 90-H ) :   0.9886
B( 54-C , 91-H ) :   1.0116 B( 55-C , 56-C ) :   1.1099 B( 56-C , 57-C ) :   1.6717
B( 56-C , 92-H ) :   0.9690 B( 57-C , 58-C ) :   1.0948 B( 57-C , 93-H ) :   0.9317
B( 58-C , 59-C ) :   1.6530 B( 58-C , 94-H ) :   0.9660 B( 59-C , 60-C ) :   0.9500
B( 59-C , 64-C ) :   1.0176 B( 60-C , 61-O ) :   2.1990 B( 60-C , 62-C ) :   0.9405
B( 62-C , 63-C ) :   1.4114 B( 62-C , 73-C ) :   1.2370 B( 63-C , 64-C ) :   1.0044
B( 63-C , 70-C ) :   1.2639 B( 64-C , 65-C ) :   1.6753 B( 65-C , 66-C ) :   1.1500
B( 65-C , 68-C ) :   1.1338 B( 66-C , 67-N ) :   3.0126 B( 68-C , 69-N ) :   2.9942
B( 70-C , 71-C ) :   1.4656 B( 70-C , 95-H ) :   0.9866 B( 71-C , 72-C ) :   1.2230
B( 71-C , 96-H ) :   0.9944 B( 72-C , 73-C ) :   1.2431 B( 72-C , 77-C ) :   1.2389
B( 73-C , 74-C ) :   1.2758 B( 74-C , 75-C ) :   1.4737 B( 74-C , 97-H ) :   0.9870
B( 75-C , 76-C ) :   1.2545 B( 75-C , 98-H ) :   0.9878 B( 76-C , 77-C ) :   1.4955
B( 76-C , 99-H ) :   0.9894 B( 77-C ,100-H ) :   0.9980

-----------------------------------------------------------------------------
         ABSORPTION SPECTRUM VIA TRANSITION ELECTRIC DIPOLE MOMENTS
-----------------------------------------------------------------------------
State   Energy  Wavelength   fosc         T2         TX        TY        TZ
        (cm-1)    (nm)                  (au**2)     (au)      (au)      (au)
-----------------------------------------------------------------------------
   0   15522.5    644.2   0.103500861   2.19512  -0.72709  -0.64619   1.11754
   1   17693.6    565.2   0.101455326   1.88771   0.18850   0.99324   0.93040
   2   19772.1    505.8   0.013199056   0.21977   0.12340  -0.34725  -0.28976
   3   20355.2    491.3   0.833226784  13.47604   3.17977   1.38777  -1.19966
   4   21240.6    470.8   0.025214995   0.39081   0.32783  -0.51958   0.11566
   5   22296.8    448.5   0.115853255   1.71057   1.30751  -0.00709  -0.03085
   6   22583.2    442.8   0.456123237   6.64925   1.00278  -1.18542   2.05875
   7   22842.1    437.8   0.046019254   0.66325  -0.02917   0.74961   0.31699
   8   24097.2    415.0   0.202407640   2.76526   0.30397  -1.14132  -1.17058
   9   24218.4    412.9   0.008862909   0.12048  -0.32324  -0.06815  -0.10652
  10   24314.1    411.3   0.242972385   3.28984  -0.15522   0.60248   1.70375
  11   25023.7    399.6   0.027059397   0.35599   0.43476  -0.06109   0.40404
  12   25699.9    389.1   0.111221455   1.42473   0.88590   0.16730  -0.78226
  13   26043.7    384.0   0.081988014   1.03639  -1.01681  -0.03831  -0.03194
  14   26108.9    383.0   0.183921990   2.31910   0.34137   0.53001  -1.38624
  15   26198.6    381.7   0.102512114   1.28817   0.76086   0.28876  -0.79113
  16   26696.8    374.6   0.024834153   0.30624  -0.10156  -0.22128  -0.49695
  17   26847.9    372.5   0.078505134   0.96264   0.36516   0.79087   0.45147
  18   26891.8    371.9   0.002682651   0.03284  -0.00062  -0.05249   0.17345
  19   27264.8    366.8   0.010207108   0.12325  -0.15739  -0.28109  -0.13952
  20   27406.8    364.9   0.122163304   1.46743  -0.21891   0.84974   0.83514
  21   27572.5    362.7   0.016441647   0.19631   0.19202  -0.15172   0.36935
  22   27744.3    360.4   0.052605666   0.62421   0.16199  -0.45541   0.62496
  23   28303.1    353.3   0.020343173   0.23662  -0.46527   0.05705  -0.12998
  24   28398.5    352.1   0.042978863   0.49824  -0.01995  -0.18830  -0.67999
  25   28863.1    346.5   0.040859637   0.46604   0.23438   0.57080  -0.29207
  26   29176.1    342.7   0.010683794   0.12055   0.06851  -0.27631  -0.19877
  27   29720.4    336.5   0.007196945   0.07972   0.25790  -0.11421  -0.01274
  28   30175.8    331.4   0.001184507   0.01292   0.09816  -0.01848  -0.05427
  29   30237.0    330.7   0.075883099   0.82619  -0.16181   0.70479   0.55071
  30   30415.4    328.8   0.082615191   0.89422   0.09585  -0.92679   0.16154
  31   30747.2    325.2   0.035356319   0.37856  -0.31337  -0.38331  -0.36529
  32   30894.6    323.7   0.013934770   0.14849   0.28958  -0.25423  -0.00125
  33   31057.6    322.0   0.021440961   0.22728  -0.33446  -0.10323   0.32366
  34   31198.3    320.5   0.061238008   0.64620   0.55346   0.54069  -0.21802
  35   31413.1    318.3   0.076730378   0.80414  -0.21560  -0.51198  -0.70395
  36   31434.1    318.1   0.043235573   0.45281   0.63342   0.22704  -0.00608
  37   31705.3    315.4   0.304754482   3.16442  -0.96247  -1.49599  -0.00876
  38   31862.6    313.8   0.311102034   3.21438  -0.44176   1.34922  -1.09492
  39   32088.8    311.6   0.208886689   2.14305   0.78090   1.22322   0.19232
  40   32184.6    310.7   0.101483969   1.03807  -0.13505   0.96182   0.30779
  41   32390.9    308.7   0.043677429   0.44392   0.14158  -0.65068  -0.02234
  42   32761.5    305.2   0.082835457   0.83239   0.13681  -0.39482   0.81104
  43   32816.8    304.7   0.311260242   3.12251   0.69791  -1.36135   0.88440
  44   33066.9    302.4   0.030280062   0.30147  -0.02067  -0.06218  -0.54514
  45   33547.8    298.1   0.578962341   5.68148  -0.70696   2.17568   0.66941
  46   34149.4    292.8   0.226903927   2.18743   1.45534   0.19387  -0.17846
  47   34237.9    292.1   0.002286746   0.02199   0.02097   0.13833   0.04913
  48   34347.5    291.1   0.004607623   0.04416   0.17964   0.10844  -0.01145
  49   34863.1    286.8   0.397517775   3.75375  -0.59252   1.65992  -0.80457
  50   34976.8    285.9   0.007310310   0.06881   0.21534  -0.14884   0.01682
  51   35155.5    284.5   0.035685697   0.33418   0.13464  -0.54818  -0.12470
  52   35258.4    283.6   0.074237451   0.69316   0.26487  -0.36858   0.69796
  53   35415.7    282.4   0.036392861   0.33829  -0.04423  -0.57869   0.03814
  54   35605.5    280.9   0.063416429   0.58636  -0.05530   0.67193  -0.36306
  55   35691.4    280.2   0.039804280   0.36715   0.44739  -0.29700  -0.28068
  56   35984.0    277.9   0.027807297   0.25440   0.49088   0.10828  -0.04147
  57   36134.0    276.7   0.022402713   0.20411  -0.32688  -0.14057  -0.27838
  58   36406.3    274.7   0.068873648   0.62280  -0.53340  -0.31200   0.49086
  59   36716.2    272.4   0.056946703   0.51061   0.58378  -0.07499  -0.40519
  60   36856.5    271.3   0.002260066   0.02019  -0.09407  -0.08102  -0.06909
  61   36997.3    270.3   0.010445408   0.09295   0.29207  -0.08594  -0.01597
  62   37136.9    269.3   0.005247183   0.04652  -0.08061  -0.00080   0.20004
  63   37196.3    268.8   0.008358159   0.07398   0.25410  -0.02447  -0.09387
  64   37258.6    268.4   0.017710806   0.15649  -0.24304  -0.24590   0.19224
  65   37551.2    266.3   0.099503824   0.87235  -0.48941   0.76121  -0.23106
  66   38220.3    261.6   0.002037505   0.01755   0.11387  -0.02056  -0.06450
  67   38268.0    261.3   0.026440717   0.22746  -0.31468  -0.25853   0.24821
  68   38407.8    260.4   0.005634299   0.04829  -0.20831   0.00747  -0.06961
  69   38475.9    259.9   0.014508227   0.12414  -0.30806  -0.16170   0.05556
  70   38516.5    259.6   0.001302907   0.01114  -0.00568   0.02025   0.10341
  71   38642.6    258.8   0.083017315   0.70726  -0.80781  -0.18992  -0.13648
  72   38714.1    258.3   0.107749803   0.91627   0.83647  -0.46529  -0.00969
  73   38812.7    257.6   0.029987739   0.25436  -0.46479   0.19331  -0.03089
  74   38941.3    256.8   0.106096009   0.89694  -0.16333  -0.54316  -0.75845
  75   39033.0    256.2   0.017659754   0.14895   0.01910  -0.04049   0.38333
  76   39273.5    254.6   0.025465520   0.21347  -0.02764   0.35401   0.29560
  77   39467.0    253.4   0.051428646   0.42899   0.37801  -0.53172  -0.05806
  78   39726.8    251.7   0.124748947   1.03378   0.15397  -1.00049   0.09539
  79   39795.1    251.3   0.012813017   0.10600  -0.03729   0.24759   0.20811
  80   39878.6    250.8   0.015483136   0.12782  -0.23147   0.10490   0.25147
  81   40107.6    249.3   0.065308972   0.53607  -0.50677  -0.52844   0.00273
  82   40122.4    249.2   0.019640339   0.16115  -0.01758   0.36449   0.16730
  83   40201.8    248.7   0.015863175   0.12990  -0.12730  -0.30835  -0.13645
  84   40242.2    248.5   0.007481809   0.06121   0.01396   0.24105   0.05393
  85   40272.5    248.3   0.056505236   0.46191  -0.62241  -0.06244   0.26573
  86   40312.2    248.1   0.004285114   0.03499   0.00611   0.15135   0.10978

FINAL SINGLE POINT ENERGY     -3718.354770000664

DIPOLE MOMENT
-------------
                                X             Y             Z
Electronic contribution:     -5.86846      -8.49727     -20.75857
Nuclear contribution   :      7.07043       8.41901      20.21542
                        -----------------------------------------
Total Dipole Moment    :      1.20197      -0.07826      -0.54315
                        -----------------------------------------
Magnitude (a.u.)       :      1.32131
Magnitude (Debye)      :      3.35851

Rotational constants in cm-1:     0.001045     0.000309     0.000297
Rotational constants in MHz :    31.343097     9.262594     8.890905

                             ****ORCA TERMINATED NORMALLY****
TOTAL RUN TIME: 0 days 0 hours 13 minutes 59 seconds 963 msec
