                         Program Version 4.2.0 -  RELEASE  -
|  1> # ORCA input file
|  2> # SCF done       -194.643087929267          0.000263716582
|  3> ! CAM-B3LYP def2-SVP def2/J RIJCOSX Grid4 TightSCF
|  4> %maxcore 5000
|  5> %tddft
|  6>     Mode sTDDFT
|  7>     Ethresh 5.0
|  8>     maxcore 5000
|  9> end
| 10>
| 11> %pal
| 12>   nprocs 6
| 13>   end
| 14> * xyz 0 1
| 15>    C        5.21344         0.69094        -0.45155
| 16>    C        4.35235         1.63983        -1.22086
| 17>    O        3.23092         1.40252        -1.62002
| 18>    C        5.13019         2.87495        -1.35424
| 19>    C        6.37411         2.69991        -0.74830
| 20>    C        6.49247         1.33576        -0.24024
| 21>    C        7.66728         0.76967         0.18844
| 22>    C        7.87556        -0.57933         0.52427
| 23>    N        8.16637        -1.65738         0.79604
| 24>    C        8.88621         1.46717         0.28418
| 25>    N        9.91915         1.96184         0.38625
| 26>    C        7.29438         3.75849        -0.72533
| 27>    C        6.96298         4.94268        -1.32758
| 28>    C        5.72157         5.13874        -1.97097
| 29>    C        4.76752         4.08225        -1.98322
| 30>    C        3.52448         4.27933        -2.61771
| 31>    C        3.24079         5.47511        -3.21847
| 32>    C        4.17921         6.51903        -3.21056
| 33>    C        5.39283         6.35556        -2.60025
| 34>    C        4.69403        -0.53675        -0.21963
| 35>    C        5.09968        -1.66880         0.55801
| 36>    S        5.38445        -1.60669         2.27710
| 37>    C        5.46260        -3.30710         2.37169
| 38>    C        5.31693        -3.91405         1.15146
| 39>    C        5.36853        -5.30005         0.93603
| 40>    N        5.40773        -6.42473         0.71176
| 41>    C        5.10423        -2.97486         0.09448
| 42>    N        4.99203        -3.28659        -1.24312
| 43>    C        5.64881        -2.34644        -2.10759
| 44>    C        7.00166        -2.19965        -2.02363
| 45>    C        7.60103        -1.04286        -2.57328
| 46>    C        8.90857        -0.58139        -2.49976
| 47>    C       10.05904        -1.42572        -2.04740
| 48>    C       10.52197        -2.35474        -3.19478
| 49>    N        9.54766        -3.39926        -3.43082
| 50>    C       11.26186        -0.69537        -1.42744
| 51>    N       12.14566        -0.06104        -2.40531
| 52>    C        8.88220         0.77660        -2.99825
| 53>    C        9.84345         1.71309        -3.09110
| 54>    C        9.55651         3.09519        -3.56712
| 55>    C        8.14199         3.32373        -4.00309
| 56>    C        7.19860         2.36622        -3.93176
| 57>    C        7.50871         1.08643        -3.41978
| 58>    C        6.74322        -0.04320        -3.18867
| 59>    C        5.38360        -0.34066        -3.43223
| 60>    C        4.85163        -1.47713        -2.90631
| 61>    C       10.55882         3.46338        -4.63313
| 62>    C       10.52611         4.55269        -5.40308
| 63>    C       11.46223         4.78752        -6.47554
| 64>    S       11.97091         6.39469        -6.89219
| 65>    C       12.99083         5.80671        -8.12769
| 66>    C       12.94470         4.44194        -8.24828
| 67>    C       13.66544         3.76811        -9.25268
| 68>    N       14.25171         3.26200       -10.09786
| 69>    C       12.05862         3.84774        -7.29607
| 70>    N       11.71007         2.51215        -7.21539
| 71>    C       12.41481         1.45731        -7.62069
| 72>    C       12.12027         0.12304        -7.52141
| 73>    C       13.21006        -0.79544        -7.94236
| 74>    O       14.28801        -0.45584        -8.38494
| 75>    C       12.71793        -2.15656        -7.67853
| 76>    C       11.43525        -2.07809        -7.14226
| 77>    C       11.02156        -0.67392        -7.03724
| 78>    C        9.78221        -0.28618        -6.57259
| 79>    C        9.25609         1.01192        -6.58483
| 80>    N        8.76945         2.05698        -6.59436
| 81>    C        8.81319        -1.15104        -6.02491
| 82>    N        7.97610        -1.77212        -5.54024
| 83>    C       10.73640        -3.25305        -6.82917
| 84>    C       11.34340        -4.46456        -7.03469
| 85>    C       12.64617        -4.57135        -7.56569
| 86>    C       13.36065        -3.38713        -7.90872
| 87>    C       14.65452        -3.49266        -8.45996
| 88>    C       15.21694        -4.72272        -8.65924
| 89>    C       14.51836        -5.89284        -8.31824
| 90>    C       13.26184        -5.82063        -7.78331
| 91>    H        8.24536         3.65393        -0.23089
| 92>    H        7.66381         5.76581        -1.31043
| 93>    H        2.81081         3.47071        -2.61623
| 94>    H        2.28825         5.62522        -3.70445
| 95>    H        3.93392         7.45524        -3.69010
| 96>    H        6.11606         7.15875        -2.59002
| 97>    H        3.74001        -0.68818        -0.72699
| 98>    H        5.62155        -3.78567         3.31791
| 99>    H        5.14492        -4.26590        -1.45399
|100>    H        7.59865        -2.90067        -1.46040
|101>    H        9.67209        -2.08816        -1.26430
|102>    H       11.45232        -2.84477        -2.88863
|103>    H       10.73317        -1.74101        -4.08920
|104>    H        9.90837        -4.06765        -4.10302
|105>    H        8.69535        -3.00238        -3.81764
|106>    H       11.80310        -1.43380        -0.81489
|107>    H       10.90401         0.08851        -0.75742
|108>    H       12.56956        -0.76517        -3.00074
|109>    H       12.89938         0.40322        -1.90744
|110>    H       10.86754         1.47652        -2.83461
|111>    H        9.74558         3.75952        -2.70488
|112>    H        7.90229         4.30385        -4.38172
|113>    H        6.18949         2.56781        -4.26031
|114>    H        4.77574         0.34819        -3.99862
|115>    H        3.80833        -1.71810        -3.03889
|116>    H       11.37295         2.75871        -4.73818
|117>    H        9.78607         5.32457        -5.24706
|118>    H       13.57324         6.48461        -8.71970
|119>    H       10.80328         2.36097        -6.78123
|120>    H       13.38697         1.66772        -8.05726
|121>    H        9.73157        -3.21722        -6.44431
|122>    H       10.81263        -5.37509        -6.79484
|123>    H       15.18030        -2.58708        -8.71792
|124>    H       16.20675        -4.80382        -9.08294
|125>    H       14.98278        -6.85360        -8.48446
|126>    H       12.72095        -6.71890        -7.52247
|127> *
|128>
|129>                          ****END OF INPUT****

CARTESIAN COORDINATES (ANGSTROEM)
---------------------------------
  C      5.213440    0.690940   -0.451550
  C      4.352350    1.639830   -1.220860
  O      3.230920    1.402520   -1.620020
  C      5.130190    2.874950   -1.354240
  C      6.374110    2.699910   -0.748300
  C      6.492470    1.335760   -0.240240
  C      7.667280    0.769670    0.188440
  C      7.875560   -0.579330    0.524270
  N      8.166370   -1.657380    0.796040
  C      8.886210    1.467170    0.284180
  N      9.919150    1.961840    0.386250
  C      7.294380    3.758490   -0.725330
  C      6.962980    4.942680   -1.327580
  C      5.721570    5.138740   -1.970970
  C      4.767520    4.082250   -1.983220
  C      3.524480    4.279330   -2.617710
  C      3.240790    5.475110   -3.218470
  C      4.179210    6.519030   -3.210560
  C      5.392830    6.355560   -2.600250
  C      4.694030   -0.536750   -0.219630
  C      5.099680   -1.668800    0.558010
  S      5.384450   -1.606690    2.277100
  C      5.462600   -3.307100    2.371690
  C      5.316930   -3.914050    1.151460
  C      5.368530   -5.300050    0.936030
  N      5.407730   -6.424730    0.711760
  C      5.104230   -2.974860    0.094480
  N      4.992030   -3.286590   -1.243120
  C      5.648810   -2.346440   -2.107590
  C      7.001660   -2.199650   -2.023630
  C      7.601030   -1.042860   -2.573280
  C      8.908570   -0.581390   -2.499760
  C     10.059040   -1.425720   -2.047400
  C     10.521970   -2.354740   -3.194780
  N      9.547660   -3.399260   -3.430820
  C     11.261860   -0.695370   -1.427440
  N     12.145660   -0.061040   -2.405310
  C      8.882200    0.776600   -2.998250
  C      9.843450    1.713090   -3.091100
  C      9.556510    3.095190   -3.567120
  C      8.141990    3.323730   -4.003090
  C      7.198600    2.366220   -3.931760
  C      7.508710    1.086430   -3.419780
  C      6.743220   -0.043200   -3.188670
  C      5.383600   -0.340660   -3.432230
  C      4.851630   -1.477130   -2.906310
  C     10.558820    3.463380   -4.633130
  C     10.526110    4.552690   -5.403080
  C     11.462230    4.787520   -6.475540
  S     11.970910    6.394690   -6.892190
  C     12.990830    5.806710   -8.127690
  C     12.944700    4.441940   -8.248280
  C     13.665440    3.768110   -9.252680
  N     14.251710    3.262000  -10.097860
  C     12.058620    3.847740   -7.296070
  N     11.710070    2.512150   -7.215390
  C     12.414810    1.457310   -7.620690
  C     12.120270    0.123040   -7.521410
  C     13.210060   -0.795440   -7.942360
  O     14.288010   -0.455840   -8.384940
  C     12.717930   -2.156560   -7.678530
  C     11.435250   -2.078090   -7.142260
  C     11.021560   -0.673920   -7.037240
  C      9.782210   -0.286180   -6.572590
  C      9.256090    1.011920   -6.584830
  N      8.769450    2.056980   -6.594360
  C      8.813190   -1.151040   -6.024910
  N      7.976100   -1.772120   -5.540240
  C     10.736400   -3.253050   -6.829170
  C     11.343400   -4.464560   -7.034690
  C     12.646170   -4.571350   -7.565690
  C     13.360650   -3.387130   -7.908720
  C     14.654520   -3.492660   -8.459960
  C     15.216940   -4.722720   -8.659240
  C     14.518360   -5.892840   -8.318240
  C     13.261840   -5.820630   -7.783310
  H      8.245360    3.653930   -0.230890
  H      7.663810    5.765810   -1.310430
  H      2.810810    3.470710   -2.616230
  H      2.288250    5.625220   -3.704450
  H      3.933920    7.455240   -3.690100
  H      6.116060    7.158750   -2.590020
  H      3.740010   -0.688180   -0.726990
  H      5.621550   -3.785670    3.317910
  H      5.144920   -4.265900   -1.453990
  H      7.598650   -2.900670   -1.460400
  H      9.672090   -2.088160   -1.264300
  H     11.452320   -2.844770   -2.888630
  H     10.733170   -1.741010   -4.089200
  H      9.908370   -4.067650   -4.103020
  H      8.695350   -3.002380   -3.817640
  H     11.803100   -1.433800   -0.814890
  H     10.904010    0.088510   -0.757420
  H     12.569560   -0.765170   -3.000740
  H     12.899380    0.403220   -1.907440
  H     10.867540    1.476520   -2.834610
  H      9.745580    3.759520   -2.704880
  H      7.902290    4.303850   -4.381720
  H      6.189490    2.567810   -4.260310
  H      4.775740    0.348190   -3.998620
  H      3.808330   -1.718100   -3.038890
  H     11.372950    2.758710   -4.738180
  H      9.786070    5.324570   -5.247060
  H     13.573240    6.484610   -8.719700
  H     10.803280    2.360970   -6.781230
  H     13.386970    1.667720   -8.057260
  H      9.731570   -3.217220   -6.444310
  H     10.812630   -5.375090   -6.794840
  H     15.180300   -2.587080   -8.717920
  H     16.206750   -4.803820   -9.082940
  H     14.982780   -6.853600   -8.484460
  H     12.720950   -6.718900   -7.522470

 Total Charge           Charge          ....    0
 Multiplicity           Mult            ....    1
 Number of Electrons    NEL             ....  526
 Basis Dimension        Dim             .... 1252

ORBITAL ENERGIES
----------------

  NO   OCC          E(Eh)            E(eV)
   0   2.0000     -88.989804     -2421.5357
   1   2.0000     -88.965871     -2420.8844
   2   2.0000     -19.211887      -522.7820
   3   2.0000     -19.209535      -522.7180
   4   2.0000     -14.488900      -394.2630
   5   2.0000     -14.427488      -392.5919
   6   2.0000     -14.426268      -392.5587
   7   2.0000     -14.418538      -392.3484
   8   2.0000     -14.415628      -392.2692
   9   2.0000     -14.413464      -392.2103
  10   2.0000     -14.405959      -392.0061
  11   2.0000     -14.399869      -391.8404
  12   2.0000     -14.387694      -391.5091
  13   2.0000     -14.363117      -390.8403
  14   2.0000     -10.362662      -281.9824
  15   2.0000     -10.358081      -281.8577
  16   2.0000     -10.357803      -281.8501
  17   2.0000     -10.352595      -281.7084
  18   2.0000     -10.346025      -281.5296
  19   2.0000     -10.340857      -281.3890
  20   2.0000     -10.335577      -281.2454
  21   2.0000     -10.335379      -281.2400
  22   2.0000     -10.334332      -281.2115
  23   2.0000     -10.333952      -281.2011
  24   2.0000     -10.330771      -281.1146
  25   2.0000     -10.328117      -281.0424
  26   2.0000     -10.324600      -280.9466
  27   2.0000     -10.320452      -280.8338
  28   2.0000     -10.319440      -280.8063
  29   2.0000     -10.318938      -280.7926
  30   2.0000     -10.314086      -280.6605
  31   2.0000     -10.310473      -280.5622
  32   2.0000     -10.308137      -280.4987
  33   2.0000     -10.305455      -280.4257
  34   2.0000     -10.304870      -280.4098
  35   2.0000     -10.303416      -280.3702
  36   2.0000     -10.300955      -280.3032
  37   2.0000     -10.300430      -280.2890
  38   2.0000     -10.299173      -280.2548
  39   2.0000     -10.296242      -280.1750
  40   2.0000     -10.295082      -280.1434
  41   2.0000     -10.294631      -280.1311
  42   2.0000     -10.293735      -280.1068
  43   2.0000     -10.292801      -280.0814
  44   2.0000     -10.292712      -280.0789
  45   2.0000     -10.292376      -280.0698
  46   2.0000     -10.292125      -280.0629
  47   2.0000     -10.291016      -280.0328
  48   2.0000     -10.290711      -280.0245
  49   2.0000     -10.289092      -279.9804
  50   2.0000     -10.286833      -279.9189
  51   2.0000     -10.286763      -279.9171
  52   2.0000     -10.286652      -279.9140
  53   2.0000     -10.286484      -279.9095
  54   2.0000     -10.285920      -279.8941
  55   2.0000     -10.282057      -279.7890
  56   2.0000     -10.281379      -279.7705
  57   2.0000     -10.280959      -279.7591
  58   2.0000     -10.280784      -279.7544
  59   2.0000     -10.278587      -279.6946
  60   2.0000     -10.278418      -279.6900
  61   2.0000     -10.275486      -279.6102
  62   2.0000     -10.275422      -279.6085
  63   2.0000     -10.274334      -279.5788
  64   2.0000     -10.273966      -279.5688
  65   2.0000     -10.270009      -279.4612
  66   2.0000     -10.266256      -279.3590
  67   2.0000     -10.264541      -279.3124
  68   2.0000     -10.260333      -279.1978
  69   2.0000     -10.260266      -279.1960
  70   2.0000     -10.258084      -279.1367
  71   2.0000     -10.256821      -279.1023
  72   2.0000     -10.255798      -279.0744
  73   2.0000     -10.255393      -279.0634
  74   2.0000     -10.254877      -279.0494
  75   2.0000     -10.253590      -279.0144
  76   2.0000      -8.085742      -220.0242
  77   2.0000      -8.060788      -219.3452
  78   2.0000      -6.054928      -164.7630
  79   2.0000      -6.050660      -164.6468
  80   2.0000      -6.048118      -164.5777
  81   2.0000      -6.030166      -164.0892
  82   2.0000      -6.025830      -163.9712
  83   2.0000      -6.023012      -163.8945
  84   2.0000      -1.127905       -30.6918
  85   2.0000      -1.123951       -30.5843
  86   2.0000      -1.096156       -29.8279
  87   2.0000      -1.044657       -28.4266
  88   2.0000      -1.025449       -27.9039
  89   2.0000      -1.016098       -27.6494
  90   2.0000      -1.013996       -27.5922
  91   2.0000      -1.003946       -27.3187
  92   2.0000      -0.998206       -27.1626
  93   2.0000      -0.995636       -27.0926
  94   2.0000      -0.994163       -27.0525
  95   2.0000      -0.989581       -26.9279
  96   2.0000      -0.987640       -26.8750
  97   2.0000      -0.978049       -26.6141
  98   2.0000      -0.972084       -26.4517
  99   2.0000      -0.965047       -26.2603
 100   2.0000      -0.964228       -26.2380
 101   2.0000      -0.961933       -26.1755
 102   2.0000      -0.946134       -25.7456
 103   2.0000      -0.938599       -25.5406
 104   2.0000      -0.920043       -25.0357
 105   2.0000      -0.917715       -24.9723
 106   2.0000      -0.911039       -24.7906
 107   2.0000      -0.903552       -24.5869
 108   2.0000      -0.899396       -24.4738
 109   2.0000      -0.889879       -24.2148
 110   2.0000      -0.885823       -24.1045
 111   2.0000      -0.883365       -24.0376
 112   2.0000      -0.867419       -23.6037
 113   2.0000      -0.860780       -23.4230
 114   2.0000      -0.858123       -23.3507
 115   2.0000      -0.848869       -23.0989
 116   2.0000      -0.844394       -22.9771
 117   2.0000      -0.837739       -22.7960
 118   2.0000      -0.833929       -22.6924
 119   2.0000      -0.830806       -22.6074
 120   2.0000      -0.821650       -22.3582
 121   2.0000      -0.819382       -22.2965
 122   2.0000      -0.809234       -22.0204
 123   2.0000      -0.790397       -21.5078
 124   2.0000      -0.781588       -21.2681
 125   2.0000      -0.772678       -21.0256
 126   2.0000      -0.764870       -20.8132
 127   2.0000      -0.756642       -20.5893
 128   2.0000      -0.752157       -20.4672
 129   2.0000      -0.733594       -19.9621
 130   2.0000      -0.729672       -19.8554
 131   2.0000      -0.719209       -19.5707
 132   2.0000      -0.715944       -19.4818
 133   2.0000      -0.710137       -19.3238
 134   2.0000      -0.709504       -19.3066
 135   2.0000      -0.704082       -19.1590
 136   2.0000      -0.702320       -19.1111
 137   2.0000      -0.701304       -19.0835
 138   2.0000      -0.696648       -18.9567
 139   2.0000      -0.692037       -18.8313
 140   2.0000      -0.691078       -18.8052
 141   2.0000      -0.674652       -18.3582
 142   2.0000      -0.668856       -18.2005
 143   2.0000      -0.668343       -18.1865
 144   2.0000      -0.662867       -18.0375
 145   2.0000      -0.655565       -17.8388
 146   2.0000      -0.650020       -17.6879
 147   2.0000      -0.644579       -17.5399
 148   2.0000      -0.633010       -17.2251
 149   2.0000      -0.632503       -17.2113
 150   2.0000      -0.628077       -17.0909
 151   2.0000      -0.624008       -16.9801
 152   2.0000      -0.619180       -16.8488
 153   2.0000      -0.602533       -16.3958
 154   2.0000      -0.597137       -16.2489
 155   2.0000      -0.593658       -16.1542
 156   2.0000      -0.587361       -15.9829
 157   2.0000      -0.585688       -15.9374
 158   2.0000      -0.584232       -15.8978
 159   2.0000      -0.583356       -15.8739
 160   2.0000      -0.581163       -15.8143
 161   2.0000      -0.577074       -15.7030
 162   2.0000      -0.573088       -15.5945
 163   2.0000      -0.568531       -15.4705
 164   2.0000      -0.564717       -15.3667
 165   2.0000      -0.561657       -15.2835
 166   2.0000      -0.558808       -15.2059
 167   2.0000      -0.554358       -15.0848
 168   2.0000      -0.551307       -15.0018
 169   2.0000      -0.547183       -14.8896
 170   2.0000      -0.544944       -14.8287
 171   2.0000      -0.543970       -14.8022
 172   2.0000      -0.540240       -14.7007
 173   2.0000      -0.538204       -14.6453
 174   2.0000      -0.533738       -14.5238
 175   2.0000      -0.528218       -14.3735
 176   2.0000      -0.526904       -14.3378
 177   2.0000      -0.522938       -14.2299
 178   2.0000      -0.521024       -14.1778
 179   2.0000      -0.518991       -14.1225
 180   2.0000      -0.514009       -13.9869
 181   2.0000      -0.512332       -13.9413
 182   2.0000      -0.511753       -13.9255
 183   2.0000      -0.509521       -13.8648
 184   2.0000      -0.508808       -13.8454
 185   2.0000      -0.506139       -13.7727
 186   2.0000      -0.505936       -13.7672
 187   2.0000      -0.505450       -13.7540
 188   2.0000      -0.502989       -13.6870
 189   2.0000      -0.502536       -13.6747
 190   2.0000      -0.497999       -13.5512
 191   2.0000      -0.497315       -13.5326
 192   2.0000      -0.495983       -13.4964
 193   2.0000      -0.493937       -13.4407
 194   2.0000      -0.491734       -13.3808
 195   2.0000      -0.489554       -13.3214
 196   2.0000      -0.488268       -13.2865
 197   2.0000      -0.485290       -13.2054
 198   2.0000      -0.483783       -13.1644
 199   2.0000      -0.476164       -12.9571
 200   2.0000      -0.474584       -12.9141
 201   2.0000      -0.471294       -12.8246
 202   2.0000      -0.470697       -12.8083
 203   2.0000      -0.469204       -12.7677
 204   2.0000      -0.468423       -12.7464
 205   2.0000      -0.463636       -12.6162
 206   2.0000      -0.460875       -12.5411
 207   2.0000      -0.459045       -12.4912
 208   2.0000      -0.458052       -12.4642
 209   2.0000      -0.450651       -12.2628
 210   2.0000      -0.446856       -12.1596
 211   2.0000      -0.446078       -12.1384
 212   2.0000      -0.445433       -12.1208
 213   2.0000      -0.443697       -12.0736
 214   2.0000      -0.443387       -12.0652
 215   2.0000      -0.442732       -12.0474
 216   2.0000      -0.439710       -11.9651
 217   2.0000      -0.437442       -11.9034
 218   2.0000      -0.436244       -11.8708
 219   2.0000      -0.435390       -11.8476
 220   2.0000      -0.433238       -11.7890
 221   2.0000      -0.431869       -11.7517
 222   2.0000      -0.430112       -11.7039
 223   2.0000      -0.429175       -11.6785
 224   2.0000      -0.428653       -11.6642
 225   2.0000      -0.427491       -11.6326
 226   2.0000      -0.427125       -11.6227
 227   2.0000      -0.426098       -11.5947
 228   2.0000      -0.421150       -11.4601
 229   2.0000      -0.417313       -11.3557
 230   2.0000      -0.415439       -11.3047
 231   2.0000      -0.410708       -11.1759
 232   2.0000      -0.408387       -11.1128
 233   2.0000      -0.406196       -11.0532
 234   2.0000      -0.404177       -10.9982
 235   2.0000      -0.401287       -10.9196
 236   2.0000      -0.396134       -10.7794
 237   2.0000      -0.392516       -10.6809
 238   2.0000      -0.391797       -10.6613
 239   2.0000      -0.388793       -10.5796
 240   2.0000      -0.382250       -10.4015
 241   2.0000      -0.379355       -10.3228
 242   2.0000      -0.376238       -10.2380
 243   2.0000      -0.369132       -10.0446
 244   2.0000      -0.365274        -9.9396
 245   2.0000      -0.352281        -9.5861
 246   2.0000      -0.346851        -9.4383
 247   2.0000      -0.338135        -9.2011
 248   2.0000      -0.334877        -9.1125
 249   2.0000      -0.328773        -8.9464
 250   2.0000      -0.322459        -8.7746
 251   2.0000      -0.318840        -8.6761
 252   2.0000      -0.313997        -8.5443
 253   2.0000      -0.309104        -8.4112
 254   2.0000      -0.307983        -8.3806
 255   2.0000      -0.302561        -8.2331
 256   2.0000      -0.295339        -8.0366
 257   2.0000      -0.291375        -7.9287
 258   2.0000      -0.289846        -7.8871
 259   2.0000      -0.287646        -7.8272
 260   2.0000      -0.275788        -7.5046
 261   2.0000      -0.264612        -7.2005
 262   2.0000      -0.217188        -5.9100
 263   0.0000      -0.081894        -2.2285
 264   0.0000      -0.079747        -2.1700
 265   0.0000      -0.065978        -1.7954
 266   0.0000      -0.050174        -1.3653
 267   0.0000      -0.048291        -1.3141

MULLIKEN ATOMIC CHARGES
-----------------------
   0 C :   -0.095339
   1 C :    0.101465
   2 O :   -0.158204
   3 C :    0.012024
   4 C :    0.005764
   5 C :    0.332224
   6 C :   -0.364084
   7 C :   -0.176265
   8 N :    0.169667
   9 C :   -0.150728
  10 N :    0.108284
  11 C :   -0.028197
  12 C :    0.001616
  13 C :    0.084189
  14 C :    0.037200
  15 C :   -0.039723
  16 C :    0.040705
  17 C :    0.038107
  18 C :   -0.030884
  19 C :    0.015247
  20 C :   -0.263523
  21 S :    0.190897
  22 C :   -0.058546
  23 C :   -0.072167
  24 C :   -0.229263
  25 N :    0.140255
  26 C :    0.173856
  27 N :   -0.051494
  28 C :   -0.025071
  29 C :    0.047737
  30 C :   -0.010312
  31 C :   -0.065777
  32 C :   -0.010008
  33 C :    0.117601
  34 N :   -0.225140
  35 C :    0.121332
  36 N :   -0.220850
  37 C :    0.078138
  38 C :   -0.156929
  39 C :    0.215323
  40 C :   -0.009759
  41 C :    0.018431
  42 C :   -0.003744
  43 C :    0.048482
  44 C :   -0.001906
  45 C :    0.017303
  46 C :   -0.132006
  47 C :    0.082675
  48 C :   -0.205702
  49 S :    0.174392
  50 C :   -0.064703
  51 C :   -0.117306
  52 C :   -0.203140
  53 N :    0.151968
  54 C :    0.189895
  55 N :   -0.003491
  56 C :    0.020695
  57 C :   -0.135626
  58 C :    0.105782
  59 O :   -0.157210
  60 C :    0.008802
  61 C :   -0.019795
  62 C :    0.370968
  63 C :   -0.382196
  64 C :   -0.183930
  65 N :    0.116413
  66 C :   -0.147638
  67 N :    0.144040
  68 C :   -0.027952
  69 C :   -0.007152
  70 C :    0.080900
  71 C :    0.041256
  72 C :   -0.031804
  73 C :    0.040069
  74 C :    0.036922
  75 C :   -0.021207
  76 H :   -0.006983
  77 H :   -0.022604
  78 H :    0.000060
  79 H :   -0.008718
  80 H :   -0.010261
  81 H :   -0.027201
  82 H :    0.044607
  83 H :    0.032543
  84 H :    0.136435
  85 H :   -0.016960
  86 H :    0.013941
  87 H :   -0.011760
  88 H :   -0.021805
  89 H :    0.084642
  90 H :    0.112450
  91 H :   -0.004141
  92 H :   -0.003355
  93 H :    0.093258
  94 H :    0.105594
  95 H :   -0.020699
  96 H :    0.049550
  97 H :   -0.020120
  98 H :   -0.033948
  99 H :   -0.030316
 100 H :   -0.022420
 101 H :    0.028056
 102 H :    0.001640
 103 H :    0.044277
 104 H :    0.140505
 105 H :    0.045140
 106 H :   -0.013053
 107 H :   -0.015969
 108 H :    0.001873
 109 H :   -0.007320
 110 H :   -0.007109
 111 H :   -0.021680
Sum of atomic charges:   -0.0000000

LOEWDIN ATOMIC CHARGES
----------------------
   0 C :   -0.089299
   1 C :    0.089048
   2 O :   -0.146974
   3 C :   -0.035209
   4 C :    0.004087
   5 C :    0.070401
   6 C :   -0.134991
   7 C :   -0.013101
   8 N :   -0.059834
   9 C :   -0.001575
  10 N :   -0.077700
  11 C :   -0.017763
  12 C :    0.014506
  13 C :   -0.012478
  14 C :   -0.002000
  15 C :   -0.004979
  16 C :   -0.013981
  17 C :   -0.016657
  18 C :   -0.017500
  19 C :    0.063459
  20 C :   -0.239670
  21 S :    0.487875
  22 C :   -0.129544
  23 C :   -0.129277
  24 C :   -0.035923
  25 N :   -0.060028
  26 C :    0.033102
  27 N :   -0.011140
  28 C :   -0.007775
  29 C :   -0.005220
  30 C :   -0.022036
  31 C :   -0.038064
  32 C :   -0.038196
  33 C :    0.023746
  34 N :   -0.109812
  35 C :    0.022674
  36 N :   -0.102798
  37 C :   -0.031267
  38 C :    0.076325
  39 C :   -0.034270
  40 C :   -0.009811
  41 C :   -0.016706
  42 C :   -0.030646
  43 C :   -0.033547
  44 C :   -0.008572
  45 C :   -0.027922
  46 C :    0.011594
  47 C :   -0.049174
  48 C :   -0.187076
  49 S :    0.482448
  50 C :   -0.138235
  51 C :   -0.116823
  52 C :   -0.041571
  53 N :   -0.038078
  54 C :   -0.000783
  55 N :    0.085322
  56 C :    0.114994
  57 C :   -0.161516
  58 C :    0.087172
  59 O :   -0.149436
  60 C :   -0.031051
  61 C :   -0.011472
  62 C :    0.082419
  63 C :   -0.162486
  64 C :   -0.010552
  65 N :   -0.057773
  66 C :   -0.004292
  67 N :   -0.053788
  68 C :   -0.020151
  69 C :    0.009261
  70 C :   -0.008797
  71 C :   -0.002997
  72 C :   -0.001495
  73 C :   -0.013606
  74 C :   -0.012222
  75 C :   -0.014031
  76 H :    0.035401
  77 H :    0.030684
  78 H :    0.034923
  79 H :    0.031994
  80 H :    0.030572
  81 H :    0.027619
  82 H :    0.050463
  83 H :    0.035224
  84 H :    0.086646
  85 H :    0.032052
  86 H :    0.037171
  87 H :    0.012381
  88 H :   -0.008511
  89 H :    0.048673
  90 H :    0.045795
  91 H :    0.008842
  92 H :    0.018814
  93 H :    0.051527
  94 H :    0.060359
  95 H :    0.021874
  96 H :    0.069441
  97 H :    0.019874
  98 H :    0.030644
  99 H :    0.027992
 100 H :    0.029039
 101 H :    0.028240
 102 H :    0.030691
 103 H :    0.038296
 104 H :    0.082601
 105 H :    0.048033
 106 H :    0.033761
 107 H :    0.033751
 108 H :    0.035970
 109 H :    0.032430
 110 H :    0.031771
 111 H :    0.030196

  Mayer bond orders larger than 0.100000
B(  0-C ,  1-C ) :   0.9533 B(  0-C ,  5-C ) :   1.0159 B(  0-C , 19-C ) :   1.7712
B(  1-C ,  2-O ) :   2.1665 B(  1-C ,  3-C ) :   0.9525 B(  3-C ,  4-C ) :   1.4194
B(  3-C , 14-C ) :   1.2201 B(  4-C ,  5-C ) :   0.9978 B(  4-C , 11-C ) :   1.2520
B(  5-C ,  6-C ) :   1.6240 B(  6-C ,  7-C ) :   1.1951 B(  6-C ,  9-C ) :   1.1624
B(  7-C ,  8-N ) :   2.9064 B(  9-C , 10-N ) :   2.8334 B( 11-C , 12-C ) :   1.4603
B( 11-C , 76-H ) :   0.9802 B( 12-C , 13-C ) :   1.2209 B( 12-C , 77-H ) :   0.9929
B( 13-C , 14-C ) :   1.2405 B( 13-C , 18-C ) :   1.2372 B( 14-C , 15-C ) :   1.2751
B( 15-C , 16-C ) :   1.4686 B( 15-C , 78-H ) :   0.9874 B( 16-C , 17-C ) :   1.2566
B( 16-C , 79-H ) :   0.9868 B( 17-C , 18-C ) :   1.4901 B( 17-C , 80-H ) :   0.9885
B( 18-C , 81-H ) :   0.9985 B( 19-C , 20-C ) :   0.9996 B( 19-C , 82-H ) :   0.8986
B( 20-C , 21-S ) :   1.1127 B( 20-C , 26-C ) :   1.4626 B( 21-S , 22-C ) :   1.2241
B( 21-S , 23-C ) :   0.1060 B( 22-C , 23-C ) :   1.5009 B( 22-C , 83-H ) :   0.9745
B( 23-C , 24-C ) :   1.0959 B( 23-C , 26-C ) :   1.2470 B( 24-C , 25-N ) :   3.0350
B( 26-C , 27-N ) :   1.2846 B( 27-N , 28-C ) :   0.9846 B( 27-N , 84-H ) :   0.9002
B( 28-C , 29-C ) :   1.5818 B( 28-C , 45-C ) :   1.1804 B( 29-C , 30-C ) :   1.1241
B( 29-C , 85-H ) :   0.9825 B( 30-C , 31-C ) :   1.4685 B( 30-C , 43-C ) :   1.1492
B( 31-C , 32-C ) :   1.0439 B( 31-C , 37-C ) :   1.0908 B( 32-C , 33-C ) :   1.0302
B( 32-C , 35-C ) :   1.0562 B( 32-C , 86-H ) :   0.8705 B( 33-C , 34-N ) :   1.1290
B( 33-C , 87-H ) :   0.9399 B( 33-C , 88-H ) :   0.9101 B( 34-N , 89-H ) :   0.9665
B( 34-N , 90-H ) :   0.9493 B( 35-C , 36-N ) :   1.0355 B( 35-C , 91-H ) :   0.9327
B( 35-C , 92-H ) :   0.9420 B( 36-N , 93-H ) :   0.9625 B( 36-N , 94-H ) :   0.9583
B( 36-N , 95-H ) :   0.1713 B( 37-C , 38-C ) :   1.6503 B( 37-C , 42-C ) :   1.0624
B( 38-C , 39-C ) :   0.9498 B( 38-C , 95-H ) :   0.9226 B( 39-C , 40-C ) :   1.0071
B( 39-C , 46-C ) :   0.9468 B( 39-C , 96-H ) :   0.8200 B( 40-C , 41-C ) :   1.7190
B( 40-C , 97-H ) :   0.9573 B( 41-C , 42-C ) :   1.1488 B( 41-C , 98-H ) :   0.9869
B( 42-C , 43-C ) :   1.3839 B( 43-C , 44-C ) :   1.1593 B( 44-C , 45-C ) :   1.5469
B( 44-C , 99-H ) :   0.9858 B( 45-C ,100-H ) :   0.9920 B( 46-C , 47-C ) :   1.8206
B( 46-C ,101-H ) :   0.9844 B( 47-C , 48-C ) :   1.0659 B( 47-C ,102-H ) :   0.9459
B( 48-C , 49-S ) :   1.1409 B( 48-C , 54-C ) :   1.4779 B( 49-S , 50-C ) :   1.1929
B( 49-S , 51-C ) :   0.1074 B( 50-C , 51-C ) :   1.5461 B( 50-C ,103-H ) :   0.9755
B( 51-C , 52-C ) :   1.0982 B( 51-C , 54-C ) :   1.2637 B( 52-C , 53-N ) :   3.0114
B( 54-C , 55-N ) :   1.1203 B( 55-N , 56-C ) :   1.3415 B( 55-N ,104-H ) :   0.8542
B( 56-C , 57-C ) :   1.5270 B( 56-C ,105-H ) :   0.8949 B( 57-C , 58-C ) :   0.9949
B( 57-C , 62-C ) :   1.0519 B( 58-C , 59-O ) :   2.1576 B( 58-C , 60-C ) :   0.9523
B( 60-C , 61-C ) :   1.4274 B( 60-C , 71-C ) :   1.2365 B( 61-C , 62-C ) :   0.9971
B( 61-C , 68-C ) :   1.2570 B( 62-C , 63-C ) :   1.5549 B( 63-C , 64-C ) :   1.1978
B( 63-C , 66-C ) :   1.1619 B( 64-C , 65-N ) :   2.8318 B( 66-C , 67-N ) :   2.8550
B( 68-C , 69-C ) :   1.4620 B( 68-C ,106-H ) :   0.9753 B( 69-C , 70-C ) :   1.2261
B( 69-C ,107-H ) :   0.9944 B( 70-C , 71-C ) :   1.2355 B( 70-C , 75-C ) :   1.2357
B( 71-C , 72-C ) :   1.2687 B( 72-C , 73-C ) :   1.4784 B( 72-C ,108-H ) :   0.9872
B( 73-C , 74-C ) :   1.2514 B( 73-C ,109-H ) :   0.9870 B( 74-C , 75-C ) :   1.4977
B( 74-C ,110-H ) :   0.9892 B( 75-C ,111-H ) :   0.9985

-----------------------------------------------------------------------------
         ABSORPTION SPECTRUM VIA TRANSITION ELECTRIC DIPOLE MOMENTS
-----------------------------------------------------------------------------
State   Energy  Wavelength   fosc         T2         TX        TY        TZ
        (cm-1)    (nm)                  (au**2)     (au)      (au)      (au)
-----------------------------------------------------------------------------
   0   10732.3    931.8   0.059224637   1.81671   0.49282  -0.25951  -1.22739
   1   13318.1    750.9   0.009648272   0.23850   0.35535  -0.07365  -0.32680
   2   14024.2    713.1   0.037390587   0.87773  -0.52584   0.77124   0.08007
   3   17518.1    570.8   0.030973169   0.58207  -0.32362   0.68908  -0.05016
   4   20308.3    492.4   0.118368277   1.91884  -0.64572  -1.14597   0.43432
   5   22253.3    449.4   0.001519183   0.02247  -0.12777   0.06625   0.04195
   6   22972.7    435.3   0.087031896   1.24722  -0.40695  -1.03980   0.02075
   7   24457.5    408.9   0.043799273   0.58956   0.19151   0.67061  -0.32121
   8   25639.0    390.0   0.029203913   0.37499  -0.21863  -0.12258   0.55871
   9   26166.8    382.2   0.014502257   0.18246   0.25785  -0.32000  -0.11650
  10   26198.1    381.7   0.005988147   0.07525   0.01023   0.27398  -0.00876
  11   27265.7    366.8   0.066752556   0.80599   0.22784  -0.65924   0.56522
  12   27532.0    363.2   0.013133915   0.15705  -0.24745   0.04307   0.30653
  13   27840.8    359.2   0.030028980   0.35509  -0.05923   0.59283   0.01137
  14   28129.4    355.5   0.031508549   0.36876   0.49994  -0.22179  -0.26387
  15   28812.7    347.1   0.175107573   2.00076  -1.07039  -0.85442   0.35356
  16   29063.1    344.1   0.016663945   0.18876  -0.35631   0.23174   0.08998
  17   29258.0    341.8   0.017154655   0.19302  -0.36007  -0.08819  -0.23579
  18   29323.7    341.0   0.002628279   0.02951  -0.05856  -0.16148  -0.00074
  19   29568.5    338.2   0.066835911   0.74414  -0.14402   0.52502  -0.66915
  20   29934.2    334.1   0.038130436   0.41935   0.35831   0.44080  -0.31090
  21   30111.5    332.1   0.132448713   1.44807  -0.98704   0.65079  -0.22427
  22   30395.8    329.0   0.009831741   0.10649   0.22742   0.18106  -0.14826
  23   30598.8    326.8   0.027055918   0.29109  -0.10664   0.49296   0.19160
  24   30842.3    324.2   0.352412738   3.76166  -0.28535   1.87735   0.39472
  25   30918.7    323.4   0.010096405   0.10750   0.07441   0.31556  -0.04886
  26   31265.5    319.8   0.016917407   0.17813   0.38135  -0.01138   0.18048
  27   31508.6    317.4   0.015355244   0.16044  -0.36154  -0.01508  -0.17175
  28   31894.1    313.5   0.010369661   0.10704  -0.11174   0.22881   0.20541
  29   32019.5    312.3   0.183309312   1.88471   1.34320  -0.04224   0.28059
  30   32137.5    311.2   0.009186794   0.09411  -0.29977   0.00373   0.06507
  31   32363.0    309.0   0.789787421   8.03411   1.87089  -2.06630  -0.51409
  32   32511.0    307.6   0.131820346   1.33484   0.79027  -0.19780  -0.81926
  33   32660.3    306.2   0.040188103   0.40509  -0.52955   0.35066  -0.04131
  34   32853.8    304.4   0.081187812   0.81354   0.59888  -0.67189   0.05878
  35   33101.4    302.1   0.004576967   0.04552   0.16030  -0.09096   0.10747
  36   33288.7    300.4   0.015893380   0.15718  -0.22437   0.24167   0.22008
  37   33832.9    295.6   0.015121264   0.14714   0.13703  -0.14210   0.32889
  38   33880.5    295.2   0.120457353   1.17047  -0.84844   0.47704  -0.47229
  39   34181.7    292.6   0.012181054   0.11732  -0.01299  -0.08197   0.33231
  40   34230.6    292.1   0.018930638   0.18206   0.19503  -0.37265  -0.07182
  41   34426.2    290.5   0.069954394   0.66896  -0.62196   0.50040   0.17811
  42   34567.5    289.3   0.038932072   0.37078   0.24705  -0.54436  -0.11583
  43   34654.7    288.6   0.170832769   1.62288  -0.59313   0.92147   0.64959
  44   34899.4    286.5   0.003453563   0.03258   0.06297  -0.09163   0.14219
  45   35061.9    285.2   0.162944689   1.52996  -0.50870  -0.87828   0.70697
  46   35135.4    284.6   0.055580898   0.52078  -0.48298   0.40000  -0.35708
  47   35351.9    282.9   0.086153027   0.80229  -0.01224  -0.84923   0.28453
  48   35474.9    281.9   0.149565315   1.38799  -0.54869   0.82321  -0.63972
  49   35722.0    279.9   0.022230970   0.20488   0.35915  -0.25968   0.09197
  50   35872.8    278.8   0.122871522   1.12762  -0.37899   0.97420  -0.18688
  51   36038.8    277.5   0.015698370   0.14340  -0.12387   0.31639  -0.16720
  52   36292.0    275.5   0.000659541   0.00598   0.00126  -0.07701   0.00711
  53   36433.6    274.5   0.001784290   0.01612  -0.02285   0.12272  -0.02323
  54   36515.9    273.9   0.053326508   0.48077  -0.19809   0.47257  -0.46713
  55   36581.8    273.4   0.079697358   0.71722   0.48176  -0.63165   0.29350
  56   37198.0    268.8   0.004739473   0.04195   0.00505   0.16269  -0.12431
  57   37266.3    268.3   0.009762512   0.08624  -0.17517  -0.19789   0.12805
  58   37307.2    268.0   0.001630269   0.01439   0.08634  -0.03896   0.07357
  59   37647.2    265.6   0.028006160   0.24490   0.34386   0.34188  -0.09891
  60   37892.6    263.9   0.162178982   1.40901  -0.44203  -1.03789   0.36935
  61   38264.7    261.3   0.140320969   1.20726   0.23297   0.92160  -0.55103
  62   38503.3    259.7   0.560334517   4.79099  -0.22733  -2.07776   0.64980
  63   38958.9    256.7   0.008641887   0.07303  -0.24435  -0.08419  -0.07894
  64   39140.0    255.5   0.007062270   0.05940   0.02721   0.18759  -0.15320
  65   39435.0    253.6   0.063480008   0.52995  -0.02284  -0.63869   0.34857
  66   39516.4    253.1   0.010885672   0.09069  -0.04589  -0.28836   0.07369
  67   39615.8    252.4   0.005916182   0.04916   0.10424   0.16630   0.10316
  68   39738.4    251.6   0.012473606   0.10334  -0.14211  -0.28403   0.04967
  69   39860.6    250.9   0.002141345   0.01769  -0.11620  -0.05978  -0.02469
  70   40040.1    249.7   0.002510297   0.02064  -0.00113  -0.13655   0.04463
  71   40149.3    249.1   0.005266045   0.04318   0.15556   0.09536  -0.09944

FINAL SINGLE POINT ENERGY     -3874.261055019408

DIPOLE MOMENT
-------------
                                X             Y             Z
Electronic contribution:    -12.90318       9.74064       3.84243
Nuclear contribution   :     13.96190      -6.96115      -4.40564
                        -----------------------------------------
Total Dipole Moment    :      1.05872       2.77949      -0.56321
                        -----------------------------------------
Magnitude (a.u.)       :      3.02715
Magnitude (Debye)      :      7.69440

Rotational constants in cm-1:     0.001237     0.000763     0.000535
Rotational constants in MHz :    37.092621    22.880519    16.025515

                             ****ORCA TERMINATED NORMALLY****
TOTAL RUN TIME: 0 days 0 hours 16 minutes 1 seconds 524 msec
