                         Program Version 4.2.0 -  RELEASE  -
|  1> # ORCA input file
|  2> # SCF done       -197.988048475860          0.000456352064
|  3> ! CAM-B3LYP def2-SVP def2/J RIJCOSX Grid4 TightSCF
|  4> %maxcore 5000
|  5> %tddft
|  6>     Mode sTDDFT
|  7>     Ethresh 5.0
|  8>     maxcore 5000
|  9> end
| 10>
| 11> %pal
| 12>   nprocs 6
| 13>   end
| 14> * xyz 0 1
| 15>    C        4.98124        -4.63940        -1.54476
| 16>    C        5.20233        -3.78329        -2.75665
| 17>    O        4.40779        -3.00198        -3.22722
| 18>    C        6.57507        -4.08899        -3.18039
| 19>    C        7.07184        -5.15465        -2.42586
| 20>    C        6.02986        -5.64055        -1.52754
| 21>    C        5.95552        -6.88618        -0.97479
| 22>    C        4.78375        -7.40748        -0.37899
| 23>    N        3.83405        -7.94376        -0.02020
| 24>    C        6.98279        -7.84935        -1.06966
| 25>    N        7.79228        -8.66065        -1.12168
| 26>    C        8.38962        -5.59657        -2.59842
| 27>    C        9.18348        -4.95706        -3.51496
| 28>    C        8.71371        -3.87319        -4.29091
| 29>    C        7.37162        -3.42151        -4.13249
| 30>    C        6.91355        -2.32724        -4.89267
| 31>    C        7.75363        -1.70000        -5.77201
| 32>    C        9.07519        -2.14332        -5.93472
| 33>    C        9.54497        -3.20784        -5.21406
| 34>    C        4.03292        -4.27528        -0.64767
| 35>    C        3.89001        -4.74241         0.68802
| 36>    N        4.76743        -5.56132         1.24655
| 37>    C        4.27772        -5.87653         2.46077
| 38>    C        2.97551        -5.23020         2.68388
| 39>    C        2.42867        -5.59854         4.00334
| 40>    O        1.38830        -5.25084         4.51123
| 41>    C        3.47722        -6.49030         4.54008
| 42>    C        4.58828        -6.62400         3.56716
| 43>    N        5.56622        -7.41974         4.06583
| 44>    C        5.14384        -7.77951         5.25131
| 45>    C        3.84921        -7.22849         5.61443
| 46>    C        2.73755        -4.45247         1.58534
| 47>    C        1.62213        -3.58601         1.36220
| 48>    C        1.69648        -2.43600         0.65942
| 49>    C        0.59321        -1.57370         0.40880
| 50>    O       -0.65624        -1.90378         0.83711
| 51>    C       -1.50799        -0.96665         0.46613
| 52>    C       -0.85556         0.01777        -0.23744
| 53>    N       -1.43781         1.17486        -0.79288
| 54>    O       -2.60723         1.38175        -0.57634
| 55>    O       -0.72119         1.89396        -1.47723
| 56>    C        0.52890        -0.36345        -0.28159
| 57>    N        1.45985         0.43886        -0.88243
| 58>    C        2.76130         0.30512        -1.12898
| 59>    N        3.51045        -0.76755        -0.89362
| 60>    C        4.71129        -0.49791        -1.42415
| 61>    C        4.72688         0.82269        -2.07832
| 62>    C        6.06581         1.10524        -2.64466
| 63>    O        6.41830         2.07463        -3.27581
| 64>    C        6.83272        -0.08107        -2.23832
| 65>    C        5.97746        -1.02925        -1.50751
| 66>    N        6.69336        -2.09877        -1.09304
| 67>    C        7.92581        -1.86619        -1.50263
| 68>    C        8.08182        -0.63007        -2.21609
| 69>    C        3.50639         1.38016        -1.83772
| 70>    C        3.01749         2.70156        -2.09936
| 71>    C        2.31077         3.41490        -1.19135
| 72>    C        1.86570         4.73742        -1.45685
| 73>    C        1.34810         5.67302        -0.62073
| 74>    C        1.21964         7.06658        -1.15996
| 75>    O        1.26694         7.37028        -2.33002
| 76>    C        1.08635         7.93541         0.01696
| 77>    C        1.01727         7.14530         1.16506
| 78>    C        1.01541         5.73156         0.79144
| 79>    C        0.60542         4.72735         1.62750
| 80>    C        0.42693         3.37382         1.29768
| 81>    N        0.23932         2.25241         1.13112
| 82>    C        0.20556         4.91817         2.97116
| 83>    N       -0.13373         4.97737         4.06548
| 84>    C        0.96093         7.74233         2.43218
| 85>    C        0.94994         9.10989         2.51800
| 86>    C        0.98926         9.93581         1.37333
| 87>    C        1.06608         9.34217         0.07961
| 88>    C        1.11779        10.16809        -1.06159
| 89>    C        1.08876        11.52885        -0.92526
| 90>    C        1.01048        12.11868         0.34662
| 91>    C        0.96281        11.34133         1.47155
| 92>    H        8.77902        -6.41033        -2.00834
| 93>    H       10.20628        -5.27723        -3.65316
| 94>    H        5.89562        -1.99591        -4.76058
| 95>    H        7.40406        -0.85580        -6.34672
| 96>    H        9.72083        -1.63578        -6.63586
| 97>    H       10.56145        -3.55177        -5.33989
| 98>    H        3.35768        -3.49933        -0.98165
| 99>    H        5.74083        -8.43050         5.86631
|100>    H        3.33756        -7.39963         6.54074
|101>    H        0.70155        -3.86826         1.85726
|102>    H        2.63223        -2.07736         0.25374
|103>    H       -2.54344        -1.06871         0.72848
|104>    H        1.02569         1.30787        -1.22417
|105>    H        8.70600        -2.57735        -1.29322
|106>    H        8.99768        -0.25625        -2.62874
|107>    H        3.31250         3.15332        -3.03745
|108>    H        2.13864         2.99825        -0.21066
|109>    H        2.01529         5.09029        -2.47347
|110>    H        0.94269         7.14484         3.32830
|111>    H        0.91064         9.58272         3.48858
|112>    H        1.17900         9.70429        -2.03331
|113>    H        1.12632        12.16152        -1.79918
|114>    H        0.98919        13.19507         0.43025
|115>    H        0.90288        11.79259         2.45126
|116> *
|117>
|118>                          ****END OF INPUT****

CARTESIAN COORDINATES (ANGSTROEM)
---------------------------------
  C      4.981240   -4.639400   -1.544760
  C      5.202330   -3.783290   -2.756650
  O      4.407790   -3.001980   -3.227220
  C      6.575070   -4.088990   -3.180390
  C      7.071840   -5.154650   -2.425860
  C      6.029860   -5.640550   -1.527540
  C      5.955520   -6.886180   -0.974790
  C      4.783750   -7.407480   -0.378990
  N      3.834050   -7.943760   -0.020200
  C      6.982790   -7.849350   -1.069660
  N      7.792280   -8.660650   -1.121680
  C      8.389620   -5.596570   -2.598420
  C      9.183480   -4.957060   -3.514960
  C      8.713710   -3.873190   -4.290910
  C      7.371620   -3.421510   -4.132490
  C      6.913550   -2.327240   -4.892670
  C      7.753630   -1.700000   -5.772010
  C      9.075190   -2.143320   -5.934720
  C      9.544970   -3.207840   -5.214060
  C      4.032920   -4.275280   -0.647670
  C      3.890010   -4.742410    0.688020
  N      4.767430   -5.561320    1.246550
  C      4.277720   -5.876530    2.460770
  C      2.975510   -5.230200    2.683880
  C      2.428670   -5.598540    4.003340
  O      1.388300   -5.250840    4.511230
  C      3.477220   -6.490300    4.540080
  C      4.588280   -6.624000    3.567160
  N      5.566220   -7.419740    4.065830
  C      5.143840   -7.779510    5.251310
  C      3.849210   -7.228490    5.614430
  C      2.737550   -4.452470    1.585340
  C      1.622130   -3.586010    1.362200
  C      1.696480   -2.436000    0.659420
  C      0.593210   -1.573700    0.408800
  O     -0.656240   -1.903780    0.837110
  C     -1.507990   -0.966650    0.466130
  C     -0.855560    0.017770   -0.237440
  N     -1.437810    1.174860   -0.792880
  O     -2.607230    1.381750   -0.576340
  O     -0.721190    1.893960   -1.477230
  C      0.528900   -0.363450   -0.281590
  N      1.459850    0.438860   -0.882430
  C      2.761300    0.305120   -1.128980
  N      3.510450   -0.767550   -0.893620
  C      4.711290   -0.497910   -1.424150
  C      4.726880    0.822690   -2.078320
  C      6.065810    1.105240   -2.644660
  O      6.418300    2.074630   -3.275810
  C      6.832720   -0.081070   -2.238320
  C      5.977460   -1.029250   -1.507510
  N      6.693360   -2.098770   -1.093040
  C      7.925810   -1.866190   -1.502630
  C      8.081820   -0.630070   -2.216090
  C      3.506390    1.380160   -1.837720
  C      3.017490    2.701560   -2.099360
  C      2.310770    3.414900   -1.191350
  C      1.865700    4.737420   -1.456850
  C      1.348100    5.673020   -0.620730
  C      1.219640    7.066580   -1.159960
  O      1.266940    7.370280   -2.330020
  C      1.086350    7.935410    0.016960
  C      1.017270    7.145300    1.165060
  C      1.015410    5.731560    0.791440
  C      0.605420    4.727350    1.627500
  C      0.426930    3.373820    1.297680
  N      0.239320    2.252410    1.131120
  C      0.205560    4.918170    2.971160
  N     -0.133730    4.977370    4.065480
  C      0.960930    7.742330    2.432180
  C      0.949940    9.109890    2.518000
  C      0.989260    9.935810    1.373330
  C      1.066080    9.342170    0.079610
  C      1.117790   10.168090   -1.061590
  C      1.088760   11.528850   -0.925260
  C      1.010480   12.118680    0.346620
  C      0.962810   11.341330    1.471550
  H      8.779020   -6.410330   -2.008340
  H     10.206280   -5.277230   -3.653160
  H      5.895620   -1.995910   -4.760580
  H      7.404060   -0.855800   -6.346720
  H      9.720830   -1.635780   -6.635860
  H     10.561450   -3.551770   -5.339890
  H      3.357680   -3.499330   -0.981650
  H      5.740830   -8.430500    5.866310
  H      3.337560   -7.399630    6.540740
  H      0.701550   -3.868260    1.857260
  H      2.632230   -2.077360    0.253740
  H     -2.543440   -1.068710    0.728480
  H      1.025690    1.307870   -1.224170
  H      8.706000   -2.577350   -1.293220
  H      8.997680   -0.256250   -2.628740
  H      3.312500    3.153320   -3.037450
  H      2.138640    2.998250   -0.210660
  H      2.015290    5.090290   -2.473470
  H      0.942690    7.144840    3.328300
  H      0.910640    9.582720    3.488580
  H      1.179000    9.704290   -2.033310
  H      1.126320   12.161520   -1.799180
  H      0.989190   13.195070    0.430250
  H      0.902880   11.792590    2.451260

 Total Charge           Charge          ....    0
 Multiplicity           Mult            ....    1
 Number of Electrons    NEL             ....  510
 Basis Dimension        Dim             .... 1198

ORBITAL ENERGIES
----------------

  NO   OCC          E(Eh)            E(eV)
   0   2.0000     -19.329146      -525.9728
   1   2.0000     -19.264474      -524.2130
   2   2.0000     -19.263696      -524.1918
   3   2.0000     -19.229615      -523.2644
   4   2.0000     -19.222929      -523.0825
   5   2.0000     -19.216544      -522.9088
   6   2.0000     -19.204319      -522.5761
   7   2.0000     -14.673112      -399.2757
   8   2.0000     -14.498215      -394.5165
   9   2.0000     -14.438371      -392.8881
  10   2.0000     -14.427767      -392.5995
  11   2.0000     -14.419412      -392.3721
  12   2.0000     -14.412513      -392.1844
  13   2.0000     -14.412500      -392.1841
  14   2.0000     -14.407344      -392.0438
  15   2.0000     -14.403981      -391.9522
  16   2.0000     -14.401988      -391.8980
  17   2.0000     -10.396991      -282.9165
  18   2.0000     -10.379007      -282.4271
  19   2.0000     -10.378043      -282.4009
  20   2.0000     -10.374850      -282.3140
  21   2.0000     -10.372093      -282.2390
  22   2.0000     -10.365128      -282.0495
  23   2.0000     -10.361489      -281.9505
  24   2.0000     -10.360260      -281.9170
  25   2.0000     -10.360132      -281.9135
  26   2.0000     -10.357075      -281.8303
  27   2.0000     -10.346034      -281.5299
  28   2.0000     -10.344165      -281.4790
  29   2.0000     -10.344121      -281.4778
  30   2.0000     -10.343413      -281.4586
  31   2.0000     -10.341833      -281.4156
  32   2.0000     -10.334581      -281.2182
  33   2.0000     -10.330277      -281.1011
  34   2.0000     -10.328185      -281.0442
  35   2.0000     -10.325513      -280.9715
  36   2.0000     -10.325114      -280.9606
  37   2.0000     -10.324167      -280.9349
  38   2.0000     -10.322535      -280.8905
  39   2.0000     -10.321602      -280.8651
  40   2.0000     -10.320843      -280.8444
  41   2.0000     -10.320632      -280.8387
  42   2.0000     -10.318839      -280.7899
  43   2.0000     -10.313744      -280.6513
  44   2.0000     -10.313494      -280.6444
  45   2.0000     -10.311845      -280.5996
  46   2.0000     -10.310700      -280.5684
  47   2.0000     -10.310286      -280.5571
  48   2.0000     -10.309160      -280.5265
  49   2.0000     -10.308791      -280.5165
  50   2.0000     -10.306624      -280.4575
  51   2.0000     -10.305991      -280.4403
  52   2.0000     -10.304982      -280.4128
  53   2.0000     -10.304440      -280.3981
  54   2.0000     -10.303640      -280.3763
  55   2.0000     -10.301017      -280.3049
  56   2.0000     -10.300945      -280.3030
  57   2.0000     -10.296888      -280.1926
  58   2.0000     -10.296659      -280.1863
  59   2.0000     -10.295865      -280.1647
  60   2.0000     -10.295221      -280.1472
  61   2.0000     -10.292065      -280.0613
  62   2.0000     -10.291528      -280.0467
  63   2.0000     -10.291411      -280.0435
  64   2.0000     -10.289634      -279.9952
  65   2.0000     -10.288647      -279.9683
  66   2.0000     -10.287446      -279.9356
  67   2.0000     -10.286384      -279.9067
  68   2.0000     -10.286157      -279.9005
  69   2.0000     -10.285846      -279.8921
  70   2.0000     -10.285165      -279.8736
  71   2.0000     -10.284391      -279.8525
  72   2.0000     -10.284275      -279.8493
  73   2.0000     -10.283803      -279.8365
  74   2.0000     -10.283769      -279.8356
  75   2.0000     -10.281866      -279.7838
  76   2.0000     -10.278915      -279.7035
  77   2.0000      -1.344352       -36.5817
  78   2.0000      -1.251795       -34.0631
  79   2.0000      -1.164025       -31.6747
  80   2.0000      -1.145179       -31.1619
  81   2.0000      -1.137985       -30.9661
  82   2.0000      -1.132374       -30.8135
  83   2.0000      -1.120676       -30.4951
  84   2.0000      -1.119525       -30.4638
  85   2.0000      -1.077199       -29.3121
  86   2.0000      -1.071638       -29.1607
  87   2.0000      -1.057044       -28.7636
  88   2.0000      -1.055162       -28.7124
  89   2.0000      -1.036932       -28.2163
  90   2.0000      -1.016136       -27.6505
  91   2.0000      -1.014401       -27.6032
  92   2.0000      -1.008385       -27.4395
  93   2.0000      -0.996766       -27.1234
  94   2.0000      -0.985976       -26.8298
  95   2.0000      -0.979803       -26.6618
  96   2.0000      -0.968485       -26.3538
  97   2.0000      -0.963404       -26.2156
  98   2.0000      -0.952450       -25.9175
  99   2.0000      -0.936816       -25.4921
 100   2.0000      -0.934307       -25.4238
 101   2.0000      -0.932248       -25.3678
 102   2.0000      -0.928386       -25.2627
 103   2.0000      -0.919913       -25.0321
 104   2.0000      -0.916149       -24.9297
 105   2.0000      -0.902052       -24.5461
 106   2.0000      -0.898223       -24.4419
 107   2.0000      -0.890957       -24.2442
 108   2.0000      -0.881945       -23.9989
 109   2.0000      -0.871758       -23.7217
 110   2.0000      -0.860901       -23.4263
 111   2.0000      -0.859436       -23.3864
 112   2.0000      -0.855059       -23.2673
 113   2.0000      -0.851042       -23.1580
 114   2.0000      -0.846271       -23.0282
 115   2.0000      -0.837844       -22.7989
 116   2.0000      -0.836139       -22.7525
 117   2.0000      -0.816909       -22.2292
 118   2.0000      -0.798250       -21.7215
 119   2.0000      -0.795158       -21.6374
 120   2.0000      -0.794084       -21.6081
 121   2.0000      -0.781450       -21.2643
 122   2.0000      -0.771244       -20.9866
 123   2.0000      -0.762632       -20.7523
 124   2.0000      -0.757682       -20.6176
 125   2.0000      -0.746020       -20.3002
 126   2.0000      -0.742944       -20.2165
 127   2.0000      -0.729333       -19.8462
 128   2.0000      -0.725375       -19.7385
 129   2.0000      -0.720553       -19.6073
 130   2.0000      -0.715522       -19.4703
 131   2.0000      -0.714403       -19.4399
 132   2.0000      -0.713657       -19.4196
 133   2.0000      -0.706301       -19.2194
 134   2.0000      -0.702124       -19.1058
 135   2.0000      -0.692318       -18.8389
 136   2.0000      -0.677641       -18.4395
 137   2.0000      -0.673427       -18.3249
 138   2.0000      -0.670192       -18.2369
 139   2.0000      -0.663776       -18.0623
 140   2.0000      -0.658050       -17.9064
 141   2.0000      -0.655779       -17.8447
 142   2.0000      -0.651002       -17.7147
 143   2.0000      -0.645733       -17.5713
 144   2.0000      -0.643776       -17.5180
 145   2.0000      -0.641924       -17.4676
 146   2.0000      -0.638038       -17.3619
 147   2.0000      -0.632327       -17.2065
 148   2.0000      -0.628557       -17.1039
 149   2.0000      -0.622698       -16.9445
 150   2.0000      -0.617446       -16.8016
 151   2.0000      -0.610327       -16.6078
 152   2.0000      -0.609743       -16.5920
 153   2.0000      -0.608175       -16.5493
 154   2.0000      -0.601336       -16.3632
 155   2.0000      -0.598204       -16.2779
 156   2.0000      -0.596559       -16.2332
 157   2.0000      -0.590660       -16.0727
 158   2.0000      -0.589040       -16.0286
 159   2.0000      -0.588364       -16.0102
 160   2.0000      -0.584194       -15.8967
 161   2.0000      -0.577923       -15.7261
 162   2.0000      -0.574059       -15.6209
 163   2.0000      -0.570654       -15.5283
 164   2.0000      -0.566247       -15.4084
 165   2.0000      -0.564409       -15.3584
 166   2.0000      -0.560656       -15.2562
 167   2.0000      -0.557197       -15.1621
 168   2.0000      -0.551576       -15.0091
 169   2.0000      -0.551277       -15.0010
 170   2.0000      -0.549581       -14.9549
 171   2.0000      -0.545903       -14.8548
 172   2.0000      -0.542679       -14.7670
 173   2.0000      -0.540258       -14.7012
 174   2.0000      -0.539795       -14.6886
 175   2.0000      -0.534764       -14.5517
 176   2.0000      -0.531263       -14.4564
 177   2.0000      -0.528500       -14.3812
 178   2.0000      -0.527554       -14.3555
 179   2.0000      -0.521708       -14.1964
 180   2.0000      -0.520666       -14.1680
 181   2.0000      -0.518508       -14.1093
 182   2.0000      -0.517450       -14.0805
 183   2.0000      -0.514382       -13.9971
 184   2.0000      -0.513506       -13.9732
 185   2.0000      -0.511055       -13.9065
 186   2.0000      -0.510358       -13.8875
 187   2.0000      -0.508757       -13.8440
 188   2.0000      -0.507869       -13.8198
 189   2.0000      -0.502303       -13.6684
 190   2.0000      -0.499666       -13.5966
 191   2.0000      -0.496661       -13.5148
 192   2.0000      -0.491686       -13.3795
 193   2.0000      -0.490739       -13.3537
 194   2.0000      -0.488695       -13.2981
 195   2.0000      -0.486568       -13.2402
 196   2.0000      -0.484743       -13.1905
 197   2.0000      -0.483131       -13.1467
 198   2.0000      -0.481035       -13.0896
 199   2.0000      -0.476787       -12.9740
 200   2.0000      -0.475229       -12.9316
 201   2.0000      -0.471332       -12.8256
 202   2.0000      -0.470485       -12.8025
 203   2.0000      -0.468283       -12.7426
 204   2.0000      -0.465709       -12.6726
 205   2.0000      -0.465366       -12.6633
 206   2.0000      -0.458861       -12.4862
 207   2.0000      -0.457129       -12.4391
 208   2.0000      -0.456530       -12.4228
 209   2.0000      -0.453559       -12.3420
 210   2.0000      -0.452523       -12.3138
 211   2.0000      -0.448685       -12.2093
 212   2.0000      -0.444652       -12.0996
 213   2.0000      -0.443638       -12.0720
 214   2.0000      -0.438985       -11.9454
 215   2.0000      -0.437740       -11.9115
 216   2.0000      -0.437488       -11.9047
 217   2.0000      -0.436626       -11.8812
 218   2.0000      -0.435897       -11.8614
 219   2.0000      -0.432079       -11.7575
 220   2.0000      -0.431129       -11.7316
 221   2.0000      -0.422110       -11.4862
 222   2.0000      -0.421784       -11.4773
 223   2.0000      -0.417835       -11.3699
 224   2.0000      -0.412985       -11.2379
 225   2.0000      -0.409525       -11.1437
 226   2.0000      -0.404338       -11.0026
 227   2.0000      -0.403209       -10.9719
 228   2.0000      -0.399527       -10.8717
 229   2.0000      -0.396112       -10.7788
 230   2.0000      -0.393866       -10.7176
 231   2.0000      -0.381558       -10.3827
 232   2.0000      -0.380921       -10.3654
 233   2.0000      -0.374166       -10.1816
 234   2.0000      -0.371071       -10.0974
 235   2.0000      -0.362875        -9.8743
 236   2.0000      -0.361115        -9.8265
 237   2.0000      -0.358677        -9.7601
 238   2.0000      -0.355111        -9.6631
 239   2.0000      -0.349777        -9.5179
 240   2.0000      -0.348222        -9.4756
 241   2.0000      -0.342813        -9.3284
 242   2.0000      -0.339282        -9.2323
 243   2.0000      -0.336463        -9.1556
 244   2.0000      -0.334557        -9.1038
 245   2.0000      -0.330116        -8.9829
 246   2.0000      -0.329208        -8.9582
 247   2.0000      -0.323886        -8.8134
 248   2.0000      -0.318961        -8.6794
 249   2.0000      -0.317141        -8.6299
 250   2.0000      -0.305827        -8.3220
 251   2.0000      -0.300945        -8.1891
 252   2.0000      -0.296707        -8.0738
 253   2.0000      -0.287137        -7.8134
 254   2.0000      -0.265994        -7.2381
 255   0.0000      -0.119099        -3.2409
 256   0.0000      -0.114699        -3.1211
 257   0.0000      -0.097525        -2.6538
 258   0.0000      -0.079741        -2.1699
 259   0.0000      -0.073454        -1.9988

MULLIKEN ATOMIC CHARGES
-----------------------
   0 C :   -0.011421
   1 C :    0.124923
   2 O :   -0.151075
   3 C :    0.013756
   4 C :    0.009021
   5 C :    0.248199
   6 C :   -0.255916
   7 C :   -0.172456
   8 N :    0.151940
   9 C :   -0.193690
  10 N :    0.162450
  11 C :   -0.027630
  12 C :    0.004103
  13 C :    0.070094
  14 C :    0.032915
  15 C :   -0.014051
  16 C :    0.035174
  17 C :    0.036343
  18 C :   -0.024939
  19 C :   -0.005719
  20 C :    0.039848
  21 N :   -0.068959
  22 C :    0.086188
  23 C :   -0.117319
  24 C :    0.208657
  25 O :   -0.123688
  26 C :   -0.045128
  27 C :   -0.010470
  28 N :   -0.054413
  29 C :    0.091578
  30 C :   -0.088812
  31 C :    0.042934
  32 C :   -0.028915
  33 C :   -0.039068
  34 C :    0.012276
  35 O :   -0.153484
  36 C :    0.096053
  37 C :    0.136818
  38 N :    0.295339
  39 O :   -0.219047
  40 O :   -0.269296
  41 C :    0.093687
  42 N :    0.082938
  43 C :    0.004612
  44 N :   -0.095381
  45 C :    0.103712
  46 C :   -0.093710
  47 C :    0.191444
  48 O :   -0.123682
  49 C :   -0.049139
  50 C :   -0.038306
  51 N :   -0.108012
  52 C :    0.102589
  53 C :   -0.072600
  54 C :   -0.009689
  55 C :   -0.018196
  56 C :   -0.012923
  57 C :    0.012268
  58 C :   -0.071759
  59 C :    0.112720
  60 O :   -0.143896
  61 C :    0.013133
  62 C :   -0.016974
  63 C :    0.308389
  64 C :   -0.348612
  65 C :   -0.160609
  66 N :    0.124611
  67 C :   -0.188827
  68 N :    0.168372
  69 C :   -0.015942
  70 C :    0.008237
  71 C :    0.074910
  72 C :    0.035342
  73 C :   -0.020854
  74 C :    0.038126
  75 C :    0.037045
  76 C :   -0.015603
  77 H :    0.003859
  78 H :   -0.012603
  79 H :   -0.007823
  80 H :   -0.005291
  81 H :   -0.005413
  82 H :   -0.021915
  83 H :    0.009739
  84 H :    0.011697
  85 H :   -0.005298
  86 H :    0.018384
  87 H :    0.030206
  88 H :    0.036902
  89 H :    0.165663
  90 H :    0.005690
  91 H :   -0.013229
  92 H :    0.038618
  93 H :    0.021478
  94 H :    0.023652
  95 H :    0.004497
  96 H :   -0.009604
  97 H :    0.002519
  98 H :   -0.002707
  99 H :   -0.001075
 100 H :   -0.018480
Sum of atomic charges:    0.0000000

LOEWDIN ATOMIC CHARGES
----------------------
   0 C :   -0.000561
   1 C :    0.093720
   2 O :   -0.136121
   3 C :   -0.031806
   4 C :    0.006287
   5 C :    0.064641
   6 C :   -0.095096
   7 C :   -0.013186
   8 N :   -0.052152
   9 C :   -0.016310
  10 N :   -0.042297
  11 C :   -0.017546
  12 C :    0.016395
  13 C :   -0.014244
  14 C :   -0.006380
  15 C :   -0.001642
  16 C :   -0.010836
  17 C :   -0.014186
  18 C :   -0.014004
  19 C :    0.025601
  20 C :    0.070134
  21 N :   -0.073699
  22 C :    0.049739
  23 C :   -0.040314
  24 C :    0.066073
  25 O :   -0.136427
  26 C :   -0.038146
  27 C :    0.033510
  28 N :   -0.095270
  29 C :    0.079592
  30 C :   -0.033588
  31 C :   -0.019177
  32 C :   -0.011037
  33 C :   -0.036205
  34 C :    0.029325
  35 O :    0.055668
  36 C :    0.100311
  37 C :   -0.088676
  38 N :    0.302315
  39 O :   -0.178455
  40 O :   -0.215467
  41 C :   -0.000921
  42 N :    0.093479
  43 C :    0.103872
  44 N :   -0.139067
  45 C :    0.062721
  46 C :   -0.013248
  47 C :    0.063027
  48 O :   -0.138721
  49 C :   -0.044683
  50 C :   -0.009804
  51 N :   -0.109175
  52 C :    0.066528
  53 C :   -0.039894
  54 C :   -0.049688
  55 C :    0.028658
  56 C :   -0.029769
  57 C :    0.064006
  58 C :   -0.075772
  59 C :    0.088617
  60 O :   -0.133228
  61 C :   -0.029708
  62 C :   -0.005307
  63 C :    0.079412
  64 C :   -0.135155
  65 C :    0.006229
  66 N :   -0.069205
  67 C :   -0.021232
  68 N :   -0.039783
  69 C :   -0.016642
  70 C :    0.022583
  71 C :   -0.007320
  72 C :   -0.002716
  73 C :   -0.000183
  74 C :   -0.009397
  75 C :   -0.008540
  76 C :   -0.010862
  77 H :    0.040990
  78 H :    0.035599
  79 H :    0.032152
  80 H :    0.033644
  81 H :    0.032403
  82 H :    0.030184
  83 H :    0.045863
  84 H :    0.024349
  85 H :    0.034475
  86 H :    0.040284
  87 H :    0.030221
  88 H :    0.043026
  89 H :    0.082101
  90 H :    0.021575
  91 H :    0.032640
  92 H :    0.049095
  93 H :    0.030195
  94 H :    0.047773
  95 H :    0.040549
  96 H :    0.037291
  97 H :    0.036328
  98 H :    0.034166
  99 H :    0.033902
 100 H :    0.031597

  Mayer bond orders larger than 0.100000
B(  0-C ,  1-C ) :   0.9358 B(  0-C ,  5-C ) :   1.0027 B(  0-C , 19-C ) :   1.7094
B(  1-C ,  2-O ) :   2.1583 B(  1-C ,  3-C ) :   0.9558 B(  3-C ,  4-C ) :   1.4061
B(  3-C , 14-C ) :   1.2289 B(  4-C ,  5-C ) :   1.0049 B(  4-C , 11-C ) :   1.2563
B(  5-C ,  6-C ) :   1.7075 B(  6-C ,  7-C ) :   1.1487 B(  6-C ,  9-C ) :   1.1372
B(  7-C ,  8-N ) :   2.9727 B(  9-C , 10-N ) :   2.9954 B( 11-C , 12-C ) :   1.4638
B( 11-C , 77-H ) :   0.9881 B( 12-C , 13-C ) :   1.2147 B( 12-C , 78-H ) :   0.9941
B( 13-C , 14-C ) :   1.2464 B( 13-C , 18-C ) :   1.2416 B( 14-C , 15-C ) :   1.2918
B( 15-C , 16-C ) :   1.4632 B( 15-C , 79-H ) :   0.9833 B( 16-C , 17-C ) :   1.2569
B( 16-C , 80-H ) :   0.9895 B( 17-C , 18-C ) :   1.4855 B( 17-C , 81-H ) :   0.9905
B( 18-C , 82-H ) :   0.9972 B( 19-C , 20-C ) :   1.0835 B( 19-C , 83-H ) :   0.9313
B( 20-C , 21-N ) :   1.5709 B( 20-C , 22-C ) :   0.1075 B( 20-C , 31-C ) :   1.0207
B( 21-N , 22-C ) :   1.2992 B( 22-C , 23-C ) :   1.0478 B( 22-C , 27-C ) :   1.4378
B( 23-C , 24-C ) :   0.8875 B( 23-C , 31-C ) :   1.5893 B( 24-C , 25-O ) :   2.2972
B( 24-C , 26-C ) :   0.8946 B( 26-C , 27-C ) :   1.0455 B( 26-C , 30-C ) :   1.6280
B( 27-C , 28-N ) :   1.3050 B( 28-N , 29-C ) :   1.6635 B( 29-C , 30-C ) :   1.0622
B( 29-C , 84-H ) :   0.9889 B( 30-C , 85-H ) :   1.0087 B( 31-C , 32-C ) :   1.0786
B( 32-C , 33-C ) :   1.6313 B( 32-C , 86-H ) :   0.9797 B( 33-C , 34-C ) :   1.1919
B( 33-C , 87-H ) :   0.9134 B( 34-C , 35-O ) :   1.1272 B( 34-C , 41-C ) :   1.3846
B( 35-O , 36-C ) :   1.2096 B( 36-C , 37-C ) :   1.4559 B( 36-C , 88-H ) :   1.0126
B( 37-C , 38-N ) :   0.9407 B( 37-C , 41-C ) :   1.2428 B( 38-N , 39-O ) :   1.5814
B( 38-N , 40-O ) :   1.4545 B( 39-O , 40-O ) :   0.2527 B( 40-O , 89-H ) :   0.1269
B( 41-C , 42-N ) :   1.1512 B( 42-N , 43-C ) :   1.3578 B( 42-N , 89-H ) :   0.8067
B( 43-C , 44-N ) :   1.4499 B( 43-C , 45-C ) :   0.1226 B( 43-C , 54-C ) :   0.9998
B( 44-N , 45-C ) :   1.3717 B( 44-N , 87-H ) :   0.1295 B( 45-C , 46-C ) :   1.0500
B( 45-C , 50-C ) :   1.3677 B( 46-C , 47-C ) :   0.8820 B( 46-C , 54-C ) :   1.6344
B( 47-C , 48-O ) :   2.3055 B( 47-C , 49-C ) :   0.9062 B( 49-C , 50-C ) :   1.0770
B( 49-C , 53-C ) :   1.5385 B( 50-C , 51-N ) :   1.3061 B( 51-N , 52-C ) :   1.5725
B( 52-C , 53-C ) :   1.1326 B( 52-C , 90-H ) :   0.9879 B( 53-C , 91-H ) :   1.0175
B( 54-C , 55-C ) :   1.0277 B( 55-C , 56-C ) :   1.6854 B( 55-C , 92-H ) :   0.9742
B( 56-C , 57-C ) :   1.1154 B( 56-C , 93-H ) :   0.9612 B( 57-C , 58-C ) :   1.6727
B( 57-C , 94-H ) :   0.9443 B( 58-C , 59-C ) :   0.9472 B( 58-C , 63-C ) :   0.9980
B( 59-C , 60-O ) :   2.1872 B( 59-C , 61-C ) :   0.9475 B( 61-C , 62-C ) :   1.4068
B( 61-C , 72-C ) :   1.2404 B( 62-C , 63-C ) :   1.0098 B( 62-C , 69-C ) :   1.2530
B( 63-C , 64-C ) :   1.6388 B( 64-C , 65-C ) :   1.1835 B( 64-C , 67-C ) :   1.1168
B( 65-C , 66-N ) :   2.9212 B( 67-C , 68-N ) :   2.9972 B( 69-C , 70-C ) :   1.4788
B( 69-C , 95-H ) :   0.9833 B( 70-C , 71-C ) :   1.2197 B( 70-C , 96-H ) :   0.9949
B( 71-C , 72-C ) :   1.2390 B( 71-C , 76-C ) :   1.2427 B( 72-C , 73-C ) :   1.2740
B( 73-C , 74-C ) :   1.4748 B( 73-C , 97-H ) :   0.9875 B( 74-C , 75-C ) :   1.2559
B( 74-C , 98-H ) :   0.9880 B( 75-C , 76-C ) :   1.4919 B( 75-C , 99-H ) :   0.9897
B( 76-C ,100-H ) :   0.9987

-----------------------------------------------------------------------------
         ABSORPTION SPECTRUM VIA TRANSITION ELECTRIC DIPOLE MOMENTS
-----------------------------------------------------------------------------
State   Energy  Wavelength   fosc         T2         TX        TY        TZ
        (cm-1)    (nm)                  (au**2)     (au)      (au)      (au)
-----------------------------------------------------------------------------
   0   14753.7    677.8   0.063801099   1.42365   0.15965  -0.80318   0.86779
   1   17522.4    570.7   0.151450251   2.84546  -1.46161  -0.52822   0.65585
   2   19506.7    512.6   0.014150213   0.23881   0.10572   0.12063   0.46161
   3   20903.8    478.4   0.042122993   0.66339   0.15171  -0.79002   0.12744
   4   21145.7    472.9   0.008315365   0.12946  -0.35864   0.00817   0.02774
   5   21599.2    463.0   0.105931508   1.61460  -0.07143  -1.23129  -0.30564
   6   22246.1    449.5   0.349621993   5.17393   0.57027   1.16264  -1.87002
   7   23733.0    421.4   0.013635258   0.18914  -0.39175  -0.01535  -0.18826
   8   23776.9    420.6   0.120589059   1.66966   0.09230   0.77786  -1.02766
   9   24338.5    410.9   0.656260667   8.87682  -2.01200   1.88219   1.13404
  10   24585.0    406.8   0.014055816   0.18822  -0.20208   0.18028   0.33894
  11   25008.9    399.9   0.047455274   0.62469  -0.03276   0.77752   0.13815
  12   25284.2    395.5   0.054456618   0.70905  -0.41544   0.36077   0.63742
  13   25664.1    389.6   0.036425261   0.46725   0.41266   0.30024  -0.45477
  14   25962.1    385.2   0.001894360   0.02402   0.03083  -0.01042   0.15153
  15   26100.8    383.1   0.016150926   0.20371   0.09671  -0.39238  -0.20100
  16   26414.6    378.6   0.022797122   0.28413   0.36254  -0.17110  -0.35130
  17   26483.6    377.6   0.139674451   1.73626  -1.14271   0.57428   0.31732
  18   26737.2    374.0   0.130333594   1.60478  -0.25692  -0.04196   1.23976
  19   27027.1    370.0   0.081451670   0.99215  -0.34187  -0.24307   0.90343
  20   27431.7    364.5   0.218506188   2.62232  -0.39851   1.50764  -0.43650
  21   27737.2    360.5   0.112183913   1.33151   0.25742  -0.91730   0.65100
  22   27817.6    359.5   0.061548200   0.72840   0.32522   0.49638  -0.61339
  23   28207.8    354.5   0.053020496   0.61880   0.27194  -0.73621  -0.05327
  24   28729.5    348.1   0.060882010   0.69765   0.25454  -0.78759   0.11206
  25   29228.7    342.1   0.100248541   1.12913  -0.01379   0.57805   0.89151
  26   29464.7    339.4   0.029394822   0.32843  -0.08362  -0.17875  -0.53804
  27   29579.4    338.1   0.014209546   0.15815  -0.03218   0.28081  -0.27975
  28   29643.5    337.3   0.006877584   0.07638  -0.00898   0.23896  -0.13856
  29   29792.1    335.7   0.082178986   0.90810   0.26914  -0.79473   0.45174
  30   30057.5    332.7   0.050807141   0.55648  -0.44670   0.59166   0.08293
  31   30266.9    330.4   0.044105850   0.47974   0.39066  -0.03344  -0.57097
  32   30415.8    328.8   0.084151077   0.91083  -0.28807  -0.39983   0.81730
  33   30722.6    325.5   0.077170831   0.82693   0.58743  -0.66329   0.20472
  34   30765.4    325.0   0.038437739   0.41131   0.54927   0.15879   0.29052
  35   30794.8    324.7   0.026482219   0.28311   0.14395   0.51173  -0.02285
  36   31014.0    322.4   0.281085384   2.98370  -0.41319   1.21296  -1.15832
  37   31047.2    322.1   0.193128023   2.04785   0.10784  -1.37977   0.36395
  38   31332.5    319.2   0.255255128   2.68198  -1.09485   1.19415   0.23935
  39   31687.3    315.6   0.274116181   2.84791  -0.74152   1.31118  -0.76083
  40   31752.6    314.9   0.275024143   2.85146  -1.40005   0.25906   0.90786
  41   32140.6    311.1   0.111821498   1.14537  -0.92019   0.53254  -0.12257
  42   32231.2    310.3   0.171225249   1.74891  -0.15431   1.20671  -0.51861
  43   32647.3    306.3   0.246397909   2.48465   0.45682  -1.24607  -0.85045
  44   32684.9    306.0   0.372150101   3.74840   0.26961  -1.90047   0.25280
  45   32787.7    305.0   0.318388019   3.19685  -0.04033  -1.55505   0.88149
  46   32870.8    304.2   0.009157912   0.09172  -0.20025   0.07784  -0.21345
  47   33092.4    302.2   0.028088508   0.27943   0.43032  -0.23176  -0.20137
  48   33205.8    301.2   0.024096677   0.23890   0.23023  -0.35406   0.24604
  49   33558.5    298.0   0.040421610   0.39654   0.27468  -0.00720  -0.56660
  50   33883.1    295.1   0.121029006   1.17593   0.70746   0.71472  -0.40571
  51   34078.1    293.4   0.019074017   0.18426  -0.35026  -0.04093  -0.24476
  52   34167.9    292.7   0.034931453   0.33657   0.52479   0.24146   0.05350
  53   34588.7    289.1   0.238841610   2.27327  -1.07548  -0.59673   0.87208
  54   34753.0    287.7   0.001850949   0.01753  -0.08599   0.06221  -0.07918
  55   35018.0    285.6   0.108557869   1.02058   0.03940   0.70281  -0.72462
  56   35298.9    283.3   0.096293735   0.89808  -0.33632  -0.64702   0.60525
  57   35372.3    282.7   0.120621356   1.12263   0.17250   0.75995  -0.71788
  58   35684.5    280.2   0.134131959   1.23745   0.75463   0.27537  -0.76952
  59   35805.6    279.3   0.131496702   1.20904  -0.97434   0.11552   0.49633
  60   35948.5    278.2   0.055190829   0.50543   0.23147  -0.66474   0.09988
  61   36164.6    276.5   0.109648051   0.99814   0.88948  -0.44015  -0.11507
  62   36522.0    273.8   0.064629342   0.58257   0.15366  -0.39609   0.63409
  63   36949.6    270.6   0.027374020   0.24390   0.15749  -0.46612   0.04272
  64   37084.4    269.7   0.001725806   0.01532   0.05174   0.02072   0.11052
  65   37143.2    269.2   0.005426341   0.04810  -0.17860   0.07599  -0.10209
  66   37450.9    267.0   0.014974754   0.13164   0.32919   0.11418  -0.10114
  67   37489.4    266.7   0.023737589   0.20845  -0.37973   0.08203   0.23985
  68   37585.2    266.1   0.016526788   0.14476  -0.08934   0.16849   0.32922
  69   37784.1    264.7   0.017778253   0.15490   0.29118   0.13711  -0.22653
  70   37914.6    263.8   0.023772877   0.20642  -0.16779  -0.14954   0.39484
  71   38171.2    262.0   0.063095939   0.54418   0.43171   0.46486  -0.37644
  72   38275.8    261.3   0.207347528   1.78341   0.16096  -0.96599   0.90794
  73   38486.6    259.8   0.017267996   0.14771   0.31001  -0.18006  -0.13850
  74   38723.1    258.2   0.013541816   0.11513  -0.11229   0.10924  -0.30097
  75   38785.9    257.8   0.016089463   0.13657  -0.08258  -0.29926  -0.20048
  76   38895.4    257.1   0.007775886   0.06582  -0.06640  -0.08949  -0.23108
  77   38948.0    256.8   0.015889976   0.13431   0.10696  -0.19367   0.29217
  78   39014.6    256.3   0.008208645   0.06927   0.22925   0.12926   0.00082
  79   39278.3    254.6   0.037165923   0.31151   0.42086  -0.16138   0.32915
  80   39340.8    254.2   0.053902514   0.45107   0.03682  -0.60473  -0.28984
  81   39435.6    253.6   0.008782176   0.07331  -0.15032  -0.21769   0.05772
  82   39579.1    252.7   0.011666209   0.09704  -0.06341  -0.21615  -0.21516
  83   39672.1    252.1   0.045843488   0.38042   0.50308  -0.34931   0.07293
  84   39776.1    251.4   0.003183187   0.02635   0.13290  -0.03538  -0.08621
  85   39923.1    250.5   0.121458166   1.00156  -0.57491   0.78950  -0.21847
  86   39943.6    250.4   0.070820584   0.58370  -0.68465   0.30726  -0.14332
  87   40075.7    249.5   0.067480126   0.55433   0.22208  -0.68282   0.19691
  88   40106.3    249.3   0.002237882   0.01837   0.02687   0.05507  -0.12089

FINAL SINGLE POINT ENERGY     -3370.367930190248

DIPOLE MOMENT
-------------
                                X             Y             Z
Electronic contribution:    -13.45016     -27.63088       9.65973
Nuclear contribution   :     14.32996      31.86919     -10.28321
                        -----------------------------------------
Total Dipole Moment    :      0.87980       4.23831      -0.62348
                        -----------------------------------------
Magnitude (a.u.)       :      4.37334
Magnitude (Debye)      :     11.11614

Rotational constants in cm-1:     0.001399     0.000478     0.000395
Rotational constants in MHz :    41.928143    14.344473    11.847122

                             ****ORCA TERMINATED NORMALLY****
TOTAL RUN TIME: 0 days 0 hours 12 minutes 45 seconds 462 msec
