                         Program Version 4.2.0 -  RELEASE  -
|  1> # ORCA input file
|  2> # SCF done       -201.068547058205          0.000977288846
|  3> ! CAM-B3LYP def2-SVP def2/J RIJCOSX Grid4 TightSCF
|  4> %maxcore 5000
|  5> %tddft
|  6>     Mode sTDDFT
|  7>     Ethresh 5.0
|  8>     maxcore 5000
|  9> end
| 10>
| 11> %pal
| 12>   nprocs 6
| 13>   end
| 14> * xyz 0 1
| 15>    C        2.80334        -5.04038         0.32436
| 16>    C        1.92838        -5.52002        -0.78722
| 17>    O        1.04661        -4.88422        -1.32007
| 18>    C        2.41357        -6.87467        -1.10019
| 19>    C        3.38276        -7.24867        -0.16811
| 20>    C        3.53312        -6.18757         0.82375
| 21>    C        4.04704        -6.33972         2.08334
| 22>    C        3.94286        -5.36121         3.09421
| 23>    N        3.85145        -4.61698         3.96271
| 24>    C        4.66307        -7.51887         2.55220
| 25>    N        5.18726        -8.44557         2.98112
| 26>    C        4.02652        -8.48906        -0.26783
| 27>    C        3.68507        -9.32664        -1.29764
| 28>    C        2.70207        -8.98247        -2.25166
| 29>    C        2.03941        -7.72377        -2.15978
| 30>    C        1.05997        -7.38249        -3.11456
| 31>    C        0.74952        -8.25452        -4.12141
| 32>    C        1.39984        -9.49536        -4.21775
| 33>    C        2.35389        -9.85263        -3.30469
| 34>    C        2.85182        -3.71207         0.59219
| 35>    C        3.82651        -2.96863         1.30959
| 36>    C        5.14137        -3.26476         1.56670
| 37>    C        5.83128        -2.24061         2.24922
| 38>    C        4.99123        -1.12288         2.51841
| 39>    S        3.38965        -1.37237         1.89156
| 40>    C        5.43992        -0.00715         3.18471
| 41>    C        6.77450         0.01077         3.59770
| 42>    C        7.61717        -1.10588         3.33381
| 43>    C        7.16452        -2.22103         2.66870
| 44>    S        9.22818        -0.84737         3.95233
| 45>    C        8.77998         0.74270         4.53208
| 46>    C        7.46256         1.03770         4.27331
| 47>    C        9.72851         1.58812         5.18417
| 48>    C       11.04575         1.16181         5.44897
| 49>    C       12.01134         1.99566         6.10504
| 50>    N       13.25025         1.51269         6.33584
| 51>    C       13.55196         0.31485         5.95981
| 52>    C       12.59747        -0.50858         5.30151
| 53>    N       11.40099        -0.08303         5.06775
| 54>    F       12.91255        -1.73842         4.90947
| 55>    F       14.78040        -0.12797         6.20552
| 56>    C       11.72222         3.31154         6.51945
| 57>    C       10.40507         3.75113         6.25253
| 58>    C        9.42611         2.90437         5.60281
| 59>    N        8.25670         3.53244         5.46096
| 60>    S        8.36626         5.00929         6.07018
| 61>    N        9.89320         4.94790         6.54912
| 62>    C       12.69956         4.13068         7.16302
| 63>    C       12.53901         5.43674         7.56052
| 64>    C       13.68002         5.98471         8.17906
| 65>    C       14.74518         5.04309         8.25330
| 66>    S       14.29616         3.51693         7.53628
| 67>    C       15.95502         5.35349         8.82854
| 68>    C       16.12607         6.64044         9.34655
| 69>    C       15.05879         7.57974         9.26782
| 70>    C       13.84790         7.27278         8.69353
| 71>    S       15.50205         9.09935         9.98484
| 72>    C       17.11002         8.49987        10.34965
| 73>    C       17.26903         7.19344         9.96179
| 74>    C       18.00330         9.35434        11.04888
| 75>    C       19.35273         9.28530        11.16444
| 76>    C       20.02035        10.03127        12.27314
| 77>    O       19.51772        10.90647        12.94182
| 78>    C       21.35947         9.42963        12.38890
| 79>    C       21.55042         8.51662        11.35069
| 80>    C       20.37671         8.52160        10.48173
| 81>    C       20.34837         8.10317         9.17852
| 82>    C       19.27598         8.35732         8.29785
| 83>    N       18.44944         8.57249         7.53150
| 84>    C       21.41671         7.44770         8.53131
| 85>    N       22.24452         6.89529         7.95957
| 86>    C       22.74092         7.78406        11.25548
| 87>    C       23.71360         7.98360        12.20030
| 88>    C       23.55618         8.90730        13.25711
| 89>    C       22.34927         9.65813        13.36455
| 90>    C       22.19522        10.57860        14.42111
| 91>    C       23.19788        10.74800        15.33578
| 92>    C       24.38837        10.00998        15.23595
| 93>    C       24.56498         9.11028        14.22066
| 94>    H        4.78556        -8.77581         0.44189
| 95>    H        4.17709       -10.28379        -1.39383
| 96>    H        0.56785        -6.42640        -3.03071
| 97>    H       -0.00092        -7.99309        -4.85243
| 98>    H        1.14042       -10.16738        -5.02239
| 99>    H        2.85510       -10.80706        -3.37684
|100>    H        2.06334        -3.12545         0.12953
|101>    H        5.61942        -4.17152         1.23943
|102>    H        4.79148         0.83116         3.38243
|103>    H        7.81226        -3.06167         2.47769
|104>    H        7.01167         1.96867         4.56234
|105>    H       11.62413         5.97842         7.40850
|106>    H       16.75546         4.63249         8.87534
|107>    H       13.04927         7.99504         8.63957
|108>    H       18.16322         6.62479        10.14865
|109>    H       17.53637        10.14266        11.63242
|110>    H       22.88636         7.06713        10.46373
|111>    H       24.63494         7.42178        12.14602
|112>    H       21.27633        11.13941        14.48783
|113>    H       23.07990        11.45348        16.14464
|114>    H       25.16590        10.15836        15.97066
|115>    H       25.48027         8.54163        14.14171
|116> *
|117>
|118>                          ****END OF INPUT****

CARTESIAN COORDINATES (ANGSTROEM)
---------------------------------
  C      2.803340   -5.040380    0.324360
  C      1.928380   -5.520020   -0.787220
  O      1.046610   -4.884220   -1.320070
  C      2.413570   -6.874670   -1.100190
  C      3.382760   -7.248670   -0.168110
  C      3.533120   -6.187570    0.823750
  C      4.047040   -6.339720    2.083340
  C      3.942860   -5.361210    3.094210
  N      3.851450   -4.616980    3.962710
  C      4.663070   -7.518870    2.552200
  N      5.187260   -8.445570    2.981120
  C      4.026520   -8.489060   -0.267830
  C      3.685070   -9.326640   -1.297640
  C      2.702070   -8.982470   -2.251660
  C      2.039410   -7.723770   -2.159780
  C      1.059970   -7.382490   -3.114560
  C      0.749520   -8.254520   -4.121410
  C      1.399840   -9.495360   -4.217750
  C      2.353890   -9.852630   -3.304690
  C      2.851820   -3.712070    0.592190
  C      3.826510   -2.968630    1.309590
  C      5.141370   -3.264760    1.566700
  C      5.831280   -2.240610    2.249220
  C      4.991230   -1.122880    2.518410
  S      3.389650   -1.372370    1.891560
  C      5.439920   -0.007150    3.184710
  C      6.774500    0.010770    3.597700
  C      7.617170   -1.105880    3.333810
  C      7.164520   -2.221030    2.668700
  S      9.228180   -0.847370    3.952330
  C      8.779980    0.742700    4.532080
  C      7.462560    1.037700    4.273310
  C      9.728510    1.588120    5.184170
  C     11.045750    1.161810    5.448970
  C     12.011340    1.995660    6.105040
  N     13.250250    1.512690    6.335840
  C     13.551960    0.314850    5.959810
  C     12.597470   -0.508580    5.301510
  N     11.400990   -0.083030    5.067750
  F     12.912550   -1.738420    4.909470
  F     14.780400   -0.127970    6.205520
  C     11.722220    3.311540    6.519450
  C     10.405070    3.751130    6.252530
  C      9.426110    2.904370    5.602810
  N      8.256700    3.532440    5.460960
  S      8.366260    5.009290    6.070180
  N      9.893200    4.947900    6.549120
  C     12.699560    4.130680    7.163020
  C     12.539010    5.436740    7.560520
  C     13.680020    5.984710    8.179060
  C     14.745180    5.043090    8.253300
  S     14.296160    3.516930    7.536280
  C     15.955020    5.353490    8.828540
  C     16.126070    6.640440    9.346550
  C     15.058790    7.579740    9.267820
  C     13.847900    7.272780    8.693530
  S     15.502050    9.099350    9.984840
  C     17.110020    8.499870   10.349650
  C     17.269030    7.193440    9.961790
  C     18.003300    9.354340   11.048880
  C     19.352730    9.285300   11.164440
  C     20.020350   10.031270   12.273140
  O     19.517720   10.906470   12.941820
  C     21.359470    9.429630   12.388900
  C     21.550420    8.516620   11.350690
  C     20.376710    8.521600   10.481730
  C     20.348370    8.103170    9.178520
  C     19.275980    8.357320    8.297850
  N     18.449440    8.572490    7.531500
  C     21.416710    7.447700    8.531310
  N     22.244520    6.895290    7.959570
  C     22.740920    7.784060   11.255480
  C     23.713600    7.983600   12.200300
  C     23.556180    8.907300   13.257110
  C     22.349270    9.658130   13.364550
  C     22.195220   10.578600   14.421110
  C     23.197880   10.748000   15.335780
  C     24.388370   10.009980   15.235950
  C     24.564980    9.110280   14.220660
  H      4.785560   -8.775810    0.441890
  H      4.177090  -10.283790   -1.393830
  H      0.567850   -6.426400   -3.030710
  H     -0.000920   -7.993090   -4.852430
  H      1.140420  -10.167380   -5.022390
  H      2.855100  -10.807060   -3.376840
  H      2.063340   -3.125450    0.129530
  H      5.619420   -4.171520    1.239430
  H      4.791480    0.831160    3.382430
  H      7.812260   -3.061670    2.477690
  H      7.011670    1.968670    4.562340
  H     11.624130    5.978420    7.408500
  H     16.755460    4.632490    8.875340
  H     13.049270    7.995040    8.639570
  H     18.163220    6.624790   10.148650
  H     17.536370   10.142660   11.632420
  H     22.886360    7.067130   10.463730
  H     24.634940    7.421780   12.146020
  H     21.276330   11.139410   14.487830
  H     23.079900   11.453480   16.144640
  H     25.165900   10.158360   15.970660
  H     25.480270    8.541630   14.141710

 Total Charge           Charge          ....    0
 Multiplicity           Mult            ....    1
 Number of Electrons    NEL             ....  564
 Basis Dimension        Dim             .... 1236

ORBITAL ENERGIES
----------------

  NO   OCC          E(Eh)            E(eV)
   0   2.0000     -89.045687     -2423.0563
   1   2.0000     -88.951115     -2420.4829
   2   2.0000     -88.951032     -2420.4806
   3   2.0000     -88.943645     -2420.2796
   4   2.0000     -88.943596     -2420.2783
   5   2.0000     -24.818482      -675.3452
   6   2.0000     -24.818349      -675.3416
   7   2.0000     -19.217883      -522.9452
   8   2.0000     -19.217872      -522.9449
   9   2.0000     -14.458961      -393.4483
  10   2.0000     -14.458811      -393.4443
  11   2.0000     -14.454281      -393.3210
  12   2.0000     -14.454203      -393.3189
  13   2.0000     -14.415675      -392.2705
  14   2.0000     -14.415658      -392.2700
  15   2.0000     -14.412966      -392.1967
  16   2.0000     -14.412870      -392.1941
  17   2.0000     -10.435475      -283.9637
  18   2.0000     -10.435196      -283.9561
  19   2.0000     -10.368235      -282.1340
  20   2.0000     -10.368172      -282.1323
  21   2.0000     -10.348291      -281.5913
  22   2.0000     -10.348018      -281.5839
  23   2.0000     -10.345027      -281.5025
  24   2.0000     -10.344981      -281.5012
  25   2.0000     -10.343769      -281.4683
  26   2.0000     -10.343538      -281.4620
  27   2.0000     -10.341991      -281.4199
  28   2.0000     -10.341959      -281.4190
  29   2.0000     -10.318201      -280.7725
  30   2.0000     -10.318193      -280.7723
  31   2.0000     -10.318148      -280.7711
  32   2.0000     -10.317990      -280.7668
  33   2.0000     -10.316860      -280.7360
  34   2.0000     -10.316849      -280.7357
  35   2.0000     -10.313769      -280.6519
  36   2.0000     -10.313650      -280.6487
  37   2.0000     -10.312381      -280.6141
  38   2.0000     -10.312365      -280.6137
  39   2.0000     -10.311389      -280.5872
  40   2.0000     -10.311244      -280.5832
  41   2.0000     -10.309680      -280.5407
  42   2.0000     -10.309651      -280.5399
  43   2.0000     -10.304013      -280.3864
  44   2.0000     -10.303985      -280.3857
  45   2.0000     -10.297641      -280.2131
  46   2.0000     -10.297571      -280.2112
  47   2.0000     -10.296780      -280.1896
  48   2.0000     -10.296721      -280.1880
  49   2.0000     -10.296012      -280.1687
  50   2.0000     -10.296002      -280.1685
  51   2.0000     -10.295398      -280.1520
  52   2.0000     -10.295356      -280.1509
  53   2.0000     -10.295340      -280.1504
  54   2.0000     -10.295329      -280.1502
  55   2.0000     -10.293520      -280.1009
  56   2.0000     -10.293498      -280.1003
  57   2.0000     -10.291788      -280.0538
  58   2.0000     -10.291779      -280.0535
  59   2.0000     -10.290088      -280.0075
  60   2.0000     -10.290049      -280.0065
  61   2.0000     -10.286724      -279.9160
  62   2.0000     -10.286709      -279.9156
  63   2.0000     -10.283972      -279.8411
  64   2.0000     -10.283939      -279.8402
  65   2.0000     -10.283448      -279.8268
  66   2.0000     -10.283430      -279.8264
  67   2.0000     -10.283072      -279.8166
  68   2.0000     -10.283063      -279.8164
  69   2.0000     -10.282768      -279.8083
  70   2.0000     -10.282767      -279.8083
  71   2.0000     -10.282354      -279.7971
  72   2.0000     -10.282347      -279.7969
  73   2.0000     -10.281546      -279.7751
  74   2.0000     -10.281524      -279.7745
  75   2.0000     -10.277507      -279.6652
  76   2.0000     -10.277503      -279.6651
  77   2.0000     -10.274179      -279.5746
  78   2.0000     -10.274159      -279.5741
  79   2.0000      -8.137085      -221.4213
  80   2.0000      -8.047149      -218.9741
  81   2.0000      -8.047108      -218.9729
  82   2.0000      -8.037946      -218.7236
  83   2.0000      -8.037917      -218.7228
  84   2.0000      -6.108194      -166.2124
  85   2.0000      -6.100256      -165.9964
  86   2.0000      -6.099930      -165.9875
  87   2.0000      -6.016761      -163.7244
  88   2.0000      -6.016701      -163.7228
  89   2.0000      -6.012762      -163.6156
  90   2.0000      -6.012723      -163.6145
  91   2.0000      -6.008370      -163.4961
  92   2.0000      -6.008331      -163.4950
  93   2.0000      -6.007786      -163.4802
  94   2.0000      -6.007748      -163.4791
  95   2.0000      -6.003343      -163.3593
  96   2.0000      -6.003315      -163.3585
  97   2.0000      -5.999180      -163.2460
  98   2.0000      -5.999154      -163.2453
  99   2.0000      -1.347136       -36.6574
 100   2.0000      -1.333022       -36.2734
 101   2.0000      -1.143176       -31.1074
 102   2.0000      -1.133005       -30.8306
 103   2.0000      -1.133002       -30.8306
 104   2.0000      -1.119098       -30.4522
 105   2.0000      -1.045549       -28.4508
 106   2.0000      -1.018902       -27.7257
 107   2.0000      -1.018885       -27.7253
 108   2.0000      -1.002780       -27.2870
 109   2.0000      -1.002017       -27.2663
 110   2.0000      -0.998829       -27.1795
 111   2.0000      -0.998781       -27.1782
 112   2.0000      -0.997059       -27.1314
 113   2.0000      -0.992594       -27.0099
 114   2.0000      -0.991723       -26.9861
 115   2.0000      -0.986359       -26.8402
 116   2.0000      -0.975615       -26.5478
 117   2.0000      -0.969176       -26.3726
 118   2.0000      -0.967611       -26.3300
 119   2.0000      -0.963516       -26.2186
 120   2.0000      -0.926655       -25.2156
 121   2.0000      -0.924231       -25.1496
 122   2.0000      -0.918133       -24.9837
 123   2.0000      -0.912584       -24.8327
 124   2.0000      -0.902641       -24.5621
 125   2.0000      -0.900238       -24.4967
 126   2.0000      -0.888794       -24.1853
 127   2.0000      -0.888697       -24.1827
 128   2.0000      -0.878772       -23.9126
 129   2.0000      -0.875250       -23.8168
 130   2.0000      -0.874456       -23.7951
 131   2.0000      -0.868671       -23.6377
 132   2.0000      -0.856131       -23.2965
 133   2.0000      -0.853757       -23.2319
 134   2.0000      -0.839924       -22.8555
 135   2.0000      -0.838343       -22.8125
 136   2.0000      -0.833031       -22.6679
 137   2.0000      -0.831190       -22.6178
 138   2.0000      -0.819387       -22.2967
 139   2.0000      -0.811668       -22.0866
 140   2.0000      -0.802056       -21.8250
 141   2.0000      -0.787278       -21.4229
 142   2.0000      -0.783714       -21.3259
 143   2.0000      -0.781450       -21.2643
 144   2.0000      -0.776951       -21.1419
 145   2.0000      -0.770448       -20.9649
 146   2.0000      -0.767775       -20.8922
 147   2.0000      -0.756086       -20.5742
 148   2.0000      -0.752809       -20.4850
 149   2.0000      -0.734597       -19.9894
 150   2.0000      -0.718163       -19.5422
 151   2.0000      -0.713837       -19.4245
 152   2.0000      -0.713641       -19.4192
 153   2.0000      -0.708710       -19.2850
 154   2.0000      -0.705809       -19.2060
 155   2.0000      -0.694083       -18.8870
 156   2.0000      -0.689078       -18.7508
 157   2.0000      -0.686488       -18.6803
 158   2.0000      -0.685944       -18.6655
 159   2.0000      -0.682032       -18.5590
 160   2.0000      -0.675789       -18.3892
 161   2.0000      -0.675309       -18.3761
 162   2.0000      -0.671314       -18.2674
 163   2.0000      -0.665981       -18.1223
 164   2.0000      -0.652848       -17.7649
 165   2.0000      -0.650364       -17.6973
 166   2.0000      -0.648903       -17.6576
 167   2.0000      -0.642803       -17.4916
 168   2.0000      -0.629731       -17.1359
 169   2.0000      -0.629694       -17.1348
 170   2.0000      -0.629513       -17.1299
 171   2.0000      -0.627053       -17.0630
 172   2.0000      -0.622202       -16.9310
 173   2.0000      -0.617543       -16.8042
 174   2.0000      -0.613177       -16.6854
 175   2.0000      -0.602788       -16.4027
 176   2.0000      -0.599834       -16.3223
 177   2.0000      -0.596704       -16.2372
 178   2.0000      -0.588853       -16.0235
 179   2.0000      -0.588577       -16.0160
 180   2.0000      -0.587671       -15.9914
 181   2.0000      -0.584160       -15.8958
 182   2.0000      -0.573980       -15.6188
 183   2.0000      -0.572268       -15.5722
 184   2.0000      -0.569066       -15.4851
 185   2.0000      -0.568260       -15.4631
 186   2.0000      -0.567955       -15.4548
 187   2.0000      -0.563710       -15.3393
 188   2.0000      -0.559427       -15.2228
 189   2.0000      -0.556539       -15.1442
 190   2.0000      -0.552890       -15.0449
 191   2.0000      -0.540624       -14.7111
 192   2.0000      -0.540378       -14.7044
 193   2.0000      -0.536149       -14.5894
 194   2.0000      -0.535819       -14.5804
 195   2.0000      -0.533117       -14.5069
 196   2.0000      -0.532527       -14.4908
 197   2.0000      -0.528107       -14.3705
 198   2.0000      -0.527955       -14.3664
 199   2.0000      -0.525398       -14.2968
 200   2.0000      -0.523379       -14.2419
 201   2.0000      -0.520744       -14.1702
 202   2.0000      -0.515960       -14.0400
 203   2.0000      -0.514969       -14.0130
 204   2.0000      -0.513005       -13.9596
 205   2.0000      -0.511813       -13.9271
 206   2.0000      -0.509369       -13.8606
 207   2.0000      -0.509027       -13.8513
 208   2.0000      -0.506905       -13.7936
 209   2.0000      -0.506479       -13.7820
 210   2.0000      -0.505437       -13.7536
 211   2.0000      -0.504756       -13.7351
 212   2.0000      -0.500823       -13.6281
 213   2.0000      -0.500102       -13.6085
 214   2.0000      -0.493490       -13.4285
 215   2.0000      -0.493047       -13.4165
 216   2.0000      -0.489481       -13.3195
 217   2.0000      -0.485508       -13.2113
 218   2.0000      -0.484616       -13.1871
 219   2.0000      -0.481043       -13.0898
 220   2.0000      -0.479747       -13.0546
 221   2.0000      -0.477257       -12.9868
 222   2.0000      -0.473300       -12.8792
 223   2.0000      -0.472344       -12.8531
 224   2.0000      -0.470536       -12.8039
 225   2.0000      -0.468766       -12.7558
 226   2.0000      -0.466706       -12.6997
 227   2.0000      -0.456673       -12.4267
 228   2.0000      -0.455061       -12.3828
 229   2.0000      -0.450836       -12.2679
 230   2.0000      -0.449526       -12.2322
 231   2.0000      -0.448710       -12.2100
 232   2.0000      -0.447108       -12.1664
 233   2.0000      -0.442564       -12.0428
 234   2.0000      -0.440478       -11.9860
 235   2.0000      -0.440265       -11.9802
 236   2.0000      -0.440206       -11.9786
 237   2.0000      -0.439143       -11.9497
 238   2.0000      -0.438486       -11.9318
 239   2.0000      -0.435574       -11.8526
 240   2.0000      -0.434101       -11.8125
 241   2.0000      -0.433407       -11.7936
 242   2.0000      -0.433044       -11.7837
 243   2.0000      -0.430004       -11.7010
 244   2.0000      -0.429875       -11.6975
 245   2.0000      -0.425634       -11.5821
 246   2.0000      -0.425536       -11.5794
 247   2.0000      -0.425324       -11.5736
 248   2.0000      -0.420101       -11.4315
 249   2.0000      -0.419722       -11.4212
 250   2.0000      -0.416505       -11.3337
 251   2.0000      -0.413242       -11.2449
 252   2.0000      -0.412738       -11.2312
 253   2.0000      -0.412701       -11.2302
 254   2.0000      -0.403483       -10.9793
 255   2.0000      -0.401211       -10.9175
 256   2.0000      -0.400872       -10.9083
 257   2.0000      -0.384810       -10.4712
 258   2.0000      -0.382168       -10.3993
 259   2.0000      -0.378628       -10.3030
 260   2.0000      -0.376797       -10.2532
 261   2.0000      -0.375916       -10.2292
 262   2.0000      -0.371348       -10.1049
 263   2.0000      -0.368478       -10.0268
 264   2.0000      -0.367297        -9.9947
 265   2.0000      -0.353510        -9.6195
 266   2.0000      -0.350574        -9.5396
 267   2.0000      -0.346783        -9.4364
 268   2.0000      -0.343721        -9.3531
 269   2.0000      -0.335864        -9.1393
 270   2.0000      -0.333844        -9.0844
 271   2.0000      -0.330795        -9.0014
 272   2.0000      -0.320987        -8.7345
 273   2.0000      -0.317378        -8.6363
 274   2.0000      -0.315891        -8.5958
 275   2.0000      -0.299440        -8.1482
 276   2.0000      -0.294304        -8.0084
 277   2.0000      -0.292876        -7.9695
 278   2.0000      -0.284925        -7.7532
 279   2.0000      -0.274432        -7.4677
 280   2.0000      -0.260460        -7.0875
 281   2.0000      -0.239665        -6.5216
 282   0.0000      -0.117341        -3.1930
 283   0.0000      -0.085440        -2.3250
 284   0.0000      -0.084041        -2.2869
 285   0.0000      -0.068844        -1.8733
 286   0.0000      -0.068372        -1.8605

MULLIKEN ATOMIC CHARGES
-----------------------
   0 C :   -0.116588
   1 C :    0.118364
   2 O :   -0.149873
   3 C :    0.009550
   4 C :   -0.008052
   5 C :    0.260675
   6 C :   -0.337384
   7 C :   -0.202692
   8 N :    0.184649
   9 C :   -0.180062
  10 N :    0.161239
  11 C :   -0.024784
  12 C :    0.008085
  13 C :    0.077801
  14 C :    0.034204
  15 C :   -0.022712
  16 C :    0.035900
  17 C :    0.038172
  18 C :   -0.018461
  19 C :    0.084588
  20 C :   -0.100788
  21 C :    0.017847
  22 C :    0.096111
  23 C :   -0.025053
  24 S :    0.127748
  25 C :   -0.056176
  26 C :    0.133442
  27 C :   -0.015657
  28 C :   -0.054897
  29 S :    0.135636
  30 C :   -0.154642
  31 C :   -0.042255
  32 C :    0.189049
  33 C :   -0.061825
  34 C :   -0.061726
  35 N :   -0.027090
  36 C :    0.145510
  37 C :    0.145646
  38 N :   -0.027812
  39 F :   -0.134199
  40 F :   -0.134206
  41 C :    0.188688
  42 C :   -0.009027
  43 C :   -0.009242
  44 N :   -0.293685
  45 S :    0.551361
  46 N :   -0.293743
  47 C :   -0.155065
  48 C :   -0.042434
  49 C :    0.133423
  50 C :   -0.014096
  51 S :    0.135513
  52 C :   -0.056311
  53 C :    0.095909
  54 C :   -0.023506
  55 C :   -0.057586
  56 S :    0.127613
  57 C :   -0.100313
  58 C :    0.018174
  59 C :    0.082873
  60 C :   -0.115608
  61 C :    0.116734
  62 O :   -0.149898
  63 C :    0.009869
  64 C :   -0.009971
  65 C :    0.261746
  66 C :   -0.335691
  67 C :   -0.203041
  68 N :    0.180555
  69 C :   -0.177500
  70 N :    0.160100
  71 C :   -0.022842
  72 C :    0.007542
  73 C :    0.077739
  74 C :    0.032956
  75 C :   -0.022889
  76 C :    0.035607
  77 C :    0.037714
  78 C :   -0.018968
  79 H :    0.001033
  80 H :   -0.012888
  81 H :    0.000069
  82 H :   -0.006084
  83 H :   -0.006080
  84 H :   -0.021729
  85 H :    0.024622
  86 H :   -0.007875
  87 H :   -0.029893
  88 H :   -0.029843
  89 H :   -0.009166
  90 H :   -0.008788
  91 H :   -0.029515
  92 H :   -0.029454
  93 H :   -0.007679
  94 H :    0.025112
  95 H :    0.001799
  96 H :   -0.012451
  97 H :    0.000769
  98 H :   -0.005476
  99 H :   -0.005359
 100 H :   -0.021100
Sum of atomic charges:   -0.0000000

LOEWDIN ATOMIC CHARGES
----------------------
   0 C :   -0.082701
   1 C :    0.087955
   2 O :   -0.140364
   3 C :   -0.033514
   4 C :   -0.004338
   5 C :    0.065295
   6 C :   -0.134093
   7 C :   -0.020680
   8 N :   -0.033973
   9 C :   -0.021532
  10 N :   -0.048720
  11 C :   -0.018187
  12 C :    0.019335
  13 C :   -0.009497
  14 C :   -0.002836
  15 C :   -0.001875
  16 C :   -0.012053
  17 C :   -0.012426
  18 C :   -0.012259
  19 C :    0.045261
  20 C :   -0.169320
  21 C :   -0.011529
  22 C :   -0.041758
  23 C :   -0.145231
  24 S :    0.409040
  25 C :   -0.031212
  26 C :   -0.040508
  27 C :   -0.156821
  28 C :   -0.026271
  29 S :    0.424882
  30 C :   -0.152313
  31 C :   -0.031761
  32 C :   -0.036479
  33 C :   -0.012244
  34 C :   -0.012239
  35 N :   -0.048315
  36 C :    0.063487
  37 C :    0.063460
  38 N :   -0.048321
  39 F :   -0.023737
  40 F :   -0.023754
  41 C :   -0.036488
  42 C :   -0.035579
  43 C :   -0.035715
  44 N :   -0.277678
  45 S :    0.675368
  46 N :   -0.277613
  47 C :   -0.152396
  48 C :   -0.031956
  49 C :   -0.040505
  50 C :   -0.156771
  51 S :    0.424888
  52 C :   -0.026215
  53 C :   -0.041773
  54 C :   -0.145195
  55 C :   -0.031186
  56 S :    0.409012
  57 C :   -0.169427
  58 C :   -0.011509
  59 C :    0.045381
  60 C :   -0.082782
  61 C :    0.087935
  62 O :   -0.140446
  63 C :   -0.033500
  64 C :   -0.004379
  65 C :    0.065240
  66 C :   -0.134099
  67 C :   -0.020483
  68 N :   -0.034178
  69 C :   -0.021500
  70 N :   -0.048811
  71 C :   -0.018155
  72 C :    0.019154
  73 C :   -0.009467
  74 C :   -0.002837
  75 C :   -0.002028
  76 C :   -0.012082
  77 C :   -0.012564
  78 C :   -0.012377
  79 H :    0.039535
  80 H :    0.035676
  81 H :    0.035562
  82 H :    0.032800
  83 H :    0.032148
  84 H :    0.030293
  85 H :    0.046071
  86 H :    0.032805
  87 H :    0.031647
  88 H :    0.031845
  89 H :    0.028615
  90 H :    0.028696
  91 H :    0.031833
  92 H :    0.031654
  93 H :    0.032890
  94 H :    0.046147
  95 H :    0.039624
  96 H :    0.035766
  97 H :    0.035668
  98 H :    0.032884
  99 H :    0.032257
 100 H :    0.030443

  Mayer bond orders larger than 0.100000
B(  0-C ,  1-C ) :   0.9535 B(  0-C ,  5-C ) :   1.0209 B(  0-C , 19-C ) :   1.7143
B(  1-C ,  2-O ) :   2.1931 B(  1-C ,  3-C ) :   0.9377 B(  3-C ,  4-C ) :   1.4152
B(  3-C , 14-C ) :   1.2385 B(  4-C ,  5-C ) :   1.0018 B(  4-C , 11-C ) :   1.2600
B(  5-C ,  6-C ) :   1.6599 B(  6-C ,  7-C ) :   1.1617 B(  6-C ,  9-C ) :   1.1269
B(  7-C ,  8-N ) :   3.0135 B(  9-C , 10-N ) :   2.9974 B( 11-C , 12-C ) :   1.4687
B( 11-C , 79-H ) :   0.9873 B( 12-C , 13-C ) :   1.2228 B( 12-C , 80-H ) :   0.9939
B( 13-C , 14-C ) :   1.2400 B( 13-C , 18-C ) :   1.2413 B( 14-C , 15-C ) :   1.2747
B( 15-C , 16-C ) :   1.4752 B( 15-C , 81-H ) :   0.9864 B( 16-C , 17-C ) :   1.2543
B( 16-C , 82-H ) :   0.9881 B( 17-C , 18-C ) :   1.4961 B( 17-C , 83-H ) :   0.9891
B( 18-C , 84-H ) :   0.9969 B( 19-C , 20-C ) :   1.0941 B( 19-C , 85-H ) :   0.9258
B( 20-C , 21-C ) :   1.5224 B( 20-C , 24-S ) :   1.0708 B( 21-C , 22-C ) :   1.1958
B( 21-C , 86-H ) :   0.9916 B( 22-C , 23-C ) :   1.2723 B( 22-C , 28-C ) :   1.2983
B( 23-C , 24-S ) :   1.0505 B( 23-C , 25-C ) :   1.3849 B( 25-C , 26-C ) :   1.3086
B( 25-C , 28-C ) :   0.1012 B( 25-C , 87-H ) :   1.0020 B( 26-C , 27-C ) :   1.2618
B( 26-C , 31-C ) :   1.1383 B( 27-C , 28-C ) :   1.4027 B( 27-C , 29-S ) :   0.9995
B( 28-C , 88-H ) :   1.0016 B( 29-S , 30-C ) :   1.0744 B( 30-C , 31-C ) :   1.5327
B( 30-C , 32-C ) :   1.1624 B( 31-C , 89-H ) :   0.9857 B( 32-C , 33-C ) :   1.3099
B( 32-C , 41-C ) :   0.1303 B( 32-C , 43-C ) :   1.2011 B( 33-C , 34-C ) :   1.1147
B( 33-C , 38-N ) :   1.3813 B( 34-C , 35-N ) :   1.3811 B( 34-C , 41-C ) :   1.3103
B( 35-N , 36-C ) :   1.6693 B( 36-C , 37-C ) :   1.0984 B( 36-C , 40-F ) :   1.1866
B( 37-C , 38-N ) :   1.6692 B( 37-C , 39-F ) :   1.1862 B( 41-C , 42-C ) :   1.2001
B( 41-C , 47-C ) :   1.1630 B( 42-C , 43-C ) :   1.1035 B( 42-C , 46-N ) :   1.5026
B( 43-C , 44-N ) :   1.5023 B( 44-N , 45-S ) :   1.2810 B( 44-N , 46-N ) :   0.1527
B( 45-S , 46-N ) :   1.2810 B( 47-C , 48-C ) :   1.5313 B( 47-C , 51-S ) :   1.0745
B( 48-C , 49-C ) :   1.1386 B( 48-C , 90-H ) :   0.9859 B( 49-C , 50-C ) :   1.2626
B( 49-C , 55-C ) :   1.3088 B( 50-C , 51-S ) :   0.9991 B( 50-C , 52-C ) :   1.4013
B( 52-C , 53-C ) :   1.2984 B( 52-C , 55-C ) :   0.1011 B( 52-C , 91-H ) :   1.0022
B( 53-C , 54-C ) :   1.2730 B( 53-C , 58-C ) :   1.1960 B( 54-C , 55-C ) :   1.3835
B( 54-C , 56-S ) :   1.0500 B( 55-C , 92-H ) :   1.0026 B( 56-S , 57-C ) :   1.0711
B( 57-C , 58-C ) :   1.5211 B( 57-C , 59-C ) :   1.0936 B( 58-C , 93-H ) :   0.9918
B( 59-C , 60-C ) :   1.7147 B( 59-C , 94-H ) :   0.9260 B( 60-C , 61-C ) :   0.9535
B( 60-C , 65-C ) :   1.0207 B( 61-C , 62-O ) :   2.1932 B( 61-C , 63-C ) :   0.9385
B( 63-C , 64-C ) :   1.4162 B( 63-C , 74-C ) :   1.2377 B( 64-C , 65-C ) :   1.0015
B( 64-C , 71-C ) :   1.2604 B( 65-C , 66-C ) :   1.6585 B( 66-C , 67-C ) :   1.1620
B( 66-C , 69-C ) :   1.1253 B( 67-C , 68-N ) :   3.0107 B( 69-C , 70-N ) :   2.9965
B( 71-C , 72-C ) :   1.4693 B( 71-C , 95-H ) :   0.9864 B( 72-C , 73-C ) :   1.2239
B( 72-C , 96-H ) :   0.9933 B( 73-C , 74-C ) :   1.2410 B( 73-C , 78-C ) :   1.2411
B( 74-C , 75-C ) :   1.2757 B( 75-C , 76-C ) :   1.4761 B( 75-C , 97-H ) :   0.9857
B( 76-C , 77-C ) :   1.2555 B( 76-C , 98-H ) :   0.9874 B( 77-C , 78-C ) :   1.4960
B( 77-C , 99-H ) :   0.9886 B( 78-C ,100-H ) :   0.9969

-----------------------------------------------------------------------------
         ABSORPTION SPECTRUM VIA TRANSITION ELECTRIC DIPOLE MOMENTS
-----------------------------------------------------------------------------
State   Energy  Wavelength   fosc         T2         TX        TY        TZ
        (cm-1)    (nm)                  (au**2)     (au)      (au)      (au)
-----------------------------------------------------------------------------
   0   11714.0    853.7   1.105626644  31.07259  -3.78400  -3.27796  -2.45131
   1   16357.0    611.4   0.009908878   0.19943   0.29831  -0.33205  -0.01362
   2   18259.6    547.7   0.092086501   1.66028  -0.86362  -0.74432  -0.60035
   3   19650.6    508.9   0.518253353   8.68245  -2.13727  -1.83220  -0.87038
   4   19747.0    506.4   0.029398281   0.49011   0.30098  -0.61635  -0.14012
   5   22177.9    450.9   0.017018903   0.25263  -0.34767   0.35931   0.05146
   6   24230.7    412.7   0.586427491   7.96753   1.89720   1.64089   1.29446
   7   24469.7    408.7   0.006919987   0.09310  -0.21950   0.21170  -0.01030
   8   25041.6    399.3   0.360760199   4.74277  -1.54417  -1.29371  -0.82742
   9   25225.2    396.4   0.069235524   0.90359  -0.56807   0.75159   0.12647
  10   26451.2    378.1   0.100299893   1.24833   0.75922   0.65753   0.48947
  11   27399.6    365.0   0.003890682   0.04675  -0.18313   0.06160  -0.09705
  12   27433.1    364.5   0.249309753   2.99185  -0.69167  -0.52128  -1.49723
  13   27797.0    359.8   0.001463742   0.01734   0.05616   0.05907  -0.10340
  14   28711.4    348.3   0.049664777   0.56947   0.39595   0.35826  -0.53324
  15   28789.0    347.4   0.024510840   0.28029  -0.32271   0.41963   0.00763
  16   29290.2    341.4   0.000755427   0.00849   0.04900   0.04934   0.06045
  17   29341.9    340.8   0.000309998   0.00348  -0.04916   0.03204  -0.00588
  18   30000.5    333.3   0.129996884   1.42653  -0.86718  -0.70788  -0.41646
  19   30070.7    332.5   0.229389547   2.51134  -1.05207   1.17769   0.13243
  20   30296.4    330.1   0.227162096   2.46843  -0.81698  -0.54104  -1.22811
  21   30300.9    330.0   0.040028157   0.43490   0.18549   0.35712   0.52245
  22   30753.3    325.2   0.054518590   0.58362  -0.51087   0.56548   0.05350
  23   30868.9    324.0   0.010530217   0.11230   0.11328   0.14030  -0.28247
  24   30950.4    323.1   0.118292336   1.25825  -0.76525   0.81775   0.06272
  25   31150.6    321.0   0.091550968   0.96755   0.53182   0.44619   0.69687
  26   31604.1    316.4   0.037776327   0.39351  -0.40776   0.47354   0.05478
  27   31735.0    315.1   0.148117338   1.53654   0.49983   0.35007   1.07896
  28   32042.8    312.1   0.017771895   0.18259  -0.28648   0.31525   0.03377
  29   32049.3    312.0   0.036175654   0.37160  -0.23837  -0.18216  -0.53065
  30   32086.9    311.7   0.003590341   0.03684   0.14263  -0.12549   0.02733
  31   32942.5    303.6   0.041500177   0.41473  -0.06760   0.60667   0.20523
  32   32953.0    303.5   0.107815658   1.07712  -0.83091  -0.49752  -0.37306
  33   33173.7    301.4   0.611833616   6.07177   0.84092   0.51976   2.25709
  34   33262.2    300.6   0.103151027   1.02094  -0.69732   0.72419   0.10114
  35   33400.7    299.4   0.188839113   1.86128   0.69615   0.58043   1.01968
  36   33639.8    297.3   0.024227552   0.23710   0.35607  -0.32736  -0.05610
  37   34010.3    294.0   0.007850604   0.07599  -0.22341   0.16135   0.00666
  38   34095.2    293.3   1.152628593  11.12941  -1.89396  -1.56048  -2.25992
  39   34514.0    289.7   0.001041440   0.00993  -0.06575   0.07408  -0.01109
  40   34728.7    287.9   0.073572469   0.69743  -0.06265  -0.13231   0.82219
  41   34854.9    286.9   0.000095623   0.00090  -0.01933   0.02288   0.00251
  42   35820.9    279.2   0.009233347   0.08486   0.20470  -0.20409  -0.03611
  43   35847.9    279.0   0.013513123   0.12410   0.17263  -0.15961  -0.26234
  44   35863.8    278.8   0.175315738   1.60931   0.85067  -0.94093  -0.01789
  45   36368.5    275.0   0.163321392   1.47841   0.82130  -0.89229  -0.08774
  46   36497.6    274.0   0.070668477   0.63744   0.33110   0.21812   0.69299
  47   36916.0    270.9   0.050003440   0.44592   0.46126   0.40454   0.26364
  48   37155.6    269.1   0.299317946   2.65207   1.09705  -1.19938  -0.10016
  49   37442.7    267.1   0.018759919   0.16495  -0.16853  -0.12679  -0.34709
  50   37852.7    264.2   0.051523443   0.44811   0.46128  -0.48281  -0.04713
  51   37940.7    263.6   0.025941416   0.22509  -0.34132  -0.32674  -0.04287
  52   38336.7    260.8   0.014104941   0.12112  -0.23512   0.25600   0.01751
  53   38458.8    260.0   0.029896601   0.25592   0.34243  -0.37044  -0.03785
  54   38649.3    258.7   0.002066881   0.01761   0.05902   0.03226   0.11437
  55   39271.9    254.6   0.146983826   1.23215  -0.81192   0.75260   0.08082
  56   39298.5    254.5   0.036236160   0.30356   0.25421   0.48874  -0.00819
  57   40198.7    248.8   0.128128195   1.04932  -0.57210  -0.46834  -0.70900

FINAL SINGLE POINT ENERGY     -5150.349795117695

DIPOLE MOMENT
-------------
                                X             Y             Z
Electronic contribution:     -4.19634       3.68601       1.10594
Nuclear contribution   :      4.23737      -3.65063      -1.11443
                        -----------------------------------------
Total Dipole Moment    :      0.04104       0.03538      -0.00849
                        -----------------------------------------
Magnitude (a.u.)       :      0.05485
Magnitude (Debye)      :      0.13941

Rotational constants in cm-1:     0.002805     0.000144     0.000140
Rotational constants in MHz :    84.078023     4.312167     4.184764

                             ****ORCA TERMINATED NORMALLY****
TOTAL RUN TIME: 0 days 0 hours 10 minutes 55 seconds 804 msec
