                         Program Version 4.2.0 -  RELEASE  -
|  1> # ORCA input file
|  2> # SCF done       -199.747940427968          0.000586683624
|  3> ! CAM-B3LYP def2-SVP def2/J RIJCOSX Grid4 TightSCF
|  4> %maxcore 5000
|  5> %tddft
|  6>     Mode sTDDFT
|  7>     Ethresh 5.0
|  8>     maxcore 5000
|  9> end
| 10>
| 11> %pal
| 12>   nprocs 6
| 13>   end
| 14> * xyz 0 1
| 15>    C        8.04227        -2.51766         0.53161
| 16>    C        9.46756        -2.72912         0.15798
| 17>    O       10.42893        -2.20519         0.67716
| 18>    C        9.42921        -3.65475        -0.99111
| 19>    C        8.11502        -4.06913        -1.21113
| 20>    C        7.25984        -3.51186        -0.16764
| 21>    C        6.07520        -4.05708         0.25505
| 22>    C        5.45343        -3.71691         1.47456
| 23>    N        4.94199        -3.52434         2.48455
| 24>    C        5.39291        -5.09073        -0.41598
| 25>    N        4.78170        -5.91919        -0.92464
| 26>    C        7.80234        -4.92700        -2.27254
| 27>    C        8.81666        -5.36709        -3.08234
| 28>    C       10.16153        -4.99218        -2.86984
| 29>    C       10.48866        -4.10735        -1.80101
| 30>    C       11.83289        -3.73607        -1.59422
| 31>    C       12.81476        -4.22678        -2.40994
| 32>    C       12.49854        -5.10006        -3.46304
| 33>    C       11.20227        -5.47316        -3.68999
| 34>    C        7.68633        -1.46788         1.32511
| 35>    C        6.41971        -0.87688         1.47997
| 36>    C        6.04479        -0.04239         2.54544
| 37>    C        4.67544         0.35284         2.49471
| 38>    N        4.17750         1.19871         3.40601
| 39>    C        4.96246         1.56700         4.38492
| 40>    C        6.30891         1.08721         4.49022
| 41>    N        6.83636         0.32675         3.56408
| 42>    C        7.18140         1.47592         5.63402
| 43>    C        4.40604         2.53532         5.37296
| 44>    C        4.00350        -0.15688         1.36845
| 45>    S        5.10063        -1.02775         0.35880
| 46>    C        2.63232        -0.06871         1.03669
| 47>    C        2.19276        -0.26155        -0.29602
| 48>    C        0.81306        -0.20688        -0.67965
| 49>    N        0.49900        -0.17253        -1.98784
| 50>    C        1.43602        -0.34725        -2.86461
| 51>    C        2.77640        -0.58509        -2.47823
| 52>    N        3.13130        -0.49418        -1.23558
| 53>    F        3.72269        -0.85362        -3.37633
| 54>    F        1.10410        -0.25607        -4.15490
| 55>    C       -0.21383        -0.15407         0.29652
| 56>    C        0.22048         0.07795         1.62357
| 57>    C        1.61367         0.13534         1.99727
| 58>    N        1.75944         0.29864         3.30970
| 59>    S        0.31620         0.40206         3.99603
| 60>    N       -0.58163         0.22438         2.67403
| 61>    C       -1.57900        -0.39249         0.02263
| 62>    C       -2.13657        -0.99827        -1.12528
| 63>    C       -3.55013        -1.09655        -1.04076
| 64>    N       -4.27324        -1.56535        -2.06478
| 65>    C       -3.62931        -1.96533        -3.13274
| 66>    C       -2.19736        -2.00819        -3.15873
| 67>    N       -1.48973        -1.52668        -2.16917
| 68>    C       -1.46502        -2.61918        -4.30324
| 69>    C       -4.44512        -2.42040        -4.29223
| 70>    C       -4.07892        -0.64857         0.19229
| 71>    S       -2.79330        -0.07550         1.21458
| 72>    C       -5.45168        -0.70668         0.44466
| 73>    C       -6.13227        -0.48149         1.61476
| 74>    C       -5.50786        -0.16692         2.90550
| 75>    O       -4.32939         0.08336         3.10376
| 76>    C       -6.58660        -0.22428         3.90538
| 77>    C       -7.79521        -0.48788         3.26190
| 78>    C       -7.55624        -0.62583         1.82535
| 79>    C       -8.51836        -0.82824         0.86999
| 80>    C       -8.28859        -0.93767        -0.51855
| 81>    N       -8.20586        -1.02926        -1.66043
| 82>    C       -9.89894        -0.93964         1.13804
| 83>    N      -11.03409        -1.04144         1.27791
| 84>    C       -8.98047        -0.59342         4.00136
| 85>    C       -8.92625        -0.43920         5.36286
| 86>    C       -7.71683        -0.17839         6.04216
| 87>    C       -6.50452        -0.06406         5.30164
| 88>    C       -5.29631         0.19052         5.98280
| 89>    C       -5.29087         0.32595         7.34348
| 90>    C       -6.48269         0.21532         8.07818
| 91>    C       -7.66898        -0.03020         7.44353
| 92>    H        6.78329        -5.22564        -2.45765
| 93>    H        8.59422        -6.02566        -3.90955
| 94>    H       12.06302        -3.06458        -0.78216
| 95>    H       13.84467        -3.94537        -2.24850
| 96>    H       13.28990        -5.47618        -4.09451
| 97>    H       10.95648        -6.14556        -4.49930
| 98>    H        8.48909        -0.98948         1.87803
| 99>    H        7.29660         2.55806         5.67592
|100>    H        8.15706         1.01431         5.51388
|101>    H        6.73960         1.14861         6.57383
|102>    H        3.38218         2.77051         5.09840
|103>    H        4.99717         3.44992         5.38811
|104>    H        4.42268         2.10712         6.37374
|105>    H       -1.62929        -2.03305        -5.20642
|106>    H       -1.81522        -3.63290        -4.48962
|107>    H       -0.40176        -2.63728        -4.08614
|108>    H       -5.49743        -2.27106        -4.06785
|109>    H       -4.26641        -3.47552        -4.49488
|110>    H       -4.17862        -1.85789        -5.18543
|111>    H       -6.01523        -1.03233        -0.42241
|112>    H       -9.92073        -0.79744         3.51684
|113>    H       -9.83237        -0.52168         5.94561
|114>    H       -4.38721         0.27292         5.40824
|115>    H       -4.36532         0.51875         7.86543
|116>    H       -6.45434         0.32536         9.15224
|117>    H       -8.58729        -0.11603         8.00628
|118> *
|119>
|120>                          ****END OF INPUT****

CARTESIAN COORDINATES (ANGSTROEM)
---------------------------------
  C      8.042270   -2.517660    0.531610
  C      9.467560   -2.729120    0.157980
  O     10.428930   -2.205190    0.677160
  C      9.429210   -3.654750   -0.991110
  C      8.115020   -4.069130   -1.211130
  C      7.259840   -3.511860   -0.167640
  C      6.075200   -4.057080    0.255050
  C      5.453430   -3.716910    1.474560
  N      4.941990   -3.524340    2.484550
  C      5.392910   -5.090730   -0.415980
  N      4.781700   -5.919190   -0.924640
  C      7.802340   -4.927000   -2.272540
  C      8.816660   -5.367090   -3.082340
  C     10.161530   -4.992180   -2.869840
  C     10.488660   -4.107350   -1.801010
  C     11.832890   -3.736070   -1.594220
  C     12.814760   -4.226780   -2.409940
  C     12.498540   -5.100060   -3.463040
  C     11.202270   -5.473160   -3.689990
  C      7.686330   -1.467880    1.325110
  C      6.419710   -0.876880    1.479970
  C      6.044790   -0.042390    2.545440
  C      4.675440    0.352840    2.494710
  N      4.177500    1.198710    3.406010
  C      4.962460    1.567000    4.384920
  C      6.308910    1.087210    4.490220
  N      6.836360    0.326750    3.564080
  C      7.181400    1.475920    5.634020
  C      4.406040    2.535320    5.372960
  C      4.003500   -0.156880    1.368450
  S      5.100630   -1.027750    0.358800
  C      2.632320   -0.068710    1.036690
  C      2.192760   -0.261550   -0.296020
  C      0.813060   -0.206880   -0.679650
  N      0.499000   -0.172530   -1.987840
  C      1.436020   -0.347250   -2.864610
  C      2.776400   -0.585090   -2.478230
  N      3.131300   -0.494180   -1.235580
  F      3.722690   -0.853620   -3.376330
  F      1.104100   -0.256070   -4.154900
  C     -0.213830   -0.154070    0.296520
  C      0.220480    0.077950    1.623570
  C      1.613670    0.135340    1.997270
  N      1.759440    0.298640    3.309700
  S      0.316200    0.402060    3.996030
  N     -0.581630    0.224380    2.674030
  C     -1.579000   -0.392490    0.022630
  C     -2.136570   -0.998270   -1.125280
  C     -3.550130   -1.096550   -1.040760
  N     -4.273240   -1.565350   -2.064780
  C     -3.629310   -1.965330   -3.132740
  C     -2.197360   -2.008190   -3.158730
  N     -1.489730   -1.526680   -2.169170
  C     -1.465020   -2.619180   -4.303240
  C     -4.445120   -2.420400   -4.292230
  C     -4.078920   -0.648570    0.192290
  S     -2.793300   -0.075500    1.214580
  C     -5.451680   -0.706680    0.444660
  C     -6.132270   -0.481490    1.614760
  C     -5.507860   -0.166920    2.905500
  O     -4.329390    0.083360    3.103760
  C     -6.586600   -0.224280    3.905380
  C     -7.795210   -0.487880    3.261900
  C     -7.556240   -0.625830    1.825350
  C     -8.518360   -0.828240    0.869990
  C     -8.288590   -0.937670   -0.518550
  N     -8.205860   -1.029260   -1.660430
  C     -9.898940   -0.939640    1.138040
  N    -11.034090   -1.041440    1.277910
  C     -8.980470   -0.593420    4.001360
  C     -8.926250   -0.439200    5.362860
  C     -7.716830   -0.178390    6.042160
  C     -6.504520   -0.064060    5.301640
  C     -5.296310    0.190520    5.982800
  C     -5.290870    0.325950    7.343480
  C     -6.482690    0.215320    8.078180
  C     -7.668980   -0.030200    7.443530
  H      6.783290   -5.225640   -2.457650
  H      8.594220   -6.025660   -3.909550
  H     12.063020   -3.064580   -0.782160
  H     13.844670   -3.945370   -2.248500
  H     13.289900   -5.476180   -4.094510
  H     10.956480   -6.145560   -4.499300
  H      8.489090   -0.989480    1.878030
  H      7.296600    2.558060    5.675920
  H      8.157060    1.014310    5.513880
  H      6.739600    1.148610    6.573830
  H      3.382180    2.770510    5.098400
  H      4.997170    3.449920    5.388110
  H      4.422680    2.107120    6.373740
  H     -1.629290   -2.033050   -5.206420
  H     -1.815220   -3.632900   -4.489620
  H     -0.401760   -2.637280   -4.086140
  H     -5.497430   -2.271060   -4.067850
  H     -4.266410   -3.475520   -4.494880
  H     -4.178620   -1.857890   -5.185430
  H     -6.015230   -1.032330   -0.422410
  H     -9.920730   -0.797440    3.516840
  H     -9.832370   -0.521680    5.945610
  H     -4.387210    0.272920    5.408240
  H     -4.365320    0.518750    7.865430
  H     -6.454340    0.325360    9.152240
  H     -8.587290   -0.116030    8.006280

 Total Charge           Charge          ....    0
 Multiplicity           Mult            ....    1
 Number of Electrons    NEL             ....  540
 Basis Dimension        Dim             .... 1220

ORBITAL ENERGIES
----------------

  NO   OCC          E(Eh)            E(eV)
   0   2.0000     -89.037450     -2422.8322
   1   2.0000     -88.978205     -2421.2200
   2   2.0000     -88.972920     -2421.0763
   3   2.0000     -24.816845      -675.3007
   4   2.0000     -24.810797      -675.1361
   5   2.0000     -19.218138      -522.9521
   6   2.0000     -19.210120      -522.7339
   7   2.0000     -14.454940      -393.3389
   8   2.0000     -14.450051      -393.2059
   9   2.0000     -14.445117      -393.0716
  10   2.0000     -14.445039      -393.0695
  11   2.0000     -14.420476      -392.4011
  12   2.0000     -14.418360      -392.3435
  13   2.0000     -14.417408      -392.3176
  14   2.0000     -14.416917      -392.3042
  15   2.0000     -14.410419      -392.1274
  16   2.0000     -14.409204      -392.0944
  17   2.0000     -14.408621      -392.0785
  18   2.0000     -14.408049      -392.0630
  19   2.0000     -10.432166      -283.8737
  20   2.0000     -10.422131      -283.6006
  21   2.0000     -10.365144      -282.0499
  22   2.0000     -10.361444      -281.9492
  23   2.0000     -10.347466      -281.5689
  24   2.0000     -10.346352      -281.5386
  25   2.0000     -10.338447      -281.3234
  26   2.0000     -10.337661      -281.3021
  27   2.0000     -10.336865      -281.2804
  28   2.0000     -10.336689      -281.2756
  29   2.0000     -10.335793      -281.2512
  30   2.0000     -10.333684      -281.1938
  31   2.0000     -10.327337      -281.0211
  32   2.0000     -10.325296      -280.9656
  33   2.0000     -10.324201      -280.9358
  34   2.0000     -10.323035      -280.9041
  35   2.0000     -10.321495      -280.8621
  36   2.0000     -10.320030      -280.8223
  37   2.0000     -10.317710      -280.7592
  38   2.0000     -10.317049      -280.7412
  39   2.0000     -10.316506      -280.7264
  40   2.0000     -10.316330      -280.7216
  41   2.0000     -10.314882      -280.6822
  42   2.0000     -10.314213      -280.6640
  43   2.0000     -10.313473      -280.6439
  44   2.0000     -10.311387      -280.5871
  45   2.0000     -10.311291      -280.5845
  46   2.0000     -10.311278      -280.5841
  47   2.0000     -10.309825      -280.5446
  48   2.0000     -10.309756      -280.5427
  49   2.0000     -10.307828      -280.4903
  50   2.0000     -10.306734      -280.4605
  51   2.0000     -10.303773      -280.3799
  52   2.0000     -10.302727      -280.3515
  53   2.0000     -10.292698      -280.0785
  54   2.0000     -10.291847      -280.0554
  55   2.0000     -10.291143      -280.0362
  56   2.0000     -10.291096      -280.0350
  57   2.0000     -10.290589      -280.0212
  58   2.0000     -10.290063      -280.0069
  59   2.0000     -10.289903      -280.0025
  60   2.0000     -10.289427      -279.9895
  61   2.0000     -10.289266      -279.9852
  62   2.0000     -10.288389      -279.9613
  63   2.0000     -10.286915      -279.9212
  64   2.0000     -10.285754      -279.8896
  65   2.0000     -10.280930      -279.7583
  66   2.0000     -10.280395      -279.7438
  67   2.0000     -10.279813      -279.7279
  68   2.0000     -10.279295      -279.7138
  69   2.0000     -10.279027      -279.7065
  70   2.0000     -10.277304      -279.6597
  71   2.0000     -10.274833      -279.5924
  72   2.0000     -10.273116      -279.5457
  73   2.0000     -10.272496      -279.5288
  74   2.0000     -10.272126      -279.5187
  75   2.0000     -10.269690      -279.4525
  76   2.0000     -10.266161      -279.3564
  77   2.0000      -8.128696      -221.1931
  78   2.0000      -8.070969      -219.6222
  79   2.0000      -8.064594      -219.4488
  80   2.0000      -6.099757      -165.9828
  81   2.0000      -6.091982      -165.7713
  82   2.0000      -6.091505      -165.7583
  83   2.0000      -6.040094      -164.3593
  84   2.0000      -6.035708      -164.2400
  85   2.0000      -6.033868      -164.1899
  86   2.0000      -6.033699      -164.1853
  87   2.0000      -6.029149      -164.0615
  88   2.0000      -6.027449      -164.0152
  89   2.0000      -1.341288       -36.4983
  90   2.0000      -1.325632       -36.0723
  91   2.0000      -1.136330       -30.9211
  92   2.0000      -1.132954       -30.8293
  93   2.0000      -1.124894       -30.6099
  94   2.0000      -1.113561       -30.3015
  95   2.0000      -1.082787       -29.4641
  96   2.0000      -1.082172       -29.4474
  97   2.0000      -1.038605       -28.2619
  98   2.0000      -1.014314       -27.6009
  99   2.0000      -1.012271       -27.5453
 100   2.0000      -1.006851       -27.3978
 101   2.0000      -1.004036       -27.3212
 102   2.0000      -0.997049       -27.1311
 103   2.0000      -0.994287       -27.0559
 104   2.0000      -0.993817       -27.0431
 105   2.0000      -0.993731       -27.0408
 106   2.0000      -0.987099       -26.8603
 107   2.0000      -0.986673       -26.8487
 108   2.0000      -0.978646       -26.6303
 109   2.0000      -0.965933       -26.2844
 110   2.0000      -0.963273       -26.2120
 111   2.0000      -0.960594       -26.1391
 112   2.0000      -0.919123       -25.0106
 113   2.0000      -0.917882       -24.9768
 114   2.0000      -0.906215       -24.6594
 115   2.0000      -0.899062       -24.4647
 116   2.0000      -0.895634       -24.3714
 117   2.0000      -0.890318       -24.2268
 118   2.0000      -0.888281       -24.1713
 119   2.0000      -0.884155       -24.0591
 120   2.0000      -0.880776       -23.9671
 121   2.0000      -0.870346       -23.6833
 122   2.0000      -0.857523       -23.3344
 123   2.0000      -0.852116       -23.1873
 124   2.0000      -0.842039       -22.9131
 125   2.0000      -0.837219       -22.7819
 126   2.0000      -0.827870       -22.5275
 127   2.0000      -0.825193       -22.4546
 128   2.0000      -0.814617       -22.1669
 129   2.0000      -0.806815       -21.9545
 130   2.0000      -0.801388       -21.8069
 131   2.0000      -0.799657       -21.7598
 132   2.0000      -0.795469       -21.6458
 133   2.0000      -0.778992       -21.1975
 134   2.0000      -0.771179       -20.9849
 135   2.0000      -0.765432       -20.8285
 136   2.0000      -0.765120       -20.8200
 137   2.0000      -0.749651       -20.3990
 138   2.0000      -0.745712       -20.2919
 139   2.0000      -0.727263       -19.7898
 140   2.0000      -0.718204       -19.5433
 141   2.0000      -0.715105       -19.4590
 142   2.0000      -0.710830       -19.3427
 143   2.0000      -0.709505       -19.3066
 144   2.0000      -0.706966       -19.2375
 145   2.0000      -0.703023       -19.1302
 146   2.0000      -0.696598       -18.9554
 147   2.0000      -0.693978       -18.8841
 148   2.0000      -0.685261       -18.6469
 149   2.0000      -0.676928       -18.4201
 150   2.0000      -0.674692       -18.3593
 151   2.0000      -0.671100       -18.2615
 152   2.0000      -0.669483       -18.2176
 153   2.0000      -0.663347       -18.0506
 154   2.0000      -0.653632       -17.7862
 155   2.0000      -0.650536       -17.7020
 156   2.0000      -0.647134       -17.6094
 157   2.0000      -0.639623       -17.4050
 158   2.0000      -0.629084       -17.1182
 159   2.0000      -0.627549       -17.0765
 160   2.0000      -0.624758       -17.0005
 161   2.0000      -0.622957       -16.9515
 162   2.0000      -0.615771       -16.7560
 163   2.0000      -0.612520       -16.6675
 164   2.0000      -0.603202       -16.4140
 165   2.0000      -0.597392       -16.2559
 166   2.0000      -0.595527       -16.2051
 167   2.0000      -0.585689       -15.9374
 168   2.0000      -0.583730       -15.8841
 169   2.0000      -0.582932       -15.8624
 170   2.0000      -0.576094       -15.6763
 171   2.0000      -0.570981       -15.5372
 172   2.0000      -0.569602       -15.4996
 173   2.0000      -0.567780       -15.4501
 174   2.0000      -0.565459       -15.3869
 175   2.0000      -0.557086       -15.1591
 176   2.0000      -0.555157       -15.1066
 177   2.0000      -0.554019       -15.0756
 178   2.0000      -0.552241       -15.0272
 179   2.0000      -0.550708       -14.9855
 180   2.0000      -0.548603       -14.9283
 181   2.0000      -0.541568       -14.7368
 182   2.0000      -0.538103       -14.6425
 183   2.0000      -0.535474       -14.5710
 184   2.0000      -0.532217       -14.4824
 185   2.0000      -0.531280       -14.4569
 186   2.0000      -0.524856       -14.2821
 187   2.0000      -0.523481       -14.2446
 188   2.0000      -0.518857       -14.1188
 189   2.0000      -0.518017       -14.0960
 190   2.0000      -0.514164       -13.9911
 191   2.0000      -0.511565       -13.9204
 192   2.0000      -0.510742       -13.8980
 193   2.0000      -0.509510       -13.8645
 194   2.0000      -0.507876       -13.8200
 195   2.0000      -0.505534       -13.7563
 196   2.0000      -0.504278       -13.7221
 197   2.0000      -0.503731       -13.7072
 198   2.0000      -0.501703       -13.6520
 199   2.0000      -0.500323       -13.6145
 200   2.0000      -0.496400       -13.5077
 201   2.0000      -0.495418       -13.4810
 202   2.0000      -0.493065       -13.4170
 203   2.0000      -0.492505       -13.4018
 204   2.0000      -0.491917       -13.3857
 205   2.0000      -0.490480       -13.3466
 206   2.0000      -0.483618       -13.1599
 207   2.0000      -0.482170       -13.1205
 208   2.0000      -0.480007       -13.0617
 209   2.0000      -0.478183       -13.0120
 210   2.0000      -0.477437       -12.9917
 211   2.0000      -0.477258       -12.9868
 212   2.0000      -0.475587       -12.9414
 213   2.0000      -0.472430       -12.8555
 214   2.0000      -0.471892       -12.8408
 215   2.0000      -0.466746       -12.7008
 216   2.0000      -0.465985       -12.6801
 217   2.0000      -0.463508       -12.6127
 218   2.0000      -0.462181       -12.5766
 219   2.0000      -0.459642       -12.5075
 220   2.0000      -0.455493       -12.3946
 221   2.0000      -0.448458       -12.2032
 222   2.0000      -0.443191       -12.0598
 223   2.0000      -0.441715       -12.0197
 224   2.0000      -0.439670       -11.9640
 225   2.0000      -0.438093       -11.9211
 226   2.0000      -0.437449       -11.9036
 227   2.0000      -0.436388       -11.8747
 228   2.0000      -0.434558       -11.8249
 229   2.0000      -0.433383       -11.7929
 230   2.0000      -0.431656       -11.7459
 231   2.0000      -0.431588       -11.7441
 232   2.0000      -0.427507       -11.6331
 233   2.0000      -0.426059       -11.5937
 234   2.0000      -0.425601       -11.5812
 235   2.0000      -0.424498       -11.5512
 236   2.0000      -0.420188       -11.4339
 237   2.0000      -0.419571       -11.4171
 238   2.0000      -0.416930       -11.3453
 239   2.0000      -0.414825       -11.2880
 240   2.0000      -0.411358       -11.1936
 241   2.0000      -0.411001       -11.1839
 242   2.0000      -0.404306       -11.0017
 243   2.0000      -0.401395       -10.9225
 244   2.0000      -0.401080       -10.9140
 245   2.0000      -0.398750       -10.8505
 246   2.0000      -0.393877       -10.7180
 247   2.0000      -0.387875       -10.5546
 248   2.0000      -0.380564       -10.3557
 249   2.0000      -0.374020       -10.1776
 250   2.0000      -0.369996       -10.0681
 251   2.0000      -0.368825       -10.0362
 252   2.0000      -0.360039        -9.7972
 253   2.0000      -0.356379        -9.6976
 254   2.0000      -0.351122        -9.5545
 255   2.0000      -0.347394        -9.4531
 256   2.0000      -0.339929        -9.2499
 257   2.0000      -0.331686        -9.0256
 258   2.0000      -0.329322        -8.9613
 259   2.0000      -0.322985        -8.7889
 260   2.0000      -0.316545        -8.6136
 261   2.0000      -0.313646        -8.5347
 262   2.0000      -0.313488        -8.5304
 263   2.0000      -0.310629        -8.4526
 264   2.0000      -0.308235        -8.3875
 265   2.0000      -0.304556        -8.2874
 266   2.0000      -0.290734        -7.9113
 267   2.0000      -0.289035        -7.8650
 268   2.0000      -0.275894        -7.5074
 269   2.0000      -0.236237        -6.4283
 270   0.0000      -0.126490        -3.4420
 271   0.0000      -0.083613        -2.2752
 272   0.0000      -0.075971        -2.0673
 273   0.0000      -0.065230        -1.7750
 274   0.0000      -0.062544        -1.7019

MULLIKEN ATOMIC CHARGES
-----------------------
   0 C :   -0.115524
   1 C :    0.118229
   2 O :   -0.149480
   3 C :    0.008899
   4 C :   -0.011219
   5 C :    0.247947
   6 C :   -0.328684
   7 C :   -0.197872
   8 N :    0.164111
   9 C :   -0.177699
  10 N :    0.151273
  11 C :   -0.017710
  12 C :    0.003058
  13 C :    0.080237
  14 C :    0.032354
  15 C :   -0.024746
  16 C :    0.038295
  17 C :    0.037669
  18 C :   -0.022006
  19 C :    0.028421
  20 C :   -0.170488
  21 C :    0.059246
  22 C :    0.080929
  23 N :    0.050935
  24 C :   -0.179736
  25 C :   -0.169616
  26 N :    0.020445
  27 C :    0.129330
  28 C :    0.132281
  29 C :   -0.256615
  30 S :    0.225170
  31 C :    0.153135
  32 C :   -0.048639
  33 C :   -0.095828
  34 N :    0.051822
  35 C :    0.135778
  36 C :    0.155527
  37 N :   -0.046054
  38 F :   -0.139307
  39 F :   -0.152776
  40 C :    0.157097
  41 C :   -0.022389
  42 C :   -0.001448
  43 N :   -0.244345
  44 S :    0.540785
  45 N :   -0.306195
  46 C :   -0.251702
  47 C :    0.084472
  48 C :    0.007738
  49 N :    0.024583
  50 C :   -0.170632
  51 C :   -0.173057
  52 N :    0.031101
  53 C :    0.132633
  54 C :    0.126897
  55 C :   -0.103466
  56 S :    0.270256
  57 C :   -0.058039
  58 C :   -0.079585
  59 C :    0.143058
  60 O :   -0.192304
  61 C :    0.001866
  62 C :   -0.002916
  63 C :    0.319321
  64 C :   -0.350076
  65 C :   -0.199487
  66 N :    0.161967
  67 C :   -0.188745
  68 N :    0.151037
  69 C :   -0.020218
  70 C :    0.001489
  71 C :    0.075208
  72 C :    0.035994
  73 C :   -0.021148
  74 C :    0.038144
  75 C :    0.034776
  76 C :   -0.019470
  77 H :   -0.000042
  78 H :   -0.014205
  79 H :    0.000191
  80 H :   -0.008541
  81 H :   -0.008049
  82 H :   -0.022735
  83 H :    0.028708
  84 H :    0.026508
  85 H :    0.032103
  86 H :    0.027922
  87 H :    0.022082
  88 H :    0.026179
  89 H :    0.023244
  90 H :    0.030189
  91 H :    0.024877
  92 H :    0.021217
  93 H :    0.046478
  94 H :    0.027483
  95 H :    0.024798
  96 H :    0.022762
  97 H :   -0.003267
  98 H :   -0.015110
  99 H :   -0.005378
 100 H :   -0.012727
 101 H :   -0.006939
 102 H :   -0.022041
Sum of atomic charges:   -0.0000000

LOEWDIN ATOMIC CHARGES
----------------------
   0 C :   -0.095106
   1 C :    0.085401
   2 O :   -0.144091
   3 C :   -0.032326
   4 C :   -0.003763
   5 C :    0.063590
   6 C :   -0.145070
   7 C :   -0.035375
   8 N :   -0.053074
   9 C :   -0.020907
  10 N :   -0.056350
  11 C :   -0.017822
  12 C :    0.016841
  13 C :   -0.010025
  14 C :   -0.003528
  15 C :   -0.001946
  16 C :   -0.013792
  17 C :   -0.014210
  18 C :   -0.013332
  19 C :    0.054119
  20 C :   -0.200133
  21 C :   -0.024234
  22 C :   -0.039364
  23 N :   -0.023794
  24 C :   -0.003083
  25 C :    0.011106
  26 N :   -0.050274
  27 C :   -0.051813
  28 C :   -0.052184
  29 C :   -0.149455
  30 S :    0.565627
  31 C :   -0.037635
  32 C :   -0.010903
  33 C :    0.001289
  34 N :   -0.003585
  35 C :    0.049383
  36 C :    0.067763
  37 N :   -0.066794
  38 F :   -0.029229
  39 F :   -0.036872
  40 C :   -0.043593
  41 C :   -0.047297
  42 C :   -0.039835
  43 N :   -0.249331
  44 S :    0.670329
  45 N :   -0.301018
  46 C :   -0.165476
  47 C :   -0.043982
  48 C :   -0.027326
  49 N :   -0.045783
  50 C :    0.012190
  51 C :   -0.001987
  52 N :   -0.027560
  53 C :   -0.051638
  54 C :   -0.051790
  55 C :   -0.202842
  56 S :    0.601907
  57 C :    0.055456
  58 C :   -0.105099
  59 C :    0.087003
  60 O :   -0.168222
  61 C :   -0.031607
  62 C :   -0.006069
  63 C :    0.074948
  64 C :   -0.136591
  65 C :   -0.022854
  66 N :   -0.046159
  67 C :   -0.018787
  68 N :   -0.055385
  69 C :   -0.015170
  70 C :    0.014972
  71 C :   -0.009398
  72 C :   -0.003535
  73 C :   -0.004431
  74 C :   -0.015841
  75 C :   -0.015065
  76 C :   -0.012453
  77 H :    0.038888
  78 H :    0.034785
  79 H :    0.035410
  80 H :    0.031840
  81 H :    0.031334
  82 H :    0.029660
  83 H :    0.053253
  84 H :    0.038849
  85 H :    0.040914
  86 H :    0.039588
  87 H :    0.037216
  88 H :    0.037368
  89 H :    0.037511
  90 H :    0.041451
  91 H :    0.037072
  92 H :    0.034540
  93 H :    0.046074
  94 H :    0.039664
  95 H :    0.038655
  96 H :    0.051530
  97 H :    0.039551
  98 H :    0.034757
  99 H :    0.032700
 100 H :    0.030246
 101 H :    0.031401
 102 H :    0.030012

  Mayer bond orders larger than 0.100000
B(  0-C ,  1-C ) :   0.9647 B(  0-C ,  5-C ) :   1.0385 B(  0-C , 19-C ) :   1.5811
B(  1-C ,  2-O ) :   2.1999 B(  1-C ,  3-C ) :   0.9367 B(  3-C ,  4-C ) :   1.4192
B(  3-C , 14-C ) :   1.2387 B(  4-C ,  5-C ) :   1.0041 B(  4-C , 11-C ) :   1.2636
B(  5-C ,  6-C ) :   1.6429 B(  6-C ,  7-C ) :   1.1539 B(  6-C ,  9-C ) :   1.1347
B(  7-C ,  8-N ) :   3.0157 B(  9-C , 10-N ) :   2.9963 B( 11-C , 12-C ) :   1.4663
B( 11-C , 77-H ) :   0.9858 B( 12-C , 13-C ) :   1.2247 B( 12-C , 78-H ) :   0.9941
B( 13-C , 14-C ) :   1.2429 B( 13-C , 18-C ) :   1.2398 B( 14-C , 15-C ) :   1.2746
B( 15-C , 16-C ) :   1.4746 B( 15-C , 79-H ) :   0.9866 B( 16-C , 17-C ) :   1.2549
B( 16-C , 80-H ) :   0.9878 B( 17-C , 18-C ) :   1.4958 B( 17-C , 81-H ) :   0.9888
B( 18-C , 82-H ) :   0.9976 B( 19-C , 20-C ) :   1.1825 B( 19-C , 83-H ) :   0.9535
B( 20-C , 21-C ) :   1.2831 B( 20-C , 29-C ) :   0.1319 B( 20-C , 30-S ) :   1.1098
B( 21-C , 22-C ) :   1.2404 B( 21-C , 26-N ) :   1.4358 B( 22-C , 23-N ) :   1.4178
B( 22-C , 29-C ) :   1.2779 B( 23-N , 24-C ) :   1.7194 B( 24-C , 25-C ) :   1.1245
B( 24-C , 28-C ) :   1.0949 B( 25-C , 26-N ) :   1.7211 B( 25-C , 27-C ) :   1.0966
B( 27-C , 84-H ) :   0.9392 B( 27-C , 85-H ) :   0.9416 B( 27-C , 86-H ) :   0.9405
B( 28-C , 87-H ) :   0.9421 B( 28-C , 88-H ) :   0.9435 B( 28-C , 89-H ) :   0.9383
B( 29-C , 30-S ) :   1.2115 B( 29-C , 31-C ) :   1.1858 B( 31-C , 32-C ) :   1.2754
B( 31-C , 40-C ) :   0.1182 B( 31-C , 42-C ) :   1.2045 B( 32-C , 33-C ) :   1.1235
B( 32-C , 37-N ) :   1.3859 B( 33-C , 34-N ) :   1.4344 B( 33-C , 40-C ) :   1.2618
B( 34-N , 35-C ) :   1.6542 B( 35-C , 36-C ) :   1.1147 B( 35-C , 39-F ) :   1.1501
B( 36-C , 37-N ) :   1.6505 B( 36-C , 38-F ) :   1.1847 B( 40-C , 41-C ) :   1.1835
B( 40-C , 46-C ) :   1.2252 B( 41-C , 42-C ) :   1.1206 B( 41-C , 45-N ) :   1.5046
B( 42-C , 43-N ) :   1.5195 B( 43-N , 44-S ) :   1.2969 B( 43-N , 45-N ) :   0.1514
B( 44-S , 45-N ) :   1.2569 B( 46-C , 47-C ) :   1.2185 B( 46-C , 55-C ) :   0.1229
B( 46-C , 56-S ) :   1.1968 B( 47-C , 48-C ) :   1.2695 B( 47-C , 52-N ) :   1.4082
B( 48-C , 49-N ) :   1.4280 B( 48-C , 55-C ) :   1.2532 B( 49-N , 50-C ) :   1.7105
B( 50-C , 51-C ) :   1.1330 B( 50-C , 54-C ) :   1.0975 B( 51-C , 52-N ) :   1.6952
B( 51-C , 53-C ) :   1.0986 B( 53-C , 90-H ) :   0.9358 B( 53-C , 91-H ) :   0.9427
B( 53-C , 92-H ) :   0.9425 B( 54-C , 93-H ) :   0.9413 B( 54-C , 94-H ) :   0.9377
B( 54-C , 95-H ) :   0.9395 B( 55-C , 56-S ) :   1.0822 B( 55-C , 57-C ) :   1.3123
B( 57-C , 58-C ) :   1.4615 B( 57-C , 96-H ) :   0.9371 B( 58-C , 59-C ) :   1.0049
B( 58-C , 63-C ) :   1.0761 B( 59-C , 60-O ) :   2.0503 B( 59-C , 61-C ) :   0.9724
B( 61-C , 62-C ) :   1.4185 B( 61-C , 72-C ) :   1.2328 B( 62-C , 63-C ) :   0.9828
B( 62-C , 69-C ) :   1.2621 B( 63-C , 64-C ) :   1.6250 B( 64-C , 65-C ) :   1.1449
B( 64-C , 67-C ) :   1.1423 B( 65-C , 66-N ) :   2.9768 B( 67-C , 68-N ) :   2.9730
B( 69-C , 70-C ) :   1.4660 B( 69-C , 97-H ) :   0.9836 B( 70-C , 71-C ) :   1.2255
B( 70-C , 98-H ) :   0.9939 B( 71-C , 72-C ) :   1.2380 B( 71-C , 76-C ) :   1.2357
B( 72-C , 73-C ) :   1.2742 B( 73-C , 74-C ) :   1.4756 B( 73-C , 99-H ) :   0.9843
B( 74-C , 75-C ) :   1.2521 B( 74-C ,100-H ) :   0.9872 B( 75-C , 76-C ) :   1.4983
B( 75-C ,101-H ) :   0.9892 B( 76-C ,102-H ) :   0.9981

-----------------------------------------------------------------------------
         ABSORPTION SPECTRUM VIA TRANSITION ELECTRIC DIPOLE MOMENTS
-----------------------------------------------------------------------------
State   Energy  Wavelength   fosc         T2         TX        TY        TZ
        (cm-1)    (nm)                  (au**2)     (au)      (au)      (au)
-----------------------------------------------------------------------------
   0    9270.9   1078.6   0.860577526  30.55937  -5.49200   0.62636   0.07029
   1   17442.1    573.3   0.032523538   0.61387  -0.37849  -0.54308   0.41914
   2   17697.1    565.1   0.112420973   2.09132   0.09578   1.44056   0.08331
   3   19421.9    514.9   0.247741418   4.19935  -1.95711  -0.04267   0.60600
   4   20445.9    489.1   0.013083218   0.21066  -0.04103   0.33161   0.31466
   5   20817.5    480.4   0.018021688   0.28500  -0.21073   0.28472   0.39940
   6   21628.4    462.4   0.147585705   2.24644   1.25386   0.01552  -0.82100
   7   22209.2    450.3   0.017094624   0.25340   0.25973  -0.17046   0.39608
   8   22866.6    437.3   0.115604554   1.66437  -1.22400   0.32839   0.24155
   9   23189.9    431.2   0.034766042   0.49355   0.34043   0.09811   0.60666
  10   24114.7    414.7   0.045521462   0.62145  -0.16268   0.12972   0.76037
  11   24665.2    405.4   0.136101184   1.81658  -0.31296   0.83651   1.00940
  12   24920.9    401.3   0.039143383   0.51709   0.41401  -0.31322  -0.49758
  13   26272.8    380.6   0.009246386   0.11586  -0.18878   0.08166   0.27122
  14   27167.2    368.1   0.101319978   1.22779  -0.64852   0.35880   0.82370
  15   27340.7    365.8   0.014821132   0.17846   0.15428   0.16995   0.35465
  16   27372.0    365.3   0.031512036   0.37901  -0.29519  -0.41145   0.35012
  17   27809.1    359.6   0.148519863   1.75822   0.09522   0.90500   0.96443
  18   27968.8    357.5   0.011819927   0.13913   0.27449   0.22217   0.12009
  19   28444.8    351.6   0.044021089   0.50949   0.22570  -0.56256  -0.37693
  20   28669.0    348.8   0.049790193   0.57175   0.38928  -0.32009  -0.56370
  21   28778.7    347.5   0.059299622   0.67835  -0.81433  -0.09387   0.08005
  22   28938.6    345.6   0.022345100   0.25420   0.21132  -0.03958  -0.45605
  23   29102.4    343.6   0.364067024   4.11840   0.88037  -0.46835  -1.76748
  24   29372.3    340.5   0.040533282   0.45431   0.55097   0.31666   0.22465
  25   29524.0    338.7   0.081712652   0.91115   0.91121   0.06714  -0.27630
  26   30237.0    330.7   0.069797383   0.75994  -0.75407  -0.16734  -0.40412
  27   30334.1    329.7   0.091433476   0.99232   0.92825   0.03741  -0.35954
  28   30487.1    328.0   0.073402186   0.79263   0.76826   0.04082  -0.44804
  29   30998.0    322.6   0.009760500   0.10366   0.02332  -0.22078  -0.23318
  30   31322.2    319.3   0.014993548   0.15759  -0.25739   0.16903   0.25054
  31   31991.2    312.6   0.107868985   1.11005   0.13939   0.73109   0.74574
  32   32122.1    311.3   0.120747754   1.23752  -0.86822  -0.19004  -0.66902
  33   32409.3    308.6   0.167447393   1.70092   0.00765   0.48862   1.20918
  34   32610.4    306.7   0.255979036   2.58418  -1.08121  -0.13344  -1.18210
  35   33160.6    301.6   0.333504424   3.31097  -1.08612   0.62670   1.31854
  36   33339.7    299.9   0.250980234   2.47830   1.46811   0.17017  -0.54221
  37   33789.2    296.0   0.006596702   0.06427  -0.16442   0.11098  -0.15787
  38   33926.3    294.8   0.017085824   0.16580  -0.33912  -0.13940   0.17709
  39   34070.4    293.5   0.350733234   3.38903  -0.67025   0.06743   1.71326
  40   34117.0    293.1   0.222881767   2.15070   0.98227   0.42385   1.00309
  41   34673.3    288.4   0.031088067   0.29517  -0.45950  -0.07794  -0.27921
  42   34907.9    286.5   0.014399991   0.13580  -0.20024  -0.01247  -0.30912
  43   35383.8    282.6   0.045961763   0.42763  -0.04701   0.22414   0.61252
  44   35629.2    280.7   0.055530251   0.51310   0.29937  -0.36005  -0.54207
  45   35800.8    279.3   0.017220049   0.15835   0.01263   0.20219   0.34251
  46   35990.6    277.9   0.096074585   0.87881   0.20090  -0.18944  -0.89586
  47   36204.0    276.2   0.129175649   1.17463   0.84226   0.13108  -0.66936
  48   36386.6    274.8   0.046777453   0.42322  -0.12963  -0.44571  -0.45581
  49   36818.4    271.6   0.175915102   1.57294  -0.68900  -0.26702  -1.01337
  50   37145.9    269.2   0.018807133   0.16668   0.03252   0.24861   0.32221
  51   37263.0    268.4   0.013166516   0.11632   0.30060   0.14573   0.06877
  52   37536.3    266.4   0.013624720   0.11950  -0.23598  -0.11045  -0.22718
  53   37709.8    265.2   0.004508591   0.03936   0.04446  -0.15032  -0.12160
  54   37794.6    264.6   0.110196832   0.95988  -0.43609  -0.13302  -0.86718
  55   37905.1    263.8   0.015165122   0.13171  -0.34293  -0.11640  -0.02377
  56   38133.2    262.2   0.047511178   0.41017  -0.04620  -0.21330  -0.60212
  57   38222.6    261.6   0.017532373   0.15101   0.36739   0.11655  -0.04947
  58   38325.3    260.9   0.002995143   0.02573  -0.12080   0.10452  -0.01454
  59   38511.0    259.7   0.049583649   0.42387   0.05180  -0.02756  -0.64840
  60   38630.1    258.9   0.024908289   0.21227  -0.39669  -0.17066  -0.16057
  61   38718.0    258.3   0.044732491   0.38035  -0.21498   0.15407   0.55713
  62   38759.3    258.0   0.063918323   0.54291  -0.02334  -0.05147  -0.73465
  63   38910.7    257.0   0.023648082   0.20008   0.20951   0.19053   0.34624
  64   39190.3    255.2   0.069724574   0.58571  -0.39675   0.27802   0.59246
  65   39465.5    253.4   0.010685710   0.08914   0.12875   0.01339  -0.26904
  66   39621.7    252.4   0.043084374   0.35798  -0.36955  -0.28763  -0.37241
  67   39682.7    252.0   0.109637386   0.90956   0.84860   0.41825   0.12050
  68   39767.1    251.5   0.023146146   0.19162   0.26583   0.08653   0.33684
  69   39878.0    250.8   0.029201108   0.24107   0.05072   0.02494  -0.48772
  70   40015.0    249.9   0.040132319   0.33018  -0.16584  -0.06969   0.54573
  71   40076.3    249.5   0.052746076   0.43329   0.03608  -0.26854  -0.59989

FINAL SINGLE POINT ENERGY     -4423.081958240564

DIPOLE MOMENT
-------------
                                X             Y             Z
Electronic contribution:     -9.43365       5.79260     -15.86581
Nuclear contribution   :     11.77590      -4.51640      16.85958
                        -----------------------------------------
Total Dipole Moment    :      2.34225       1.27621       0.99377
                        -----------------------------------------
Magnitude (a.u.)       :      2.84647
Magnitude (Debye)      :      7.23516

Rotational constants in cm-1:     0.001516     0.000372     0.000319
Rotational constants in MHz :    45.459477    11.149705     9.562270

                             ****ORCA TERMINATED NORMALLY****
TOTAL RUN TIME: 0 days 0 hours 15 minutes 47 seconds 248 msec
