                         Program Version 4.2.0 -  RELEASE  -
|  1> # ORCA input file
|  2> # SCF done       -167.244727552461          0.000905823990
|  3> ! CAM-B3LYP def2-SVP def2/J RIJCOSX Grid4 TightSCF
|  4> %maxcore 5000
|  5> %tddft
|  6>     Mode sTDDFT
|  7>     Ethresh 5.0
|  8>     maxcore 5000
|  9> end
| 10>
| 11> %pal
| 12>   nprocs 6
| 13>   end
| 14> * xyz 0 1
| 15>    C        1.95927        -5.03061        -5.37096
| 16>    C        1.43185        -5.43629        -6.70764
| 17>    O        2.09898        -5.65561        -7.69430
| 18>    C       -0.02541        -5.54899        -6.53013
| 19>    C       -0.37176        -5.12519        -5.24607
| 20>    C        0.82376        -4.64802        -4.55691
| 21>    C        0.83283        -3.77574        -3.50152
| 22>    C        1.98802        -3.11755        -3.03123
| 23>    N        2.88414        -2.51475        -2.64266
| 24>    C       -0.32463        -3.34407        -2.81959
| 25>    N       -1.22721        -2.96648        -2.21960
| 26>    C       -1.70437        -5.16707        -4.81610
| 27>    C       -2.66273        -5.61634        -5.68672
| 28>    C       -2.34956        -6.02941        -7.00040
| 29>    C       -0.99523        -6.00463        -7.44447
| 30>    C       -0.68643        -6.42252        -8.75490
| 31>    C       -1.68129        -6.84292        -9.59404
| 32>    C       -3.01746        -6.86639        -9.16305
| 33>    C       -3.34533        -6.47047        -7.89535
| 34>    C        3.28847        -5.13814        -5.12225
| 35>    C        3.96511        -5.13532        -3.87558
| 36>    C        3.49855        -5.49153        -2.62516
| 37>    C        4.48732        -5.37028        -1.65125
| 38>    C        5.71505        -4.90841        -2.14091
| 39>    S        5.65964        -4.67542        -3.84350
| 40>    C        6.68513        -4.72968        -1.15181
| 41>    C        6.21736        -5.07901         0.09405
| 42>    S        4.54799        -5.62488         0.05568
| 43>    C        6.93216        -4.92217         1.32230
| 44>    C        6.74628        -5.53656         2.54059
| 45>    C        7.60598        -5.00055         3.55821
| 46>    C        7.72268        -5.37309         4.89546
| 47>    C        8.64520        -4.72243         5.70191
| 48>    C        9.46779        -3.70322         5.19348
| 49>    C        9.37594        -3.33806         3.87013
| 50>    C        8.45093        -3.98679         3.06264
| 51>    S        8.18213        -3.69440         1.37514
| 52>    C        8.76612        -5.09812         7.06036
| 53>    N        8.86547        -5.40248         8.16077
| 54>    C        5.86025        -6.65928         2.74634
| 55>    C        5.75328        -7.76669         1.94355
| 56>    C        4.83373        -8.69060         2.45165
| 57>    C        4.22812        -8.28691         3.64710
| 58>    S        4.80937        -6.73972         4.14616
| 59>    C        3.32167        -9.20707         4.16697
| 60>    C        3.22389       -10.33554         3.37442
| 61>    S        4.28401       -10.24709         1.97334
| 62>    C        2.49784       -11.53176         3.58577
| 63>    C        1.45435       -11.78117         4.41928
| 64>    C        1.16157       -13.19443         4.80003
| 65>    O        1.59132       -14.18198         4.24621
| 66>    C        0.30411       -13.10098         5.99413
| 67>    C       -0.02704       -11.76509         6.22457
| 68>    C        0.54816       -10.93790         5.16718
| 69>    C        0.11061        -9.69191         4.80219
| 70>    C        0.51973        -9.04520         3.61821
| 71>    N        0.80264        -8.49995         2.64867
| 72>    C       -0.86123        -8.95439         5.50929
| 73>    N       -1.63228        -8.30324         6.05582
| 74>    C       -0.81435       -11.40504         7.32570
| 75>    C       -1.25583       -12.39124         8.16918
| 76>    C       -0.94835       -13.75329         7.95814
| 77>    C       -0.14520       -14.13118         6.84269
| 78>    C        0.16432       -15.49130         6.63846
| 79>    C       -0.30534       -16.43996         7.50434
| 80>    C       -1.09838       -16.07385         8.60387
| 81>    C       -1.41324       -14.76150         8.82697
| 82>    H       -1.97253        -4.86371        -3.81719
| 83>    H       -3.69488        -5.65806        -5.37016
| 84>    H        0.34323        -6.40003        -9.07511
| 85>    H       -1.44469        -7.16057       -10.59850
| 86>    H       -3.78690        -7.20112        -9.84292
| 87>    H       -4.37267        -6.48738        -7.56137
| 88>    H        3.90888        -5.29514        -5.99972
| 89>    H        2.50357        -5.85223        -2.43796
| 90>    H        7.68192        -4.36938        -1.32968
| 91>    H        7.10590        -6.15708         5.30652
| 92>    H       10.17311        -3.21643         5.84932
| 93>    H       10.00572        -2.56434         3.46059
| 94>    H        6.33254        -7.91136         1.05042
| 95>    H        2.80171        -9.08138         5.09889
| 96>    H        2.87907       -12.40613         3.06596
| 97>    H       -1.05849       -10.37253         7.51650
| 98>    H       -1.85851       -12.13052         9.02717
| 99>    H        0.77462       -15.76033         5.79086
|100>    H       -0.06794       -17.48157         7.34777
|101>    H       -1.45821       -16.83978         9.27483
|102>    H       -2.02331       -14.47766         9.67226
|103> *
|104>
|105>                          ****END OF INPUT****

CARTESIAN COORDINATES (ANGSTROEM)
---------------------------------
  C      1.959270   -5.030610   -5.370960
  C      1.431850   -5.436290   -6.707640
  O      2.098980   -5.655610   -7.694300
  C     -0.025410   -5.548990   -6.530130
  C     -0.371760   -5.125190   -5.246070
  C      0.823760   -4.648020   -4.556910
  C      0.832830   -3.775740   -3.501520
  C      1.988020   -3.117550   -3.031230
  N      2.884140   -2.514750   -2.642660
  C     -0.324630   -3.344070   -2.819590
  N     -1.227210   -2.966480   -2.219600
  C     -1.704370   -5.167070   -4.816100
  C     -2.662730   -5.616340   -5.686720
  C     -2.349560   -6.029410   -7.000400
  C     -0.995230   -6.004630   -7.444470
  C     -0.686430   -6.422520   -8.754900
  C     -1.681290   -6.842920   -9.594040
  C     -3.017460   -6.866390   -9.163050
  C     -3.345330   -6.470470   -7.895350
  C      3.288470   -5.138140   -5.122250
  C      3.965110   -5.135320   -3.875580
  C      3.498550   -5.491530   -2.625160
  C      4.487320   -5.370280   -1.651250
  C      5.715050   -4.908410   -2.140910
  S      5.659640   -4.675420   -3.843500
  C      6.685130   -4.729680   -1.151810
  C      6.217360   -5.079010    0.094050
  S      4.547990   -5.624880    0.055680
  C      6.932160   -4.922170    1.322300
  C      6.746280   -5.536560    2.540590
  C      7.605980   -5.000550    3.558210
  C      7.722680   -5.373090    4.895460
  C      8.645200   -4.722430    5.701910
  C      9.467790   -3.703220    5.193480
  C      9.375940   -3.338060    3.870130
  C      8.450930   -3.986790    3.062640
  S      8.182130   -3.694400    1.375140
  C      8.766120   -5.098120    7.060360
  N      8.865470   -5.402480    8.160770
  C      5.860250   -6.659280    2.746340
  C      5.753280   -7.766690    1.943550
  C      4.833730   -8.690600    2.451650
  C      4.228120   -8.286910    3.647100
  S      4.809370   -6.739720    4.146160
  C      3.321670   -9.207070    4.166970
  C      3.223890  -10.335540    3.374420
  S      4.284010  -10.247090    1.973340
  C      2.497840  -11.531760    3.585770
  C      1.454350  -11.781170    4.419280
  C      1.161570  -13.194430    4.800030
  O      1.591320  -14.181980    4.246210
  C      0.304110  -13.100980    5.994130
  C     -0.027040  -11.765090    6.224570
  C      0.548160  -10.937900    5.167180
  C      0.110610   -9.691910    4.802190
  C      0.519730   -9.045200    3.618210
  N      0.802640   -8.499950    2.648670
  C     -0.861230   -8.954390    5.509290
  N     -1.632280   -8.303240    6.055820
  C     -0.814350  -11.405040    7.325700
  C     -1.255830  -12.391240    8.169180
  C     -0.948350  -13.753290    7.958140
  C     -0.145200  -14.131180    6.842690
  C      0.164320  -15.491300    6.638460
  C     -0.305340  -16.439960    7.504340
  C     -1.098380  -16.073850    8.603870
  C     -1.413240  -14.761500    8.826970
  H     -1.972530   -4.863710   -3.817190
  H     -3.694880   -5.658060   -5.370160
  H      0.343230   -6.400030   -9.075110
  H     -1.444690   -7.160570  -10.598500
  H     -3.786900   -7.201120   -9.842920
  H     -4.372670   -6.487380   -7.561370
  H      3.908880   -5.295140   -5.999720
  H      2.503570   -5.852230   -2.437960
  H      7.681920   -4.369380   -1.329680
  H      7.105900   -6.157080    5.306520
  H     10.173110   -3.216430    5.849320
  H     10.005720   -2.564340    3.460590
  H      6.332540   -7.911360    1.050420
  H      2.801710   -9.081380    5.098890
  H      2.879070  -12.406130    3.065960
  H     -1.058490  -10.372530    7.516500
  H     -1.858510  -12.130520    9.027170
  H      0.774620  -15.760330    5.790860
  H     -0.067940  -17.481570    7.347770
  H     -1.458210  -16.839780    9.274830
  H     -2.023310  -14.477660    9.672260

 Total Charge           Charge          ....    0
 Multiplicity           Mult            ....    1
 Number of Electrons    NEL             ....  482
 Basis Dimension        Dim             .... 1063

ORBITAL ENERGIES
----------------

  NO   OCC          E(Eh)            E(eV)
   0   2.0000     -88.972333     -2421.0603
   1   2.0000     -88.971598     -2421.0403
   2   2.0000     -88.970483     -2421.0099
   3   2.0000     -88.969878     -2420.9935
   4   2.0000     -88.969352     -2420.9791
   5   2.0000     -19.218644      -522.9659
   6   2.0000     -19.218406      -522.9594
   7   2.0000     -14.416329      -392.2882
   8   2.0000     -14.416167      -392.2839
   9   2.0000     -14.414801      -392.2467
  10   2.0000     -14.414385      -392.2354
  11   2.0000     -14.401959      -391.8972
  12   2.0000     -10.369214      -282.1607
  13   2.0000     -10.368911      -282.1524
  14   2.0000     -10.345990      -281.5287
  15   2.0000     -10.345436      -281.5136
  16   2.0000     -10.343445      -281.4594
  17   2.0000     -10.342706      -281.4393
  18   2.0000     -10.333012      -281.1756
  19   2.0000     -10.327719      -281.0315
  20   2.0000     -10.325561      -280.9728
  21   2.0000     -10.323068      -280.9050
  22   2.0000     -10.320669      -280.8397
  23   2.0000     -10.320147      -280.8255
  24   2.0000     -10.320019      -280.8220
  25   2.0000     -10.319822      -280.8166
  26   2.0000     -10.318855      -280.7903
  27   2.0000     -10.317169      -280.7444
  28   2.0000     -10.317032      -280.7407
  29   2.0000     -10.316744      -280.7329
  30   2.0000     -10.315675      -280.7038
  31   2.0000     -10.315623      -280.7024
  32   2.0000     -10.314122      -280.6615
  33   2.0000     -10.312271      -280.6112
  34   2.0000     -10.310770      -280.5703
  35   2.0000     -10.310133      -280.5530
  36   2.0000     -10.309788      -280.5436
  37   2.0000     -10.309040      -280.5232
  38   2.0000     -10.304480      -280.3992
  39   2.0000     -10.304376      -280.3963
  40   2.0000     -10.301876      -280.3283
  41   2.0000     -10.301496      -280.3180
  42   2.0000     -10.301457      -280.3169
  43   2.0000     -10.299868      -280.2737
  44   2.0000     -10.299484      -280.2632
  45   2.0000     -10.299362      -280.2599
  46   2.0000     -10.298908      -280.2475
  47   2.0000     -10.298096      -280.2254
  48   2.0000     -10.297297      -280.2037
  49   2.0000     -10.296819      -280.1907
  50   2.0000     -10.296685      -280.1870
  51   2.0000     -10.296368      -280.1784
  52   2.0000     -10.296010      -280.1687
  53   2.0000     -10.295799      -280.1629
  54   2.0000     -10.295757      -280.1618
  55   2.0000     -10.295610      -280.1578
  56   2.0000     -10.295186      -280.1463
  57   2.0000     -10.292346      -280.0690
  58   2.0000     -10.291428      -280.0440
  59   2.0000     -10.284287      -279.8497
  60   2.0000     -10.283760      -279.8353
  61   2.0000     -10.283727      -279.8344
  62   2.0000     -10.283214      -279.8205
  63   2.0000     -10.282026      -279.7882
  64   2.0000     -10.281589      -279.7763
  65   2.0000     -10.278041      -279.6797
  66   2.0000     -10.277615      -279.6681
  67   2.0000      -8.067421      -219.5257
  68   2.0000      -8.067331      -219.5232
  69   2.0000      -8.065916      -219.4847
  70   2.0000      -8.065317      -219.4684
  71   2.0000      -8.063990      -219.4323
  72   2.0000      -6.036970      -164.2743
  73   2.0000      -6.036829      -164.2705
  74   2.0000      -6.035349      -164.2302
  75   2.0000      -6.034774      -164.2145
  76   2.0000      -6.033628      -164.1834
  77   2.0000      -6.032907      -164.1638
  78   2.0000      -6.032769      -164.1600
  79   2.0000      -6.031389      -164.1224
  80   2.0000      -6.030786      -164.1060
  81   2.0000      -6.029487      -164.0707
  82   2.0000      -6.029002      -164.0575
  83   2.0000      -6.028796      -164.0519
  84   2.0000      -6.027570      -164.0185
  85   2.0000      -6.026931      -164.0011
  86   2.0000      -6.025423      -163.9601
  87   2.0000      -1.133776       -30.8516
  88   2.0000      -1.133488       -30.8438
  89   2.0000      -1.028852       -27.9965
  90   2.0000      -1.023106       -27.8401
  91   2.0000      -1.019862       -27.7519
  92   2.0000      -1.017123       -27.6773
  93   2.0000      -1.012032       -27.5388
  94   2.0000      -0.999916       -27.2091
  95   2.0000      -0.999054       -27.1856
  96   2.0000      -0.994464       -27.0607
  97   2.0000      -0.992733       -27.0137
  98   2.0000      -0.989548       -26.9270
  99   2.0000      -0.971488       -26.4355
 100   2.0000      -0.970773       -26.4161
 101   2.0000      -0.965174       -26.2637
 102   2.0000      -0.960274       -26.1304
 103   2.0000      -0.944170       -25.6922
 104   2.0000      -0.923074       -25.1181
 105   2.0000      -0.922117       -25.0921
 106   2.0000      -0.905994       -24.6534
 107   2.0000      -0.904184       -24.6041
 108   2.0000      -0.895952       -24.3801
 109   2.0000      -0.888608       -24.1802
 110   2.0000      -0.883596       -24.0439
 111   2.0000      -0.875687       -23.8287
 112   2.0000      -0.872767       -23.7492
 113   2.0000      -0.863112       -23.4865
 114   2.0000      -0.858735       -23.3674
 115   2.0000      -0.853075       -23.2134
 116   2.0000      -0.845029       -22.9944
 117   2.0000      -0.839368       -22.8404
 118   2.0000      -0.836046       -22.7500
 119   2.0000      -0.816315       -22.2131
 120   2.0000      -0.811709       -22.0877
 121   2.0000      -0.809219       -22.0200
 122   2.0000      -0.799317       -21.7505
 123   2.0000      -0.781198       -21.2575
 124   2.0000      -0.775690       -21.1076
 125   2.0000      -0.769153       -20.9297
 126   2.0000      -0.760652       -20.6984
 127   2.0000      -0.735872       -20.0241
 128   2.0000      -0.722540       -19.6613
 129   2.0000      -0.716026       -19.4841
 130   2.0000      -0.714634       -19.4462
 131   2.0000      -0.713947       -19.4275
 132   2.0000      -0.708869       -19.2893
 133   2.0000      -0.706233       -19.2176
 134   2.0000      -0.695518       -18.9260
 135   2.0000      -0.685261       -18.6469
 136   2.0000      -0.677979       -18.4487
 137   2.0000      -0.676031       -18.3957
 138   2.0000      -0.666272       -18.1302
 139   2.0000      -0.659642       -17.9498
 140   2.0000      -0.657576       -17.8936
 141   2.0000      -0.655612       -17.8401
 142   2.0000      -0.642248       -17.4765
 143   2.0000      -0.639843       -17.4110
 144   2.0000      -0.630048       -17.1445
 145   2.0000      -0.629429       -17.1276
 146   2.0000      -0.616850       -16.7853
 147   2.0000      -0.611193       -16.6314
 148   2.0000      -0.600534       -16.3414
 149   2.0000      -0.596533       -16.2325
 150   2.0000      -0.592214       -16.1150
 151   2.0000      -0.590839       -16.0776
 152   2.0000      -0.589137       -16.0312
 153   2.0000      -0.588500       -16.0139
 154   2.0000      -0.583366       -15.8742
 155   2.0000      -0.581992       -15.8368
 156   2.0000      -0.576041       -15.6749
 157   2.0000      -0.567664       -15.4469
 158   2.0000      -0.565269       -15.3817
 159   2.0000      -0.560221       -15.2444
 160   2.0000      -0.550982       -14.9930
 161   2.0000      -0.541139       -14.7251
 162   2.0000      -0.540294       -14.7021
 163   2.0000      -0.538312       -14.6482
 164   2.0000      -0.537905       -14.6371
 165   2.0000      -0.533831       -14.5263
 166   2.0000      -0.532252       -14.4833
 167   2.0000      -0.527473       -14.3533
 168   2.0000      -0.526025       -14.3139
 169   2.0000      -0.524563       -14.2741
 170   2.0000      -0.521786       -14.1985
 171   2.0000      -0.518532       -14.1100
 172   2.0000      -0.513736       -13.9795
 173   2.0000      -0.511840       -13.9279
 174   2.0000      -0.511030       -13.9058
 175   2.0000      -0.507077       -13.7983
 176   2.0000      -0.506208       -13.7746
 177   2.0000      -0.504323       -13.7233
 178   2.0000      -0.501951       -13.6588
 179   2.0000      -0.501093       -13.6354
 180   2.0000      -0.497738       -13.5441
 181   2.0000      -0.495100       -13.4723
 182   2.0000      -0.488738       -13.2992
 183   2.0000      -0.484934       -13.1957
 184   2.0000      -0.481980       -13.1153
 185   2.0000      -0.480284       -13.0692
 186   2.0000      -0.478038       -13.0081
 187   2.0000      -0.477564       -12.9952
 188   2.0000      -0.475460       -12.9379
 189   2.0000      -0.473436       -12.8829
 190   2.0000      -0.469514       -12.7761
 191   2.0000      -0.466472       -12.6934
 192   2.0000      -0.463110       -12.6019
 193   2.0000      -0.459906       -12.5147
 194   2.0000      -0.455165       -12.3857
 195   2.0000      -0.450933       -12.2705
 196   2.0000      -0.449726       -12.2377
 197   2.0000      -0.448854       -12.2139
 198   2.0000      -0.446949       -12.1621
 199   2.0000      -0.444542       -12.0966
 200   2.0000      -0.441869       -12.0239
 201   2.0000      -0.440154       -11.9772
 202   2.0000      -0.438884       -11.9426
 203   2.0000      -0.437916       -11.9163
 204   2.0000      -0.434392       -11.8204
 205   2.0000      -0.433767       -11.8034
 206   2.0000      -0.432730       -11.7752
 207   2.0000      -0.430466       -11.7136
 208   2.0000      -0.429986       -11.7005
 209   2.0000      -0.429162       -11.6781
 210   2.0000      -0.427705       -11.6385
 211   2.0000      -0.425957       -11.5909
 212   2.0000      -0.422433       -11.4950
 213   2.0000      -0.421682       -11.4745
 214   2.0000      -0.419761       -11.4223
 215   2.0000      -0.418785       -11.3957
 216   2.0000      -0.413156       -11.2425
 217   2.0000      -0.408754       -11.1228
 218   2.0000      -0.407425       -11.0866
 219   2.0000      -0.403228       -10.9724
 220   2.0000      -0.396307       -10.7841
 221   2.0000      -0.393120       -10.6973
 222   2.0000      -0.380969       -10.3667
 223   2.0000      -0.376757       -10.2521
 224   2.0000      -0.374687       -10.1958
 225   2.0000      -0.368016       -10.0142
 226   2.0000      -0.364060        -9.9066
 227   2.0000      -0.355297        -9.6681
 228   2.0000      -0.350811        -9.5461
 229   2.0000      -0.336489        -9.1563
 230   2.0000      -0.336007        -9.1432
 231   2.0000      -0.323902        -8.8138
 232   2.0000      -0.319123        -8.6838
 233   2.0000      -0.313913        -8.5420
 234   2.0000      -0.310089        -8.4380
 235   2.0000      -0.305711        -8.3188
 236   2.0000      -0.299756        -8.1568
 237   2.0000      -0.294802        -8.0220
 238   2.0000      -0.294019        -8.0007
 239   2.0000      -0.277817        -7.5598
 240   2.0000      -0.258135        -7.0242
 241   0.0000      -0.093155        -2.5349
 242   0.0000      -0.086531        -2.3546
 243   0.0000      -0.073725        -2.0062
 244   0.0000      -0.069495        -1.8911
 245   0.0000      -0.041777        -1.1368

MULLIKEN ATOMIC CHARGES
-----------------------
   0 C :   -0.121231
   1 C :    0.117318
   2 O :   -0.150059
   3 C :    0.013571
   4 C :   -0.013453
   5 C :    0.262004
   6 C :   -0.332743
   7 C :   -0.198526
   8 N :    0.177493
   9 C :   -0.180207
  10 N :    0.162097
  11 C :   -0.017895
  12 C :    0.004526
  13 C :    0.078729
  14 C :    0.035521
  15 C :   -0.029232
  16 C :    0.041029
  17 C :    0.039684
  18 C :   -0.021677
  19 C :    0.080572
  20 C :   -0.134533
  21 C :    0.022981
  22 C :   -0.038127
  23 C :    0.009561
  24 S :    0.165078
  25 C :   -0.035667
  26 C :   -0.107871
  27 S :    0.184118
  28 C :   -0.100595
  29 C :    0.155346
  30 C :    0.105576
  31 C :   -0.047009
  32 C :   -0.094417
  33 C :    0.039926
  34 C :    0.007840
  35 C :   -0.064144
  36 S :    0.150687
  37 C :   -0.145179
  38 N :    0.102377
  39 C :   -0.221555
  40 C :    0.018901
  41 C :   -0.011417
  42 C :   -0.037339
  43 S :    0.171725
  44 C :    0.027308
  45 C :   -0.126731
  46 S :    0.161540
  47 C :    0.085954
  48 C :   -0.122824
  49 C :    0.114052
  50 O :   -0.149831
  51 C :    0.013686
  52 C :   -0.009363
  53 C :    0.254625
  54 C :   -0.334599
  55 C :   -0.204431
  56 N :    0.175106
  57 C :   -0.176206
  58 N :    0.160362
  59 C :   -0.022317
  60 C :    0.005618
  61 C :    0.079148
  62 C :    0.033851
  63 C :   -0.024939
  64 C :    0.038710
  65 C :    0.038175
  66 C :   -0.020058
  67 H :    0.002689
  68 H :   -0.011352
  69 H :    0.000387
  70 H :   -0.007236
  71 H :   -0.005858
  72 H :   -0.020273
  73 H :    0.024693
  74 H :    0.006675
  75 H :   -0.001463
  76 H :   -0.003244
  77 H :    0.002412
  78 H :   -0.010038
  79 H :   -0.000377
  80 H :    0.003191
  81 H :    0.022656
  82 H :    0.001177
  83 H :   -0.011754
  84 H :    0.000211
  85 H :   -0.006395
  86 H :   -0.005854
  87 H :   -0.020863
Sum of atomic charges:   -0.0000000

LOEWDIN ATOMIC CHARGES
----------------------
   0 C :   -0.085157
   1 C :    0.087155
   2 O :   -0.142045
   3 C :   -0.033761
   4 C :   -0.004128
   5 C :    0.065309
   6 C :   -0.133074
   7 C :   -0.018875
   8 N :   -0.038987
   9 C :   -0.021989
  10 N :   -0.045377
  11 C :   -0.016835
  12 C :    0.020287
  13 C :   -0.009303
  14 C :   -0.002754
  15 C :   -0.002367
  16 C :   -0.011839
  17 C :   -0.012409
  18 C :   -0.011975
  19 C :    0.042089
  20 C :   -0.173939
  21 C :   -0.030758
  22 C :   -0.194528
  23 C :   -0.188770
  24 S :    0.446617
  25 C :   -0.062985
  26 C :   -0.177501
  27 S :    0.462967
  28 C :   -0.154801
  29 C :   -0.077253
  30 C :   -0.038841
  31 C :    0.011026
  32 C :   -0.071249
  33 C :    0.007775
  34 C :   -0.030482
  35 C :   -0.142245
  36 S :    0.432749
  37 C :   -0.029686
  38 N :   -0.057883
  39 C :   -0.164153
  40 C :   -0.063274
  41 C :   -0.186935
  42 C :   -0.198808
  43 S :    0.447875
  44 C :   -0.024301
  45 C :   -0.175042
  46 S :    0.444923
  47 C :    0.042684
  48 C :   -0.089232
  49 C :    0.087675
  50 O :   -0.142077
  51 C :   -0.033179
  52 C :   -0.005007
  53 C :    0.066071
  54 C :   -0.138329
  55 C :   -0.019450
  56 N :   -0.040146
  57 C :   -0.022420
  58 N :   -0.047499
  59 C :   -0.017652
  60 C :    0.019380
  61 C :   -0.009248
  62 C :   -0.002779
  63 C :   -0.002272
  64 C :   -0.011855
  65 C :   -0.012353
  66 C :   -0.012086
  67 H :    0.040202
  68 H :    0.036248
  69 H :    0.035462
  70 H :    0.032536
  71 H :    0.032266
  72 H :    0.030687
  73 H :    0.046261
  74 H :    0.038564
  75 H :    0.032074
  76 H :    0.027838
  77 H :    0.041328
  78 H :    0.036289
  79 H :    0.035752
  80 H :    0.037475
  81 H :    0.045758
  82 H :    0.039573
  83 H :    0.035993
  84 H :    0.035486
  85 H :    0.032711
  86 H :    0.032289
  87 H :    0.030521

  Mayer bond orders larger than 0.100000
B(  0-C ,  1-C ) :   0.9551 B(  0-C ,  5-C ) :   1.0227 B(  0-C , 19-C ) :   1.7089
B(  1-C ,  2-O ) :   2.1959 B(  1-C ,  3-C ) :   0.9398 B(  3-C ,  4-C ) :   1.4158
B(  3-C , 14-C ) :   1.2354 B(  4-C ,  5-C ) :   0.9988 B(  4-C , 11-C ) :   1.2617
B(  5-C ,  6-C ) :   1.6577 B(  6-C ,  7-C ) :   1.1615 B(  6-C ,  9-C ) :   1.1251
B(  7-C ,  8-N ) :   3.0119 B(  9-C , 10-N ) :   2.9974 B( 11-C , 12-C ) :   1.4698
B( 11-C , 67-H ) :   0.9856 B( 12-C , 13-C ) :   1.2220 B( 12-C , 68-H ) :   0.9945
B( 13-C , 14-C ) :   1.2434 B( 13-C , 18-C ) :   1.2394 B( 14-C , 15-C ) :   1.2743
B( 15-C , 16-C ) :   1.4759 B( 15-C , 69-H ) :   0.9869 B( 16-C , 17-C ) :   1.2565
B( 16-C , 70-H ) :   0.9865 B( 17-C , 18-C ) :   1.4945 B( 17-C , 71-H ) :   0.9886
B( 18-C , 72-H ) :   0.9982 B( 19-C , 20-C ) :   1.1017 B( 19-C , 73-H ) :   0.9278
B( 20-C , 21-C ) :   1.4768 B( 20-C , 24-S ) :   1.0945 B( 21-C , 22-C ) :   1.3009
B( 21-C , 74-H ) :   0.9952 B( 22-C , 23-C ) :   1.4052 B( 22-C , 27-S ) :   1.0688
B( 23-C , 24-S ) :   1.0857 B( 23-C , 25-C ) :   1.2499 B( 25-C , 26-C ) :   1.5063
B( 25-C , 75-H ) :   0.9970 B( 26-C , 27-S ) :   1.1158 B( 26-C , 28-C ) :   1.1202
B( 28-C , 29-C ) :   1.5704 B( 28-C , 36-S ) :   1.0967 B( 29-C , 30-C ) :   1.1425
B( 29-C , 39-C ) :   0.9982 B( 30-C , 31-C ) :   1.2985 B( 30-C , 35-C ) :   1.3113
B( 31-C , 32-C ) :   1.4273 B( 31-C , 76-H ) :   0.9813 B( 32-C , 33-C ) :   1.3258
B( 32-C , 37-C ) :   1.0587 B( 33-C , 34-C ) :   1.4282 B( 33-C , 77-H ) :   0.9927
B( 34-C , 35-C ) :   1.3375 B( 34-C , 78-H ) :   0.9958 B( 35-C , 36-S ) :   1.0672
B( 37-C , 38-N ) :   3.0535 B( 39-C , 40-C ) :   1.5597 B( 39-C , 43-S ) :   1.1149
B( 40-C , 41-C ) :   1.2386 B( 40-C , 79-H ) :   1.0036 B( 41-C , 42-C ) :   1.4119
B( 41-C , 46-S ) :   1.0904 B( 42-C , 43-S ) :   1.0598 B( 42-C , 44-C ) :   1.3091
B( 44-C , 45-C ) :   1.4683 B( 44-C , 80-H ) :   0.9882 B( 45-C , 46-S ) :   1.0899
B( 45-C , 47-C ) :   1.1285 B( 47-C , 48-C ) :   1.6896 B( 47-C , 81-H ) :   0.9250
B( 48-C , 49-C ) :   0.9575 B( 48-C , 53-C ) :   1.0286 B( 49-C , 50-O ) :   2.1935
B( 49-C , 51-C ) :   0.9397 B( 51-C , 52-C ) :   1.4158 B( 51-C , 62-C ) :   1.2368
B( 52-C , 53-C ) :   1.0000 B( 52-C , 59-C ) :   1.2626 B( 53-C , 54-C ) :   1.6523
B( 54-C , 55-C ) :   1.1621 B( 54-C , 57-C ) :   1.1250 B( 55-C , 56-N ) :   3.0114
B( 57-C , 58-N ) :   2.9972 B( 59-C , 60-C ) :   1.4676 B( 59-C , 82-H ) :   0.9868
B( 60-C , 61-C ) :   1.2244 B( 60-C , 83-H ) :   0.9939 B( 61-C , 62-C ) :   1.2411
B( 61-C , 66-C ) :   1.2403 B( 62-C , 63-C ) :   1.2744 B( 63-C , 64-C ) :   1.4757
B( 63-C , 84-H ) :   0.9865 B( 64-C , 65-C ) :   1.2551 B( 64-C , 85-H ) :   0.9876
B( 65-C , 66-C ) :   1.4957 B( 65-C , 86-H ) :   0.9889 B( 66-C , 87-H ) :   0.9974

-----------------------------------------------------------------------------
         ABSORPTION SPECTRUM VIA TRANSITION ELECTRIC DIPOLE MOMENTS
-----------------------------------------------------------------------------
State   Energy  Wavelength   fosc         T2         TX        TY        TZ
        (cm-1)    (nm)                  (au**2)     (au)      (au)      (au)
-----------------------------------------------------------------------------
   0   19645.5    509.0   0.700574091  11.73994  -0.41125   1.67412  -2.96110
   1   21471.8    465.7   0.597268623   9.15749  -2.87798  -0.88402  -0.30535
   2   24409.8    409.7   0.200249986   2.70075   0.24710  -0.71772   1.45759
   3   25841.9    387.0   0.020322520   0.25890  -0.41091  -0.17992   0.24016
   4   26213.7    381.5   0.667788594   8.38659  -2.55557  -0.90026  -1.02235
   5   27619.3    362.1   0.286964261   3.42051  -1.05886  -0.33155  -1.47966
   6   27780.1    360.0   0.384525070   4.55687  -1.14889  -1.49594   0.99955
   7   27864.4    358.9   0.084474544   0.99805   0.02690   0.89764   0.43768
   8   28816.2    347.0   0.070736088   0.80813   0.84719  -0.13237  -0.26995
   9   29363.4    340.6   0.009281934   0.10407   0.13634   0.17416   0.23483
  10   30056.3    332.7   0.028202606   0.30891   0.30889   0.14696  -0.43806
  11   30354.9    329.4   0.077139034   0.83661  -0.57356   0.49264   0.51472
  12   30561.5    327.2   0.059879087   0.64503  -0.58884  -0.54573   0.02165
  13   30590.3    326.9   0.026762834   0.28802   0.06227  -0.26515   0.46243
  14   31090.8    321.6   0.070459230   0.74607  -0.44640  -0.00520  -0.73944
  15   31704.1    315.4   0.062605236   0.65009   0.04489  -0.40475   0.69588
  16   32049.7    312.0   0.155647972   1.59880  -0.03610  -1.12599  -0.57416
  17   32221.2    310.4   0.314010457   3.20833  -0.12267   0.77330   1.61099
  18   32706.2    305.8   0.470565592   4.73659  -1.03481  -0.86864  -1.70623
  19   32795.6    304.9   0.095808076   0.96175   0.58658   0.47001  -0.62989
  20   32971.4    303.3   0.437636953   4.36970  -0.52712  -1.99852   0.31265
  21   33363.5    299.7   0.045053603   0.44456  -0.10871  -0.58618   0.29857
  22   33534.5    298.2   0.329503807   3.23478  -0.27402   1.01447  -1.45964
  23   33794.3    295.9   0.004709642   0.04588  -0.09671  -0.18226   0.05752
  24   34454.3    290.2   0.205217405   1.96086   0.87987   0.74311   0.79654
  25   34912.9    286.4   0.100949659   0.95191  -0.13853  -0.73406   0.62760
  26   35206.0    284.0   0.025349588   0.23704  -0.18718   0.08638   0.44107
  27   35382.1    282.6   0.025540255   0.23764   0.04748   0.15850  -0.45854
  28   35781.0    279.5   0.049832811   0.45850  -0.53605  -0.40374  -0.09026
  29   35874.2    278.8   0.013406586   0.12303  -0.11005  -0.08006  -0.32328
  30   36047.0    277.4   0.088373235   0.80710   0.55682  -0.45634  -0.53741
  31   36354.2    275.1   0.058401620   0.52887  -0.34572  -0.23771  -0.59400
  32   36519.6    273.8   0.018982472   0.17112   0.20035   0.32910  -0.15057
  33   36611.6    273.1   0.037014016   0.33283  -0.17801   0.18965  -0.51495
  34   38075.9    262.6   0.041288600   0.35699   0.06672   0.41352   0.42607
  35   38278.4    261.2   0.027046147   0.23261   0.44170  -0.19078  -0.03345
  36   38989.7    256.5   0.117547555   0.99252  -0.84710  -0.52097  -0.05940
  37   39290.0    254.5   0.028318436   0.23728  -0.29000  -0.18856  -0.34297
  38   39611.7    252.5   0.061310218   0.50955  -0.34050  -0.58717  -0.22099
  39   39995.8    250.0   0.074060030   0.60960   0.66838   0.17029   0.36589
  40   40114.4    249.3   0.037108559   0.30454   0.07983   0.51441   0.18317

FINAL SINGLE POINT ENERGY     -4519.763384545912

DIPOLE MOMENT
-------------
                                X             Y             Z
Electronic contribution:     24.27629      21.84834       0.33477
Nuclear contribution   :    -24.06066     -24.01894      -1.55047
                        -----------------------------------------
Total Dipole Moment    :      0.21563      -2.17060      -1.21570
                        -----------------------------------------
Magnitude (a.u.)       :      2.49718
Magnitude (Debye)      :      6.34734

Rotational constants in cm-1:     0.000933     0.000523     0.000365
Rotational constants in MHz :    27.964560    15.677805    10.933627

                             ****ORCA TERMINATED NORMALLY****
TOTAL RUN TIME: 0 days 0 hours 8 minutes 28 seconds 124 msec
