                         Program Version 4.2.0 -  RELEASE  -
|  1> # ORCA input file
|  2> # SCF done       -197.447742750809          0.000477145134
|  3> ! CAM-B3LYP def2-SVP def2/J RIJCOSX Grid4 TightSCF
|  4> %maxcore 5000
|  5> %tddft
|  6>     Mode sTDDFT
|  7>     Ethresh 5.0
|  8>     maxcore 5000
|  9> end
| 10>
| 11> %pal
| 12>   nprocs 6
| 13>   end
| 14> * xyz 0 1
| 15>    C        4.07319         2.39436         4.01620
| 16>    C        3.29256         3.37281         4.82233
| 17>    O        2.27457         3.93206         4.47613
| 18>    C        3.99407         3.44964         6.11777
| 19>    C        5.16099         2.68636         6.06083
| 20>    C        5.31929         2.15704         4.71042
| 21>    C        6.50747         1.77298         4.14283
| 22>    C        6.69626         1.66245         2.74835
| 23>    N        6.91933         1.63495         1.62241
| 24>    C        7.69385         1.51902         4.85380
| 25>    N        8.68176         1.23856         5.36985
| 26>    C        5.99783         2.57644         7.17864
| 27>    C        5.65139         3.23814         8.32763
| 28>    C        4.48746         4.03346         8.41320
| 29>    C        3.62557         4.14800         7.28354
| 30>    C        2.46567         4.94452         7.37294
| 31>    C        2.17310         5.60431         8.53438
| 32>    C        3.01914         5.49615         9.64992
| 33>    C        4.14947         4.72800         9.59243
| 34>    C        3.49386         1.81129         2.93257
| 35>    C        3.85015         0.62588         2.24674
| 36>    S        4.91047        -0.59487         2.90606
| 37>    C        4.80217        -1.55363         1.47359
| 38>    C        3.93125        -0.98416         0.54754
| 39>    C        3.39046         0.23036         1.00944
| 40>    C        3.72677        -1.50906        -0.81675
| 41>    O        4.42301        -2.37264        -1.30053
| 42>    C        2.59915        -0.87113        -1.59426
| 43>    C        5.64514        -2.72243         1.39554
| 44>    C        6.93452        -2.60171         1.85805
| 45>    C        7.84050        -3.67337         1.73941
| 46>    C        9.18278        -3.79627         2.06376
| 47>    C       10.15236        -2.82450         2.64774
| 48>    C       10.95122        -2.13855         1.51592
| 49>    N       12.23442        -1.70418         2.03358
| 50>    C        9.53327        -1.77173         3.58062
| 51>    N       10.57169        -1.12971         4.37181
| 52>    C        9.59004        -5.11409         1.61958
| 53>    C       10.79644        -5.70960         1.62596
| 54>    C       11.01129        -7.03025         0.97532
| 55>    C        9.75570        -7.70169         0.49391
| 56>    C        8.55195        -7.10462         0.53381
| 57>    C        8.41951        -5.79238         1.04972
| 58>    C        7.36070        -4.91395         1.13313
| 59>    C        6.00829        -5.02357         0.72952
| 60>    C        5.17528        -3.96119         0.85337
| 61>    C       11.80140        -8.00412         1.80424
| 62>    C       11.85881        -7.99348         3.13763
| 63>    C       12.59034        -8.95383         3.91790
| 64>    S       12.44435        -8.94323         5.65027
| 65>    C       13.52751       -10.28997         5.80763
| 66>    C       13.97117       -10.71807         4.56077
| 67>    C       13.44306        -9.94634         3.50802
| 68>    C       14.93139       -11.82741         4.42034
| 69>    O       15.43220       -12.37114         5.37936
| 70>    C       15.24898       -12.24233         3.00609
| 71>    C       13.80532       -10.89007         7.06878
| 72>    C       13.91179       -10.28884         8.27630
| 73>    C       13.78813       -11.09362         9.52802
| 74>    O       13.82174       -12.30014         9.60578
| 75>    C       13.55030       -10.10453        10.59475
| 76>    C       13.65334        -8.81517        10.06996
| 77>    C       14.03161        -8.89634         8.66357
| 78>    C       14.62683        -7.90294         7.93472
| 79>    C       15.21994        -8.10614         6.67004
| 80>    N       15.74961        -8.22096         5.65838
| 81>    C       14.79869        -6.57964         8.39162
| 82>    N       14.94971        -5.48557         8.70390
| 83>    C       13.43358        -7.69472        10.88234
| 84>    C       13.12561        -7.88977        12.20317
| 85>    C       13.03135        -9.18024        12.76980
| 86>    C       13.24466       -10.32768        11.95157
| 87>    C       13.14741       -11.61404        12.52012
| 88>    C       12.85333       -11.75747        13.84808
| 89>    C       12.64298       -10.63072        14.65905
| 90>    C       12.72899        -9.37069        14.13329
| 91>    H        6.89157         1.97459         7.14061
| 92>    H        6.28243         3.16063         9.20133
| 93>    H        1.82371         5.01959         6.50950
| 94>    H        1.28588         6.21605         8.60161
| 95>    H        2.76910         6.02663        10.55683
| 96>    H        4.80229         4.64434        10.44935
| 97>    H        2.58152         2.28986         2.58848
| 98>    H        2.72630         0.85076         0.43544
| 99>    H        1.68314        -0.85685        -1.00876
|100>    H        2.44146        -1.42995        -2.51318
|101>    H        2.86870         0.15179        -1.85024
|102>    H        7.26551        -1.65332         2.24910
|103>    H       10.88667        -3.38856         3.23477
|104>    H       10.33410        -1.32476         1.10025
|105>    H       11.13676        -2.85702         0.70877
|106>    H       12.06857        -1.14239         2.86691
|107>    H       12.71411        -1.12879         1.34948
|108>    H        8.75284        -2.25149         4.19683
|109>    H        9.06281        -0.98288         2.98823
|110>    H       10.94192        -1.77368         5.06347
|111>    H       10.19001        -0.32713         4.86377
|112>    H       11.67096        -5.22831         2.04222
|113>    H       11.62336        -6.81807         0.07997
|114>    H        9.87567        -8.69719         0.09472
|115>    H        7.67445        -7.61287         0.16130
|116>    H        5.65238        -5.95757         0.32111
|117>    H        4.14174        -4.03371         0.55607
|118>    H       12.30100        -8.78189         1.24485
|119>    H       11.32854        -7.23382         3.69583
|120>    H       13.69316       -10.10292         2.47594
|121>    H       14.33738       -12.48271         2.46394
|122>    H       15.75539       -11.42477         2.49685
|123>    H       15.90314       -13.10992         3.02533
|124>    H       13.89814       -11.97261         7.06868
|125>    H       13.49336        -6.69842        10.47532
|126>    H       12.94849        -7.03711        12.84278
|127>    H       13.31091       -12.47197        11.88735
|128>    H       12.78094       -12.74279        14.28364
|129>    H       12.41181       -10.76747        15.70511
|130>    H       12.56843        -8.50227        14.75576
|131> *
|132>
|133>                          ****END OF INPUT****

CARTESIAN COORDINATES (ANGSTROEM)
---------------------------------
  C      4.073190    2.394360    4.016200
  C      3.292560    3.372810    4.822330
  O      2.274570    3.932060    4.476130
  C      3.994070    3.449640    6.117770
  C      5.160990    2.686360    6.060830
  C      5.319290    2.157040    4.710420
  C      6.507470    1.772980    4.142830
  C      6.696260    1.662450    2.748350
  N      6.919330    1.634950    1.622410
  C      7.693850    1.519020    4.853800
  N      8.681760    1.238560    5.369850
  C      5.997830    2.576440    7.178640
  C      5.651390    3.238140    8.327630
  C      4.487460    4.033460    8.413200
  C      3.625570    4.148000    7.283540
  C      2.465670    4.944520    7.372940
  C      2.173100    5.604310    8.534380
  C      3.019140    5.496150    9.649920
  C      4.149470    4.728000    9.592430
  C      3.493860    1.811290    2.932570
  C      3.850150    0.625880    2.246740
  S      4.910470   -0.594870    2.906060
  C      4.802170   -1.553630    1.473590
  C      3.931250   -0.984160    0.547540
  C      3.390460    0.230360    1.009440
  C      3.726770   -1.509060   -0.816750
  O      4.423010   -2.372640   -1.300530
  C      2.599150   -0.871130   -1.594260
  C      5.645140   -2.722430    1.395540
  C      6.934520   -2.601710    1.858050
  C      7.840500   -3.673370    1.739410
  C      9.182780   -3.796270    2.063760
  C     10.152360   -2.824500    2.647740
  C     10.951220   -2.138550    1.515920
  N     12.234420   -1.704180    2.033580
  C      9.533270   -1.771730    3.580620
  N     10.571690   -1.129710    4.371810
  C      9.590040   -5.114090    1.619580
  C     10.796440   -5.709600    1.625960
  C     11.011290   -7.030250    0.975320
  C      9.755700   -7.701690    0.493910
  C      8.551950   -7.104620    0.533810
  C      8.419510   -5.792380    1.049720
  C      7.360700   -4.913950    1.133130
  C      6.008290   -5.023570    0.729520
  C      5.175280   -3.961190    0.853370
  C     11.801400   -8.004120    1.804240
  C     11.858810   -7.993480    3.137630
  C     12.590340   -8.953830    3.917900
  S     12.444350   -8.943230    5.650270
  C     13.527510  -10.289970    5.807630
  C     13.971170  -10.718070    4.560770
  C     13.443060   -9.946340    3.508020
  C     14.931390  -11.827410    4.420340
  O     15.432200  -12.371140    5.379360
  C     15.248980  -12.242330    3.006090
  C     13.805320  -10.890070    7.068780
  C     13.911790  -10.288840    8.276300
  C     13.788130  -11.093620    9.528020
  O     13.821740  -12.300140    9.605780
  C     13.550300  -10.104530   10.594750
  C     13.653340   -8.815170   10.069960
  C     14.031610   -8.896340    8.663570
  C     14.626830   -7.902940    7.934720
  C     15.219940   -8.106140    6.670040
  N     15.749610   -8.220960    5.658380
  C     14.798690   -6.579640    8.391620
  N     14.949710   -5.485570    8.703900
  C     13.433580   -7.694720   10.882340
  C     13.125610   -7.889770   12.203170
  C     13.031350   -9.180240   12.769800
  C     13.244660  -10.327680   11.951570
  C     13.147410  -11.614040   12.520120
  C     12.853330  -11.757470   13.848080
  C     12.642980  -10.630720   14.659050
  C     12.728990   -9.370690   14.133290
  H      6.891570    1.974590    7.140610
  H      6.282430    3.160630    9.201330
  H      1.823710    5.019590    6.509500
  H      1.285880    6.216050    8.601610
  H      2.769100    6.026630   10.556830
  H      4.802290    4.644340   10.449350
  H      2.581520    2.289860    2.588480
  H      2.726300    0.850760    0.435440
  H      1.683140   -0.856850   -1.008760
  H      2.441460   -1.429950   -2.513180
  H      2.868700    0.151790   -1.850240
  H      7.265510   -1.653320    2.249100
  H     10.886670   -3.388560    3.234770
  H     10.334100   -1.324760    1.100250
  H     11.136760   -2.857020    0.708770
  H     12.068570   -1.142390    2.866910
  H     12.714110   -1.128790    1.349480
  H      8.752840   -2.251490    4.196830
  H      9.062810   -0.982880    2.988230
  H     10.941920   -1.773680    5.063470
  H     10.190010   -0.327130    4.863770
  H     11.670960   -5.228310    2.042220
  H     11.623360   -6.818070    0.079970
  H      9.875670   -8.697190    0.094720
  H      7.674450   -7.612870    0.161300
  H      5.652380   -5.957570    0.321110
  H      4.141740   -4.033710    0.556070
  H     12.301000   -8.781890    1.244850
  H     11.328540   -7.233820    3.695830
  H     13.693160  -10.102920    2.475940
  H     14.337380  -12.482710    2.463940
  H     15.755390  -11.424770    2.496850
  H     15.903140  -13.109920    3.025330
  H     13.898140  -11.972610    7.068680
  H     13.493360   -6.698420   10.475320
  H     12.948490   -7.037110   12.842780
  H     13.310910  -12.471970   11.887350
  H     12.780940  -12.742790   14.283640
  H     12.411810  -10.767470   15.705110
  H     12.568430   -8.502270   14.755760

 Total Charge           Charge          ....    0
 Multiplicity           Mult            ....    1
 Number of Electrons    NEL             ....  530
 Basis Dimension        Dim             .... 1272

ORBITAL ENERGIES
----------------

  NO   OCC          E(Eh)            E(eV)
   0   2.0000     -88.971111     -2421.0270
   1   2.0000     -88.971065     -2421.0258
   2   2.0000     -19.219368      -522.9856
   3   2.0000     -19.213200      -522.8178
   4   2.0000     -19.206772      -522.6428
   5   2.0000     -19.200781      -522.4798
   6   2.0000     -14.427101      -392.5814
   7   2.0000     -14.415833      -392.2748
   8   2.0000     -14.412494      -392.1839
   9   2.0000     -14.409553      -392.1039
  10   2.0000     -14.367917      -390.9709
  11   2.0000     -14.341538      -390.2531
  12   2.0000     -10.370241      -282.1886
  13   2.0000     -10.363813      -282.0137
  14   2.0000     -10.360897      -281.9344
  15   2.0000     -10.358126      -281.8589
  16   2.0000     -10.347774      -281.5772
  17   2.0000     -10.346551      -281.5440
  18   2.0000     -10.341626      -281.4100
  19   2.0000     -10.338107      -281.3142
  20   2.0000     -10.331285      -281.1286
  21   2.0000     -10.326613      -281.0014
  22   2.0000     -10.322722      -280.8956
  23   2.0000     -10.318609      -280.7836
  24   2.0000     -10.317869      -280.7635
  25   2.0000     -10.315416      -280.6967
  26   2.0000     -10.314936      -280.6837
  27   2.0000     -10.314599      -280.6745
  28   2.0000     -10.312097      -280.6064
  29   2.0000     -10.311607      -280.5931
  30   2.0000     -10.310940      -280.5749
  31   2.0000     -10.306404      -280.4515
  32   2.0000     -10.301322      -280.3132
  33   2.0000     -10.299025      -280.2507
  34   2.0000     -10.298638      -280.2402
  35   2.0000     -10.298108      -280.2258
  36   2.0000     -10.297758      -280.2162
  37   2.0000     -10.297198      -280.2010
  38   2.0000     -10.296543      -280.1832
  39   2.0000     -10.295715      -280.1606
  40   2.0000     -10.294928      -280.1392
  41   2.0000     -10.293788      -280.1082
  42   2.0000     -10.293190      -280.0919
  43   2.0000     -10.292890      -280.0838
  44   2.0000     -10.292676      -280.0780
  45   2.0000     -10.292347      -280.0690
  46   2.0000     -10.291202      -280.0379
  47   2.0000     -10.289109      -279.9809
  48   2.0000     -10.288809      -279.9727
  49   2.0000     -10.288735      -279.9707
  50   2.0000     -10.286099      -279.8990
  51   2.0000     -10.285736      -279.8891
  52   2.0000     -10.285570      -279.8846
  53   2.0000     -10.285019      -279.8696
  54   2.0000     -10.284194      -279.8471
  55   2.0000     -10.283551      -279.8297
  56   2.0000     -10.281570      -279.7757
  57   2.0000     -10.281059      -279.7618
  58   2.0000     -10.279661      -279.7238
  59   2.0000     -10.278806      -279.7005
  60   2.0000     -10.274738      -279.5898
  61   2.0000     -10.274536      -279.5843
  62   2.0000     -10.273876      -279.5664
  63   2.0000     -10.269047      -279.4350
  64   2.0000     -10.268877      -279.4303
  65   2.0000     -10.268810      -279.4285
  66   2.0000     -10.268466      -279.4192
  67   2.0000     -10.268068      -279.4083
  68   2.0000     -10.263671      -279.2887
  69   2.0000     -10.262058      -279.2448
  70   2.0000     -10.262005      -279.2434
  71   2.0000     -10.261939      -279.2415
  72   2.0000     -10.261411      -279.2272
  73   2.0000     -10.258009      -279.1346
  74   2.0000     -10.255975      -279.0793
  75   2.0000     -10.255476      -279.0657
  76   2.0000      -8.066263      -219.4942
  77   2.0000      -8.065989      -219.4867
  78   2.0000      -6.035408      -164.2318
  79   2.0000      -6.035245      -164.2274
  80   2.0000      -6.031320      -164.1206
  81   2.0000      -6.030980      -164.1113
  82   2.0000      -6.028651      -164.0479
  83   2.0000      -6.028278      -164.0378
  84   2.0000      -1.134006       -30.8579
  85   2.0000      -1.128595       -30.7106
  86   2.0000      -1.124733       -30.6055
  87   2.0000      -1.119746       -30.4698
  88   2.0000      -1.025339       -27.9009
  89   2.0000      -1.016432       -27.6585
  90   2.0000      -1.006467       -27.3874
  91   2.0000      -1.002145       -27.2697
  92   2.0000      -0.998412       -27.1682
  93   2.0000      -0.996319       -27.1112
  94   2.0000      -0.995598       -27.0916
  95   2.0000      -0.987769       -26.8786
  96   2.0000      -0.978734       -26.6327
  97   2.0000      -0.971153       -26.4264
  98   2.0000      -0.965400       -26.2699
  99   2.0000      -0.956324       -26.0229
 100   2.0000      -0.944139       -25.6913
 101   2.0000      -0.927003       -25.2250
 102   2.0000      -0.922979       -25.1155
 103   2.0000      -0.921392       -25.0724
 104   2.0000      -0.917029       -24.9536
 105   2.0000      -0.908165       -24.7124
 106   2.0000      -0.902472       -24.5575
 107   2.0000      -0.894909       -24.3517
 108   2.0000      -0.890450       -24.2304
 109   2.0000      -0.878538       -23.9062
 110   2.0000      -0.871500       -23.7147
 111   2.0000      -0.867029       -23.5931
 112   2.0000      -0.864774       -23.5317
 113   2.0000      -0.858278       -23.3549
 114   2.0000      -0.851505       -23.1706
 115   2.0000      -0.844948       -22.9922
 116   2.0000      -0.837842       -22.7988
 117   2.0000      -0.833691       -22.6859
 118   2.0000      -0.827637       -22.5211
 119   2.0000      -0.821145       -22.3445
 120   2.0000      -0.817625       -22.2487
 121   2.0000      -0.815718       -22.1968
 122   2.0000      -0.810428       -22.0529
 123   2.0000      -0.793466       -21.5913
 124   2.0000      -0.779865       -21.2212
 125   2.0000      -0.772145       -21.0111
 126   2.0000      -0.766461       -20.8565
 127   2.0000      -0.756281       -20.5794
 128   2.0000      -0.750606       -20.4250
 129   2.0000      -0.739207       -20.1149
 130   2.0000      -0.717823       -19.5329
 131   2.0000      -0.712183       -19.3795
 132   2.0000      -0.711386       -19.3578
 133   2.0000      -0.708592       -19.2818
 134   2.0000      -0.707545       -19.2533
 135   2.0000      -0.703214       -19.1354
 136   2.0000      -0.699818       -19.0430
 137   2.0000      -0.694794       -18.9063
 138   2.0000      -0.686052       -18.6684
 139   2.0000      -0.678603       -18.4657
 140   2.0000      -0.672772       -18.3070
 141   2.0000      -0.671290       -18.2667
 142   2.0000      -0.664274       -18.0758
 143   2.0000      -0.659980       -17.9590
 144   2.0000      -0.655963       -17.8497
 145   2.0000      -0.647644       -17.6233
 146   2.0000      -0.643447       -17.5091
 147   2.0000      -0.634132       -17.2556
 148   2.0000      -0.632600       -17.2139
 149   2.0000      -0.626118       -17.0375
 150   2.0000      -0.625757       -17.0277
 151   2.0000      -0.615541       -16.7497
 152   2.0000      -0.602760       -16.4019
 153   2.0000      -0.599129       -16.3031
 154   2.0000      -0.597570       -16.2607
 155   2.0000      -0.591098       -16.0846
 156   2.0000      -0.589951       -16.0534
 157   2.0000      -0.586923       -15.9710
 158   2.0000      -0.585322       -15.9274
 159   2.0000      -0.579446       -15.7675
 160   2.0000      -0.578214       -15.7340
 161   2.0000      -0.572981       -15.5916
 162   2.0000      -0.567215       -15.4347
 163   2.0000      -0.562593       -15.3089
 164   2.0000      -0.560336       -15.2475
 165   2.0000      -0.558312       -15.1924
 166   2.0000      -0.552933       -15.0461
 167   2.0000      -0.552652       -15.0384
 168   2.0000      -0.542891       -14.7728
 169   2.0000      -0.540177       -14.6990
 170   2.0000      -0.539994       -14.6940
 171   2.0000      -0.536258       -14.5923
 172   2.0000      -0.534303       -14.5391
 173   2.0000      -0.533053       -14.5051
 174   2.0000      -0.532815       -14.4986
 175   2.0000      -0.528133       -14.3712
 176   2.0000      -0.527143       -14.3443
 177   2.0000      -0.523513       -14.2455
 178   2.0000      -0.522301       -14.2125
 179   2.0000      -0.519852       -14.1459
 180   2.0000      -0.518535       -14.1101
 181   2.0000      -0.517151       -14.0724
 182   2.0000      -0.514914       -14.0115
 183   2.0000      -0.512918       -13.9572
 184   2.0000      -0.511086       -13.9074
 185   2.0000      -0.509474       -13.8635
 186   2.0000      -0.509358       -13.8603
 187   2.0000      -0.507282       -13.8038
 188   2.0000      -0.507055       -13.7977
 189   2.0000      -0.503674       -13.7057
 190   2.0000      -0.501910       -13.6577
 191   2.0000      -0.501255       -13.6399
 192   2.0000      -0.500057       -13.6072
 193   2.0000      -0.495683       -13.4882
 194   2.0000      -0.492179       -13.3929
 195   2.0000      -0.489421       -13.3178
 196   2.0000      -0.487983       -13.2787
 197   2.0000      -0.486194       -13.2300
 198   2.0000      -0.485670       -13.2157
 199   2.0000      -0.481804       -13.1105
 200   2.0000      -0.477896       -13.0042
 201   2.0000      -0.476831       -12.9752
 202   2.0000      -0.475707       -12.9446
 203   2.0000      -0.473977       -12.8976
 204   2.0000      -0.473399       -12.8818
 205   2.0000      -0.472401       -12.8547
 206   2.0000      -0.468554       -12.7500
 207   2.0000      -0.466462       -12.6931
 208   2.0000      -0.462940       -12.5972
 209   2.0000      -0.461097       -12.5471
 210   2.0000      -0.456169       -12.4130
 211   2.0000      -0.454560       -12.3692
 212   2.0000      -0.448885       -12.2148
 213   2.0000      -0.447665       -12.1816
 214   2.0000      -0.446177       -12.1411
 215   2.0000      -0.445710       -12.1284
 216   2.0000      -0.443298       -12.0628
 217   2.0000      -0.440884       -11.9971
 218   2.0000      -0.439932       -11.9712
 219   2.0000      -0.437523       -11.9056
 220   2.0000      -0.436304       -11.8724
 221   2.0000      -0.435829       -11.8595
 222   2.0000      -0.434043       -11.8109
 223   2.0000      -0.432508       -11.7691
 224   2.0000      -0.431072       -11.7301
 225   2.0000      -0.430073       -11.7029
 226   2.0000      -0.429526       -11.6880
 227   2.0000      -0.428573       -11.6621
 228   2.0000      -0.427499       -11.6328
 229   2.0000      -0.425253       -11.5717
 230   2.0000      -0.423282       -11.5181
 231   2.0000      -0.421270       -11.4633
 232   2.0000      -0.420416       -11.4401
 233   2.0000      -0.418398       -11.3852
 234   2.0000      -0.411881       -11.2079
 235   2.0000      -0.408544       -11.1171
 236   2.0000      -0.405133       -11.0242
 237   2.0000      -0.402326       -10.9479
 238   2.0000      -0.396410       -10.7869
 239   2.0000      -0.395404       -10.7595
 240   2.0000      -0.389704       -10.6044
 241   2.0000      -0.381504       -10.3813
 242   2.0000      -0.379202       -10.3186
 243   2.0000      -0.377366       -10.2686
 244   2.0000      -0.366732        -9.9793
 245   2.0000      -0.361477        -9.8363
 246   2.0000      -0.359571        -9.7844
 247   2.0000      -0.344523        -9.3749
 248   2.0000      -0.338774        -9.2185
 249   2.0000      -0.333870        -9.0851
 250   2.0000      -0.333512        -9.0753
 251   2.0000      -0.330990        -9.0067
 252   2.0000      -0.329071        -8.9545
 253   2.0000      -0.327650        -8.9158
 254   2.0000      -0.324251        -8.8233
 255   2.0000      -0.320164        -8.7121
 256   2.0000      -0.310672        -8.4538
 257   2.0000      -0.304875        -8.2961
 258   2.0000      -0.297231        -8.0881
 259   2.0000      -0.294114        -8.0032
 260   2.0000      -0.291086        -7.9209
 261   2.0000      -0.277002        -7.5376
 262   2.0000      -0.273622        -7.4456
 263   2.0000      -0.269764        -7.3407
 264   2.0000      -0.219515        -5.9733
 265   0.0000      -0.092835        -2.5262
 266   0.0000      -0.084382        -2.2962
 267   0.0000      -0.072350        -1.9688
 268   0.0000      -0.065775        -1.7898
 269   0.0000      -0.060634        -1.6499

MULLIKEN ATOMIC CHARGES
-----------------------
   0 C :   -0.128985
   1 C :    0.123279
   2 O :   -0.152593
   3 C :    0.006459
   4 C :   -0.007072
   5 C :    0.259869
   6 C :   -0.340667
   7 C :   -0.217474
   8 N :    0.179388
   9 C :   -0.124033
  10 N :    0.128220
  11 C :   -0.024515
  12 C :    0.005492
  13 C :    0.080562
  14 C :    0.036010
  15 C :   -0.027424
  16 C :    0.038136
  17 C :    0.040037
  18 C :   -0.022468
  19 C :    0.061700
  20 C :   -0.085596
  21 S :    0.155551
  22 C :   -0.117889
  23 C :    0.085715
  24 C :    0.003050
  25 C :   -0.021333
  26 O :   -0.169177
  27 C :    0.038381
  28 C :    0.078728
  29 C :   -0.075740
  30 C :    0.034987
  31 C :   -0.008981
  32 C :   -0.066460
  33 C :    0.160745
  34 N :   -0.229558
  35 C :    0.107011
  36 N :   -0.212592
  37 C :    0.077516
  38 C :   -0.148784
  39 C :    0.173953
  40 C :   -0.038249
  41 C :    0.021847
  42 C :    0.017699
  43 C :    0.033076
  44 C :   -0.016951
  45 C :    0.063063
  46 C :   -0.092459
  47 C :    0.093950
  48 C :   -0.051042
  49 S :    0.174092
  50 C :   -0.212546
  51 C :    0.130482
  52 C :   -0.023677
  53 C :   -0.011002
  54 O :   -0.175402
  55 C :    0.044862
  56 C :    0.076237
  57 C :   -0.127919
  58 C :    0.123320
  59 O :   -0.144604
  60 C :    0.005420
  61 C :   -0.005750
  62 C :    0.255738
  63 C :   -0.329709
  64 C :   -0.188897
  65 N :    0.174574
  66 C :   -0.183638
  67 N :    0.157547
  68 C :   -0.021508
  69 C :    0.006439
  70 C :    0.079132
  71 C :    0.035136
  72 C :   -0.023621
  73 C :    0.036244
  74 C :    0.038773
  75 C :   -0.021389
  76 H :   -0.000171
  77 H :   -0.011940
  78 H :    0.001369
  79 H :   -0.005518
  80 H :   -0.006073
  81 H :   -0.019877
  82 H :    0.021159
  83 H :   -0.005136
  84 H :    0.033313
  85 H :    0.034501
  86 H :    0.044657
  87 H :   -0.031418
  88 H :   -0.019162
  89 H :   -0.021877
  90 H :   -0.015955
  91 H :    0.085445
  92 H :    0.079345
  93 H :   -0.007787
  94 H :    0.016872
  95 H :    0.098385
  96 H :    0.094412
  97 H :    0.017489
  98 H :    0.049440
  99 H :   -0.018110
 100 H :   -0.036318
 101 H :   -0.037887
 102 H :   -0.029723
 103 H :    0.000327
 104 H :   -0.002263
 105 H :   -0.020012
 106 H :    0.036265
 107 H :    0.049306
 108 H :    0.035769
 109 H :    0.046597
 110 H :    0.000016
 111 H :   -0.013614
 112 H :    0.001986
 113 H :   -0.007380
 114 H :   -0.006842
 115 H :   -0.022307
Sum of atomic charges:   -0.0000000

LOEWDIN ATOMIC CHARGES
----------------------
   0 C :   -0.102973
   1 C :    0.088168
   2 O :   -0.144235
   3 C :   -0.031377
   4 C :   -0.005248
   5 C :    0.069223
   6 C :   -0.149976
   7 C :   -0.043131
   8 N :   -0.045552
   9 C :    0.000361
  10 N :   -0.057364
  11 C :   -0.019717
  12 C :    0.018821
  13 C :   -0.008984
  14 C :   -0.002950
  15 C :   -0.001752
  16 C :   -0.011898
  17 C :   -0.011743
  18 C :   -0.012630
  19 C :    0.054855
  20 C :   -0.194636
  21 S :    0.502485
  22 C :   -0.085840
  23 C :   -0.118475
  24 C :    0.001041
  25 C :    0.080316
  26 O :   -0.133665
  27 C :   -0.077640
  28 C :   -0.052975
  29 C :    0.003038
  30 C :   -0.027901
  31 C :   -0.012911
  32 C :   -0.042029
  33 C :    0.033464
  34 N :   -0.135999
  35 C :    0.023356
  36 N :   -0.096622
  37 C :   -0.016285
  38 C :    0.064510
  39 C :   -0.031756
  40 C :   -0.032563
  41 C :   -0.015763
  42 C :   -0.041213
  43 C :   -0.025513
  44 C :   -0.010897
  45 C :   -0.008791
  46 C :    0.010305
  47 C :   -0.047998
  48 C :   -0.147838
  49 S :    0.481431
  50 C :   -0.156225
  51 C :   -0.075120
  52 C :   -0.044176
  53 C :    0.087466
  54 O :   -0.133547
  55 C :   -0.075193
  56 C :    0.056384
  57 C :   -0.087375
  58 C :    0.087885
  59 O :   -0.134956
  60 C :   -0.032086
  61 C :   -0.004840
  62 C :    0.063536
  63 C :   -0.134871
  64 C :   -0.028646
  65 N :   -0.045256
  66 C :   -0.019970
  67 N :   -0.049597
  68 C :   -0.017507
  69 C :    0.017841
  70 C :   -0.009370
  71 C :   -0.003188
  72 C :   -0.001111
  73 C :   -0.012783
  74 C :   -0.012878
  75 C :   -0.013348
  76 H :    0.038717
  77 H :    0.035793
  78 H :    0.035682
  79 H :    0.033017
  80 H :    0.032303
  81 H :    0.030609
  82 H :    0.050729
  83 H :    0.035017
  84 H :    0.036989
  85 H :    0.040682
  86 H :    0.045669
  87 H :    0.020751
  88 H :    0.024134
  89 H :   -0.000203
  90 H :    0.008471
  91 H :    0.033891
  92 H :    0.048295
  93 H :    0.000298
  94 H :    0.016810
  95 H :    0.054958
  96 H :    0.046256
  97 H :    0.037841
  98 H :    0.068303
  99 H :    0.022568
 100 H :    0.029949
 101 H :    0.027553
 102 H :    0.025794
 103 H :    0.025445
 104 H :    0.031222
 105 H :    0.028608
 106 H :    0.040031
 107 H :    0.047848
 108 H :    0.041310
 109 H :    0.054643
 110 H :    0.039299
 111 H :    0.035143
 112 H :    0.035961
 113 H :    0.032406
 114 H :    0.031733
 115 H :    0.029870

  Mayer bond orders larger than 0.100000
B(  0-C ,  1-C ) :   0.9605 B(  0-C ,  5-C ) :   1.0258 B(  0-C , 19-C ) :   1.6433
B(  1-C ,  2-O ) :   2.1910 B(  1-C ,  3-C ) :   0.9382 B(  3-C ,  4-C ) :   1.4167
B(  3-C , 14-C ) :   1.2414 B(  4-C ,  5-C ) :   1.0177 B(  4-C , 11-C ) :   1.2595
B(  5-C ,  6-C ) :   1.6257 B(  6-C ,  7-C ) :   1.1577 B(  6-C ,  9-C ) :   1.1491
B(  7-C ,  8-N ) :   3.0081 B(  9-C , 10-N ) :   2.9016 B( 11-C , 12-C ) :   1.4685
B( 11-C , 76-H ) :   0.9858 B( 12-C , 13-C ) :   1.2264 B( 12-C , 77-H ) :   0.9932
B( 13-C , 14-C ) :   1.2392 B( 13-C , 18-C ) :   1.2405 B( 14-C , 15-C ) :   1.2753
B( 15-C , 16-C ) :   1.4762 B( 15-C , 78-H ) :   0.9859 B( 16-C , 17-C ) :   1.2548
B( 16-C , 79-H ) :   0.9872 B( 17-C , 18-C ) :   1.4968 B( 17-C , 80-H ) :   0.9885
B( 18-C , 81-H ) :   0.9970 B( 19-C , 20-C ) :   1.1352 B( 19-C , 82-H ) :   0.9458
B( 20-C , 21-S ) :   1.0813 B( 20-C , 24-C ) :   1.4516 B( 21-S , 22-C ) :   1.2117
B( 22-C , 23-C ) :   1.4519 B( 22-C , 28-C ) :   1.0349 B( 23-C , 24-C ) :   1.2439
B( 23-C , 25-C ) :   0.9181 B( 24-C , 83-H ) :   0.9928 B( 25-C , 26-O ) :   2.1810
B( 25-C , 27-C ) :   1.0642 B( 27-C , 84-H ) :   0.9533 B( 27-C , 85-H ) :   0.9479
B( 27-C , 86-H ) :   0.9358 B( 28-C , 29-C ) :   1.5203 B( 28-C , 45-C ) :   1.1302
B( 29-C , 30-C ) :   1.1388 B( 29-C , 87-H ) :   0.9823 B( 30-C , 31-C ) :   1.4893
B( 30-C , 43-C ) :   1.1110 B( 31-C , 32-C ) :   1.0269 B( 31-C , 37-C ) :   1.0974
B( 32-C , 33-C ) :   1.0312 B( 32-C , 35-C ) :   1.0332 B( 32-C , 88-H ) :   0.8866
B( 33-C , 34-N ) :   1.0961 B( 33-C , 89-H ) :   0.9232 B( 33-C , 90-H ) :   0.9451
B( 34-N , 91-H ) :   0.9357 B( 34-N , 92-H ) :   0.9657 B( 35-C , 36-N ) :   1.0891
B( 35-C , 93-H ) :   0.9550 B( 35-C , 94-H ) :   0.9203 B( 36-N , 91-H ) :   0.1146
B( 36-N , 95-H ) :   0.9621 B( 36-N , 96-H ) :   0.9513 B( 37-C , 38-C ) :   1.6589
B( 37-C , 42-C ) :   1.0549 B( 38-C , 39-C ) :   0.9633 B( 38-C , 97-H ) :   0.9719
B( 39-C , 40-C ) :   0.9839 B( 39-C , 46-C ) :   0.9670 B( 39-C , 98-H ) :   0.8401
B( 40-C , 41-C ) :   1.7403 B( 40-C , 99-H ) :   0.9670 B( 41-C , 42-C ) :   1.1244
B( 41-C ,100-H ) :   0.9866 B( 42-C , 43-C ) :   1.4571 B( 43-C , 44-C ) :   1.1355
B( 44-C , 45-C ) :   1.6247 B( 44-C ,101-H ) :   0.9913 B( 45-C ,102-H ) :   0.9772
B( 46-C , 47-C ) :   1.8641 B( 46-C ,103-H ) :   0.9661 B( 47-C , 48-C ) :   1.0613
B( 47-C ,104-H ) :   0.9493 B( 48-C , 49-S ) :   1.1334 B( 48-C , 52-C ) :   1.5339
B( 49-S , 50-C ) :   1.1545 B( 50-C , 51-C ) :   1.4693 B( 50-C , 56-C ) :   1.0787
B( 51-C , 52-C ) :   1.2472 B( 51-C , 53-C ) :   0.9195 B( 52-C ,105-H ) :   0.9797
B( 53-C , 54-O ) :   2.1468 B( 53-C , 55-C ) :   1.0802 B( 55-C ,106-H ) :   0.9482
B( 55-C ,107-H ) :   0.9373 B( 55-C ,108-H ) :   0.9457 B( 56-C , 57-C ) :   1.7140
B( 56-C ,109-H ) :   0.9245 B( 57-C , 58-C ) :   0.9493 B( 57-C , 62-C ) :   1.0111
B( 58-C , 59-O ) :   2.2025 B( 58-C , 60-C ) :   0.9387 B( 60-C , 61-C ) :   1.4163
B( 60-C , 71-C ) :   1.2356 B( 61-C , 62-C ) :   1.0045 B( 61-C , 68-C ) :   1.2573
B( 62-C , 63-C ) :   1.6667 B( 63-C , 64-C ) :   1.1573 B( 63-C , 66-C ) :   1.1312
B( 64-C , 65-N ) :   3.0166 B( 66-C , 67-N ) :   2.9953 B( 68-C , 69-C ) :   1.4705
B( 68-C ,110-H ) :   0.9867 B( 69-C , 70-C ) :   1.2227 B( 69-C ,111-H ) :   0.9939
B( 70-C , 71-C ) :   1.2429 B( 70-C , 75-C ) :   1.2399 B( 71-C , 72-C ) :   1.2758
B( 72-C , 73-C ) :   1.4742 B( 72-C ,112-H ) :   0.9864 B( 73-C , 74-C ) :   1.2553
B( 73-C ,113-H ) :   0.9881 B( 74-C , 75-C ) :   1.4953 B( 74-C ,114-H ) :   0.9888
B( 75-C ,115-H ) :   0.9974

-----------------------------------------------------------------------------
         ABSORPTION SPECTRUM VIA TRANSITION ELECTRIC DIPOLE MOMENTS
-----------------------------------------------------------------------------
State   Energy  Wavelength   fosc         T2         TX        TY        TZ
        (cm-1)    (nm)                  (au**2)     (au)      (au)      (au)
-----------------------------------------------------------------------------
   0   12865.0    777.3   0.047578263   1.21751  -0.77146   0.74486   0.25989
   1   15840.6    631.3   0.175905047   3.65580  -0.22199   1.73774   0.76601
   2   18201.7    549.4   0.035580044   0.64353  -0.43955   0.36808  -0.56111
   3   20459.2    488.8   0.094777879   1.52508   0.64942  -1.01198  -0.28147
   4   22101.1    452.5   0.221192296   3.29481   0.34952  -1.64761  -0.67679
   5   22583.2    442.8   0.370671842   5.40356   0.61553   0.62577   2.15246
   6   23385.9    427.6   0.011101816   0.15628   0.09781  -0.27313  -0.26855
   7   23664.4    422.6   0.039037205   0.54307  -0.32512   0.17851  -0.63679
   8   26015.1    384.4   0.008760071   0.11086   0.23703  -0.07162   0.22258
   9   26444.2    378.2   0.006572623   0.08182  -0.03301   0.19286  -0.20866
  10   26616.3    375.7   0.074005814   0.91536  -0.43402   0.83584  -0.16839
  11   26816.0    372.9   0.059620253   0.73194  -0.59539  -0.52362  -0.32137
  12   27966.1    357.6   0.414373229   4.87792  -1.36089   1.69953  -0.37083
  13   28011.8    357.0   0.007156777   0.08411  -0.17321  -0.16649   0.16244
  14   28221.4    354.3   0.513110560   5.98560  -1.01454   0.72670   2.10433
  15   28822.6    346.9   0.123449854   1.41004  -0.19793  -0.28884  -1.13465
  16   29093.9    343.7   0.023018086   0.26046   0.49704  -0.02540   0.11301
  17   29358.8    340.6   0.000239202   0.00268   0.03860  -0.02259   0.02612
  18   29569.8    338.2   0.026959799   0.30015  -0.51325   0.07245   0.17742
  19   29662.3    337.1   0.074784102   0.83000   0.13343   0.53195  -0.72748
  20   29832.1    335.2   0.044960726   0.49616   0.43141  -0.35498  -0.42900
  21   30104.1    332.2   0.044217536   0.48355   0.60909   0.14051   0.30467
  22   30139.6    331.8   0.079559975   0.86903   0.03798   0.52263   0.77100
  23   30377.8    329.2   0.092479184   1.00222   0.70194  -0.15981   0.69567
  24   30825.8    324.4   0.321635639   3.43499   1.58509  -0.78245   0.55700
  25   31572.3    316.7   0.029050693   0.30292  -0.31682   0.39674  -0.21247
  26   31902.3    313.5   0.207664921   2.14297  -0.16981  -1.32271   0.60381
  27   32242.0    310.2   0.398446384   4.06840   1.14216  -1.24581  -1.10083
  28   32454.5    308.1   0.051012248   0.51746  -0.32839   0.61110  -0.19020
  29   32480.4    307.9   0.573629689   5.81414   1.10316   0.30067  -2.12292
  30   32483.1    307.9   0.316407988   3.20675  -0.11252  -0.13071  -1.78242
  31   32633.3    306.4   0.043861187   0.44248   0.57178   0.15207   0.30402
  32   32812.6    304.8   0.043886192   0.44031   0.01927  -0.43298  -0.50247
  33   32999.7    303.0   0.015792617   0.15755  -0.09249   0.08551   0.37641
  34   34158.4    292.8   0.008319230   0.08018  -0.10278   0.25736   0.05814
  35   34312.1    291.4   0.147483013   1.41504  -0.37289  -0.48843  -1.01855
  36   34597.7    289.0   0.004889393   0.04652  -0.07926   0.00936   0.20039
  37   34745.8    287.8   0.049849010   0.47231  -0.62098   0.16985  -0.24052
  38   34834.3    287.1   0.004521574   0.04273   0.08758   0.12368  -0.14058
  39   34903.7    286.5   0.041329795   0.38982   0.02510  -0.15526  -0.60423
  40   34906.5    286.5   0.128842805   1.21515   0.36480   0.56961  -0.87041
  41   35292.5    283.3   0.092642080   0.86417   0.84944  -0.25701  -0.27671
  42   35441.3    282.2   0.023901923   0.22202  -0.27263   0.21981  -0.31524
  43   35572.0    281.1   0.006214417   0.05751   0.19907  -0.13169   0.02333
  44   36242.7    275.9   0.001303412   0.01184   0.03805   0.04834  -0.08975
  45   36368.1    275.0   0.022313351   0.20199  -0.09242   0.21115  -0.38582
  46   36564.8    273.5   0.083166041   0.74879   0.10511   0.74739   0.42326
  47   36629.2    273.0   0.003080518   0.02769   0.01831   0.12340   0.11011
  48   37104.1    269.5   0.011821492   0.10489   0.12560  -0.07307   0.28944
  49   37657.1    265.6   0.001879043   0.01643  -0.05396  -0.11535  -0.01446
  50   37820.5    264.4   0.015986916   0.13916  -0.29244   0.04776  -0.22662
  51   37928.3    263.7   0.019826191   0.17209  -0.13166  -0.16986  -0.35483
  52   38410.4    260.3   0.063492722   0.54419   0.03669   0.26845   0.68613
  53   39043.2    256.1   0.027473186   0.23165  -0.16533   0.04114  -0.45014
  54   39255.5    254.7   0.301480333   2.52833  -1.23587   0.97002  -0.24499
  55   39282.1    254.6   0.070983591   0.59489   0.29505  -0.21100  -0.68068
  56   39554.3    252.8   0.037289949   0.31037  -0.28118   0.32689  -0.35277
  57   39702.1    251.9   0.009367703   0.07768   0.03990  -0.05205   0.27088
  58   39834.7    251.0   0.004412948   0.03647  -0.09742   0.15978  -0.03806
  59   39915.9    250.5   0.002540190   0.02095   0.09026  -0.02621  -0.11007
  60   40077.9    249.5   0.044017570   0.36157   0.29520   0.03071   0.52296
  61   40148.4    249.1   0.010573642   0.08670  -0.26235   0.11004   0.07595
  62   40266.0    248.3   0.004204860   0.03438   0.00080  -0.08491   0.16483

FINAL SINGLE POINT ENERGY     -3884.376602013744

DIPOLE MOMENT
-------------
                                X             Y             Z
Electronic contribution:     -0.73947      -2.38145      22.16340
Nuclear contribution   :     -2.48604       2.67226     -20.60777
                        -----------------------------------------
Total Dipole Moment    :     -3.22551       0.29081       1.55564
                        -----------------------------------------
Magnitude (a.u.)       :      3.59284
Magnitude (Debye)      :      9.13227

Rotational constants in cm-1:     0.001039     0.000332     0.000272
Rotational constants in MHz :    31.149384     9.961101     8.153078

                             ****ORCA TERMINATED NORMALLY****
TOTAL RUN TIME: 0 days 0 hours 11 minutes 58 seconds 208 msec
