                         Program Version 4.2.0 -  RELEASE  -
|  1> # ORCA input file
|  2> # SCF done       -178.544167061549          0.004031654854
|  3> ! CAM-B3LYP def2-SVP def2/J RIJCOSX Grid4 TightSCF
|  4> %maxcore 5000
|  5> %tddft
|  6>     Mode sTDDFT
|  7>     Ethresh 5.0
|  8>     maxcore 5000
|  9> end
| 10>
| 11> %pal
| 12>   nprocs 6
| 13>   end
| 14> * xyz 0 1
| 15>    C        1.03455         0.87333        -1.38122
| 16>    C        0.24920         1.15355        -2.60960
| 17>    O        0.04263         2.24407        -3.09965
| 18>    C       -0.15395        -0.17484        -3.11694
| 19>    C        0.20876        -1.15307        -2.19136
| 20>    C        0.81543        -0.50794        -1.03001
| 21>    C        0.88507        -1.03869         0.23514
| 22>    C        1.18902        -0.25150         1.36504
| 23>    N        1.38994         0.37986         2.30421
| 24>    C        0.55451        -2.36768         0.55900
| 25>    N        0.30989        -3.44268         0.88016
| 26>    C       -0.03875        -2.50755        -2.44505
| 27>    C       -0.63764        -2.85539        -3.62840
| 28>    C       -1.01644        -1.89071        -4.58833
| 29>    C       -0.77627        -0.50830        -4.33561
| 30>    C       -1.15357         0.44940        -5.30032
| 31>    C       -1.74132         0.05335        -6.46986
| 32>    C       -1.97910        -1.30725        -6.72476
| 33>    C       -1.62694        -2.25746        -5.80577
| 34>    C        1.89301         1.81675        -0.89463
| 35>    C        3.06396         1.65293        -0.12709
| 36>    C        3.81798         2.69990         0.38721
| 37>    C        5.02746         2.35156         0.97584
| 38>    C        5.34777         1.00312         0.94319
| 39>   Se        3.97220         0.02277         0.12881
| 40>    C        6.55118         0.37071         1.41001
| 41>    C        7.60052         1.11177         1.90709
| 42>    C        8.78567         0.46887         2.31484
| 43>    C        9.97271         0.98286         2.81338
| 44>    C       10.36238         2.40071         3.08362
| 45>    C       10.71469         3.10573         1.75942
| 46>    N       11.46940         4.32095         2.02005
| 47>    C        9.32172         3.17580         3.92829
| 48>    N        8.28123         3.82131         3.13770
| 49>    C       10.87013        -0.13884         2.98041
| 50>    C       12.16339        -0.19578         3.34779
| 51>    C       12.91820        -1.48422         3.34258
| 52>    C       12.08299        -2.69446         3.07727
| 53>    C       10.79174        -2.62103         2.70813
| 54>    C       10.14752        -1.36350         2.60579
| 55>    C        8.88747        -0.98261         2.20137
| 56>    C        7.78195        -1.71949         1.71011
| 57>    C        6.66359        -1.06015         1.32922
| 58>    C       13.78404        -1.58990         4.57161
| 59>    C       13.54774        -2.42726         5.58438
| 60>    C       14.40012        -2.60385         6.72745
| 61>    C       15.60949        -1.99752         7.00636
| 62>    C       16.27534        -2.48109         8.13170
| 63>    C       15.61822        -3.47370         8.83397
| 64>   Se       13.97542        -3.88053         8.02542
| 65>    C       16.09626        -4.17799         9.97325
| 66>    C       17.38931        -4.52573        10.20747
| 67>    C       17.85715        -4.88384        11.57446
| 68>    O       17.15181        -5.10631        12.53474
| 69>    C       19.33106        -4.85737        11.49697
| 70>    C       19.72539        -4.61774        10.17928
| 71>    C       18.54149        -4.55171         9.32936
| 72>    C       18.51515        -4.75853         7.97340
| 73>    C       17.32305        -5.01946         7.26787
| 74>    N       16.37959        -5.31240         6.68099
| 75>    C       19.65895        -4.82292         7.15354
| 76>    N       20.55346        -4.85256         6.43420
| 77>    C       21.08320        -4.53261         9.84331
| 78>    C       22.01759        -4.70177        10.83113
| 79>    C       21.65366        -4.96305        12.17066
| 80>    C       20.27490        -5.03931        12.52684
| 81>    C       19.91772        -5.29862        13.86596
| 82>    C       20.88788        -5.48198        14.81278
| 83>    C       22.24732        -5.41204        14.46647
| 84>    C       22.62276        -5.15669        13.17616
| 85>    H        0.24909        -3.26279        -1.73167
| 86>    H       -0.82783        -3.89650        -3.84694
| 87>    H       -0.96441         1.49110        -5.09322
| 88>    H       -2.02598         0.78680        -7.21005
| 89>    H       -2.44199        -1.59794        -7.65656
| 90>    H       -1.80922        -3.30519        -5.99879
| 91>    H        1.71612         2.82521        -1.25860
| 92>    H        3.46395         3.71835         0.34014
| 93>    H        5.67868         3.08443         1.42034
| 94>    H        7.54762         2.18535         1.99343
| 95>    H       11.28273         2.38324         3.67546
| 96>    H        9.79369         3.25984         1.17746
| 97>    H       11.36369         2.43922         1.18317
| 98>    H       10.89323         5.00965         2.49076
| 99>    H       11.79193         4.73094         1.15091
|100>    H        9.86680         3.89842         4.55624
|101>    H        8.83192         2.46153         4.59516
|102>    H        8.64117         4.65127         2.67899
|103>    H        7.52329         4.11294         3.74394
|104>    H       12.72140         0.68778         3.62594
|105>    H       13.62307        -1.40148         2.49379
|106>    H       12.59328        -3.64318         3.14730
|107>    H       10.22961        -3.51658         2.48613
|108>    H        7.84765        -2.79538         1.63758
|109>    H        5.80781        -1.60823         0.94569
|110>    H       14.63720        -0.92622         4.59273
|111>    H       12.66984        -3.06292         5.55228
|112>    H       16.02465        -1.22076         6.38807
|113>    H       17.22341        -2.08725         8.46234
|114>    H       15.38265        -4.42445        10.75501
|115>    H       21.38872        -4.33142         8.82931
|116>    H       23.06919        -4.64035        10.58918
|117>    H       18.86993        -5.35277        14.11981
|118>    H       20.61327        -5.68455        15.83745
|119>    H       22.99586        -5.56372        15.22955
|120>    H       23.66722        -5.10368        12.90681
|121> *
|122>
|123>                          ****END OF INPUT****

CARTESIAN COORDINATES (ANGSTROEM)
---------------------------------
  C      1.034550    0.873330   -1.381220
  C      0.249200    1.153550   -2.609600
  O      0.042630    2.244070   -3.099650
  C     -0.153950   -0.174840   -3.116940
  C      0.208760   -1.153070   -2.191360
  C      0.815430   -0.507940   -1.030010
  C      0.885070   -1.038690    0.235140
  C      1.189020   -0.251500    1.365040
  N      1.389940    0.379860    2.304210
  C      0.554510   -2.367680    0.559000
  N      0.309890   -3.442680    0.880160
  C     -0.038750   -2.507550   -2.445050
  C     -0.637640   -2.855390   -3.628400
  C     -1.016440   -1.890710   -4.588330
  C     -0.776270   -0.508300   -4.335610
  C     -1.153570    0.449400   -5.300320
  C     -1.741320    0.053350   -6.469860
  C     -1.979100   -1.307250   -6.724760
  C     -1.626940   -2.257460   -5.805770
  C      1.893010    1.816750   -0.894630
  C      3.063960    1.652930   -0.127090
  C      3.817980    2.699900    0.387210
  C      5.027460    2.351560    0.975840
  C      5.347770    1.003120    0.943190
  Se     3.972200    0.022770    0.128810
  C      6.551180    0.370710    1.410010
  C      7.600520    1.111770    1.907090
  C      8.785670    0.468870    2.314840
  C      9.972710    0.982860    2.813380
  C     10.362380    2.400710    3.083620
  C     10.714690    3.105730    1.759420
  N     11.469400    4.320950    2.020050
  C      9.321720    3.175800    3.928290
  N      8.281230    3.821310    3.137700
  C     10.870130   -0.138840    2.980410
  C     12.163390   -0.195780    3.347790
  C     12.918200   -1.484220    3.342580
  C     12.082990   -2.694460    3.077270
  C     10.791740   -2.621030    2.708130
  C     10.147520   -1.363500    2.605790
  C      8.887470   -0.982610    2.201370
  C      7.781950   -1.719490    1.710110
  C      6.663590   -1.060150    1.329220
  C     13.784040   -1.589900    4.571610
  C     13.547740   -2.427260    5.584380
  C     14.400120   -2.603850    6.727450
  C     15.609490   -1.997520    7.006360
  C     16.275340   -2.481090    8.131700
  C     15.618220   -3.473700    8.833970
  Se    13.975420   -3.880530    8.025420
  C     16.096260   -4.177990    9.973250
  C     17.389310   -4.525730   10.207470
  C     17.857150   -4.883840   11.574460
  O     17.151810   -5.106310   12.534740
  C     19.331060   -4.857370   11.496970
  C     19.725390   -4.617740   10.179280
  C     18.541490   -4.551710    9.329360
  C     18.515150   -4.758530    7.973400
  C     17.323050   -5.019460    7.267870
  N     16.379590   -5.312400    6.680990
  C     19.658950   -4.822920    7.153540
  N     20.553460   -4.852560    6.434200
  C     21.083200   -4.532610    9.843310
  C     22.017590   -4.701770   10.831130
  C     21.653660   -4.963050   12.170660
  C     20.274900   -5.039310   12.526840
  C     19.917720   -5.298620   13.865960
  C     20.887880   -5.481980   14.812780
  C     22.247320   -5.412040   14.466470
  C     22.622760   -5.156690   13.176160
  H      0.249090   -3.262790   -1.731670
  H     -0.827830   -3.896500   -3.846940
  H     -0.964410    1.491100   -5.093220
  H     -2.025980    0.786800   -7.210050
  H     -2.441990   -1.597940   -7.656560
  H     -1.809220   -3.305190   -5.998790
  H      1.716120    2.825210   -1.258600
  H      3.463950    3.718350    0.340140
  H      5.678680    3.084430    1.420340
  H      7.547620    2.185350    1.993430
  H     11.282730    2.383240    3.675460
  H      9.793690    3.259840    1.177460
  H     11.363690    2.439220    1.183170
  H     10.893230    5.009650    2.490760
  H     11.791930    4.730940    1.150910
  H      9.866800    3.898420    4.556240
  H      8.831920    2.461530    4.595160
  H      8.641170    4.651270    2.678990
  H      7.523290    4.112940    3.743940
  H     12.721400    0.687780    3.625940
  H     13.623070   -1.401480    2.493790
  H     12.593280   -3.643180    3.147300
  H     10.229610   -3.516580    2.486130
  H      7.847650   -2.795380    1.637580
  H      5.807810   -1.608230    0.945690
  H     14.637200   -0.926220    4.592730
  H     12.669840   -3.062920    5.552280
  H     16.024650   -1.220760    6.388070
  H     17.223410   -2.087250    8.462340
  H     15.382650   -4.424450   10.755010
  H     21.388720   -4.331420    8.829310
  H     23.069190   -4.640350   10.589180
  H     18.869930   -5.352770   14.119810
  H     20.613270   -5.684550   15.837450
  H     22.995860   -5.563720   15.229550
  H     23.667220   -5.103680   12.906810

 Total Charge           Charge          ....    0
 Multiplicity           Mult            ....    1
 Number of Electrons    NEL             ....  522
 Basis Dimension        Dim             .... 1196

ORBITAL ENERGIES
----------------

  NO   OCC          E(Eh)            E(eV)
   0   2.0000    -453.932354    -12352.1273
   1   2.0000    -453.923476    -12351.8857
   2   2.0000     -58.147674     -1582.2786
   3   2.0000     -58.138376     -1582.0256
   4   2.0000     -52.217625     -1420.9138
   5   2.0000     -52.216709     -1420.8889
   6   2.0000     -52.215909     -1420.8671
   7   2.0000     -52.208236     -1420.6583
   8   2.0000     -52.207524     -1420.6389
   9   2.0000     -52.206662     -1420.6155
  10   2.0000     -19.216573      -522.9095
  11   2.0000     -19.204126      -522.5708
  12   2.0000     -14.414719      -392.2444
  13   2.0000     -14.410782      -392.1373
  14   2.0000     -14.404480      -391.9658
  15   2.0000     -14.401058      -391.8727
  16   2.0000     -14.400283      -391.8516
  17   2.0000     -14.387112      -391.4932
  18   2.0000     -10.367594      -282.1166
  19   2.0000     -10.355825      -281.7963
  20   2.0000     -10.342110      -281.4231
  21   2.0000     -10.340480      -281.3788
  22   2.0000     -10.331534      -281.1353
  23   2.0000     -10.329160      -281.0707
  24   2.0000     -10.318468      -280.7798
  25   2.0000     -10.317602      -280.7562
  26   2.0000     -10.313410      -280.6422
  27   2.0000     -10.311719      -280.5961
  28   2.0000     -10.308988      -280.5218
  29   2.0000     -10.308210      -280.5007
  30   2.0000     -10.307704      -280.4869
  31   2.0000     -10.307481      -280.4808
  32   2.0000     -10.306633      -280.4577
  33   2.0000     -10.303663      -280.3769
  34   2.0000     -10.302294      -280.3397
  35   2.0000     -10.298391      -280.2335
  36   2.0000     -10.297965      -280.2219
  37   2.0000     -10.297537      -280.2102
  38   2.0000     -10.296670      -280.1866
  39   2.0000     -10.295789      -280.1627
  40   2.0000     -10.295381      -280.1516
  41   2.0000     -10.295360      -280.1510
  42   2.0000     -10.295305      -280.1495
  43   2.0000     -10.293776      -280.1079
  44   2.0000     -10.291389      -280.0429
  45   2.0000     -10.289694      -279.9968
  46   2.0000     -10.288565      -279.9661
  47   2.0000     -10.287040      -279.9246
  48   2.0000     -10.286989      -279.9232
  49   2.0000     -10.286029      -279.8971
  50   2.0000     -10.285753      -279.8896
  51   2.0000     -10.285713      -279.8885
  52   2.0000     -10.284825      -279.8643
  53   2.0000     -10.284091      -279.8444
  54   2.0000     -10.283901      -279.8392
  55   2.0000     -10.283397      -279.8255
  56   2.0000     -10.281804      -279.7821
  57   2.0000     -10.281468      -279.7730
  58   2.0000     -10.279784      -279.7272
  59   2.0000     -10.278764      -279.6994
  60   2.0000     -10.278593      -279.6947
  61   2.0000     -10.277513      -279.6653
  62   2.0000     -10.275608      -279.6135
  63   2.0000     -10.275082      -279.5992
  64   2.0000     -10.273306      -279.5509
  65   2.0000     -10.272887      -279.5395
  66   2.0000     -10.271793      -279.5097
  67   2.0000     -10.269863      -279.4572
  68   2.0000     -10.269629      -279.4508
  69   2.0000     -10.269114      -279.4368
  70   2.0000     -10.268750      -279.4269
  71   2.0000     -10.267502      -279.3929
  72   2.0000     -10.266863      -279.3755
  73   2.0000     -10.262104      -279.2460
  74   2.0000     -10.261607      -279.2325
  75   2.0000     -10.260641      -279.2062
  76   2.0000     -10.260617      -279.2056
  77   2.0000     -10.260173      -279.1935
  78   2.0000      -7.921636      -215.5587
  79   2.0000      -7.912281      -215.3041
  80   2.0000      -5.870418      -159.7422
  81   2.0000      -5.866478      -159.6350
  82   2.0000      -5.861771      -159.5069
  83   2.0000      -5.861143      -159.4898
  84   2.0000      -5.857251      -159.3839
  85   2.0000      -5.852193      -159.2463
  86   2.0000      -2.225022       -60.5459
  87   2.0000      -2.224565       -60.5335
  88   2.0000      -2.220026       -60.4100
  89   2.0000      -2.216806       -60.3224
  90   2.0000      -2.216437       -60.3123
  91   2.0000      -2.215861       -60.2967
  92   2.0000      -2.215321       -60.2820
  93   2.0000      -2.210604       -60.1536
  94   2.0000      -2.207430       -60.0672
  95   2.0000      -2.206942       -60.0539
  96   2.0000      -1.130944       -30.7746
  97   2.0000      -1.118407       -30.4334
  98   2.0000      -1.018012       -27.7015
  99   2.0000      -1.006786       -27.3960
 100   2.0000      -0.997919       -27.1548
 101   2.0000      -0.992650       -27.0114
 102   2.0000      -0.988318       -26.8935
 103   2.0000      -0.987394       -26.8683
 104   2.0000      -0.980603       -26.6836
 105   2.0000      -0.977111       -26.5885
 106   2.0000      -0.971981       -26.4489
 107   2.0000      -0.965793       -26.2806
 108   2.0000      -0.964546       -26.2466
 109   2.0000      -0.959038       -26.0967
 110   2.0000      -0.956599       -26.0304
 111   2.0000      -0.941423       -25.6174
 112   2.0000      -0.923034       -25.1170
 113   2.0000      -0.915722       -24.9181
 114   2.0000      -0.910047       -24.7636
 115   2.0000      -0.902875       -24.5685
 116   2.0000      -0.893878       -24.3237
 117   2.0000      -0.890983       -24.2449
 118   2.0000      -0.878605       -23.9081
 119   2.0000      -0.876980       -23.8638
 120   2.0000      -0.865004       -23.5380
 121   2.0000      -0.855665       -23.2838
 122   2.0000      -0.848608       -23.0918
 123   2.0000      -0.840460       -22.8701
 124   2.0000      -0.838712       -22.8225
 125   2.0000      -0.835350       -22.7310
 126   2.0000      -0.829788       -22.5797
 127   2.0000      -0.826622       -22.4935
 128   2.0000      -0.819304       -22.2944
 129   2.0000      -0.809092       -22.0165
 130   2.0000      -0.799878       -21.7658
 131   2.0000      -0.786178       -21.3930
 132   2.0000      -0.772723       -21.0269
 133   2.0000      -0.764782       -20.8108
 134   2.0000      -0.757777       -20.6202
 135   2.0000      -0.755083       -20.5468
 136   2.0000      -0.747156       -20.3312
 137   2.0000      -0.740390       -20.1470
 138   2.0000      -0.730116       -19.8675
 139   2.0000      -0.713529       -19.4161
 140   2.0000      -0.708859       -19.2890
 141   2.0000      -0.704260       -19.1639
 142   2.0000      -0.700119       -19.0512
 143   2.0000      -0.695283       -18.9196
 144   2.0000      -0.691110       -18.8060
 145   2.0000      -0.687861       -18.7176
 146   2.0000      -0.674903       -18.3651
 147   2.0000      -0.668271       -18.1846
 148   2.0000      -0.666832       -18.1454
 149   2.0000      -0.664641       -18.0858
 150   2.0000      -0.658453       -17.9174
 151   2.0000      -0.646732       -17.5985
 152   2.0000      -0.643467       -17.5096
 153   2.0000      -0.629945       -17.1417
 154   2.0000      -0.626213       -17.0401
 155   2.0000      -0.625764       -17.0279
 156   2.0000      -0.617988       -16.8163
 157   2.0000      -0.617407       -16.8005
 158   2.0000      -0.608130       -16.5481
 159   2.0000      -0.602730       -16.4011
 160   2.0000      -0.598929       -16.2977
 161   2.0000      -0.594494       -16.1770
 162   2.0000      -0.590742       -16.0749
 163   2.0000      -0.588152       -16.0044
 164   2.0000      -0.587032       -15.9740
 165   2.0000      -0.582340       -15.8463
 166   2.0000      -0.578676       -15.7466
 167   2.0000      -0.575441       -15.6586
 168   2.0000      -0.572008       -15.5651
 169   2.0000      -0.566136       -15.4053
 170   2.0000      -0.561227       -15.2718
 171   2.0000      -0.556464       -15.1422
 172   2.0000      -0.554186       -15.0802
 173   2.0000      -0.551071       -14.9954
 174   2.0000      -0.540500       -14.7077
 175   2.0000      -0.539988       -14.6938
 176   2.0000      -0.534140       -14.5347
 177   2.0000      -0.533076       -14.5057
 178   2.0000      -0.525741       -14.3061
 179   2.0000      -0.524837       -14.2815
 180   2.0000      -0.524399       -14.2696
 181   2.0000      -0.523507       -14.2453
 182   2.0000      -0.521484       -14.1903
 183   2.0000      -0.520568       -14.1654
 184   2.0000      -0.516637       -14.0584
 185   2.0000      -0.513042       -13.9606
 186   2.0000      -0.512585       -13.9482
 187   2.0000      -0.510891       -13.9021
 188   2.0000      -0.509873       -13.8744
 189   2.0000      -0.506099       -13.7717
 190   2.0000      -0.503071       -13.6893
 191   2.0000      -0.502786       -13.6815
 192   2.0000      -0.497015       -13.5245
 193   2.0000      -0.496358       -13.5066
 194   2.0000      -0.495510       -13.4835
 195   2.0000      -0.492979       -13.4146
 196   2.0000      -0.490432       -13.3453
 197   2.0000      -0.488902       -13.3037
 198   2.0000      -0.482786       -13.1373
 199   2.0000      -0.480358       -13.0712
 200   2.0000      -0.478986       -13.0339
 201   2.0000      -0.477578       -12.9955
 202   2.0000      -0.476240       -12.9591
 203   2.0000      -0.473065       -12.8727
 204   2.0000      -0.470129       -12.7929
 205   2.0000      -0.469269       -12.7694
 206   2.0000      -0.467108       -12.7107
 207   2.0000      -0.463207       -12.6045
 208   2.0000      -0.461080       -12.5466
 209   2.0000      -0.457121       -12.4389
 210   2.0000      -0.450575       -12.2608
 211   2.0000      -0.448892       -12.2150
 212   2.0000      -0.445069       -12.1110
 213   2.0000      -0.441316       -12.0088
 214   2.0000      -0.438819       -11.9409
 215   2.0000      -0.438191       -11.9238
 216   2.0000      -0.437815       -11.9136
 217   2.0000      -0.436228       -11.8704
 218   2.0000      -0.432680       -11.7738
 219   2.0000      -0.431874       -11.7519
 220   2.0000      -0.430091       -11.7034
 221   2.0000      -0.429912       -11.6985
 222   2.0000      -0.426841       -11.6149
 223   2.0000      -0.424059       -11.5392
 224   2.0000      -0.423414       -11.5217
 225   2.0000      -0.421675       -11.4744
 226   2.0000      -0.420792       -11.4503
 227   2.0000      -0.418080       -11.3765
 228   2.0000      -0.416692       -11.3388
 229   2.0000      -0.414425       -11.2771
 230   2.0000      -0.413225       -11.2444
 231   2.0000      -0.410177       -11.1615
 232   2.0000      -0.406885       -11.0719
 233   2.0000      -0.406346       -11.0572
 234   2.0000      -0.400390       -10.8952
 235   2.0000      -0.397114       -10.8060
 236   2.0000      -0.396324       -10.7845
 237   2.0000      -0.393392       -10.7048
 238   2.0000      -0.385614       -10.4931
 239   2.0000      -0.382858       -10.4181
 240   2.0000      -0.378975       -10.3124
 241   2.0000      -0.369261       -10.0481
 242   2.0000      -0.365685        -9.9508
 243   2.0000      -0.364298        -9.9130
 244   2.0000      -0.350342        -9.5333
 245   2.0000      -0.343464        -9.3461
 246   2.0000      -0.332254        -9.0411
 247   2.0000      -0.329210        -8.9583
 248   2.0000      -0.324191        -8.8217
 249   2.0000      -0.321779        -8.7561
 250   2.0000      -0.316765        -8.6196
 251   2.0000      -0.314529        -8.5588
 252   2.0000      -0.312109        -8.4929
 253   2.0000      -0.308107        -8.3840
 254   2.0000      -0.305630        -8.3166
 255   2.0000      -0.299162        -8.1406
 256   2.0000      -0.293157        -7.9772
 257   2.0000      -0.284214        -7.7339
 258   2.0000      -0.269191        -7.3251
 259   2.0000      -0.260586        -7.0909
 260   2.0000      -0.219203        -5.9648
 261   0.0000      -0.085887        -2.3371
 262   0.0000      -0.083203        -2.2641
 263   0.0000      -0.068357        -1.8601
 264   0.0000      -0.064331        -1.7505
 265   0.0000      -0.053210        -1.4479

MULLIKEN ATOMIC CHARGES
-----------------------
   0 C :   -0.134525
   1 C :    0.126837
   2 O :   -0.160364
   3 C :    0.005983
   4 C :   -0.008724
   5 C :    0.245773
   6 C :   -0.329675
   7 C :   -0.212621
   8 N :    0.167880
   9 C :   -0.173526
  10 N :    0.153341
  11 C :   -0.019713
  12 C :   -0.000129
  13 C :    0.081112
  14 C :    0.034580
  15 C :   -0.028542
  16 C :    0.036453
  17 C :    0.039329
  18 C :   -0.024004
  19 C :    0.048095
  20 C :   -0.100891
  21 C :    0.047900
  22 C :   -0.000557
  23 C :   -0.084065
  24 Se:    0.196314
  25 C :    0.174787
  26 C :   -0.093251
  27 C :    0.035655
  28 C :   -0.054579
  29 C :   -0.000938
  30 C :    0.109171
  31 N :   -0.210157
  32 C :    0.100410
  33 N :   -0.212910
  34 C :    0.097183
  35 C :   -0.117644
  36 C :    0.168638
  37 C :   -0.067784
  38 C :    0.022969
  39 C :    0.005859
  40 C :    0.034962
  41 C :   -0.008035
  42 C :   -0.035289
  43 C :   -0.099200
  44 C :    0.088035
  45 C :   -0.067383
  46 C :   -0.015708
  47 C :    0.057400
  48 C :   -0.185088
  49 Se:    0.243622
  50 C :    0.082152
  51 C :   -0.121019
  52 C :    0.122607
  53 O :   -0.148696
  54 C :    0.004337
  55 C :   -0.010334
  56 C :    0.253354
  57 C :   -0.340899
  58 C :   -0.174805
  59 N :    0.164509
  60 C :   -0.176147
  61 N :    0.154086
  62 C :   -0.018346
  63 C :    0.002555
  64 C :    0.079055
  65 C :    0.034872
  66 C :   -0.026606
  67 C :    0.038484
  68 C :    0.037728
  69 C :   -0.021637
  70 H :   -0.000842
  71 H :   -0.015724
  72 H :   -0.000827
  73 H :   -0.009285
  74 H :   -0.010332
  75 H :   -0.023519
  76 H :    0.018758
  77 H :   -0.005407
  78 H :   -0.019519
  79 H :   -0.037377
  80 H :   -0.021829
  81 H :   -0.001623
  82 H :   -0.002672
  83 H :    0.076633
  84 H :    0.096842
  85 H :   -0.001417
  86 H :    0.016712
  87 H :    0.089437
  88 H :    0.109784
  89 H :   -0.005493
  90 H :    0.053061
  91 H :   -0.001372
  92 H :   -0.034664
  93 H :   -0.034275
  94 H :   -0.015529
  95 H :   -0.001091
  96 H :    0.000571
  97 H :   -0.014095
  98 H :   -0.001072
  99 H :    0.027932
 100 H :   -0.000773
 101 H :   -0.012057
 102 H :    0.002251
 103 H :   -0.006684
 104 H :   -0.005540
 105 H :   -0.021203
Sum of atomic charges:   -0.0000000

LOEWDIN ATOMIC CHARGES
----------------------
   0 C :   -0.111122
   1 C :    0.087358
   2 O :   -0.152358
   3 C :   -0.032412
   4 C :   -0.005276
   5 C :    0.062760
   6 C :   -0.148362
   7 C :   -0.034543
   8 N :   -0.048716
   9 C :   -0.021497
  10 N :   -0.056195
  11 C :   -0.017828
  12 C :    0.014300
  13 C :   -0.010335
  14 C :   -0.003594
  15 C :   -0.002778
  16 C :   -0.015657
  17 C :   -0.015786
  18 C :   -0.014052
  19 C :    0.055901
  20 C :   -0.174006
  21 C :   -0.002998
  22 C :   -0.064813
  23 C :   -0.098868
  24 Se:    0.424421
  25 C :   -0.051760
  26 C :    0.008388
  27 C :   -0.021411
  28 C :   -0.028325
  29 C :   -0.039232
  30 C :    0.023658
  31 N :   -0.120370
  32 C :    0.023427
  33 N :   -0.091671
  34 C :   -0.018244
  35 C :    0.066058
  36 C :   -0.031222
  37 C :   -0.036033
  38 C :   -0.014717
  39 C :   -0.038654
  40 C :   -0.028122
  41 C :   -0.009852
  42 C :   -0.033780
  43 C :    0.001054
  44 C :   -0.040147
  45 C :   -0.124671
  46 C :   -0.054902
  47 C :   -0.024241
  48 C :   -0.177088
  49 Se:    0.439231
  50 C :    0.054644
  51 C :   -0.089430
  52 C :    0.085999
  53 O :   -0.143164
  54 C :   -0.032839
  55 C :   -0.005830
  56 C :    0.068589
  57 C :   -0.134993
  58 C :   -0.014928
  59 N :   -0.052605
  60 C :   -0.021452
  61 N :   -0.053348
  62 C :   -0.018163
  63 C :    0.017991
  64 C :   -0.009340
  65 C :   -0.003377
  66 C :   -0.002091
  67 C :   -0.012469
  68 C :   -0.012580
  69 C :   -0.012922
  70 H :    0.038846
  71 H :    0.034057
  72 H :    0.034966
  73 H :    0.031423
  74 H :    0.030484
  75 H :    0.029222
  76 H :    0.048503
  77 H :    0.034738
  78 H :    0.029929
  79 H :    0.017761
  80 H :    0.026873
  81 H :    0.002590
  82 H :    0.021526
  83 H :    0.043266
  84 H :    0.057101
  85 H :    0.005339
  86 H :    0.027293
  87 H :    0.048145
  88 H :    0.062224
  89 H :    0.029827
  90 H :    0.070315
  91 H :    0.027614
  92 H :    0.030608
  93 H :    0.028737
  94 H :    0.019595
  95 H :    0.024086
  96 H :    0.031877
  97 H :    0.029662
  98 H :    0.032644
  99 H :    0.046421
 100 H :    0.039249
 101 H :    0.035633
 102 H :    0.035913
 103 H :    0.032606
 104 H :    0.032121
 105 H :    0.030198

  Mayer bond orders larger than 0.100000
B(  0-C ,  1-C ) :   0.9721 B(  0-C ,  5-C ) :   1.0441 B(  0-C , 19-C ) :   1.5932
B(  1-C ,  2-O ) :   2.1839 B(  1-C ,  3-C ) :   0.9366 B(  3-C ,  4-C ) :   1.4216
B(  3-C , 14-C ) :   1.2408 B(  4-C ,  5-C ) :   1.0029 B(  4-C , 11-C ) :   1.2629
B(  5-C ,  6-C ) :   1.6321 B(  6-C ,  7-C ) :   1.1530 B(  6-C ,  9-C ) :   1.1367
B(  7-C ,  8-N ) :   3.0186 B(  9-C , 10-N ) :   2.9950 B( 11-C , 12-C ) :   1.4639
B( 11-C , 70-H ) :   0.9871 B( 12-C , 13-C ) :   1.2256 B( 12-C , 71-H ) :   0.9944
B( 13-C , 14-C ) :   1.2421 B( 13-C , 18-C ) :   1.2378 B( 14-C , 15-C ) :   1.2705
B( 15-C , 16-C ) :   1.4774 B( 15-C , 72-H ) :   0.9871 B( 16-C , 17-C ) :   1.2517
B( 16-C , 73-H ) :   0.9876 B( 17-C , 18-C ) :   1.4992 B( 17-C , 74-H ) :   0.9882
B( 18-C , 75-H ) :   0.9972 B( 19-C , 20-C ) :   1.1888 B( 19-C , 76-H ) :   0.9467
B( 20-C , 21-C ) :   1.4211 B( 20-C , 24-Se) :   1.0648 B( 21-C , 22-C ) :   1.3030
B( 21-C , 77-H ) :   0.9972 B( 22-C , 23-C ) :   1.4769 B( 22-C , 78-H ) :   0.9891
B( 23-C , 24-Se) :   1.1307 B( 23-C , 25-C ) :   1.0788 B( 25-C , 26-C ) :   1.4988
B( 25-C , 42-C ) :   1.0885 B( 26-C , 27-C ) :   1.1638 B( 26-C , 79-H ) :   0.9704
B( 27-C , 28-C ) :   1.4674 B( 27-C , 40-C ) :   1.1075 B( 28-C , 29-C ) :   1.0389
B( 28-C , 34-C ) :   1.1181 B( 29-C , 30-C ) :   1.0530 B( 29-C , 32-C ) :   1.0205
B( 29-C , 80-H ) :   0.8724 B( 30-C , 31-N ) :   1.0937 B( 30-C , 81-H ) :   0.9360
B( 30-C , 82-H ) :   0.9374 B( 31-N , 83-H ) :   0.9759 B( 31-N , 84-H ) :   0.9667
B( 32-C , 33-N ) :   1.0730 B( 32-C , 85-H ) :   0.9465 B( 32-C , 86-H ) :   0.9497
B( 33-N , 79-H ) :   0.1149 B( 33-N , 87-H ) :   0.9648 B( 33-N , 88-H ) :   0.9594
B( 34-C , 35-C ) :   1.6825 B( 34-C , 39-C ) :   1.0438 B( 35-C , 36-C ) :   0.9645
B( 35-C , 89-H ) :   0.9642 B( 36-C , 37-C ) :   1.0062 B( 36-C , 43-C ) :   0.9594
B( 36-C , 90-H ) :   0.8364 B( 37-C , 38-C ) :   1.7087 B( 37-C , 91-H ) :   0.9711
B( 38-C , 39-C ) :   1.1245 B( 38-C , 92-H ) :   0.9913 B( 39-C , 40-C ) :   1.4512
B( 40-C , 41-C ) :   1.1359 B( 41-C , 42-C ) :   1.6391 B( 41-C , 93-H ) :   0.9908
B( 42-C , 94-H ) :   0.9715 B( 43-C , 44-C ) :   1.8635 B( 43-C , 95-H ) :   0.9664
B( 44-C , 45-C ) :   1.0760 B( 44-C , 96-H ) :   0.9474 B( 45-C , 46-C ) :   1.5174
B( 45-C , 49-Se) :   1.1394 B( 46-C , 47-C ) :   1.2921 B( 46-C , 97-H ) :   0.9935
B( 47-C , 48-C ) :   1.4947 B( 47-C , 98-H ) :   0.9944 B( 48-C , 49-Se) :   1.1032
B( 48-C , 50-C ) :   1.0795 B( 50-C , 51-C ) :   1.6989 B( 50-C , 99-H ) :   0.9393
B( 51-C , 52-C ) :   0.9582 B( 51-C , 56-C ) :   1.0253 B( 52-C , 53-O ) :   2.2048
B( 52-C , 54-C ) :   0.9378 B( 54-C , 55-C ) :   1.4157 B( 54-C , 65-C ) :   1.2359
B( 55-C , 56-C ) :   1.0083 B( 55-C , 62-C ) :   1.2604 B( 56-C , 57-C ) :   1.6564
B( 57-C , 58-C ) :   1.1640 B( 57-C , 60-C ) :   1.1292 B( 58-C , 59-N ) :   2.9841
B( 60-C , 61-N ) :   2.9915 B( 62-C , 63-C ) :   1.4688 B( 62-C ,100-H ) :   0.9863
B( 63-C , 64-C ) :   1.2228 B( 63-C ,101-H ) :   0.9944 B( 64-C , 65-C ) :   1.2428
B( 64-C , 69-C ) :   1.2393 B( 65-C , 66-C ) :   1.2759 B( 66-C , 67-C ) :   1.4746
B( 66-C ,102-H ) :   0.9863 B( 67-C , 68-C ) :   1.2555 B( 67-C ,103-H ) :   0.9874
B( 68-C , 69-C ) :   1.4951 B( 68-C ,104-H ) :   0.9890 B( 69-C ,105-H ) :   0.9983

-----------------------------------------------------------------------------
         ABSORPTION SPECTRUM VIA TRANSITION ELECTRIC DIPOLE MOMENTS
-----------------------------------------------------------------------------
State   Energy  Wavelength   fosc         T2         TX        TY        TZ
        (cm-1)    (nm)                  (au**2)     (au)      (au)      (au)
-----------------------------------------------------------------------------
   0   13875.6    720.7   0.185269764   4.39570   1.64888   0.95868   0.87052
   1   17708.3    564.7   0.464164179   8.62919  -2.74296   0.24144  -1.02326
   2   18767.6    532.8   0.158215259   2.77534  -1.33305   0.61541  -0.78713
   3   20954.8    477.2   0.260958759   4.09982   1.66993  -0.79582   0.82331
   4   21628.4    462.4   0.041218994   0.62740   0.39975   0.68363  -0.01603
   5   22544.2    443.6   0.730152465  10.66241  -2.88773  -0.21877  -1.50849
   6   23904.4    418.3   0.067075294   0.92376  -0.59296   0.48792  -0.57800
   7   25939.2    385.5   0.253092802   3.21217   1.36043  -0.76518   0.88086
   8   26287.5    380.4   0.030310567   0.37960  -0.58491  -0.16211  -0.10579
   9   27666.8    361.4   0.453517881   5.39648   1.19665  -0.31909   1.96537
  10   27844.8    359.1   0.223270876   2.63976   0.92947  -0.35670   1.28398
  11   28368.8    352.5   0.003734541   0.04334  -0.11092   0.15993  -0.07388
  12   28595.3    349.7   0.013284919   0.15295  -0.28800  -0.15983   0.21085
  13   29671.1    337.0   0.098952623   1.09792   0.70689   0.61370   0.47074
  14   29689.9    336.8   0.045354373   0.50290   0.56842  -0.25481   0.33893
  15   29752.1    336.1   0.097995376   1.08433  -0.28374  -0.04461  -1.00092
  16   30004.2    333.3   0.011824757   0.12974  -0.04927  -0.34840   0.07703
  17   30023.6    333.1   0.027735663   0.30412  -0.49544  -0.22362   0.09301
  18   30223.0    330.9   0.054301538   0.59149   0.18538  -0.11551   0.73742
  19   30336.5    329.6   0.017107111   0.18565  -0.10156   0.36255  -0.20951
  20   31169.3    320.8   0.050765490   0.53619  -0.39526   0.50979  -0.34651
  21   31806.9    314.4   0.338781465   3.50651  -0.00967   0.23234  -1.85807
  22   32125.1    311.3   0.105874229   1.08498  -0.34979   0.24746  -0.94941
  23   32304.6    309.6   0.100219132   1.02132   0.08634  -0.50603   0.87051
  24   32568.2    307.0   0.307434570   3.10767  -0.91012  -0.15708  -1.50156
  25   32663.3    306.2   0.780646055   7.86810   1.85738  -0.95375   1.87312
  26   32806.6    304.8   0.116197553   1.16604   0.47802   0.32451   0.91226
  27   34020.5    293.9   0.021935125   0.21226  -0.29692   0.30966   0.16796
  28   34676.5    288.4   0.141533398   1.34369   0.63373  -0.71487  -0.65653
  29   34841.8    287.0   0.115985578   1.09592   0.65351   0.49702   0.64948
  30   35000.6    285.7   0.088382928   0.83132   0.42428  -0.15204   0.79259
  31   35017.6    285.6   0.015278154   0.14363   0.17940  -0.09135   0.32110
  32   35241.5    283.8   0.004717381   0.04407   0.08850   0.10269  -0.16028
  33   35299.9    283.3   0.053698401   0.50080   0.15552  -0.59347   0.35272
  34   35801.1    279.3   0.042381486   0.38972   0.34247   0.20978   0.47794
  35   36167.0    276.5   0.011803244   0.10744   0.02856   0.31269   0.09408
  36   36714.8    272.4   0.053574749   0.48039   0.51997   0.39025   0.24025
  37   37087.1    269.6   0.140937501   1.25106  -1.03231   0.42097   0.09046
  38   37809.0    264.5   0.180392955   1.57072  -0.57021   0.33708  -1.06394
  39   38116.6    262.4   0.110059200   0.95058  -0.45087   0.85716  -0.11210
  40   38391.3    260.5   0.018805706   0.16126  -0.07688   0.30846   0.24536
  41   38617.9    258.9   0.119159862   1.01582  -0.64005   0.67051  -0.39570
  42   38750.0    258.1   0.022034975   0.18720  -0.21522   0.10305  -0.36092
  43   38802.2    257.7   0.089709239   0.76113   0.44726  -0.71899  -0.21009
  44   39118.4    255.6   0.101720585   0.85606  -0.68027   0.27968  -0.56131
  45   39290.0    254.5   0.153250528   1.28409   0.09249   0.07590   1.12684
  46   39653.3    252.2   0.009688716   0.08044   0.15947  -0.13571   0.19128
  47   39770.2    251.4   0.008399737   0.06953   0.11408   0.02234  -0.23668
  48   39850.3    250.9   0.003453967   0.02853  -0.09451   0.00127  -0.14000
  49   39946.7    250.3   0.004058952   0.03345  -0.09224   0.15395   0.03521
  50   40304.5    248.1   0.096464127   0.78793  -0.46311   0.46208   0.59995

FINAL SINGLE POINT ENERGY     -7586.034206145917

DIPOLE MOMENT
-------------
                                X             Y             Z
Electronic contribution:    -30.97161     -40.71709      17.69142
Nuclear contribution   :     33.99191      42.69606     -17.47893
                        -----------------------------------------
Total Dipole Moment    :      3.02031       1.97897       0.21249
                        -----------------------------------------
Magnitude (a.u.)       :      3.61714
Magnitude (Debye)      :      9.19404

Rotational constants in cm-1:     0.002714     0.000185     0.000181
Rotational constants in MHz :    81.358554     5.545838     5.426271

                             ****ORCA TERMINATED NORMALLY****
TOTAL RUN TIME: 0 days 0 hours 11 minutes 4 seconds 590 msec
