                         Program Version 4.2.0 -  RELEASE  -
|  1> # ORCA input file
|  2> # SCF done       -161.225392377756          0.000496540566
|  3> ! CAM-B3LYP def2-SVP def2/J RIJCOSX Grid4 TightSCF
|  4> %maxcore 5000
|  5> %tddft
|  6>     Mode sTDDFT
|  7>     Ethresh 5.0
|  8>     maxcore 5000
|  9> end
| 10>
| 11> %pal
| 12>   nprocs 6
| 13>   end
| 14> * xyz 0 1
| 15>    C        5.07058        -0.85427         3.64237
| 16>    C        4.31908        -1.78004         4.54050
| 17>    O        3.96748        -1.53753         5.67352
| 18>    C        4.07399        -2.98663         3.73220
| 19>    C        4.72998        -2.86688         2.50592
| 20>    C        5.48837        -1.61964         2.48520
| 21>    C        6.56781        -1.36261         1.68296
| 22>    C        7.45169        -0.28020         1.87525
| 23>    N        8.23240         0.54951         2.01367
| 24>    C        6.98786        -2.19735         0.62620
| 25>    N        7.36587        -2.82414        -0.25779
| 26>    C        4.62688        -3.87632         1.53999
| 27>    C        3.87943        -4.98842         1.82756
| 28>    C        3.21976        -5.15002         3.06575
| 29>    C        3.30939        -4.12532         4.05270
| 30>    C        2.64704        -4.28943         5.28619
| 31>    C        1.92748        -5.42597         5.53335
| 32>    C        1.83720        -6.43933         4.56558
| 33>    C        2.46741        -6.30543         3.35884
| 34>    C        5.17060         0.45853         3.97054
| 35>    C        5.52408         1.55136         3.13806
| 36>    C        5.39939         1.67560         1.76775
| 37>    C        5.85996         2.90879         1.31304
| 38>    C        6.35171         3.74071         2.33132
| 39>    S        6.18402         3.00127         3.87612
| 40>    C        6.88457         4.94289         1.86797
| 41>    C        6.79478         5.03345         0.49499
| 42>    S        6.03378         3.64101        -0.24117
| 43>    C        7.29058         6.06372        -0.33916
| 44>    N        7.15327         6.08343        -1.63104
| 45>    C        7.78653         7.12809        -2.16041
| 46>    C        8.45650         7.97737        -1.26199
| 47>    S        8.24258         7.41027         0.34477
| 48>    N        9.12802         8.99587        -1.79515
| 49>    C        9.02072         8.99510        -3.09002
| 50>    S        8.01942         7.68225        -3.76906
| 51>    C        9.68675         9.90906        -3.94099
| 52>    C        9.61773         9.98566        -5.31602
| 53>    C       10.47999        10.96264        -5.81191
| 54>    C       11.21330        11.62918        -4.81754
| 55>    S       10.80595        11.05637        -3.24022
| 56>    C       12.13080        12.55000        -5.31749
| 57>    C       12.10542        12.60658        -6.69769
| 58>    S       10.89742        11.53152        -7.38143
| 59>    C       12.87926        13.41200        -7.57212
| 60>    C       14.10237        13.95826        -7.35596
| 61>    C       14.57057        15.07673        -8.22675
| 62>    O       14.06869        15.41585        -9.27522
| 63>    C       15.70812        15.67482        -7.50739
| 64>    C       15.99627        14.91153        -6.37477
| 65>    C       15.11487        13.74825        -6.34100
| 66>    C       15.36864        12.58126        -5.67119
| 67>    C       14.65463        11.38271        -5.87961
| 68>    N       14.14651        10.36718        -6.04540
| 69>    C       16.43299        12.40376        -4.76259
| 70>    N       17.26956        12.20597        -4.00231
| 71>    C       17.02352        15.29112        -5.50107
| 72>    C       17.74718        16.41931        -5.78685
| 73>    C       17.49469        17.20259        -6.93450
| 74>    C       16.44566        16.83184        -7.82565
| 75>    C       16.19480        17.61828        -8.96835
| 76>    C       16.95602        18.72636        -9.21994
| 77>    C       17.99172        19.09532        -8.34653
| 78>    C       18.25561        18.35207        -7.22883
| 79>    H        5.11539        -3.77834         0.58420
| 80>    H        3.78632        -5.77461         1.09235
| 81>    H        2.72368        -3.50456         6.02193
| 82>    H        1.42198        -5.55218         6.47900
| 83>    H        1.26352        -7.32826         4.78224
| 84>    H        2.39983        -7.08389         2.61274
| 85>    H        4.89842         0.70247         4.99286
| 86>    H        4.96792         0.92008         1.13690
| 87>    H        7.32427         5.70485         2.48479
| 88>    H        8.98484         9.35595        -5.91376
| 89>    H       12.76245        13.16849        -4.70640
| 90>    H       12.41917        13.66782        -8.52166
| 91>    H       17.23551        14.71594        -4.61452
| 92>    H       18.54032        16.72831        -5.12146
| 93>    H       15.39678        17.32512        -9.63197
| 94>    H       16.76488        19.32733       -10.09632
| 95>    H       18.58053        19.97378        -8.56527
| 96>    H       19.05253        18.63337        -6.55576
| 97> *
| 98>
| 99>                          ****END OF INPUT****

CARTESIAN COORDINATES (ANGSTROEM)
---------------------------------
  C      5.070580   -0.854270    3.642370
  C      4.319080   -1.780040    4.540500
  O      3.967480   -1.537530    5.673520
  C      4.073990   -2.986630    3.732200
  C      4.729980   -2.866880    2.505920
  C      5.488370   -1.619640    2.485200
  C      6.567810   -1.362610    1.682960
  C      7.451690   -0.280200    1.875250
  N      8.232400    0.549510    2.013670
  C      6.987860   -2.197350    0.626200
  N      7.365870   -2.824140   -0.257790
  C      4.626880   -3.876320    1.539990
  C      3.879430   -4.988420    1.827560
  C      3.219760   -5.150020    3.065750
  C      3.309390   -4.125320    4.052700
  C      2.647040   -4.289430    5.286190
  C      1.927480   -5.425970    5.533350
  C      1.837200   -6.439330    4.565580
  C      2.467410   -6.305430    3.358840
  C      5.170600    0.458530    3.970540
  C      5.524080    1.551360    3.138060
  C      5.399390    1.675600    1.767750
  C      5.859960    2.908790    1.313040
  C      6.351710    3.740710    2.331320
  S      6.184020    3.001270    3.876120
  C      6.884570    4.942890    1.867970
  C      6.794780    5.033450    0.494990
  S      6.033780    3.641010   -0.241170
  C      7.290580    6.063720   -0.339160
  N      7.153270    6.083430   -1.631040
  C      7.786530    7.128090   -2.160410
  C      8.456500    7.977370   -1.261990
  S      8.242580    7.410270    0.344770
  N      9.128020    8.995870   -1.795150
  C      9.020720    8.995100   -3.090020
  S      8.019420    7.682250   -3.769060
  C      9.686750    9.909060   -3.940990
  C      9.617730    9.985660   -5.316020
  C     10.479990   10.962640   -5.811910
  C     11.213300   11.629180   -4.817540
  S     10.805950   11.056370   -3.240220
  C     12.130800   12.550000   -5.317490
  C     12.105420   12.606580   -6.697690
  S     10.897420   11.531520   -7.381430
  C     12.879260   13.412000   -7.572120
  C     14.102370   13.958260   -7.355960
  C     14.570570   15.076730   -8.226750
  O     14.068690   15.415850   -9.275220
  C     15.708120   15.674820   -7.507390
  C     15.996270   14.911530   -6.374770
  C     15.114870   13.748250   -6.341000
  C     15.368640   12.581260   -5.671190
  C     14.654630   11.382710   -5.879610
  N     14.146510   10.367180   -6.045400
  C     16.432990   12.403760   -4.762590
  N     17.269560   12.205970   -4.002310
  C     17.023520   15.291120   -5.501070
  C     17.747180   16.419310   -5.786850
  C     17.494690   17.202590   -6.934500
  C     16.445660   16.831840   -7.825650
  C     16.194800   17.618280   -8.968350
  C     16.956020   18.726360   -9.219940
  C     17.991720   19.095320   -8.346530
  C     18.255610   18.352070   -7.228830
  H      5.115390   -3.778340    0.584200
  H      3.786320   -5.774610    1.092350
  H      2.723680   -3.504560    6.021930
  H      1.421980   -5.552180    6.479000
  H      1.263520   -7.328260    4.782240
  H      2.399830   -7.083890    2.612740
  H      4.898420    0.702470    4.992860
  H      4.967920    0.920080    1.136900
  H      7.324270    5.704850    2.484790
  H      8.984840    9.355950   -5.913760
  H     12.762450   13.168490   -4.706400
  H     12.419170   13.667820   -8.521660
  H     17.235510   14.715940   -4.614520
  H     18.540320   16.728310   -5.121460
  H     15.396780   17.325120   -9.631970
  H     16.764880   19.327330  -10.096320
  H     18.580530   19.973780   -8.565270
  H     19.052530   18.633370   -6.555760

 Total Charge           Charge          ....    0
 Multiplicity           Mult            ....    1
 Number of Electrons    NEL             ....  472
 Basis Dimension        Dim             .... 1010

ORBITAL ENERGIES
----------------

  NO   OCC          E(Eh)            E(eV)
   0   2.0000     -88.974308     -2421.1140
   1   2.0000     -88.974258     -2421.1126
   2   2.0000     -88.968456     -2420.9548
   3   2.0000     -88.968368     -2420.9524
   4   2.0000     -88.967522     -2420.9294
   5   2.0000     -88.967375     -2420.9254
   6   2.0000     -19.218412      -522.9596
   7   2.0000     -19.218302      -522.9566
   8   2.0000     -14.428815      -392.6280
   9   2.0000     -14.428750      -392.6262
  10   2.0000     -14.415746      -392.2724
  11   2.0000     -14.415705      -392.2713
  12   2.0000     -14.413942      -392.2233
  13   2.0000     -14.413864      -392.2212
  14   2.0000     -10.368895      -282.1520
  15   2.0000     -10.368883      -282.1517
  16   2.0000     -10.356282      -281.8087
  17   2.0000     -10.356207      -281.8067
  18   2.0000     -10.345516      -281.5158
  19   2.0000     -10.345452      -281.5141
  20   2.0000     -10.342972      -281.4466
  21   2.0000     -10.342971      -281.4465
  22   2.0000     -10.335579      -281.2454
  23   2.0000     -10.335045      -281.2309
  24   2.0000     -10.322925      -280.9011
  25   2.0000     -10.322818      -280.8982
  26   2.0000     -10.319972      -280.8207
  27   2.0000     -10.319866      -280.8178
  28   2.0000     -10.318940      -280.7926
  29   2.0000     -10.318840      -280.7899
  30   2.0000     -10.318315      -280.7756
  31   2.0000     -10.318252      -280.7739
  32   2.0000     -10.315310      -280.6939
  33   2.0000     -10.315272      -280.6928
  34   2.0000     -10.313764      -280.6518
  35   2.0000     -10.313700      -280.6500
  36   2.0000     -10.310264      -280.5565
  37   2.0000     -10.310258      -280.5564
  38   2.0000     -10.309679      -280.5406
  39   2.0000     -10.309592      -280.5383
  40   2.0000     -10.301109      -280.3074
  41   2.0000     -10.301048      -280.3058
  42   2.0000     -10.298747      -280.2432
  43   2.0000     -10.298684      -280.2414
  44   2.0000     -10.298461      -280.2354
  45   2.0000     -10.298416      -280.2341
  46   2.0000     -10.297276      -280.2031
  47   2.0000     -10.297189      -280.2008
  48   2.0000     -10.296575      -280.1840
  49   2.0000     -10.296356      -280.1781
  50   2.0000     -10.296107      -280.1713
  51   2.0000     -10.296064      -280.1701
  52   2.0000     -10.295827      -280.1637
  53   2.0000     -10.295717      -280.1607
  54   2.0000     -10.292113      -280.0626
  55   2.0000     -10.292113      -280.0626
  56   2.0000     -10.284425      -279.8534
  57   2.0000     -10.284364      -279.8518
  58   2.0000     -10.283861      -279.8381
  59   2.0000     -10.283853      -279.8379
  60   2.0000     -10.281929      -279.7855
  61   2.0000     -10.281907      -279.7849
  62   2.0000     -10.278095      -279.6812
  63   2.0000     -10.277917      -279.6764
  64   2.0000      -8.070156      -219.6001
  65   2.0000      -8.070115      -219.5990
  66   2.0000      -8.063908      -219.4301
  67   2.0000      -8.063863      -219.4289
  68   2.0000      -8.062487      -219.3914
  69   2.0000      -8.062412      -219.3894
  70   2.0000      -6.039330      -164.3385
  71   2.0000      -6.039310      -164.3380
  72   2.0000      -6.035658      -164.2386
  73   2.0000      -6.035635      -164.2380
  74   2.0000      -6.033354      -164.1759
  75   2.0000      -6.033336      -164.1754
  76   2.0000      -6.032075      -164.1411
  77   2.0000      -6.032025      -164.1397
  78   2.0000      -6.031822      -164.1342
  79   2.0000      -6.031790      -164.1334
  80   2.0000      -6.029395      -164.0682
  81   2.0000      -6.029343      -164.0668
  82   2.0000      -6.028001      -164.0302
  83   2.0000      -6.027918      -164.0280
  84   2.0000      -6.025522      -163.9628
  85   2.0000      -6.025432      -163.9604
  86   2.0000      -6.023930      -163.9195
  87   2.0000      -6.023801      -163.9160
  88   2.0000      -1.133505       -30.8442
  89   2.0000      -1.133456       -30.8429
  90   2.0000      -1.101079       -29.9619
  91   2.0000      -1.061911       -28.8961
  92   2.0000      -1.022281       -27.8177
  93   2.0000      -1.021789       -27.8043
  94   2.0000      -1.016222       -27.6528
  95   2.0000      -1.015437       -27.6314
  96   2.0000      -0.999455       -27.1965
  97   2.0000      -0.999404       -27.1952
  98   2.0000      -0.993021       -27.0215
  99   2.0000      -0.992943       -27.0193
 100   2.0000      -0.970867       -26.4186
 101   2.0000      -0.970536       -26.4096
 102   2.0000      -0.960530       -26.1373
 103   2.0000      -0.958761       -26.0892
 104   2.0000      -0.923825       -25.1386
 105   2.0000      -0.922844       -25.1119
 106   2.0000      -0.919969       -25.0336
 107   2.0000      -0.904963       -24.6253
 108   2.0000      -0.903930       -24.5972
 109   2.0000      -0.892678       -24.2910
 110   2.0000      -0.887262       -24.1436
 111   2.0000      -0.885004       -24.0822
 112   2.0000      -0.874831       -23.8054
 113   2.0000      -0.870640       -23.6913
 114   2.0000      -0.862157       -23.4605
 115   2.0000      -0.858633       -23.3646
 116   2.0000      -0.849454       -23.1148
 117   2.0000      -0.842239       -22.9185
 118   2.0000      -0.836639       -22.7661
 119   2.0000      -0.822242       -22.3743
 120   2.0000      -0.811309       -22.0768
 121   2.0000      -0.810838       -22.0640
 122   2.0000      -0.795665       -21.6512
 123   2.0000      -0.785605       -21.3774
 124   2.0000      -0.774133       -21.0652
 125   2.0000      -0.771043       -20.9811
 126   2.0000      -0.753351       -20.4997
 127   2.0000      -0.735885       -20.0244
 128   2.0000      -0.714634       -19.4462
 129   2.0000      -0.714432       -19.4407
 130   2.0000      -0.712044       -19.3757
 131   2.0000      -0.708457       -19.2781
 132   2.0000      -0.701766       -19.0960
 133   2.0000      -0.695337       -18.9211
 134   2.0000      -0.680289       -18.5116
 135   2.0000      -0.679995       -18.5036
 136   2.0000      -0.674751       -18.3609
 137   2.0000      -0.672676       -18.3044
 138   2.0000      -0.658622       -17.9220
 139   2.0000      -0.658147       -17.9091
 140   2.0000      -0.654571       -17.8118
 141   2.0000      -0.643414       -17.5082
 142   2.0000      -0.637448       -17.3458
 143   2.0000      -0.629928       -17.1412
 144   2.0000      -0.629354       -17.1256
 145   2.0000      -0.620426       -16.8827
 146   2.0000      -0.610172       -16.6036
 147   2.0000      -0.599669       -16.3178
 148   2.0000      -0.596841       -16.2409
 149   2.0000      -0.592154       -16.1133
 150   2.0000      -0.588987       -16.0272
 151   2.0000      -0.588957       -16.0263
 152   2.0000      -0.586815       -15.9680
 153   2.0000      -0.583483       -15.8774
 154   2.0000      -0.576022       -15.6744
 155   2.0000      -0.570117       -15.5137
 156   2.0000      -0.565989       -15.4013
 157   2.0000      -0.557262       -15.1639
 158   2.0000      -0.555792       -15.1239
 159   2.0000      -0.552202       -15.0262
 160   2.0000      -0.539517       -14.6810
 161   2.0000      -0.538154       -14.6439
 162   2.0000      -0.537684       -14.6311
 163   2.0000      -0.534739       -14.5510
 164   2.0000      -0.530389       -14.4326
 165   2.0000      -0.527980       -14.3671
 166   2.0000      -0.524563       -14.2741
 167   2.0000      -0.521731       -14.1970
 168   2.0000      -0.521269       -14.1844
 169   2.0000      -0.515806       -14.0358
 170   2.0000      -0.514098       -13.9893
 171   2.0000      -0.513451       -13.9717
 172   2.0000      -0.509930       -13.8759
 173   2.0000      -0.506812       -13.7911
 174   2.0000      -0.506330       -13.7779
 175   2.0000      -0.501358       -13.6426
 176   2.0000      -0.500321       -13.6144
 177   2.0000      -0.499358       -13.5882
 178   2.0000      -0.495594       -13.4858
 179   2.0000      -0.492532       -13.4025
 180   2.0000      -0.488779       -13.3004
 181   2.0000      -0.486004       -13.2249
 182   2.0000      -0.480871       -13.0852
 183   2.0000      -0.478914       -13.0319
 184   2.0000      -0.477635       -12.9971
 185   2.0000      -0.475274       -12.9329
 186   2.0000      -0.473927       -12.8962
 187   2.0000      -0.472815       -12.8659
 188   2.0000      -0.466857       -12.7038
 189   2.0000      -0.464597       -12.6423
 190   2.0000      -0.455789       -12.4026
 191   2.0000      -0.450610       -12.2617
 192   2.0000      -0.449469       -12.2307
 193   2.0000      -0.449359       -12.2277
 194   2.0000      -0.446120       -12.1395
 195   2.0000      -0.442234       -12.0338
 196   2.0000      -0.440807       -11.9950
 197   2.0000      -0.440134       -11.9766
 198   2.0000      -0.438566       -11.9340
 199   2.0000      -0.435801       -11.8588
 200   2.0000      -0.433953       -11.8085
 201   2.0000      -0.432792       -11.7769
 202   2.0000      -0.430541       -11.7156
 203   2.0000      -0.430154       -11.7051
 204   2.0000      -0.428041       -11.6476
 205   2.0000      -0.426564       -11.6074
 206   2.0000      -0.426440       -11.6040
 207   2.0000      -0.421856       -11.4793
 208   2.0000      -0.421295       -11.4640
 209   2.0000      -0.419043       -11.4027
 210   2.0000      -0.418238       -11.3808
 211   2.0000      -0.407889       -11.0992
 212   2.0000      -0.405540       -11.0353
 213   2.0000      -0.400226       -10.8907
 214   2.0000      -0.397389       -10.8135
 215   2.0000      -0.392830       -10.6894
 216   2.0000      -0.381949       -10.3934
 217   2.0000      -0.376112       -10.2345
 218   2.0000      -0.374801       -10.1989
 219   2.0000      -0.371256       -10.1024
 220   2.0000      -0.365486        -9.9454
 221   2.0000      -0.359838        -9.7917
 222   2.0000      -0.352996        -9.6055
 223   2.0000      -0.349810        -9.5188
 224   2.0000      -0.337513        -9.1842
 225   2.0000      -0.335313        -9.1243
 226   2.0000      -0.333692        -9.0802
 227   2.0000      -0.322372        -8.7722
 228   2.0000      -0.317699        -8.6450
 229   2.0000      -0.309043        -8.4095
 230   2.0000      -0.302979        -8.2445
 231   2.0000      -0.302097        -8.2205
 232   2.0000      -0.294757        -8.0207
 233   2.0000      -0.294296        -8.0082
 234   2.0000      -0.278192        -7.5700
 235   2.0000      -0.248174        -6.7532
 236   0.0000      -0.094889        -2.5821
 237   0.0000      -0.086935        -2.3656
 238   0.0000      -0.074812        -2.0357
 239   0.0000      -0.069725        -1.8973
 240   0.0000      -0.046872        -1.2755

MULLIKEN ATOMIC CHARGES
-----------------------
   0 C :   -0.120123
   1 C :    0.115440
   2 O :   -0.149088
   3 C :    0.013869
   4 C :   -0.011251
   5 C :    0.258169
   6 C :   -0.337358
   7 C :   -0.201396
   8 N :    0.181098
   9 C :   -0.177343
  10 N :    0.158327
  11 C :   -0.019924
  12 C :    0.001569
  13 C :    0.081102
  14 C :    0.036941
  15 C :   -0.030982
  16 C :    0.040752
  17 C :    0.039557
  18 C :   -0.022731
  19 C :    0.083479
  20 C :   -0.134424
  21 C :    0.019065
  22 C :   -0.040756
  23 C :    0.006149
  24 S :    0.167191
  25 C :   -0.041346
  26 C :   -0.049565
  27 S :    0.208523
  28 C :   -0.096467
  29 N :   -0.036202
  30 C :   -0.056005
  31 C :   -0.056215
  32 S :    0.127962
  33 N :   -0.036118
  34 C :   -0.094288
  35 S :    0.127887
  36 C :   -0.050978
  37 C :   -0.041343
  38 C :    0.005415
  39 C :   -0.041955
  40 S :    0.208208
  41 C :    0.018391
  42 C :   -0.134477
  43 S :    0.167150
  44 C :    0.079602
  45 C :   -0.114924
  46 C :    0.113389
  47 O :   -0.149296
  48 C :    0.015133
  49 C :   -0.012376
  50 C :    0.254844
  51 C :   -0.335585
  52 C :   -0.200191
  53 N :    0.179653
  54 C :   -0.176296
  55 N :    0.159265
  56 C :   -0.019977
  57 C :    0.004208
  58 C :    0.079429
  59 C :    0.035836
  60 C :   -0.026376
  61 C :    0.038499
  62 C :    0.038493
  63 C :   -0.020257
  64 H :    0.000779
  65 H :   -0.011071
  66 H :    0.001640
  67 H :   -0.006754
  68 H :   -0.006302
  69 H :   -0.019715
  70 H :    0.023991
  71 H :    0.002437
  72 H :    0.000807
  73 H :    0.001218
  74 H :    0.003658
  75 H :    0.024355
  76 H :    0.000459
  77 H :   -0.011656
  78 H :    0.000937
  79 H :   -0.006429
  80 H :   -0.006377
  81 H :   -0.020962
Sum of atomic charges:   -0.0000000

LOEWDIN ATOMIC CHARGES
----------------------
   0 C :   -0.086541
   1 C :    0.086683
   2 O :   -0.141584
   3 C :   -0.033278
   4 C :   -0.004522
   5 C :    0.065354
   6 C :   -0.134626
   7 C :   -0.019840
   8 N :   -0.037868
   9 C :   -0.021678
  10 N :   -0.048117
  11 C :   -0.018057
  12 C :    0.019426
  13 C :   -0.009307
  14 C :   -0.002831
  15 C :   -0.002126
  16 C :   -0.011835
  17 C :   -0.012295
  18 C :   -0.012356
  19 C :    0.044036
  20 C :   -0.175056
  21 C :   -0.032513
  22 C :   -0.194466
  23 C :   -0.184693
  24 S :    0.446168
  25 C :   -0.059772
  26 C :   -0.180812
  27 S :    0.465230
  28 C :   -0.130046
  29 N :   -0.102275
  30 C :   -0.209021
  31 C :   -0.209010
  32 S :    0.415684
  33 N :   -0.102222
  34 C :   -0.130035
  35 S :    0.415694
  36 C :   -0.180948
  37 C :   -0.059748
  38 C :   -0.184739
  39 C :   -0.194555
  40 S :    0.465265
  41 C :   -0.032554
  42 C :   -0.175172
  43 S :    0.446169
  44 C :    0.043733
  45 C :   -0.086345
  46 C :    0.086769
  47 O :   -0.141611
  48 C :   -0.033272
  49 C :   -0.004596
  50 C :    0.065160
  51 C :   -0.134364
  52 C :   -0.019742
  53 N :   -0.037772
  54 C :   -0.021684
  55 N :   -0.048006
  56 C :   -0.017834
  57 C :    0.019439
  58 C :   -0.009408
  59 C :   -0.002912
  60 C :   -0.002115
  61 C :   -0.011795
  62 C :   -0.012143
  63 C :   -0.012238
  64 H :    0.039665
  65 H :    0.035982
  66 H :    0.035665
  67 H :    0.032759
  68 H :    0.032169
  69 H :    0.030609
  70 H :    0.046359
  71 H :    0.036535
  72 H :    0.033198
  73 H :    0.033197
  74 H :    0.036623
  75 H :    0.046460
  76 H :    0.039471
  77 H :    0.035934
  78 H :    0.035614
  79 H :    0.032729
  80 H :    0.032108
  81 H :    0.030447

  Mayer bond orders larger than 0.100000
B(  0-C ,  1-C ) :   0.9560 B(  0-C ,  5-C ) :   1.0225 B(  0-C , 19-C ) :   1.7058
B(  1-C ,  2-O ) :   2.1974 B(  1-C ,  3-C ) :   0.9370 B(  3-C ,  4-C ) :   1.4180
B(  3-C , 14-C ) :   1.2345 B(  4-C ,  5-C ) :   1.0027 B(  4-C , 11-C ) :   1.2588
B(  5-C ,  6-C ) :   1.6535 B(  6-C ,  7-C ) :   1.1633 B(  6-C ,  9-C ) :   1.1265
B(  7-C ,  8-N ) :   3.0133 B(  9-C , 10-N ) :   2.9946 B( 11-C , 12-C ) :   1.4708
B( 11-C , 64-H ) :   0.9855 B( 12-C , 13-C ) :   1.2243 B( 12-C , 65-H ) :   0.9935
B( 13-C , 14-C ) :   1.2402 B( 13-C , 18-C ) :   1.2406 B( 14-C , 15-C ) :   1.2767
B( 15-C , 16-C ) :   1.4764 B( 15-C , 66-H ) :   0.9860 B( 16-C , 17-C ) :   1.2554
B( 16-C , 67-H ) :   0.9865 B( 17-C , 18-C ) :   1.4963 B( 17-C , 68-H ) :   0.9885
B( 18-C , 69-H ) :   0.9972 B( 19-C , 20-C ) :   1.1058 B( 19-C , 70-H ) :   0.9287
B( 20-C , 21-C ) :   1.4784 B( 20-C , 24-S ) :   1.0927 B( 21-C , 22-C ) :   1.3020
B( 21-C , 71-H ) :   0.9948 B( 22-C , 23-C ) :   1.4051 B( 22-C , 27-S ) :   1.0652
B( 23-C , 24-S ) :   1.0870 B( 23-C , 25-C ) :   1.2742 B( 25-C , 26-C ) :   1.5100
B( 25-C , 72-H ) :   0.9901 B( 26-C , 27-S ) :   1.1095 B( 26-C , 28-C ) :   1.1508
B( 28-C , 29-N ) :   1.7233 B( 28-C , 32-S ) :   1.0916 B( 29-N , 30-C ) :   1.4014
B( 30-C , 31-C ) :   1.3046 B( 30-C , 35-S ) :   1.1011 B( 31-C , 32-S ) :   1.1012
B( 31-C , 33-N ) :   1.4016 B( 33-N , 34-C ) :   1.7227 B( 34-C , 35-S ) :   1.0915
B( 34-C , 36-C ) :   1.1504 B( 36-C , 37-C ) :   1.5105 B( 36-C , 40-S ) :   1.1087
B( 37-C , 38-C ) :   1.2747 B( 37-C , 73-H ) :   0.9902 B( 38-C , 39-C ) :   1.4048
B( 38-C , 43-S ) :   1.0870 B( 39-C , 40-S ) :   1.0651 B( 39-C , 41-C ) :   1.3034
B( 41-C , 42-C ) :   1.4798 B( 41-C , 74-H ) :   0.9939 B( 42-C , 43-S ) :   1.0921
B( 42-C , 44-C ) :   1.1048 B( 44-C , 45-C ) :   1.7028 B( 44-C , 75-H ) :   0.9295
B( 45-C , 46-C ) :   0.9567 B( 45-C , 50-C ) :   1.0216 B( 46-C , 47-O ) :   2.1964
B( 46-C , 48-C ) :   0.9396 B( 48-C , 49-C ) :   1.4149 B( 48-C , 59-C ) :   1.2360
B( 49-C , 50-C ) :   1.0034 B( 49-C , 56-C ) :   1.2612 B( 50-C , 51-C ) :   1.6590
B( 51-C , 52-C ) :   1.1617 B( 51-C , 54-C ) :   1.1230 B( 52-C , 53-N ) :   3.0140
B( 54-C , 55-N ) :   2.9969 B( 56-C , 57-C ) :   1.4684 B( 56-C , 76-H ) :   0.9864
B( 57-C , 58-C ) :   1.2221 B( 57-C , 77-H ) :   0.9947 B( 58-C , 59-C ) :   1.2420
B( 58-C , 63-C ) :   1.2407 B( 59-C , 60-C ) :   1.2741 B( 60-C , 61-C ) :   1.4740
B( 60-C , 78-H ) :   0.9873 B( 61-C , 62-C ) :   1.2556 B( 61-C , 79-H ) :   0.9878
B( 62-C , 63-C ) :   1.4951 B( 62-C , 80-H ) :   0.9894 B( 63-C , 81-H ) :   0.9978

-----------------------------------------------------------------------------
         ABSORPTION SPECTRUM VIA TRANSITION ELECTRIC DIPOLE MOMENTS
-----------------------------------------------------------------------------
State   Energy  Wavelength   fosc         T2         TX        TY        TZ
        (cm-1)    (nm)                  (au**2)     (au)      (au)      (au)
-----------------------------------------------------------------------------
   0   18244.6    548.1   2.006435043  36.20478  -2.86937  -4.58823   2.63052
   1   20340.6    491.6   0.154396095   2.49889  -1.30911   0.87528   0.13781
   2   23411.9    427.1   0.705173014   9.91595   1.30773   2.18769  -1.84927
   3   25292.5    395.4   0.069258259   0.90148  -0.78437   0.52864   0.08228
   4   27384.2    365.2   0.017642248   0.21209  -0.34705   0.30267   0.00654
   5   27467.9    364.1   0.441355108   5.28979  -1.06690  -1.69211   1.13502
   6   27730.0    360.6   0.036217716   0.42998  -0.52653   0.38905   0.03713
   7   28161.6    355.1   0.024570007   0.28723  -0.15565  -0.17994  -0.48023
   8   28416.4    351.9   0.024307846   0.28161   0.43984  -0.29458  -0.03715
   9   29143.3    343.1   0.121605843   1.37370   0.30815   0.28976   1.09306
  10   29637.7    337.4   0.060878559   0.67623   0.00061   0.11615  -0.81409
  11   30254.2    330.5   0.024581516   0.26748   0.42290  -0.29499  -0.04029
  12   30594.3    326.9   0.034569451   0.37199  -0.27273  -0.45975   0.29366
  13   30628.4    326.5   0.003270176   0.03515   0.17055  -0.07036  -0.03333
  14   30931.9    323.3   0.173996435   1.85186  -0.76191  -1.06319  -0.37549
  15   31866.5    313.8   0.035191211   0.36356  -0.50609   0.31973   0.07214
  16   31897.2    313.5   0.181777296   1.87613   0.32742   0.66819  -1.14997
  17   32765.7    305.2   0.543288260   5.45867  -1.28337  -1.92172   0.34440
  18   32862.1    304.3   0.023129396   0.23171   0.38923  -0.28085  -0.03659
  19   32964.3    303.4   0.067082489   0.66995  -0.67014   0.46527   0.06622
  20   33799.9    295.9   0.178634456   1.73991   0.33382   0.65784  -1.09349
  21   34011.0    294.0   0.011945518   0.11563   0.29784  -0.15614  -0.05037
  22   34062.8    293.6   0.835463961   8.07464  -1.39843  -2.21846   1.09429
  23   35041.3    285.4   0.000798104   0.00750  -0.07142   0.04832   0.00789
  24   35314.0    283.2   0.038931791   0.36294   0.03698   0.13830  -0.58519
  25   35402.8    282.5   0.011877862   0.11045  -0.27348   0.18690   0.02694
  26   35675.1    280.3   0.015902080   0.14675   0.20136   0.30981  -0.10106
  27   36792.5    271.8   0.008564358   0.07663   0.22565  -0.15807  -0.02699
  28   36879.7    271.2   0.034372008   0.30683  -0.23058  -0.27121  -0.42438
  29   37669.0    265.5   0.052012354   0.45457  -0.55418   0.37959   0.05807
  30   38091.5    262.5   0.191305332   1.65339  -0.29901  -0.25936  -1.22340
  31   38337.3    260.8   0.001368157   0.01175  -0.10434  -0.02116   0.02034
  32   38370.3    260.6   0.158765201   1.36218   0.63074   0.95738  -0.21854
  33   38443.0    260.1   0.002828399   0.02422  -0.11006   0.10996   0.00422
  34   39807.6    251.2   0.003223050   0.02665   0.01927   0.05050  -0.15405

FINAL SINGLE POINT ENERGY     -4780.442500569848

DIPOLE MOMENT
-------------
                                X             Y             Z
Electronic contribution:     -5.83467       3.98227       0.58771
Nuclear contribution   :      3.91053      -2.67283      -0.39432
                        -----------------------------------------
Total Dipole Moment    :     -1.92415       1.30944       0.19338
                        -----------------------------------------
Magnitude (a.u.)       :      2.33546
Magnitude (Debye)      :      5.93627

Rotational constants in cm-1:     0.004256     0.000197     0.000196
Rotational constants in MHz :   127.590140     5.894078     5.879071

                             ****ORCA TERMINATED NORMALLY****
TOTAL RUN TIME: 0 days 0 hours 12 minutes 0 seconds 938 msec
