                         Program Version 4.2.0 -  RELEASE  -
|  1> # ORCA input file
|  2> # SCF done       -191.090053369937          0.000904572941
|  3> ! CAM-B3LYP def2-SVP def2/J RIJCOSX Grid4 TightSCF
|  4> %maxcore 5000
|  5> %tddft
|  6>     Mode sTDDFT
|  7>     Ethresh 5.0
|  8>     maxcore 5000
|  9> end
| 10>
| 11> %pal
| 12>   nprocs 6
| 13>   end
| 14> * xyz 0 1
| 15>    C        3.45839         6.89330         1.56007
| 16>    C        2.88282         8.26405         1.68452
| 17>    O        1.75144         8.58947         1.40054
| 18>    C        3.96079         9.08058         2.27098
| 19>    C        5.12725         8.31964         2.35211
| 20>    C        4.88825         7.01084         1.74899
| 21>    C        5.85937         6.20349         1.21904
| 22>    C        5.61623         5.12355         0.34522
| 23>    N        5.51580         4.27637        -0.42395
| 24>    C        7.24418         6.41087         1.38567
| 25>    N        8.38250         6.50424         1.50087
| 26>    C        6.29250         8.85778         2.91283
| 27>    C        6.26567        10.14847         3.37296
| 28>    C        5.10688        10.95128         3.28983
| 29>    C        3.91377        10.41230         2.72623
| 30>    C        2.75814        11.21579         2.64748
| 31>    C        2.78430        12.50337         3.10732
| 32>    C        3.95689        13.03981         3.66326
| 33>    C        5.09229        12.28248         3.75340
| 34>    C        2.60863         5.83884         1.45403
| 35>    C        2.81890         4.46101         1.69773
| 36>    S        4.22165         3.81389         2.51843
| 37>    C        3.64589         2.19318         2.37191
| 38>    C        2.39768         2.16242         1.75466
| 39>    C        1.93745         3.44569         1.40370
| 40>    C        1.67661         0.95473         1.36827
| 41>    O        0.53386         0.93432         0.98296
| 42>    C        4.49147         1.11377         2.81309
| 43>    C        5.84803         1.24231         2.62547
| 44>    C        6.71359         0.16964         2.91105
| 45>    C        8.07752         0.00362         2.73064
| 46>    C        9.14961         0.93853         2.27410
| 47>    C        8.68130         2.15588         1.46464
| 48>    N        7.77641         1.75748         0.40013
| 49>    C        9.96060         1.42888         3.49561
| 50>    N       11.12160         2.17664         3.05365
| 51>    C        8.38048        -1.35302         3.13884
| 52>    C        9.52966        -2.05021         3.10369
| 53>    C        9.60452        -3.46771         3.56409
| 54>    C        8.30842        -4.02995         4.05896
| 55>    C        7.16206        -3.32488         4.06761
| 56>    C        7.13881        -1.98802         3.60379
| 57>    C        6.13227        -1.05906         3.45003
| 58>    C        4.74234        -1.12698         3.71020
| 59>    C        3.94406        -0.07599         3.39711
| 60>    C       10.64102        -3.56417         4.65230
| 61>    C       11.81034        -4.19244         4.50613
| 62>    C       12.81333        -4.31375         5.52497
| 63>    S       14.32842        -5.06877         5.12707
| 64>    C       14.93672        -4.86037         6.74067
| 65>    C       13.98764        -4.21413         7.53303
| 66>    C       12.79775        -3.92448         6.83975
| 67>    C       14.15866        -3.89389         8.94828
| 68>    O       13.33907        -3.31437         9.61443
| 69>    C       16.26696        -5.20918         7.09243
| 70>    C       17.09742        -6.10492         6.50290
| 71>    C       18.57234        -5.99438         6.71462
| 72>    O       19.11686        -5.34779         7.58081
| 73>    C       19.17248        -6.77681         5.62090
| 74>    C       18.16586        -7.43125         4.90738
| 75>    C       16.87911        -7.16511         5.53969
| 76>    C       15.76208        -7.95086         5.44861
| 77>    C       14.65361        -7.80947         6.31063
| 78>    N       13.75812        -7.74976         7.02577
| 79>    C       15.62666        -9.03661         4.55968
| 80>    N       15.45574        -9.91594         3.84216
| 81>    C       18.47656        -8.22161         3.79380
| 82>    C       19.79003        -8.34638         3.42282
| 83>    C       20.83420        -7.71254         4.13207
| 84>    C       20.52944        -6.90022         5.26344
| 85>    C       21.57500        -6.26791         5.96621
| 86>    C       22.87206        -6.43710         5.56633
| 87>    C       23.17825        -7.23717         4.45400
| 88>    C       22.18329        -7.86039         3.75159
| 89>    H        7.18956         8.26588         2.99523
| 90>    H        7.15357        10.57747         3.81466
| 91>    H        1.86331        10.79235         2.21936
| 92>    H        1.89931        13.11885         3.04600
| 93>    H        3.95476        14.05898         4.02046
| 94>    H        5.99593        12.69351         4.18000
| 95>    H        1.58106         6.10645         1.22405
| 96>    H        1.00077         3.60025         0.89807
| 97>    H        2.27922         0.02903         1.42364
| 98>    H        6.23145         2.13694         2.17052
| 99>    H        9.83526         0.36273         1.63816
|100>    H        9.58550         2.67470         1.11094
|101>    H        8.15865         2.85267         2.12440
|102>    H        8.26486         1.19491        -0.28786
|103>    H        7.39773         2.56957        -0.07567
|104>    H       10.21360         0.55919         4.12685
|105>    H        9.33192         2.09932         4.08688
|106>    H       11.80068         1.56246         2.61750
|107>    H       11.57053         2.64300         3.83212
|108>    H       10.45478        -1.62235         2.74154
|109>    H        9.95213        -4.07468         2.71462
|110>    H        8.34735        -5.04643         4.41903
|111>    H        6.24528        -3.77271         4.42227
|112>    H        4.32928        -2.02080         4.15378
|113>    H        2.88658        -0.10405         3.61244
|114>    H       10.37505        -3.08541         5.58275
|115>    H       12.05625        -4.65865         3.56017
|116>    H       11.96299        -3.45080         7.32265
|117>    H       15.11850        -4.22726         9.38339
|118>    H       16.72120        -4.61846         7.88236
|119>    H       17.69830        -8.71208         3.23183
|120>    H       20.04825        -8.94753         2.56308
|121>    H       21.32829        -5.65480         6.81855
|122>    H       23.67262        -5.95385         6.10597
|123>    H       24.20930        -7.35714         4.15636
|124>    H       22.41669        -8.47741         2.89607
|125> *
|126>
|127>                          ****END OF INPUT****

CARTESIAN COORDINATES (ANGSTROEM)
---------------------------------
  C      3.458390    6.893300    1.560070
  C      2.882820    8.264050    1.684520
  O      1.751440    8.589470    1.400540
  C      3.960790    9.080580    2.270980
  C      5.127250    8.319640    2.352110
  C      4.888250    7.010840    1.748990
  C      5.859370    6.203490    1.219040
  C      5.616230    5.123550    0.345220
  N      5.515800    4.276370   -0.423950
  C      7.244180    6.410870    1.385670
  N      8.382500    6.504240    1.500870
  C      6.292500    8.857780    2.912830
  C      6.265670   10.148470    3.372960
  C      5.106880   10.951280    3.289830
  C      3.913770   10.412300    2.726230
  C      2.758140   11.215790    2.647480
  C      2.784300   12.503370    3.107320
  C      3.956890   13.039810    3.663260
  C      5.092290   12.282480    3.753400
  C      2.608630    5.838840    1.454030
  C      2.818900    4.461010    1.697730
  S      4.221650    3.813890    2.518430
  C      3.645890    2.193180    2.371910
  C      2.397680    2.162420    1.754660
  C      1.937450    3.445690    1.403700
  C      1.676610    0.954730    1.368270
  O      0.533860    0.934320    0.982960
  C      4.491470    1.113770    2.813090
  C      5.848030    1.242310    2.625470
  C      6.713590    0.169640    2.911050
  C      8.077520    0.003620    2.730640
  C      9.149610    0.938530    2.274100
  C      8.681300    2.155880    1.464640
  N      7.776410    1.757480    0.400130
  C      9.960600    1.428880    3.495610
  N     11.121600    2.176640    3.053650
  C      8.380480   -1.353020    3.138840
  C      9.529660   -2.050210    3.103690
  C      9.604520   -3.467710    3.564090
  C      8.308420   -4.029950    4.058960
  C      7.162060   -3.324880    4.067610
  C      7.138810   -1.988020    3.603790
  C      6.132270   -1.059060    3.450030
  C      4.742340   -1.126980    3.710200
  C      3.944060   -0.075990    3.397110
  C     10.641020   -3.564170    4.652300
  C     11.810340   -4.192440    4.506130
  C     12.813330   -4.313750    5.524970
  S     14.328420   -5.068770    5.127070
  C     14.936720   -4.860370    6.740670
  C     13.987640   -4.214130    7.533030
  C     12.797750   -3.924480    6.839750
  C     14.158660   -3.893890    8.948280
  O     13.339070   -3.314370    9.614430
  C     16.266960   -5.209180    7.092430
  C     17.097420   -6.104920    6.502900
  C     18.572340   -5.994380    6.714620
  O     19.116860   -5.347790    7.580810
  C     19.172480   -6.776810    5.620900
  C     18.165860   -7.431250    4.907380
  C     16.879110   -7.165110    5.539690
  C     15.762080   -7.950860    5.448610
  C     14.653610   -7.809470    6.310630
  N     13.758120   -7.749760    7.025770
  C     15.626660   -9.036610    4.559680
  N     15.455740   -9.915940    3.842160
  C     18.476560   -8.221610    3.793800
  C     19.790030   -8.346380    3.422820
  C     20.834200   -7.712540    4.132070
  C     20.529440   -6.900220    5.263440
  C     21.575000   -6.267910    5.966210
  C     22.872060   -6.437100    5.566330
  C     23.178250   -7.237170    4.454000
  C     22.183290   -7.860390    3.751590
  H      7.189560    8.265880    2.995230
  H      7.153570   10.577470    3.814660
  H      1.863310   10.792350    2.219360
  H      1.899310   13.118850    3.046000
  H      3.954760   14.058980    4.020460
  H      5.995930   12.693510    4.180000
  H      1.581060    6.106450    1.224050
  H      1.000770    3.600250    0.898070
  H      2.279220    0.029030    1.423640
  H      6.231450    2.136940    2.170520
  H      9.835260    0.362730    1.638160
  H      9.585500    2.674700    1.110940
  H      8.158650    2.852670    2.124400
  H      8.264860    1.194910   -0.287860
  H      7.397730    2.569570   -0.075670
  H     10.213600    0.559190    4.126850
  H      9.331920    2.099320    4.086880
  H     11.800680    1.562460    2.617500
  H     11.570530    2.643000    3.832120
  H     10.454780   -1.622350    2.741540
  H      9.952130   -4.074680    2.714620
  H      8.347350   -5.046430    4.419030
  H      6.245280   -3.772710    4.422270
  H      4.329280   -2.020800    4.153780
  H      2.886580   -0.104050    3.612440
  H     10.375050   -3.085410    5.582750
  H     12.056250   -4.658650    3.560170
  H     11.962990   -3.450800    7.322650
  H     15.118500   -4.227260    9.383390
  H     16.721200   -4.618460    7.882360
  H     17.698300   -8.712080    3.231830
  H     20.048250   -8.947530    2.563080
  H     21.328290   -5.654800    6.818550
  H     23.672620   -5.953850    6.105970
  H     24.209300   -7.357140    4.156360
  H     22.416690   -8.477410    2.896070

 Total Charge           Charge          ....    0
 Multiplicity           Mult            ....    1
 Number of Electrons    NEL             ....  514
 Basis Dimension        Dim             .... 1224

ORBITAL ENERGIES
----------------

  NO   OCC          E(Eh)            E(eV)
   0   2.0000     -88.980217     -2421.2748
   1   2.0000     -88.967337     -2420.9243
   2   2.0000     -19.226364      -523.1760
   3   2.0000     -19.221308      -523.0384
   4   2.0000     -19.215323      -522.8755
   5   2.0000     -19.202646      -522.5306
   6   2.0000     -14.423176      -392.4746
   7   2.0000     -14.420386      -392.3987
   8   2.0000     -14.416375      -392.2895
   9   2.0000     -14.416159      -392.2836
  10   2.0000     -14.380308      -391.3081
  11   2.0000     -14.364763      -390.8851
  12   2.0000     -10.377118      -282.3757
  13   2.0000     -10.366180      -282.0781
  14   2.0000     -10.366036      -282.0742
  15   2.0000     -10.353612      -281.7361
  16   2.0000     -10.349848      -281.6337
  17   2.0000     -10.348786      -281.6048
  18   2.0000     -10.344631      -281.4917
  19   2.0000     -10.342740      -281.4403
  20   2.0000     -10.332120      -281.1513
  21   2.0000     -10.328765      -281.0600
  22   2.0000     -10.326402      -280.9957
  23   2.0000     -10.325613      -280.9742
  24   2.0000     -10.325178      -280.9624
  25   2.0000     -10.321970      -280.8751
  26   2.0000     -10.319982      -280.8210
  27   2.0000     -10.318799      -280.7888
  28   2.0000     -10.317344      -280.7492
  29   2.0000     -10.317244      -280.7465
  30   2.0000     -10.311015      -280.5770
  31   2.0000     -10.308566      -280.5103
  32   2.0000     -10.308169      -280.4995
  33   2.0000     -10.306421      -280.4520
  34   2.0000     -10.303412      -280.3701
  35   2.0000     -10.303071      -280.3608
  36   2.0000     -10.302803      -280.3535
  37   2.0000     -10.302161      -280.3361
  38   2.0000     -10.301645      -280.3220
  39   2.0000     -10.301320      -280.3132
  40   2.0000     -10.300874      -280.3010
  41   2.0000     -10.298933      -280.2482
  42   2.0000     -10.298394      -280.2336
  43   2.0000     -10.295308      -280.1496
  44   2.0000     -10.294677      -280.1324
  45   2.0000     -10.294010      -280.1142
  46   2.0000     -10.293959      -280.1129
  47   2.0000     -10.293550      -280.1017
  48   2.0000     -10.292671      -280.0778
  49   2.0000     -10.290742      -280.0253
  50   2.0000     -10.290733      -280.0251
  51   2.0000     -10.289596      -279.9942
  52   2.0000     -10.289047      -279.9792
  53   2.0000     -10.287297      -279.9316
  54   2.0000     -10.287063      -279.9252
  55   2.0000     -10.284729      -279.8617
  56   2.0000     -10.283594      -279.8308
  57   2.0000     -10.282719      -279.8070
  58   2.0000     -10.282172      -279.7921
  59   2.0000     -10.280530      -279.7474
  60   2.0000     -10.280184      -279.7380
  61   2.0000     -10.277339      -279.6606
  62   2.0000     -10.276686      -279.6428
  63   2.0000     -10.276215      -279.6300
  64   2.0000     -10.274458      -279.5822
  65   2.0000     -10.274086      -279.5721
  66   2.0000     -10.273742      -279.5627
  67   2.0000     -10.272662      -279.5333
  68   2.0000     -10.270197      -279.4663
  69   2.0000     -10.267077      -279.3814
  70   2.0000     -10.266827      -279.3746
  71   2.0000     -10.265936      -279.3503
  72   2.0000     -10.265764      -279.3456
  73   2.0000     -10.265281      -279.3325
  74   2.0000      -8.075517      -219.7460
  75   2.0000      -8.062342      -219.3875
  76   2.0000      -6.044679      -164.4841
  77   2.0000      -6.040566      -164.3722
  78   2.0000      -6.037839      -164.2979
  79   2.0000      -6.031633      -164.1291
  80   2.0000      -6.027415      -164.0143
  81   2.0000      -6.024504      -163.9351
  82   2.0000      -1.141518       -31.0623
  83   2.0000      -1.133849       -30.8536
  84   2.0000      -1.130449       -30.7611
  85   2.0000      -1.115934       -30.3661
  86   2.0000      -1.027813       -27.9682
  87   2.0000      -1.020240       -27.7621
  88   2.0000      -1.009162       -27.4607
  89   2.0000      -1.006081       -27.3769
  90   2.0000      -1.000657       -27.2293
  91   2.0000      -0.999083       -27.1864
  92   2.0000      -0.998778       -27.1781
  93   2.0000      -0.993565       -27.0363
  94   2.0000      -0.985744       -26.8235
  95   2.0000      -0.975474       -26.5440
  96   2.0000      -0.967587       -26.3294
  97   2.0000      -0.965276       -26.2665
  98   2.0000      -0.951082       -25.8803
  99   2.0000      -0.943169       -25.6649
 100   2.0000      -0.932115       -25.3641
 101   2.0000      -0.925994       -25.1976
 102   2.0000      -0.920798       -25.0562
 103   2.0000      -0.914517       -24.8853
 104   2.0000      -0.905895       -24.6507
 105   2.0000      -0.902390       -24.5553
 106   2.0000      -0.890091       -24.2206
 107   2.0000      -0.885114       -24.0852
 108   2.0000      -0.873498       -23.7691
 109   2.0000      -0.865084       -23.5401
 110   2.0000      -0.863569       -23.4989
 111   2.0000      -0.858737       -23.3674
 112   2.0000      -0.852164       -23.1885
 113   2.0000      -0.847610       -23.0646
 114   2.0000      -0.842996       -22.9391
 115   2.0000      -0.836735       -22.7687
 116   2.0000      -0.831097       -22.6153
 117   2.0000      -0.830052       -22.5869
 118   2.0000      -0.817269       -22.2390
 119   2.0000      -0.799624       -21.7589
 120   2.0000      -0.783743       -21.3267
 121   2.0000      -0.777761       -21.1639
 122   2.0000      -0.770006       -20.9529
 123   2.0000      -0.764484       -20.8027
 124   2.0000      -0.759842       -20.6763
 125   2.0000      -0.745645       -20.2900
 126   2.0000      -0.728365       -19.8198
 127   2.0000      -0.721014       -19.6198
 128   2.0000      -0.717614       -19.5273
 129   2.0000      -0.717191       -19.5158
 130   2.0000      -0.715605       -19.4726
 131   2.0000      -0.710542       -19.3348
 132   2.0000      -0.707158       -19.2427
 133   2.0000      -0.704237       -19.1633
 134   2.0000      -0.692753       -18.8508
 135   2.0000      -0.684126       -18.6160
 136   2.0000      -0.678508       -18.4631
 137   2.0000      -0.676589       -18.4109
 138   2.0000      -0.674376       -18.3507
 139   2.0000      -0.671340       -18.2681
 140   2.0000      -0.661324       -17.9955
 141   2.0000      -0.657791       -17.8994
 142   2.0000      -0.650202       -17.6929
 143   2.0000      -0.643401       -17.5078
 144   2.0000      -0.640599       -17.4316
 145   2.0000      -0.636625       -17.3235
 146   2.0000      -0.628892       -17.1130
 147   2.0000      -0.617386       -16.7999
 148   2.0000      -0.615927       -16.7602
 149   2.0000      -0.612976       -16.6799
 150   2.0000      -0.607100       -16.5200
 151   2.0000      -0.597932       -16.2706
 152   2.0000      -0.596433       -16.2298
 153   2.0000      -0.595216       -16.1967
 154   2.0000      -0.593229       -16.1426
 155   2.0000      -0.587683       -15.9917
 156   2.0000      -0.583018       -15.8647
 157   2.0000      -0.580814       -15.8048
 158   2.0000      -0.573700       -15.6112
 159   2.0000      -0.570410       -15.5216
 160   2.0000      -0.564791       -15.3687
 161   2.0000      -0.563663       -15.3380
 162   2.0000      -0.558347       -15.1934
 163   2.0000      -0.556248       -15.1363
 164   2.0000      -0.551450       -15.0057
 165   2.0000      -0.545456       -14.8426
 166   2.0000      -0.542263       -14.7557
 167   2.0000      -0.537956       -14.6385
 168   2.0000      -0.537667       -14.6307
 169   2.0000      -0.534900       -14.5554
 170   2.0000      -0.534466       -14.5436
 171   2.0000      -0.530193       -14.4273
 172   2.0000      -0.527604       -14.3568
 173   2.0000      -0.526645       -14.3307
 174   2.0000      -0.525635       -14.3033
 175   2.0000      -0.524243       -14.2654
 176   2.0000      -0.522153       -14.2085
 177   2.0000      -0.519285       -14.1305
 178   2.0000      -0.516981       -14.0678
 179   2.0000      -0.516521       -14.0553
 180   2.0000      -0.515555       -14.0290
 181   2.0000      -0.512731       -13.9521
 182   2.0000      -0.512284       -13.9400
 183   2.0000      -0.507634       -13.8134
 184   2.0000      -0.506353       -13.7786
 185   2.0000      -0.505150       -13.7458
 186   2.0000      -0.504753       -13.7350
 187   2.0000      -0.502517       -13.6742
 188   2.0000      -0.501901       -13.6574
 189   2.0000      -0.496316       -13.5054
 190   2.0000      -0.492722       -13.4076
 191   2.0000      -0.490752       -13.3540
 192   2.0000      -0.489142       -13.3102
 193   2.0000      -0.486999       -13.2519
 194   2.0000      -0.484676       -13.1887
 195   2.0000      -0.482226       -13.1220
 196   2.0000      -0.480387       -13.0720
 197   2.0000      -0.477991       -13.0068
 198   2.0000      -0.476754       -12.9731
 199   2.0000      -0.473327       -12.8799
 200   2.0000      -0.472194       -12.8491
 201   2.0000      -0.467553       -12.7228
 202   2.0000      -0.465145       -12.6572
 203   2.0000      -0.461487       -12.5577
 204   2.0000      -0.459436       -12.5019
 205   2.0000      -0.455641       -12.3986
 206   2.0000      -0.453655       -12.3446
 207   2.0000      -0.451346       -12.2818
 208   2.0000      -0.448637       -12.2080
 209   2.0000      -0.446045       -12.1375
 210   2.0000      -0.444611       -12.0985
 211   2.0000      -0.444291       -12.0898
 212   2.0000      -0.443757       -12.0752
 213   2.0000      -0.440743       -11.9932
 214   2.0000      -0.440278       -11.9806
 215   2.0000      -0.438665       -11.9367
 216   2.0000      -0.437114       -11.8945
 217   2.0000      -0.436349       -11.8737
 218   2.0000      -0.434596       -11.8259
 219   2.0000      -0.432166       -11.7598
 220   2.0000      -0.431137       -11.7318
 221   2.0000      -0.430784       -11.7222
 222   2.0000      -0.428968       -11.6728
 223   2.0000      -0.425926       -11.5900
 224   2.0000      -0.424116       -11.5408
 225   2.0000      -0.423582       -11.5262
 226   2.0000      -0.421893       -11.4803
 227   2.0000      -0.416001       -11.3200
 228   2.0000      -0.410217       -11.1626
 229   2.0000      -0.408091       -11.1047
 230   2.0000      -0.407111       -11.0781
 231   2.0000      -0.398401       -10.8411
 232   2.0000      -0.395467       -10.7612
 233   2.0000      -0.390936       -10.6379
 234   2.0000      -0.386926       -10.5288
 235   2.0000      -0.376227       -10.2376
 236   2.0000      -0.375393       -10.2150
 237   2.0000      -0.368822       -10.0362
 238   2.0000      -0.360575        -9.8117
 239   2.0000      -0.354745        -9.6531
 240   2.0000      -0.342733        -9.3262
 241   2.0000      -0.340209        -9.2576
 242   2.0000      -0.339343        -9.2340
 243   2.0000      -0.337190        -9.1754
 244   2.0000      -0.334717        -9.1081
 245   2.0000      -0.327865        -8.9217
 246   2.0000      -0.325329        -8.8526
 247   2.0000      -0.322319        -8.7707
 248   2.0000      -0.319826        -8.7029
 249   2.0000      -0.312407        -8.5010
 250   2.0000      -0.304859        -8.2956
 251   2.0000      -0.300699        -8.1824
 252   2.0000      -0.293516        -7.9870
 253   2.0000      -0.284366        -7.7380
 254   2.0000      -0.281225        -7.6525
 255   2.0000      -0.275878        -7.5070
 256   2.0000      -0.225966        -6.1489
 257   0.0000      -0.100416        -2.7325
 258   0.0000      -0.088092        -2.3971
 259   0.0000      -0.078330        -2.1315
 260   0.0000      -0.073663        -2.0045
 261   0.0000      -0.062383        -1.6975

MULLIKEN ATOMIC CHARGES
-----------------------
   0 C :   -0.128144
   1 C :    0.117029
   2 O :   -0.150941
   3 C :    0.012664
   4 C :   -0.010129
   5 C :    0.260005
   6 C :   -0.325057
   7 C :   -0.183501
   8 N :    0.157745
   9 C :   -0.186262
  10 N :    0.156870
  11 C :   -0.021838
  12 C :    0.004798
  13 C :    0.080501
  14 C :    0.033819
  15 C :   -0.025962
  16 C :    0.036578
  17 C :    0.039451
  18 C :   -0.020118
  19 C :    0.058147
  20 C :   -0.078138
  21 S :    0.148335
  22 C :   -0.071901
  23 C :    0.024340
  24 C :    0.019483
  25 C :    0.125379
  26 O :   -0.187048
  27 C :    0.069609
  28 C :   -0.039631
  29 C :    0.048496
  30 C :    0.016864
  31 C :   -0.080348
  32 C :    0.139410
  33 N :   -0.217234
  34 C :    0.132825
  35 N :   -0.204580
  36 C :    0.093843
  37 C :   -0.125588
  38 C :    0.132125
  39 C :   -0.050763
  40 C :    0.025735
  41 C :    0.013452
  42 C :    0.032959
  43 C :   -0.009398
  44 C :   -0.012663
  45 C :   -0.041740
  46 C :    0.075478
  47 C :   -0.048838
  48 S :    0.159614
  49 C :   -0.115570
  50 C :    0.058088
  51 C :   -0.014389
  52 C :    0.148689
  53 O :   -0.168189
  54 C :    0.020768
  55 C :   -0.117056
  56 C :    0.120295
  57 O :   -0.146862
  58 C :    0.010837
  59 C :   -0.005092
  60 C :    0.236636
  61 C :   -0.311134
  62 C :   -0.208380
  63 N :    0.181738
  64 C :   -0.176930
  65 N :    0.161550
  66 C :   -0.020818
  67 C :    0.007411
  68 C :    0.077187
  69 C :    0.035351
  70 C :   -0.026628
  71 C :    0.039336
  72 C :    0.038177
  73 C :   -0.018380
  74 H :    0.001954
  75 H :   -0.013668
  76 H :    0.000701
  77 H :   -0.006053
  78 H :   -0.006904
  79 H :   -0.022235
  80 H :    0.025773
  81 H :    0.006004
  82 H :   -0.001416
  83 H :   -0.033924
  84 H :   -0.025335
  85 H :    0.005615
  86 H :   -0.010850
  87 H :    0.086731
  88 H :    0.101764
  89 H :   -0.018883
  90 H :   -0.003743
  91 H :    0.086390
  92 H :    0.095375
  93 H :   -0.012495
  94 H :    0.034561
  95 H :   -0.005269
  96 H :   -0.032259
  97 H :   -0.032360
  98 H :   -0.015095
  99 H :    0.019285
 100 H :   -0.013291
 101 H :    0.000122
 102 H :   -0.010355
 103 H :    0.031186
 104 H :    0.002592
 105 H :   -0.010671
 106 H :    0.001831
 107 H :   -0.004236
 108 H :   -0.004348
 109 H :   -0.018857
Sum of atomic charges:   -0.0000000

LOEWDIN ATOMIC CHARGES
----------------------
   0 C :   -0.101430
   1 C :    0.088345
   2 O :   -0.142634
   3 C :   -0.032013
   4 C :   -0.004455
   5 C :    0.067558
   6 C :   -0.145867
   7 C :   -0.034012
   8 N :   -0.050731
   9 C :   -0.021973
  10 N :   -0.050451
  11 C :   -0.018298
  12 C :    0.017988
  13 C :   -0.009393
  14 C :   -0.003111
  15 C :   -0.001660
  16 C :   -0.012508
  17 C :   -0.012587
  18 C :   -0.012870
  19 C :    0.053394
  20 C :   -0.191692
  21 S :    0.494520
  22 C :   -0.098210
  23 C :   -0.129005
  24 C :    0.021355
  25 C :    0.102879
  26 O :   -0.140727
  27 C :   -0.064845
  28 C :    0.023721
  29 C :   -0.014834
  30 C :   -0.012551
  31 C :   -0.042317
  32 C :    0.023588
  33 N :   -0.115780
  34 C :    0.028063
  35 N :   -0.111489
  36 C :   -0.013409
  37 C :    0.059487
  38 C :   -0.027764
  39 C :   -0.034792
  40 C :   -0.011638
  41 C :   -0.036213
  42 C :   -0.026801
  43 C :   -0.007939
  44 C :   -0.031091
  45 C :    0.022644
  46 C :   -0.058554
  47 C :   -0.143292
  48 S :    0.481654
  49 C :   -0.165302
  50 C :   -0.080895
  51 C :   -0.024101
  52 C :    0.110999
  53 O :   -0.122046
  54 C :    0.035797
  55 C :   -0.081344
  56 C :    0.087853
  57 O :   -0.138490
  58 C :   -0.033335
  59 C :   -0.003024
  60 C :    0.059480
  61 C :   -0.133287
  62 C :   -0.035762
  63 N :   -0.040224
  64 C :   -0.020979
  65 N :   -0.044113
  66 C :   -0.017903
  67 C :    0.021852
  68 C :   -0.009177
  69 C :   -0.002573
  70 C :   -0.002199
  71 C :   -0.009921
  72 C :   -0.010819
  73 C :   -0.011285
  74 H :    0.039342
  75 H :    0.035213
  76 H :    0.035654
  77 H :    0.032707
  78 H :    0.031938
  79 H :    0.029968
  80 H :    0.053070
  81 H :    0.041717
  82 H :    0.002111
  83 H :    0.022097
  84 H :    0.018675
  85 H :    0.009907
  86 H :    0.011981
  87 H :    0.052984
  88 H :    0.053071
  89 H :   -0.004269
  90 H :    0.020217
  91 H :    0.050300
  92 H :    0.056754
  93 H :    0.027568
  94 H :    0.056869
  95 H :    0.027406
  96 H :    0.031490
  97 H :    0.029213
  98 H :    0.028283
  99 H :    0.032807
 100 H :    0.028366
 101 H :    0.038038
 102 H :   -0.000252
 103 H :    0.049092
 104 H :    0.040006
 105 H :    0.036546
 106 H :    0.035955
 107 H :    0.033625
 108 H :    0.032920
 109 H :    0.031164

  Mayer bond orders larger than 0.100000
B(  0-C ,  1-C ) :   0.9582 B(  0-C ,  5-C ) :   1.0186 B(  0-C , 19-C ) :   1.6448
B(  1-C ,  2-O ) :   2.1897 B(  1-C ,  3-C ) :   0.9403 B(  3-C ,  4-C ) :   1.4168
B(  3-C , 14-C ) :   1.2397 B(  4-C ,  5-C ) :   1.0095 B(  4-C , 11-C ) :   1.2617
B(  5-C ,  6-C ) :   1.6428 B(  6-C ,  7-C ) :   1.1616 B(  6-C ,  9-C ) :   1.1332
B(  7-C ,  8-N ) :   2.9463 B(  9-C , 10-N ) :   2.9859 B( 11-C , 12-C ) :   1.4682
B( 11-C , 74-H ) :   0.9853 B( 12-C , 13-C ) :   1.2257 B( 12-C , 75-H ) :   0.9937
B( 13-C , 14-C ) :   1.2415 B( 13-C , 18-C ) :   1.2402 B( 14-C , 15-C ) :   1.2754
B( 15-C , 16-C ) :   1.4764 B( 15-C , 76-H ) :   0.9863 B( 16-C , 17-C ) :   1.2551
B( 16-C , 77-H ) :   0.9873 B( 17-C , 18-C ) :   1.4963 B( 17-C , 78-H ) :   0.9885
B( 18-C , 79-H ) :   0.9972 B( 19-C , 20-C ) :   1.1495 B( 19-C , 80-H ) :   0.9446
B( 20-C , 21-S ) :   1.0695 B( 20-C , 24-C ) :   1.4496 B( 21-S , 22-C ) :   1.2033
B( 22-C , 23-C ) :   1.4213 B( 22-C , 27-C ) :   1.0405 B( 23-C , 24-C ) :   1.2403
B( 23-C , 25-C ) :   0.9769 B( 24-C , 81-H ) :   1.0074 B( 25-C , 26-O ) :   2.1806
B( 25-C , 82-H ) :   0.9593 B( 27-C , 28-C ) :   1.5138 B( 27-C , 44-C ) :   1.1159
B( 28-C , 29-C ) :   1.1505 B( 28-C , 83-H ) :   0.9728 B( 29-C , 30-C ) :   1.5010
B( 29-C , 42-C ) :   1.1124 B( 30-C , 31-C ) :   1.0005 B( 30-C , 36-C ) :   1.0961
B( 31-C , 32-C ) :   1.0438 B( 31-C , 34-C ) :   1.0530 B( 31-C , 84-H ) :   0.8791
B( 32-C , 33-N ) :   1.0805 B( 32-C , 85-H ) :   0.9320 B( 32-C , 86-H ) :   0.9257
B( 33-N , 87-H ) :   0.9678 B( 33-N , 88-H ) :   0.9523 B( 34-C , 35-N ) :   1.0950
B( 34-C , 89-H ) :   0.9494 B( 34-C , 90-H ) :   0.9272 B( 35-N , 91-H ) :   0.9719
B( 35-N , 92-H ) :   0.9686 B( 36-C , 37-C ) :   1.6525 B( 36-C , 41-C ) :   1.0429
B( 37-C , 38-C ) :   0.9689 B( 37-C , 93-H ) :   0.9695 B( 38-C , 39-C ) :   0.9816
B( 38-C , 45-C ) :   0.9602 B( 38-C , 94-H ) :   0.8710 B( 39-C , 40-C ) :   1.7088
B( 39-C , 95-H ) :   0.9778 B( 40-C , 41-C ) :   1.1290 B( 40-C , 96-H ) :   0.9902
B( 41-C , 42-C ) :   1.4477 B( 42-C , 43-C ) :   1.1384 B( 43-C , 44-C ) :   1.6100
B( 43-C , 97-H ) :   0.9916 B( 44-C , 98-H ) :   0.9873 B( 45-C , 46-C ) :   1.8192
B( 45-C , 99-H ) :   0.9661 B( 46-C , 47-C ) :   1.0680 B( 46-C ,100-H ) :   0.9600
B( 47-C , 48-S ) :   1.1285 B( 47-C , 51-C ) :   1.5081 B( 48-S , 49-C ) :   1.1467
B( 49-C , 50-C ) :   1.3987 B( 49-C , 54-C ) :   1.1011 B( 50-C , 51-C ) :   1.2629
B( 50-C , 52-C ) :   0.9788 B( 51-C ,101-H ) :   0.9979 B( 52-C , 53-O ) :   2.1924
B( 52-C ,102-H ) :   0.9574 B( 54-C , 55-C ) :   1.7099 B( 54-C ,103-H ) :   0.9362
B( 55-C , 56-C ) :   0.9479 B( 55-C , 60-C ) :   1.0108 B( 56-C , 57-O ) :   2.1934
B( 56-C , 58-C ) :   0.9437 B( 58-C , 59-C ) :   1.4089 B( 58-C , 69-C ) :   1.2396
B( 59-C , 60-C ) :   1.0094 B( 59-C , 66-C ) :   1.2593 B( 60-C , 61-C ) :   1.6708
B( 61-C , 62-C ) :   1.1512 B( 61-C , 64-C ) :   1.1267 B( 62-C , 63-N ) :   3.0316
B( 64-C , 65-N ) :   2.9996 B( 66-C , 67-C ) :   1.4688 B( 66-C ,104-H ) :   0.9874
B( 67-C , 68-C ) :   1.2233 B( 67-C ,105-H ) :   0.9941 B( 68-C , 69-C ) :   1.2402
B( 68-C , 73-C ) :   1.2421 B( 69-C , 70-C ) :   1.2755 B( 70-C , 71-C ) :   1.4753
B( 70-C ,106-H ) :   0.9868 B( 71-C , 72-C ) :   1.2561 B( 71-C ,107-H ) :   0.9878
B( 72-C , 73-C ) :   1.4928 B( 72-C ,108-H ) :   0.9899 B( 73-C ,109-H ) :   0.9980

-----------------------------------------------------------------------------
         ABSORPTION SPECTRUM VIA TRANSITION ELECTRIC DIPOLE MOMENTS
-----------------------------------------------------------------------------
State   Energy  Wavelength   fosc         T2         TX        TY        TZ
        (cm-1)    (nm)                  (au**2)     (au)      (au)      (au)
-----------------------------------------------------------------------------
   0   13671.1    731.5   0.042339482   1.01957   0.96366  -0.29773  -0.04786
   1   16722.3    598.0   0.031820579   0.62645  -0.77225  -0.16659  -0.04831
   2   17224.5    580.6   0.339997867   6.49837  -0.69540   2.39564  -0.52505
   3   21980.7    454.9   0.588475014   8.81379  -2.27248   1.90486   0.14527
   4   22505.6    444.3   0.023199288   0.33936   0.17474  -0.52617   0.17881
   5   22813.9    438.3   0.082483412   1.19026  -0.18317   1.07442  -0.04837
   6   23387.0    427.6   0.109753325   1.54497  -0.93091   0.81245  -0.13523
   7   23984.7    416.9   0.296783041   4.07362   0.19319   1.96971  -0.39567
   8   26032.8    384.1   0.044337987   0.56070  -0.23042  -0.69529   0.15553
   9   26675.0    374.9   0.067965409   0.83880  -0.72392   0.54251  -0.14288
  10   27240.2    367.1   0.006385472   0.07717  -0.10306  -0.08111   0.24489
  11   27512.1    363.5   0.499710697   5.97957  -2.31154   0.70285   0.37729
  12   27905.3    358.4   0.033359890   0.39356   0.16542  -0.28820  -0.53211
  13   28742.0    347.9   0.010305845   0.11804   0.27645  -0.18861   0.07774
  14   28820.9    347.0   0.270519096   3.09005   1.28843  -1.19194   0.09636
  15   29056.3    344.2   0.360622521   4.08590  -0.56512   1.93453  -0.15528
  16   29200.7    342.5   0.010797740   0.12173  -0.14252  -0.11324  -0.29766
  17   29445.3    339.6   0.020690568   0.23133  -0.01184   0.47872  -0.04493
  18   30034.8    332.9   0.019122855   0.20961   0.13870  -0.43461   0.03851
  19   30271.0    330.3   0.064243688   0.69868   0.74812  -0.07717  -0.36476
  20   30515.5    327.7   0.044253513   0.47742   0.23540   0.48412   0.43317
  21   30545.2    327.4   0.489910465   5.28019  -2.22604   0.13611  -0.55354
  22   30597.2    326.8   0.012035030   0.12949  -0.15701   0.32322   0.01919
  23   30793.6    324.7   0.011469605   0.12262   0.33179  -0.03690   0.10572
  24   31020.4    322.4   0.014502164   0.15391  -0.39214  -0.01122   0.00339
  25   31581.0    316.6   0.143201986   1.49279  -0.74234  -0.67962  -0.69270
  26   31772.1    314.7   0.484571960   5.02097   2.20342   0.33673  -0.22913
  27   31892.2    313.6   0.104195368   1.07557  -0.48335   0.87289   0.28288
  28   32492.7    307.8   0.113939624   1.15442  -0.59544   0.69819   0.55894
  29   32545.3    307.3   0.207056249   2.09448   1.10670  -0.92953  -0.07519
  30   33012.8    302.9   0.436252723   4.35042  -0.18032  -1.91373  -0.80966
  31   33074.0    302.4   0.062004548   0.61718  -0.68509   0.29643  -0.24487
  32   33783.3    296.0   0.040596635   0.39561   0.10539  -0.60775  -0.12304
  33   34048.6    293.7   0.234951498   2.27172   1.45205   0.26751  -0.30286
  34   34295.5    291.6   0.001825563   0.01752   0.04537  -0.06151   0.10809
  35   34468.0    290.1   0.011678310   0.11154  -0.27204   0.19124   0.03103
  36   34567.9    289.3   0.059727417   0.56882  -0.25705  -0.68222  -0.19318
  37   34891.6    286.6   0.123130787   1.16177  -0.80325  -0.62693  -0.35146
  38   35339.3    283.0   0.015639566   0.14569   0.24725  -0.29037   0.01566
  39   35672.7    280.3   0.000126786   0.00117   0.01916  -0.02423  -0.01468
  40   35800.8    279.3   0.076598129   0.70437   0.79141  -0.25619  -0.11137
  41   36166.3    276.5   0.000125270   0.00114   0.03232  -0.00475   0.00855
  42   36349.4    275.1   0.020772881   0.18814   0.16382  -0.37299  -0.14892
  43   36719.2    272.3   0.032366892   0.29019   0.50523   0.07852   0.16960
  44   36907.0    271.0   0.027652467   0.24666   0.41606  -0.17580   0.20652
  45   37007.7    270.2   0.004867280   0.04330   0.13385  -0.10852  -0.11665
  46   37158.6    269.1   0.149412887   1.32375  -0.29634   0.80312   0.76871
  47   37365.4    267.6   0.074411102   0.65561   0.09678  -0.73859  -0.31736
  48   37507.2    266.6   0.057920294   0.50838   0.60972   0.32014   0.18476
  49   38116.6    262.4   0.019900689   0.17188   0.21032  -0.33397  -0.12694
  50   38214.8    261.7   0.034231055   0.29489   0.39629  -0.29916   0.21989
  51   39345.5    254.2   0.056564023   0.47328  -0.59968  -0.03932  -0.33484
  52   39511.3    253.1   0.033482686   0.27898   0.52815  -0.00012   0.00646
  53   39781.4    251.4   0.021988787   0.18197  -0.32342  -0.27618  -0.03306
  54   39824.8    251.1   0.078955193   0.65268  -0.80466   0.04138   0.05911
  55   40033.9    249.8   0.003122825   0.02568  -0.02709  -0.02786  -0.15547
  56   40294.0    248.2   0.015328448   0.12524  -0.28966   0.18471   0.08497

FINAL SINGLE POINT ENERGY     -3805.833665674983

DIPOLE MOMENT
-------------
                                X             Y             Z
Electronic contribution:     -2.40417     -14.76810       6.73020
Nuclear contribution   :      5.90923      15.70888      -6.62968
                        -----------------------------------------
Total Dipole Moment    :      3.50506       0.94079       0.10052
                        -----------------------------------------
Magnitude (a.u.)       :      3.63051
Magnitude (Debye)      :      9.22803

Rotational constants in cm-1:     0.001778     0.000227     0.000212
Rotational constants in MHz :    53.306163     6.791279     6.353861

                             ****ORCA TERMINATED NORMALLY****
TOTAL RUN TIME: 0 days 0 hours 11 minutes 36 seconds 459 msec
