                         Program Version 4.2.0 -  RELEASE  -
|  1> # ORCA input file
|  2> # SCF done       -161.567784763360          0.000468815855
|  3> ! CAM-B3LYP def2-SVP def2/J RIJCOSX Grid4 TightSCF
|  4> %maxcore 5000
|  5> %tddft
|  6>     Mode sTDDFT
|  7>     Ethresh 5.0
|  8>     maxcore 5000
|  9> end
| 10>
| 11> %pal
| 12>   nprocs 6
| 13>   end
| 14> * xyz 0 1
| 15>    C        3.39255         2.03072         2.27067
| 16>    C        2.37569         2.35258         3.31548
| 17>    O        2.00647         3.46344         3.62561
| 18>    C        1.91161         1.04811         3.81769
| 19>    C        2.66909         0.03012         3.23636
| 20>    C        3.70175         0.62149         2.38985
| 21>    C        4.86783         0.00681         2.01736
| 22>    C        5.96152         0.68347         1.43927
| 23>    N        6.89445         1.19179         1.00503
| 24>    C        5.15694        -1.35413         2.24930
| 25>    N        5.44069        -2.45655         2.39539
| 26>    C        2.40076        -1.31367         3.52714
| 27>    C        1.38671        -1.60812         4.40093
| 28>    C        0.61402        -0.60181         5.02091
| 29>    C        0.87314         0.76892         4.72739
| 30>    C        0.09872         1.77011         5.34809
| 31>    C       -0.89163         1.42652         6.22653
| 32>    C       -1.15149         0.07793         6.51903
| 33>    C       -0.41689        -0.91438         5.93012
| 34>    C        3.77286         2.99978         1.39858
| 35>    C        4.42431         2.87021         0.14717
| 36>    C        4.46948         1.78430        -0.70706
| 37>    C        5.18863         2.06438        -1.86512
| 38>    C        5.71133         3.36541        -1.91204
| 39>    S        5.26180         4.26543        -0.51619
| 40>    C        6.46964         3.62687        -3.05286
| 41>    C        6.52553         2.52857        -3.88574
| 42>    S        5.62921         1.15581        -3.26370
| 43>    C        7.22637         2.43470        -5.11771
| 44>    C        7.29033         1.36881        -5.99270
| 45>    F        6.64281         0.21763        -5.78832
| 46>    C        8.09767         1.60271        -7.11560
| 47>    F        8.29180         0.69302        -8.07530
| 48>    C        8.67973         2.85435        -7.13519
| 49>    S        8.19422         3.74842        -5.72296
| 50>    C        9.56471         3.40537        -8.10001
| 51>    C       10.16042         4.64877        -8.05221
| 52>    C       10.99624         4.85787        -9.14870
| 53>    C       11.03702         3.77874       -10.04444
| 54>    S       10.02932         2.48161        -9.51616
| 55>    C       11.86137         3.98747       -11.14585
| 56>    C       12.47267         5.22718       -11.10509
| 57>    S       12.02548         6.13468        -9.66824
| 58>    C       13.42682         5.78666       -11.98959
| 59>    C       13.70155         5.45986       -13.27904
| 60>    C       15.01334         5.86723       -13.86445
| 61>    O       15.78122         6.67404       -13.38930
| 62>    C       15.16583         5.04532       -15.07709
| 63>    C       13.99570         4.31645       -15.29466
| 64>    C       13.01074         4.67134       -14.27650
| 65>    C       11.65527         4.51023       -14.39167
| 66>    C       10.72245         5.09712       -13.51223
| 67>    N        9.92424         5.58176       -12.84492
| 68>    C       11.02499         3.82003       -15.44782
| 69>    N       10.45861         3.25781       -16.27268
| 70>    C       13.89747         3.43093       -16.37560
| 71>    C       14.97039         3.29991       -17.21844
| 72>    C       16.16345         4.03272       -17.03472
| 73>    C       16.27706         4.93284       -15.93513
| 74>    C       17.47131         5.65945       -15.75299
| 75>    C       18.51099         5.50218       -16.62752
| 76>    C       18.40421         4.61798       -17.71317
| 77>    C       17.25781         3.89897       -17.91321
| 78>    H        2.97045        -2.10367         3.06553
| 79>    H        1.16323        -2.63955         4.63222
| 80>    H        0.30672         2.80248         5.11540
| 81>    H       -1.48307         2.19371         6.70336
| 82>    H       -1.93900        -0.17031         7.21508
| 83>    H       -0.61413        -1.95272         6.15417
| 84>    H        3.48296         4.00775         1.68040
| 85>    H        3.97284         0.85104        -0.51382
| 86>    H        6.96022         4.55722        -3.27233
| 87>    H        9.99165         5.35173        -7.25741
| 88>    H       12.04233         3.25655       -11.91254
| 89>    H       14.08409         6.53724       -11.56028
| 90>    H       13.00200         2.85310       -16.53720
| 91>    H       14.91337         2.61729       -18.05397
| 92>    H       17.54206         6.33522       -14.91540
| 93>    H       19.42525         6.05938       -16.48812
| 94>    H       19.23787         4.50945       -18.39104
| 95>    H       17.17317         3.21841       -18.74804
| 96> *
| 97>
| 98>                          ****END OF INPUT****

CARTESIAN COORDINATES (ANGSTROEM)
---------------------------------
  C      3.392550    2.030720    2.270670
  C      2.375690    2.352580    3.315480
  O      2.006470    3.463440    3.625610
  C      1.911610    1.048110    3.817690
  C      2.669090    0.030120    3.236360
  C      3.701750    0.621490    2.389850
  C      4.867830    0.006810    2.017360
  C      5.961520    0.683470    1.439270
  N      6.894450    1.191790    1.005030
  C      5.156940   -1.354130    2.249300
  N      5.440690   -2.456550    2.395390
  C      2.400760   -1.313670    3.527140
  C      1.386710   -1.608120    4.400930
  C      0.614020   -0.601810    5.020910
  C      0.873140    0.768920    4.727390
  C      0.098720    1.770110    5.348090
  C     -0.891630    1.426520    6.226530
  C     -1.151490    0.077930    6.519030
  C     -0.416890   -0.914380    5.930120
  C      3.772860    2.999780    1.398580
  C      4.424310    2.870210    0.147170
  C      4.469480    1.784300   -0.707060
  C      5.188630    2.064380   -1.865120
  C      5.711330    3.365410   -1.912040
  S      5.261800    4.265430   -0.516190
  C      6.469640    3.626870   -3.052860
  C      6.525530    2.528570   -3.885740
  S      5.629210    1.155810   -3.263700
  C      7.226370    2.434700   -5.117710
  C      7.290330    1.368810   -5.992700
  F      6.642810    0.217630   -5.788320
  C      8.097670    1.602710   -7.115600
  F      8.291800    0.693020   -8.075300
  C      8.679730    2.854350   -7.135190
  S      8.194220    3.748420   -5.722960
  C      9.564710    3.405370   -8.100010
  C     10.160420    4.648770   -8.052210
  C     10.996240    4.857870   -9.148700
  C     11.037020    3.778740  -10.044440
  S     10.029320    2.481610   -9.516160
  C     11.861370    3.987470  -11.145850
  C     12.472670    5.227180  -11.105090
  S     12.025480    6.134680   -9.668240
  C     13.426820    5.786660  -11.989590
  C     13.701550    5.459860  -13.279040
  C     15.013340    5.867230  -13.864450
  O     15.781220    6.674040  -13.389300
  C     15.165830    5.045320  -15.077090
  C     13.995700    4.316450  -15.294660
  C     13.010740    4.671340  -14.276500
  C     11.655270    4.510230  -14.391670
  C     10.722450    5.097120  -13.512230
  N      9.924240    5.581760  -12.844920
  C     11.024990    3.820030  -15.447820
  N     10.458610    3.257810  -16.272680
  C     13.897470    3.430930  -16.375600
  C     14.970390    3.299910  -17.218440
  C     16.163450    4.032720  -17.034720
  C     16.277060    4.932840  -15.935130
  C     17.471310    5.659450  -15.752990
  C     18.510990    5.502180  -16.627520
  C     18.404210    4.617980  -17.713170
  C     17.257810    3.898970  -17.913210
  H      2.970450   -2.103670    3.065530
  H      1.163230   -2.639550    4.632220
  H      0.306720    2.802480    5.115400
  H     -1.483070    2.193710    6.703360
  H     -1.939000   -0.170310    7.215080
  H     -0.614130   -1.952720    6.154170
  H      3.482960    4.007750    1.680400
  H      3.972840    0.851040   -0.513820
  H      6.960220    4.557220   -3.272330
  H      9.991650    5.351730   -7.257410
  H     12.042330    3.256550  -11.912540
  H     14.084090    6.537240  -11.560280
  H     13.002000    2.853100  -16.537200
  H     14.913370    2.617290  -18.053970
  H     17.542060    6.335220  -14.915400
  H     19.425250    6.059380  -16.488120
  H     19.237870    4.509450  -18.391040
  H     17.173170    3.218410  -18.748040

 Total Charge           Charge          ....    0
 Multiplicity           Mult            ....    1
 Number of Electrons    NEL             ....  460
 Basis Dimension        Dim             ....  992

ORBITAL ENERGIES
----------------

  NO   OCC          E(Eh)            E(eV)
   0   2.0000     -88.985467     -2421.4176
   1   2.0000     -88.970472     -2421.0096
   2   2.0000     -88.970405     -2421.0078
   3   2.0000     -88.969033     -2420.9705
   4   2.0000     -88.968760     -2420.9630
   5   2.0000     -24.811235      -675.1480
   6   2.0000     -24.811117      -675.1448
   7   2.0000     -19.217882      -522.9452
   8   2.0000     -19.217471      -522.9340
   9   2.0000     -14.415758      -392.2727
  10   2.0000     -14.415405      -392.2631
  11   2.0000     -14.414574      -392.2405
  12   2.0000     -14.414251      -392.2317
  13   2.0000     -10.382874      -282.5324
  14   2.0000     -10.382514      -282.5226
  15   2.0000     -10.368354      -282.1373
  16   2.0000     -10.368007      -282.1278
  17   2.0000     -10.345100      -281.5045
  18   2.0000     -10.344668      -281.4927
  19   2.0000     -10.342878      -281.4440
  20   2.0000     -10.342254      -281.4270
  21   2.0000     -10.334196      -281.2078
  22   2.0000     -10.334140      -281.2062
  23   2.0000     -10.332448      -281.1602
  24   2.0000     -10.332176      -281.1528
  25   2.0000     -10.319715      -280.8137
  26   2.0000     -10.319139      -280.7981
  27   2.0000     -10.318433      -280.7788
  28   2.0000     -10.318401      -280.7780
  29   2.0000     -10.318240      -280.7736
  30   2.0000     -10.318123      -280.7704
  31   2.0000     -10.315800      -280.7072
  32   2.0000     -10.315732      -280.7053
  33   2.0000     -10.315630      -280.7026
  34   2.0000     -10.315320      -280.6941
  35   2.0000     -10.310051      -280.5507
  36   2.0000     -10.310007      -280.5495
  37   2.0000     -10.309826      -280.5446
  38   2.0000     -10.309329      -280.5311
  39   2.0000     -10.302535      -280.3462
  40   2.0000     -10.302420      -280.3431
  41   2.0000     -10.298223      -280.2289
  42   2.0000     -10.298109      -280.2258
  43   2.0000     -10.297401      -280.2065
  44   2.0000     -10.297010      -280.1959
  45   2.0000     -10.296697      -280.1874
  46   2.0000     -10.296646      -280.1860
  47   2.0000     -10.296186      -280.1735
  48   2.0000     -10.295805      -280.1631
  49   2.0000     -10.295688      -280.1599
  50   2.0000     -10.295514      -280.1552
  51   2.0000     -10.295220      -280.1472
  52   2.0000     -10.295176      -280.1460
  53   2.0000     -10.291941      -280.0579
  54   2.0000     -10.291543      -280.0471
  55   2.0000     -10.284170      -279.8465
  56   2.0000     -10.283855      -279.8379
  57   2.0000     -10.283631      -279.8318
  58   2.0000     -10.283325      -279.8235
  59   2.0000     -10.281764      -279.7810
  60   2.0000     -10.281346      -279.7697
  61   2.0000     -10.277848      -279.6745
  62   2.0000     -10.277483      -279.6645
  63   2.0000      -8.080498      -219.8815
  64   2.0000      -8.065646      -219.4774
  65   2.0000      -8.065556      -219.4749
  66   2.0000      -8.064490      -219.4459
  67   2.0000      -8.064286      -219.4404
  68   2.0000      -6.050090      -164.6313
  69   2.0000      -6.046228      -164.5262
  70   2.0000      -6.041700      -164.4030
  71   2.0000      -6.035304      -164.2290
  72   2.0000      -6.035208      -164.2264
  73   2.0000      -6.033954      -164.1922
  74   2.0000      -6.033751      -164.1867
  75   2.0000      -6.031127      -164.1153
  76   2.0000      -6.031036      -164.1128
  77   2.0000      -6.029980      -164.0841
  78   2.0000      -6.029769      -164.0784
  79   2.0000      -6.026966      -164.0021
  80   2.0000      -6.026892      -164.0001
  81   2.0000      -6.026073      -163.9778
  82   2.0000      -6.025857      -163.9719
  83   2.0000      -1.330672       -36.2094
  84   2.0000      -1.319261       -35.8989
  85   2.0000      -1.132998       -30.8304
  86   2.0000      -1.132611       -30.8199
  87   2.0000      -1.028549       -27.9882
  88   2.0000      -1.023240       -27.8438
  89   2.0000      -1.019431       -27.7401
  90   2.0000      -1.017258       -27.6810
  91   2.0000      -1.010101       -27.4863
  92   2.0000      -0.999307       -27.1925
  93   2.0000      -0.998896       -27.1813
  94   2.0000      -0.993424       -27.0324
  95   2.0000      -0.993042       -27.0220
  96   2.0000      -0.971358       -26.4320
  97   2.0000      -0.969767       -26.3887
  98   2.0000      -0.963471       -26.2174
  99   2.0000      -0.956016       -26.0145
 100   2.0000      -0.922790       -25.1104
 101   2.0000      -0.922100       -25.0916
 102   2.0000      -0.905483       -24.6395
 103   2.0000      -0.903802       -24.5937
 104   2.0000      -0.893717       -24.3193
 105   2.0000      -0.887170       -24.1411
 106   2.0000      -0.879259       -23.9259
 107   2.0000      -0.874950       -23.8086
 108   2.0000      -0.866998       -23.5922
 109   2.0000      -0.859888       -23.3987
 110   2.0000      -0.853461       -23.2239
 111   2.0000      -0.851982       -23.1836
 112   2.0000      -0.840846       -22.8806
 113   2.0000      -0.838051       -22.8045
 114   2.0000      -0.820057       -22.3149
 115   2.0000      -0.814324       -22.1589
 116   2.0000      -0.807353       -21.9692
 117   2.0000      -0.798698       -21.7337
 118   2.0000      -0.782510       -21.2932
 119   2.0000      -0.774416       -21.0729
 120   2.0000      -0.769261       -20.9326
 121   2.0000      -0.756900       -20.5963
 122   2.0000      -0.732355       -19.9284
 123   2.0000      -0.717323       -19.5194
 124   2.0000      -0.714152       -19.4331
 125   2.0000      -0.713682       -19.4203
 126   2.0000      -0.707972       -19.2649
 127   2.0000      -0.706048       -19.2125
 128   2.0000      -0.695625       -18.9289
 129   2.0000      -0.685541       -18.6545
 130   2.0000      -0.680265       -18.5110
 131   2.0000      -0.675326       -18.3765
 132   2.0000      -0.673557       -18.3284
 133   2.0000      -0.660862       -17.9830
 134   2.0000      -0.658272       -17.9125
 135   2.0000      -0.648955       -17.6590
 136   2.0000      -0.647091       -17.6082
 137   2.0000      -0.646242       -17.5851
 138   2.0000      -0.636741       -17.3266
 139   2.0000      -0.629483       -17.1291
 140   2.0000      -0.628819       -17.1110
 141   2.0000      -0.608343       -16.5538
 142   2.0000      -0.606211       -16.4958
 143   2.0000      -0.599441       -16.3116
 144   2.0000      -0.596058       -16.2196
 145   2.0000      -0.595484       -16.2039
 146   2.0000      -0.588831       -16.0229
 147   2.0000      -0.588450       -16.0125
 148   2.0000      -0.587113       -15.9761
 149   2.0000      -0.586421       -15.9573
 150   2.0000      -0.582718       -15.8566
 151   2.0000      -0.579222       -15.7614
 152   2.0000      -0.567102       -15.4316
 153   2.0000      -0.565235       -15.3808
 154   2.0000      -0.562722       -15.3124
 155   2.0000      -0.559670       -15.2294
 156   2.0000      -0.545400       -14.8411
 157   2.0000      -0.538031       -14.6406
 158   2.0000      -0.537642       -14.6300
 159   2.0000      -0.536086       -14.5876
 160   2.0000      -0.528965       -14.3939
 161   2.0000      -0.528083       -14.3699
 162   2.0000      -0.527220       -14.3464
 163   2.0000      -0.523097       -14.2342
 164   2.0000      -0.522210       -14.2100
 165   2.0000      -0.519779       -14.1439
 166   2.0000      -0.514888       -14.0108
 167   2.0000      -0.513376       -13.9697
 168   2.0000      -0.512124       -13.9356
 169   2.0000      -0.507438       -13.8081
 170   2.0000      -0.506327       -13.7779
 171   2.0000      -0.504905       -13.7392
 172   2.0000      -0.501965       -13.6592
 173   2.0000      -0.500372       -13.6158
 174   2.0000      -0.497341       -13.5333
 175   2.0000      -0.496361       -13.5067
 176   2.0000      -0.489969       -13.3327
 177   2.0000      -0.486068       -13.2266
 178   2.0000      -0.484447       -13.1825
 179   2.0000      -0.481443       -13.1007
 180   2.0000      -0.479489       -13.0476
 181   2.0000      -0.478902       -13.0316
 182   2.0000      -0.476386       -12.9631
 183   2.0000      -0.474826       -12.9207
 184   2.0000      -0.472893       -12.8681
 185   2.0000      -0.469591       -12.7782
 186   2.0000      -0.462320       -12.5804
 187   2.0000      -0.461936       -12.5699
 188   2.0000      -0.452444       -12.3116
 189   2.0000      -0.450515       -12.2591
 190   2.0000      -0.448564       -12.2060
 191   2.0000      -0.447430       -12.1752
 192   2.0000      -0.443639       -12.0720
 193   2.0000      -0.441284       -12.0079
 194   2.0000      -0.440242       -11.9796
 195   2.0000      -0.438831       -11.9412
 196   2.0000      -0.436481       -11.8772
 197   2.0000      -0.434824       -11.8322
 198   2.0000      -0.433884       -11.8066
 199   2.0000      -0.433105       -11.7854
 200   2.0000      -0.430260       -11.7080
 201   2.0000      -0.429862       -11.6971
 202   2.0000      -0.426850       -11.6152
 203   2.0000      -0.426478       -11.6050
 204   2.0000      -0.420305       -11.4371
 205   2.0000      -0.419720       -11.4212
 206   2.0000      -0.418059       -11.3760
 207   2.0000      -0.417874       -11.3709
 208   2.0000      -0.411016       -11.1843
 209   2.0000      -0.406725       -11.0676
 210   2.0000      -0.399512       -10.8713
 211   2.0000      -0.394562       -10.7366
 212   2.0000      -0.380301       -10.3485
 213   2.0000      -0.375223       -10.2103
 214   2.0000      -0.374725       -10.1968
 215   2.0000      -0.366328        -9.9683
 216   2.0000      -0.361356        -9.8330
 217   2.0000      -0.351232        -9.5575
 218   2.0000      -0.337237        -9.1767
 219   2.0000      -0.335423        -9.1273
 220   2.0000      -0.334743        -9.1088
 221   2.0000      -0.326302        -8.8791
 222   2.0000      -0.317896        -8.6504
 223   2.0000      -0.312451        -8.5022
 224   2.0000      -0.304638        -8.2896
 225   2.0000      -0.304596        -8.2885
 226   2.0000      -0.294691        -8.0189
 227   2.0000      -0.293982        -7.9997
 228   2.0000      -0.279249        -7.5988
 229   2.0000      -0.248432        -6.7602
 230   0.0000      -0.095167        -2.5896
 231   0.0000      -0.085567        -2.3284
 232   0.0000      -0.074159        -2.0180
 233   0.0000      -0.068402        -1.8613
 234   0.0000      -0.042932        -1.1682

MULLIKEN ATOMIC CHARGES
-----------------------
   0 C :   -0.119113
   1 C :    0.114822
   2 O :   -0.149067
   3 C :    0.010937
   4 C :   -0.010283
   5 C :    0.258256
   6 C :   -0.341024
   7 C :   -0.204226
   8 N :    0.180610
   9 C :   -0.176419
  10 N :    0.158387
  11 C :   -0.021009
  12 C :    0.003868
  13 C :    0.078918
  14 C :    0.035587
  15 C :   -0.023954
  16 C :    0.037432
  17 C :    0.036954
  18 C :   -0.019165
  19 C :    0.077871
  20 C :   -0.127161
  21 C :    0.020195
  22 C :   -0.039533
  23 C :    0.013874
  24 S :    0.163367
  25 C :   -0.066186
  26 C :   -0.036570
  27 S :    0.178898
  28 C :   -0.122149
  29 C :    0.192945
  30 F :   -0.165226
  31 C :    0.195739
  32 F :   -0.166374
  33 C :   -0.124700
  34 S :    0.161924
  35 C :   -0.035217
  36 C :   -0.068212
  37 C :    0.013114
  38 C :   -0.039404
  39 S :    0.179922
  40 C :    0.022859
  41 C :   -0.129178
  42 S :    0.163120
  43 C :    0.080614
  44 C :   -0.122963
  45 C :    0.117603
  46 O :   -0.153277
  47 C :    0.012949
  48 C :   -0.014912
  49 C :    0.260779
  50 C :   -0.338048
  51 C :   -0.206688
  52 N :    0.179341
  53 C :   -0.176283
  54 N :    0.158452
  55 C :   -0.019652
  56 C :    0.002898
  57 C :    0.080656
  58 C :    0.038775
  59 C :   -0.027029
  60 C :    0.038234
  61 C :    0.038075
  62 C :   -0.022947
  63 H :    0.000878
  64 H :   -0.012597
  65 H :    0.000218
  66 H :   -0.006065
  67 H :   -0.005685
  68 H :   -0.020949
  69 H :    0.023853
  70 H :    0.002548
  71 H :   -0.004753
  72 H :   -0.003586
  73 H :    0.003067
  74 H :    0.023476
  75 H :    0.000491
  76 H :   -0.011569
  77 H :    0.001028
  78 H :   -0.006734
  79 H :   -0.005532
  80 H :   -0.020094
Sum of atomic charges:    0.0000000

LOEWDIN ATOMIC CHARGES
----------------------
   0 C :   -0.089452
   1 C :    0.086799
   2 O :   -0.142122
   3 C :   -0.033425
   4 C :   -0.004739
   5 C :    0.065816
   6 C :   -0.137410
   7 C :   -0.019597
   8 N :   -0.038920
   9 C :   -0.021915
  10 N :   -0.049397
  11 C :   -0.018085
  12 C :    0.019080
  13 C :   -0.009479
  14 C :   -0.002874
  15 C :   -0.002035
  16 C :   -0.011999
  17 C :   -0.012569
  18 C :   -0.012238
  19 C :    0.043454
  20 C :   -0.176804
  21 C :   -0.028179
  22 C :   -0.199298
  23 C :   -0.181473
  24 S :    0.444156
  25 C :   -0.071297
  26 C :   -0.164732
  27 S :    0.447363
  28 C :   -0.210056
  29 C :    0.023101
  30 F :   -0.043009
  31 C :    0.023623
  32 F :   -0.043139
  33 C :   -0.210273
  34 S :    0.463959
  35 C :   -0.164536
  36 C :   -0.071935
  37 C :   -0.181556
  38 C :   -0.199468
  39 S :    0.447318
  40 C :   -0.026775
  41 C :   -0.176429
  42 S :    0.444220
  43 C :    0.043102
  44 C :   -0.090072
  45 C :    0.087543
  46 O :   -0.142740
  47 C :   -0.033267
  48 C :   -0.005027
  49 C :    0.065599
  50 C :   -0.138041
  51 C :   -0.019999
  52 N :   -0.038626
  53 C :   -0.022109
  54 N :   -0.049371
  55 C :   -0.018050
  56 C :    0.018725
  57 C :   -0.009410
  58 C :   -0.002773
  59 C :   -0.002162
  60 C :   -0.012224
  61 C :   -0.012691
  62 C :   -0.012507
  63 H :    0.039460
  64 H :    0.035653
  65 H :    0.035465
  66 H :    0.032775
  67 H :    0.032187
  68 H :    0.030334
  69 H :    0.046025
  70 H :    0.036904
  71 H :    0.031090
  72 H :    0.031192
  73 H :    0.037127
  74 H :    0.045942
  75 H :    0.039452
  76 H :    0.035809
  77 H :    0.035594
  78 H :    0.032693
  79 H :    0.032197
  80 H :    0.030523

  Mayer bond orders larger than 0.100000
B(  0-C ,  1-C ) :   0.9576 B(  0-C ,  5-C ) :   1.0259 B(  0-C , 19-C ) :   1.6912
B(  1-C ,  2-O ) :   2.1957 B(  1-C ,  3-C ) :   0.9397 B(  3-C ,  4-C ) :   1.4175
B(  3-C , 14-C ) :   1.2376 B(  4-C ,  5-C ) :   1.0017 B(  4-C , 11-C ) :   1.2598
B(  5-C ,  6-C ) :   1.6499 B(  6-C ,  7-C ) :   1.1657 B(  6-C ,  9-C ) :   1.1253
B(  7-C ,  8-N ) :   3.0134 B(  9-C , 10-N ) :   2.9962 B( 11-C , 12-C ) :   1.4704
B( 11-C , 63-H ) :   0.9860 B( 12-C , 13-C ) :   1.2222 B( 12-C , 64-H ) :   0.9946
B( 13-C , 14-C ) :   1.2422 B( 13-C , 18-C ) :   1.2413 B( 14-C , 15-C ) :   1.2738
B( 15-C , 16-C ) :   1.4757 B( 15-C , 65-H ) :   0.9871 B( 16-C , 17-C ) :   1.2548
B( 16-C , 66-H ) :   0.9875 B( 17-C , 18-C ) :   1.4952 B( 17-C , 67-H ) :   0.9894
B( 18-C , 68-H ) :   0.9979 B( 19-C , 20-C ) :   1.1196 B( 19-C , 69-H ) :   0.9277
B( 20-C , 21-C ) :   1.4695 B( 20-C , 24-S ) :   1.0876 B( 21-C , 22-C ) :   1.3133
B( 21-C , 70-H ) :   0.9912 B( 22-C , 23-C ) :   1.4054 B( 22-C , 27-S ) :   1.0511
B( 23-C , 24-S ) :   1.0888 B( 23-C , 25-C ) :   1.2654 B( 25-C , 26-C ) :   1.5016
B( 25-C , 71-H ) :   0.9969 B( 26-C , 27-S ) :   1.1126 B( 26-C , 28-C ) :   1.1752
B( 28-C , 29-C ) :   1.4594 B( 28-C , 33-C ) :   0.1218 B( 28-C , 34-S ) :   1.1029
B( 29-C , 30-F ) :   1.1555 B( 29-C , 31-C ) :   1.2116 B( 31-C , 32-F ) :   1.1530
B( 31-C , 33-C ) :   1.4608 B( 33-C , 34-S ) :   1.1033 B( 33-C , 35-C ) :   1.1751
B( 35-C , 36-C ) :   1.5001 B( 35-C , 39-S ) :   1.1131 B( 36-C , 37-C ) :   1.2659
B( 36-C , 72-H ) :   0.9971 B( 37-C , 38-C ) :   1.4031 B( 37-C , 42-S ) :   1.0899
B( 38-C , 39-S ) :   1.0500 B( 38-C , 40-C ) :   1.3172 B( 40-C , 41-C ) :   1.4652
B( 40-C , 73-H ) :   0.9900 B( 41-C , 42-S ) :   1.0884 B( 41-C , 43-C ) :   1.1252
B( 43-C , 44-C ) :   1.6882 B( 43-C , 74-H ) :   0.9274 B( 44-C , 45-C ) :   0.9568
B( 44-C , 49-C ) :   1.0287 B( 45-C , 46-O ) :   2.1909 B( 45-C , 47-C ) :   0.9388
B( 47-C , 48-C ) :   1.4174 B( 47-C , 58-C ) :   1.2367 B( 48-C , 49-C ) :   1.0006
B( 48-C , 55-C ) :   1.2611 B( 49-C , 50-C ) :   1.6500 B( 50-C , 51-C ) :   1.1639
B( 50-C , 53-C ) :   1.1244 B( 51-C , 52-N ) :   3.0136 B( 53-C , 54-N ) :   2.9964
B( 55-C , 56-C ) :   1.4694 B( 55-C , 75-H ) :   0.9858 B( 56-C , 57-C ) :   1.2238
B( 56-C , 76-H ) :   0.9941 B( 57-C , 58-C ) :   1.2405 B( 57-C , 62-C ) :   1.2390
B( 58-C , 59-C ) :   1.2738 B( 59-C , 60-C ) :   1.4772 B( 59-C , 77-H ) :   0.9867
B( 60-C , 61-C ) :   1.2543 B( 60-C , 78-H ) :   0.9869 B( 61-C , 62-C ) :   1.4974
B( 61-C , 79-H ) :   0.9885 B( 62-C , 80-H ) :   0.9977

-----------------------------------------------------------------------------
         ABSORPTION SPECTRUM VIA TRANSITION ELECTRIC DIPOLE MOMENTS
-----------------------------------------------------------------------------
State   Energy  Wavelength   fosc         T2         TX        TY        TZ
        (cm-1)    (nm)                  (au**2)     (au)      (au)      (au)
-----------------------------------------------------------------------------
   0   18090.3    552.8   2.104756413  38.30298  -2.93100  -1.29418   5.29503
   1   20434.9    489.4   0.011088222   0.17863  -0.22876   0.29653   0.19590
   2   23436.3    426.7   0.580338398   8.15208  -1.83698  -0.38709   2.15122
   3   25339.1    394.6   0.003648257   0.04740  -0.18701  -0.04559  -0.10172
   4   27275.7    366.6   0.007536245   0.09096  -0.20066  -0.15937  -0.15905
   5   27615.2    362.1   0.422635534   5.03841  -1.98039   0.05910   1.05497
   6   27790.3    359.8   0.003023278   0.03581  -0.12738  -0.06841  -0.12210
   7   28696.2    348.5   0.009931066   0.11393   0.24604   0.22470  -0.05394
   8   28903.5    346.0   0.053641451   0.61098   0.02666   0.72145   0.29962
   9   29720.4    336.5   0.069180422   0.76631   0.77301  -0.27103   0.30872
  10   30007.9    333.2   0.026605427   0.29188  -0.53029   0.07312   0.07301
  11   30287.4    330.2   0.088233402   0.95906  -0.19317  -0.89231  -0.35432
  12   30495.6    327.9   0.014040559   0.15157   0.03191   0.38452   0.05195
  13   30625.9    326.5   0.049934789   0.53677  -0.67039   0.04731   0.29173
  14   31377.2    318.7   0.154990621   1.62617  -0.42674  -0.33723   1.15341
  15   31942.3    313.1   0.047259628   0.48708   0.06631   0.63949   0.27153
  16   32030.0    312.2   0.212124578   2.18027  -1.45265   0.26463  -0.00763
  17   32842.1    304.5   0.555893948   5.57233   1.96243   0.10237  -1.30794
  18   32859.1    304.3   0.039809114   0.39884  -0.56153   0.21652   0.19143
  19   33283.1    300.5   0.224045609   2.21610   0.25614   1.29097   0.69561
  20   34220.1    292.2   0.016337681   0.15718   0.26996   0.25889  -0.13142
  21   34290.4    291.6   0.086209284   0.82767   0.79456  -0.17988  -0.40494
  22   34467.6    290.1   0.705465891   6.73815   2.19812   0.07980  -1.37842
  23   35323.5    283.1   0.001556813   0.01451   0.02395   0.03893   0.11145
  24   35649.7    280.5   0.011532088   0.10649   0.28369   0.00512  -0.16120
  25   36599.4    273.2   0.030691106   0.27607   0.36744  -0.20944   0.31175
  26   36918.4    270.9   0.001676642   0.01495  -0.06287  -0.09914  -0.03422
  27   37321.2    267.9   0.002330896   0.02056   0.13465  -0.04232  -0.02530
  28   37346.1    267.8   0.011336613   0.09993   0.29733  -0.04906  -0.09549
  29   37837.6    264.3   0.096515656   0.83975  -0.15035  -0.84789  -0.31340
  30   38253.7    261.4   0.073559639   0.63306  -0.63998   0.17698   0.43836
  31   38299.1    261.1   0.090991834   0.78215  -0.71156  -0.16754   0.49775
  32   38831.9    257.5   0.156639592   1.32797  -0.21955  -1.06916  -0.36969
  33   39551.2    252.8   0.008722862   0.07261   0.12290   0.20862   0.11824
  34   40123.1    249.2   0.055930500   0.45891   0.55647  -0.20611   0.32675

FINAL SINGLE POINT ENERGY     -4472.457407217112

DIPOLE MOMENT
-------------
                                X             Y             Z
Electronic contribution:     -4.17737      -1.80887      -4.03935
Nuclear contribution   :      4.17957       1.76082       4.37266
                        -----------------------------------------
Total Dipole Moment    :      0.00221      -0.04805       0.33331
                        -----------------------------------------
Magnitude (a.u.)       :      0.33676
Magnitude (Debye)      :      0.85598

Rotational constants in cm-1:     0.005059     0.000220     0.000218
Rotational constants in MHz :   151.651926     6.599981     6.540405

                             ****ORCA TERMINATED NORMALLY****
TOTAL RUN TIME: 0 days 0 hours 14 minutes 49 seconds 977 msec
