                         Program Version 4.2.0 -  RELEASE  -
|  1> # ORCA input file
|  2> # SCF done       -173.129436484340          0.000697918957
|  3> ! CAM-B3LYP def2-SVP def2/J RIJCOSX Grid4 TightSCF
|  4> %maxcore 5000
|  5> %tddft
|  6>     Mode sTDDFT
|  7>     Ethresh 5.0
|  8>     maxcore 5000
|  9> end
| 10>
| 11> %pal
| 12>   nprocs 6
| 13>   end
| 14> * xyz 0 1
| 15>    C        7.28373         0.46156         2.82414
| 16>    C        7.32954         1.73848         3.59471
| 17>    O        6.93789         2.81731         3.20822
| 18>    C        7.88981         1.37001         4.90702
| 19>    C        8.29263         0.03322         4.88460
| 20>    C        8.08417        -0.50686         3.54637
| 21>    C        8.75930        -1.56113         2.99437
| 22>    C        8.75298        -1.84376         1.61126
| 23>    N        8.82671        -2.06932         0.48838
| 24>    C        9.62299        -2.41178         3.71404
| 25>    N       10.32863        -3.13933         4.25253
| 26>    C        8.83453        -0.57076         6.02605
| 27>    C        8.97203         0.18019         7.16404
| 28>    C        8.59380         1.54014         7.21580
| 29>    C        8.03194         2.16265         6.06298
| 30>    C        7.65201         3.51884         6.12232
| 31>    C        7.82687         4.23169         7.27644
| 32>    C        8.38283         3.62465         8.41387
| 33>    C        8.75681         2.30909         8.38591
| 34>    C        6.49254         0.35212         1.72940
| 35>    C        6.00912        -0.82519         1.09821
| 36>    C        5.53027        -0.91335        -0.19428
| 37>    C        5.08991        -2.18778        -0.56125
| 38>    C        4.50577        -2.46674        -1.90348
| 39>    C        5.18728        -3.09261         0.48809
| 40>    S        5.80926        -2.34070         1.92305
| 41>    C        4.85057        -4.48647         0.53187
| 42>    C        4.31591        -5.07344         1.69729
| 43>    C        3.94282        -6.45677         1.75411
| 44>    N        3.39444        -6.94578         2.88508
| 45>    C        3.22455        -6.17246         3.90524
| 46>    C        3.59941        -4.80173         3.84894
| 47>    N        4.11403        -4.29148         2.78103
| 48>    F        3.41697        -4.00204         4.89530
| 49>    F        2.67410        -6.69316         4.99702
| 50>    C        4.13624        -7.34528         0.67449
| 51>    C        4.73625        -6.77833        -0.47199
| 52>    C        5.07622        -5.37193        -0.54177
| 53>    N        5.66816        -5.07073        -1.69997
| 54>    S        5.77262        -6.38548        -2.60137
| 55>    N        5.07827        -7.41922        -1.59136
| 56>    C        3.78252        -8.71968         0.77275
| 57>    C        4.04571        -9.73257        -0.13645
| 58>    C        3.57309       -10.98251         0.25223
| 59>    C        3.77356       -12.23200        -0.53292
| 60>    C        2.94127       -10.94228         1.49536
| 61>    S        2.93250        -9.32758         2.15137
| 62>    C        2.29050       -12.01730         2.14465
| 63>    C        1.93197       -12.11751         3.45142
| 64>    C        0.85270       -13.05862         3.86096
| 65>    O        0.42025       -13.97869         3.20102
| 66>    C        0.41097       -12.57704         5.18254
| 67>    C        1.24794       -11.54306         5.60601
| 68>    C        2.30948       -11.35512         4.62384
| 69>    C        3.54278       -10.81625         4.87058
| 70>    C        4.62279       -10.94069         3.97045
| 71>    N        5.53639       -11.08012         3.28967
| 72>    C        3.90526       -10.17913         6.07439
| 73>    N        4.25448        -9.64761         7.02980
| 74>    C        1.01672       -10.88404         6.81958
| 75>    C       -0.04476       -11.28181         7.58989
| 76>    C       -0.90046       -12.33657         7.20138
| 77>    C       -0.67840       -13.00894         5.96423
| 78>    C       -1.53883       -14.05704         5.57923
| 79>    C       -2.57712       -14.42673         6.38907
| 80>    C       -2.80008       -13.76901         7.60929
| 81>    C       -1.98186       -12.74741         8.00706
| 82>    H        9.12531        -1.60871         6.01412
| 83>    H        9.38302        -0.26996         8.05610
| 84>    H        7.22573         3.97448         5.24257
| 85>    H        7.53729         5.27097         7.32072
| 86>    H        8.51267         4.20659         9.31435
| 87>    H        9.18470         1.83959         9.25985
| 88>    H        6.12496         1.28955         1.32209
| 89>    H        5.53223        -0.07450        -0.86786
| 90>    H        4.08025        -1.55434        -2.31468
| 91>    H        3.73072        -3.22632        -1.84271
| 92>    H        5.27951        -2.82614        -2.57915
| 93>    H        4.57641        -9.54606        -1.05189
| 94>    H        4.16973       -11.99872        -1.51719
| 95>    H        2.83642       -12.77567        -0.64493
| 96>    H        4.47897       -12.88470        -0.01914
| 97>    H        1.94905       -12.82860         1.50832
| 98>    H        1.65022       -10.06976         7.13230
| 99>    H       -0.24422       -10.78123         8.52640
|100>    H       -1.35759       -14.55443         4.63950
|101>    H       -3.23524       -15.23043         6.09414
|102>    H       -3.62614       -14.07711         8.23316
|103>    H       -2.15121       -12.24032         8.94600
|104> *
|105>
|106>                          ****END OF INPUT****

CARTESIAN COORDINATES (ANGSTROEM)
---------------------------------
  C      7.283730    0.461560    2.824140
  C      7.329540    1.738480    3.594710
  O      6.937890    2.817310    3.208220
  C      7.889810    1.370010    4.907020
  C      8.292630    0.033220    4.884600
  C      8.084170   -0.506860    3.546370
  C      8.759300   -1.561130    2.994370
  C      8.752980   -1.843760    1.611260
  N      8.826710   -2.069320    0.488380
  C      9.622990   -2.411780    3.714040
  N     10.328630   -3.139330    4.252530
  C      8.834530   -0.570760    6.026050
  C      8.972030    0.180190    7.164040
  C      8.593800    1.540140    7.215800
  C      8.031940    2.162650    6.062980
  C      7.652010    3.518840    6.122320
  C      7.826870    4.231690    7.276440
  C      8.382830    3.624650    8.413870
  C      8.756810    2.309090    8.385910
  C      6.492540    0.352120    1.729400
  C      6.009120   -0.825190    1.098210
  C      5.530270   -0.913350   -0.194280
  C      5.089910   -2.187780   -0.561250
  C      4.505770   -2.466740   -1.903480
  C      5.187280   -3.092610    0.488090
  S      5.809260   -2.340700    1.923050
  C      4.850570   -4.486470    0.531870
  C      4.315910   -5.073440    1.697290
  C      3.942820   -6.456770    1.754110
  N      3.394440   -6.945780    2.885080
  C      3.224550   -6.172460    3.905240
  C      3.599410   -4.801730    3.848940
  N      4.114030   -4.291480    2.781030
  F      3.416970   -4.002040    4.895300
  F      2.674100   -6.693160    4.997020
  C      4.136240   -7.345280    0.674490
  C      4.736250   -6.778330   -0.471990
  C      5.076220   -5.371930   -0.541770
  N      5.668160   -5.070730   -1.699970
  S      5.772620   -6.385480   -2.601370
  N      5.078270   -7.419220   -1.591360
  C      3.782520   -8.719680    0.772750
  C      4.045710   -9.732570   -0.136450
  C      3.573090  -10.982510    0.252230
  C      3.773560  -12.232000   -0.532920
  C      2.941270  -10.942280    1.495360
  S      2.932500   -9.327580    2.151370
  C      2.290500  -12.017300    2.144650
  C      1.931970  -12.117510    3.451420
  C      0.852700  -13.058620    3.860960
  O      0.420250  -13.978690    3.201020
  C      0.410970  -12.577040    5.182540
  C      1.247940  -11.543060    5.606010
  C      2.309480  -11.355120    4.623840
  C      3.542780  -10.816250    4.870580
  C      4.622790  -10.940690    3.970450
  N      5.536390  -11.080120    3.289670
  C      3.905260  -10.179130    6.074390
  N      4.254480   -9.647610    7.029800
  C      1.016720  -10.884040    6.819580
  C     -0.044760  -11.281810    7.589890
  C     -0.900460  -12.336570    7.201380
  C     -0.678400  -13.008940    5.964230
  C     -1.538830  -14.057040    5.579230
  C     -2.577120  -14.426730    6.389070
  C     -2.800080  -13.769010    7.609290
  C     -1.981860  -12.747410    8.007060
  H      9.125310   -1.608710    6.014120
  H      9.383020   -0.269960    8.056100
  H      7.225730    3.974480    5.242570
  H      7.537290    5.270970    7.320720
  H      8.512670    4.206590    9.314350
  H      9.184700    1.839590    9.259850
  H      6.124960    1.289550    1.322090
  H      5.532230   -0.074500   -0.867860
  H      4.080250   -1.554340   -2.314680
  H      3.730720   -3.226320   -1.842710
  H      5.279510   -2.826140   -2.579150
  H      4.576410   -9.546060   -1.051890
  H      4.169730  -11.998720   -1.517190
  H      2.836420  -12.775670   -0.644930
  H      4.478970  -12.884700   -0.019140
  H      1.949050  -12.828600    1.508320
  H      1.650220  -10.069760    7.132300
  H     -0.244220  -10.781230    8.526400
  H     -1.357590  -14.554430    4.639500
  H     -3.235240  -15.230430    6.094140
  H     -3.626140  -14.077110    8.233160
  H     -2.151210  -12.240320    8.946000

 Total Charge           Charge          ....    0
 Multiplicity           Mult            ....    1
 Number of Electrons    NEL             ....  472
 Basis Dimension        Dim             .... 1060

ORBITAL ENERGIES
----------------

  NO   OCC          E(Eh)            E(eV)
   0   2.0000     -89.045757     -2423.0582
   1   2.0000     -88.959859     -2420.7208
   2   2.0000     -88.955838     -2420.6114
   3   2.0000     -24.820771      -675.4075
   4   2.0000     -24.817972      -675.3313
   5   2.0000     -19.214765      -522.8603
   6   2.0000     -19.211218      -522.7638
   7   2.0000     -14.460653      -393.4944
   8   2.0000     -14.458539      -393.4369
   9   2.0000     -14.452844      -393.2819
  10   2.0000     -14.452730      -393.2788
  11   2.0000     -14.411871      -392.1669
  12   2.0000     -14.409146      -392.0928
  13   2.0000     -14.408313      -392.0701
  14   2.0000     -14.405581      -391.9958
  15   2.0000     -10.438027      -284.0332
  16   2.0000     -10.435616      -283.9675
  17   2.0000     -10.365760      -282.0667
  18   2.0000     -10.362225      -281.9705
  19   2.0000     -10.350229      -281.6441
  20   2.0000     -10.349362      -281.6205
  21   2.0000     -10.343929      -281.4726
  22   2.0000     -10.343422      -281.4588
  23   2.0000     -10.341345      -281.4023
  24   2.0000     -10.337636      -281.3014
  25   2.0000     -10.336986      -281.2837
  26   2.0000     -10.333786      -281.1966
  27   2.0000     -10.320393      -280.8322
  28   2.0000     -10.320045      -280.8227
  29   2.0000     -10.314499      -280.6718
  30   2.0000     -10.314418      -280.6696
  31   2.0000     -10.314106      -280.6611
  32   2.0000     -10.312963      -280.6300
  33   2.0000     -10.311841      -280.5994
  34   2.0000     -10.310521      -280.5635
  35   2.0000     -10.309891      -280.5464
  36   2.0000     -10.307981      -280.4944
  37   2.0000     -10.307600      -280.4840
  38   2.0000     -10.306554      -280.4556
  39   2.0000     -10.303644      -280.3764
  40   2.0000     -10.296285      -280.1762
  41   2.0000     -10.293976      -280.1133
  42   2.0000     -10.293642      -280.1042
  43   2.0000     -10.293099      -280.0895
  44   2.0000     -10.292561      -280.0748
  45   2.0000     -10.292461      -280.0721
  46   2.0000     -10.291954      -280.0583
  47   2.0000     -10.291211      -280.0381
  48   2.0000     -10.290649      -280.0228
  49   2.0000     -10.289836      -280.0007
  50   2.0000     -10.289145      -279.9819
  51   2.0000     -10.288617      -279.9675
  52   2.0000     -10.288599      -279.9670
  53   2.0000     -10.288536      -279.9653
  54   2.0000     -10.286768      -279.9172
  55   2.0000     -10.282226      -279.7936
  56   2.0000     -10.281382      -279.7706
  57   2.0000     -10.280864      -279.7565
  58   2.0000     -10.279965      -279.7321
  59   2.0000     -10.279400      -279.7167
  60   2.0000     -10.279034      -279.7067
  61   2.0000     -10.277515      -279.6654
  62   2.0000     -10.275068      -279.5988
  63   2.0000     -10.273348      -279.5520
  64   2.0000     -10.273061      -279.5442
  65   2.0000     -10.270322      -279.4697
  66   2.0000     -10.265054      -279.3263
  67   2.0000      -8.137041      -221.4201
  68   2.0000      -8.054333      -219.1695
  69   2.0000      -8.049459      -219.0369
  70   2.0000      -6.108033      -166.2080
  71   2.0000      -6.100239      -165.9959
  72   2.0000      -6.100028      -165.9902
  73   2.0000      -6.023693      -163.9130
  74   2.0000      -6.019383      -163.7957
  75   2.0000      -6.018923      -163.7832
  76   2.0000      -6.016467      -163.7164
  77   2.0000      -6.014425      -163.6608
  78   2.0000      -6.011576      -163.5833
  79   2.0000      -1.347845       -36.6767
  80   2.0000      -1.333711       -36.2921
  81   2.0000      -1.142943       -31.1010
  82   2.0000      -1.129622       -30.7386
  83   2.0000      -1.125804       -30.6347
  84   2.0000      -1.120003       -30.4768
  85   2.0000      -1.046421       -28.4746
  86   2.0000      -1.015920       -27.6446
  87   2.0000      -1.012902       -27.5625
  88   2.0000      -1.001009       -27.2388
  89   2.0000      -0.997869       -27.1534
  90   2.0000      -0.995366       -27.0853
  91   2.0000      -0.992777       -27.0148
  92   2.0000      -0.989060       -26.9137
  93   2.0000      -0.986456       -26.8428
  94   2.0000      -0.982848       -26.7446
  95   2.0000      -0.969681       -26.3864
  96   2.0000      -0.964684       -26.2504
  97   2.0000      -0.961974       -26.1766
  98   2.0000      -0.921110       -25.0647
  99   2.0000      -0.918095       -24.9826
 100   2.0000      -0.907965       -24.7070
 101   2.0000      -0.900502       -24.5039
 102   2.0000      -0.895675       -24.3726
 103   2.0000      -0.889444       -24.2030
 104   2.0000      -0.888029       -24.1645
 105   2.0000      -0.878241       -23.8982
 106   2.0000      -0.862814       -23.4784
 107   2.0000      -0.862273       -23.4636
 108   2.0000      -0.854097       -23.2412
 109   2.0000      -0.849594       -23.1186
 110   2.0000      -0.839244       -22.8370
 111   2.0000      -0.835592       -22.7376
 112   2.0000      -0.823249       -22.4017
 113   2.0000      -0.814251       -22.1569
 114   2.0000      -0.807730       -21.9795
 115   2.0000      -0.781486       -21.2653
 116   2.0000      -0.778657       -21.1883
 117   2.0000      -0.774060       -21.0632
 118   2.0000      -0.770190       -20.9579
 119   2.0000      -0.767076       -20.8732
 120   2.0000      -0.763685       -20.7809
 121   2.0000      -0.747625       -20.3439
 122   2.0000      -0.743491       -20.2314
 123   2.0000      -0.720762       -19.6129
 124   2.0000      -0.711070       -19.3492
 125   2.0000      -0.709187       -19.2980
 126   2.0000      -0.706030       -19.2120
 127   2.0000      -0.700935       -19.0734
 128   2.0000      -0.692277       -18.8378
 129   2.0000      -0.688207       -18.7271
 130   2.0000      -0.684850       -18.6357
 131   2.0000      -0.673626       -18.3303
 132   2.0000      -0.672574       -18.3017
 133   2.0000      -0.670229       -18.2378
 134   2.0000      -0.664749       -18.0887
 135   2.0000      -0.654212       -17.8020
 136   2.0000      -0.643107       -17.4998
 137   2.0000      -0.632900       -17.2221
 138   2.0000      -0.631843       -17.1933
 139   2.0000      -0.627235       -17.0679
 140   2.0000      -0.624497       -16.9934
 141   2.0000      -0.623243       -16.9593
 142   2.0000      -0.622135       -16.9292
 143   2.0000      -0.607784       -16.5386
 144   2.0000      -0.603908       -16.4332
 145   2.0000      -0.596774       -16.2391
 146   2.0000      -0.595085       -16.1931
 147   2.0000      -0.585894       -15.9430
 148   2.0000      -0.583891       -15.8885
 149   2.0000      -0.581269       -15.8171
 150   2.0000      -0.576890       -15.6980
 151   2.0000      -0.574686       -15.6380
 152   2.0000      -0.569897       -15.5077
 153   2.0000      -0.568800       -15.4778
 154   2.0000      -0.561056       -15.2671
 155   2.0000      -0.559410       -15.2223
 156   2.0000      -0.553849       -15.0710
 157   2.0000      -0.547372       -14.8948
 158   2.0000      -0.544376       -14.8132
 159   2.0000      -0.533759       -14.5243
 160   2.0000      -0.531596       -14.4655
 161   2.0000      -0.529238       -14.4013
 162   2.0000      -0.528742       -14.3878
 163   2.0000      -0.526975       -14.3397
 164   2.0000      -0.524614       -14.2755
 165   2.0000      -0.523263       -14.2387
 166   2.0000      -0.520284       -14.1576
 167   2.0000      -0.518138       -14.0993
 168   2.0000      -0.515245       -14.0205
 169   2.0000      -0.513000       -13.9594
 170   2.0000      -0.511145       -13.9090
 171   2.0000      -0.509548       -13.8655
 172   2.0000      -0.507307       -13.8045
 173   2.0000      -0.503331       -13.6963
 174   2.0000      -0.502029       -13.6609
 175   2.0000      -0.499826       -13.6010
 176   2.0000      -0.497800       -13.5458
 177   2.0000      -0.495404       -13.4806
 178   2.0000      -0.494489       -13.4557
 179   2.0000      -0.492095       -13.3906
 180   2.0000      -0.485585       -13.2134
 181   2.0000      -0.481485       -13.1019
 182   2.0000      -0.478929       -13.0323
 183   2.0000      -0.478087       -13.0094
 184   2.0000      -0.476147       -12.9566
 185   2.0000      -0.472585       -12.8597
 186   2.0000      -0.469705       -12.7813
 187   2.0000      -0.465786       -12.6747
 188   2.0000      -0.464919       -12.6511
 189   2.0000      -0.460471       -12.5301
 190   2.0000      -0.458271       -12.4702
 191   2.0000      -0.452522       -12.3138
 192   2.0000      -0.451812       -12.2944
 193   2.0000      -0.447944       -12.1892
 194   2.0000      -0.445217       -12.1150
 195   2.0000      -0.443286       -12.0624
 196   2.0000      -0.441387       -12.0108
 197   2.0000      -0.437410       -11.9025
 198   2.0000      -0.436919       -11.8892
 199   2.0000      -0.435300       -11.8451
 200   2.0000      -0.434114       -11.8128
 201   2.0000      -0.432637       -11.7727
 202   2.0000      -0.429956       -11.6997
 203   2.0000      -0.429670       -11.6919
 204   2.0000      -0.427475       -11.6322
 205   2.0000      -0.426999       -11.6192
 206   2.0000      -0.425500       -11.5784
 207   2.0000      -0.421992       -11.4830
 208   2.0000      -0.419777       -11.4227
 209   2.0000      -0.418441       -11.3864
 210   2.0000      -0.415722       -11.3124
 211   2.0000      -0.412971       -11.2375
 212   2.0000      -0.409339       -11.1387
 213   2.0000      -0.404600       -11.0097
 214   2.0000      -0.403234       -10.9726
 215   2.0000      -0.393820       -10.7164
 216   2.0000      -0.390057       -10.6140
 217   2.0000      -0.387102       -10.5336
 218   2.0000      -0.378658       -10.3038
 219   2.0000      -0.372839       -10.1455
 220   2.0000      -0.371243       -10.1020
 221   2.0000      -0.363176        -9.8825
 222   2.0000      -0.356903        -9.7118
 223   2.0000      -0.351155        -9.5554
 224   2.0000      -0.345294        -9.3959
 225   2.0000      -0.333703        -9.0805
 226   2.0000      -0.330229        -8.9860
 227   2.0000      -0.324054        -8.8180
 228   2.0000      -0.315346        -8.5810
 229   2.0000      -0.313688        -8.5359
 230   2.0000      -0.312929        -8.5152
 231   2.0000      -0.306468        -8.3394
 232   2.0000      -0.291028        -7.9193
 233   2.0000      -0.288990        -7.8638
 234   2.0000      -0.283890        -7.7250
 235   2.0000      -0.249400        -6.7865
 236   0.0000      -0.118205        -3.2165
 237   0.0000      -0.079892        -2.1740
 238   0.0000      -0.075093        -2.0434
 239   0.0000      -0.063236        -1.7207
 240   0.0000      -0.059741        -1.6256

MULLIKEN ATOMIC CHARGES
-----------------------
   0 C :   -0.121251
   1 C :    0.120242
   2 O :   -0.150769
   3 C :    0.008749
   4 C :   -0.007880
   5 C :    0.242636
   6 C :   -0.315796
   7 C :   -0.201213
   8 N :    0.174716
   9 C :   -0.181764
  10 N :    0.160730
  11 C :   -0.017108
  12 C :    0.004782
  13 C :    0.079853
  14 C :    0.035530
  15 C :   -0.025298
  16 C :    0.037693
  17 C :    0.037768
  18 C :   -0.020706
  19 C :    0.056988
  20 C :   -0.078393
  21 C :   -0.005119
  22 C :   -0.025508
  23 C :    0.157949
  24 C :   -0.197655
  25 S :    0.187573
  26 C :    0.097978
  27 C :   -0.054537
  28 C :   -0.063849
  29 N :   -0.036542
  30 C :    0.155519
  31 C :    0.137845
  32 N :    0.006489
  33 F :   -0.135187
  34 F :   -0.132600
  35 C :    0.208416
  36 C :   -0.021309
  37 C :   -0.008805
  38 N :   -0.271353
  39 S :    0.551423
  40 N :   -0.290539
  41 C :   -0.159531
  42 C :   -0.023368
  43 C :   -0.017038
  44 C :    0.121140
  45 C :   -0.106197
  46 S :    0.163454
  47 C :    0.025799
  48 C :   -0.126384
  49 C :    0.124506
  50 O :   -0.156252
  51 C :    0.006856
  52 C :   -0.006540
  53 C :    0.242462
  54 C :   -0.314960
  55 C :   -0.198988
  56 N :    0.170515
  57 C :   -0.184105
  58 N :    0.157099
  59 C :   -0.021288
  60 C :    0.006478
  61 C :    0.076706
  62 C :    0.033622
  63 C :   -0.023772
  64 C :    0.035947
  65 C :    0.036852
  66 C :   -0.018430
  67 H :    0.003007
  68 H :   -0.012662
  69 H :   -0.000587
  70 H :   -0.007222
  71 H :   -0.006963
  72 H :   -0.021200
  73 H :    0.023079
  74 H :   -0.016688
  75 H :    0.006794
  76 H :    0.006664
  77 H :    0.042720
  78 H :   -0.011626
  79 H :    0.012664
  80 H :    0.031569
  81 H :    0.048514
  82 H :    0.012497
  83 H :    0.001621
  84 H :   -0.014789
  85 H :   -0.001599
  86 H :   -0.008196
  87 H :   -0.008285
  88 H :   -0.023590
Sum of atomic charges:   -0.0000000

LOEWDIN ATOMIC CHARGES
----------------------
   0 C :   -0.088520
   1 C :    0.087539
   2 O :   -0.143158
   3 C :   -0.033849
   4 C :   -0.002618
   5 C :    0.061740
   6 C :   -0.133909
   7 C :   -0.033851
   8 N :   -0.045073
   9 C :   -0.021064
  10 N :   -0.047824
  11 C :   -0.016727
  12 C :    0.019695
  13 C :   -0.009673
  14 C :   -0.002910
  15 C :   -0.002490
  16 C :   -0.012661
  17 C :   -0.013432
  18 C :   -0.012249
  19 C :    0.048570
  20 C :   -0.181627
  21 C :   -0.023786
  22 C :   -0.032592
  23 C :   -0.047343
  24 C :   -0.156022
  25 S :    0.500833
  26 C :   -0.041209
  27 C :   -0.011575
  28 C :   -0.012089
  29 N :   -0.052216
  30 C :    0.067995
  31 C :    0.061109
  32 N :   -0.046366
  33 F :   -0.025194
  34 F :   -0.021793
  35 C :   -0.035975
  36 C :   -0.036663
  37 C :   -0.042144
  38 N :   -0.264288
  39 S :    0.682024
  40 N :   -0.282233
  41 C :   -0.148762
  42 C :   -0.040338
  43 C :   -0.020836
  44 C :   -0.043746
  45 C :   -0.193472
  46 S :    0.503501
  47 C :    0.045537
  48 C :   -0.093197
  49 C :    0.086882
  50 O :   -0.147693
  51 C :   -0.033839
  52 C :   -0.002249
  53 C :    0.061406
  54 C :   -0.137862
  55 C :   -0.032964
  56 N :   -0.049733
  57 C :   -0.021109
  58 N :   -0.053191
  59 C :   -0.016975
  60 C :    0.017529
  61 C :   -0.010417
  62 C :   -0.003299
  63 C :   -0.002543
  64 C :   -0.013768
  65 C :   -0.014578
  66 C :   -0.012854
  67 H :    0.040086
  68 H :    0.035688
  69 H :    0.035169
  70 H :    0.032361
  71 H :    0.031740
  72 H :    0.030285
  73 H :    0.050105
  74 H :    0.032689
  75 H :    0.029602
  76 H :    0.029152
  77 H :    0.039531
  78 H :    0.028682
  79 H :    0.034378
  80 H :    0.037661
  81 H :    0.047023
  82 H :    0.046010
  83 H :    0.039695
  84 H :    0.034692
  85 H :    0.034995
  86 H :    0.031906
  87 H :    0.031237
  88 H :    0.029503

  Mayer bond orders larger than 0.100000
B(  0-C ,  1-C ) :   0.9521 B(  0-C ,  5-C ) :   1.0163 B(  0-C , 19-C ) :   1.6858
B(  1-C ,  2-O ) :   2.1986 B(  1-C ,  3-C ) :   0.9410 B(  3-C ,  4-C ) :   1.4153
B(  3-C , 14-C ) :   1.2355 B(  4-C ,  5-C ) :   1.0057 B(  4-C , 11-C ) :   1.2624
B(  5-C ,  6-C ) :   1.6690 B(  6-C ,  7-C ) :   1.1496 B(  6-C ,  9-C ) :   1.1318
B(  7-C ,  8-N ) :   3.0251 B(  9-C , 10-N ) :   3.0009 B( 11-C , 12-C ) :   1.4685
B( 11-C , 67-H ) :   0.9859 B( 12-C , 13-C ) :   1.2243 B( 12-C , 68-H ) :   0.9938
B( 13-C , 14-C ) :   1.2432 B( 13-C , 18-C ) :   1.2405 B( 14-C , 15-C ) :   1.2776
B( 15-C , 16-C ) :   1.4744 B( 15-C , 69-H ) :   0.9859 B( 16-C , 17-C ) :   1.2569
B( 16-C , 70-H ) :   0.9869 B( 17-C , 18-C ) :   1.4954 B( 17-C , 71-H ) :   0.9886
B( 18-C , 72-H ) :   0.9973 B( 19-C , 20-C ) :   1.0949 B( 19-C , 73-H ) :   0.9482
B( 20-C , 21-C ) :   1.4235 B( 20-C , 24-C ) :   0.1002 B( 20-C , 25-S ) :   1.1295
B( 21-C , 22-C ) :   1.2820 B( 21-C , 74-H ) :   1.0045 B( 22-C , 23-C ) :   1.1218
B( 22-C , 24-C ) :   1.4882 B( 23-C , 75-H ) :   0.9422 B( 23-C , 76-H ) :   0.9413
B( 23-C , 77-H ) :   0.9229 B( 24-C , 25-S ) :   1.1457 B( 24-C , 26-C ) :   1.0746
B( 26-C , 27-C ) :   1.3298 B( 26-C , 35-C ) :   0.1304 B( 26-C , 37-C ) :   1.2407
B( 27-C , 28-C ) :   1.1231 B( 27-C , 32-N ) :   1.3981 B( 28-C , 29-N ) :   1.3791
B( 28-C , 35-C ) :   1.2960 B( 29-N , 30-C ) :   1.6658 B( 30-C , 31-C ) :   1.0967
B( 30-C , 34-F ) :   1.1843 B( 31-C , 32-N ) :   1.6891 B( 31-C , 33-F ) :   1.1842
B( 35-C , 36-C ) :   1.2043 B( 35-C , 41-C ) :   1.1578 B( 36-C , 37-C ) :   1.0992
B( 36-C , 40-N ) :   1.5113 B( 37-C , 38-N ) :   1.5029 B( 38-N , 39-S ) :   1.2976
B( 38-N , 40-N ) :   0.1551 B( 39-S , 40-N ) :   1.2795 B( 41-C , 42-C ) :   1.4404
B( 41-C , 46-S ) :   1.1468 B( 42-C , 43-C ) :   1.2928 B( 42-C , 78-H ) :   0.9822
B( 43-C , 44-C ) :   1.1113 B( 43-C , 45-C ) :   1.4180 B( 44-C , 79-H ) :   0.9472
B( 44-C , 80-H ) :   0.9344 B( 44-C , 81-H ) :   0.9430 B( 45-C , 46-S ) :   1.0734
B( 45-C , 47-C ) :   1.1411 B( 47-C , 48-C ) :   1.6630 B( 47-C , 82-H ) :   0.9388
B( 48-C , 49-C ) :   0.9616 B( 48-C , 53-C ) :   1.0224 B( 49-C , 50-O ) :   2.1847
B( 49-C , 51-C ) :   0.9391 B( 51-C , 52-C ) :   1.4158 B( 51-C , 62-C ) :   1.2406
B( 52-C , 53-C ) :   1.0037 B( 52-C , 59-C ) :   1.2629 B( 53-C , 54-C ) :   1.6646
B( 54-C , 55-C ) :   1.1501 B( 54-C , 57-C ) :   1.1353 B( 55-C , 56-N ) :   3.0237
B( 57-C , 58-N ) :   2.9995 B( 59-C , 60-C ) :   1.4666 B( 59-C , 83-H ) :   0.9879
B( 60-C , 61-C ) :   1.2231 B( 60-C , 84-H ) :   0.9941 B( 61-C , 62-C ) :   1.2415
B( 61-C , 66-C ) :   1.2419 B( 62-C , 63-C ) :   1.2741 B( 63-C , 64-C ) :   1.4752
B( 63-C , 85-H ) :   0.9866 B( 64-C , 65-C ) :   1.2538 B( 64-C , 86-H ) :   0.9882
B( 65-C , 66-C ) :   1.4960 B( 65-C , 87-H ) :   0.9894 B( 66-C , 88-H ) :   0.9967

-----------------------------------------------------------------------------
         ABSORPTION SPECTRUM VIA TRANSITION ELECTRIC DIPOLE MOMENTS
-----------------------------------------------------------------------------
State   Energy  Wavelength   fosc         T2         TX        TY        TZ
        (cm-1)    (nm)                  (au**2)     (au)      (au)      (au)
-----------------------------------------------------------------------------
   0   12385.4    807.4   0.639020777  16.98556  -1.57431  -3.77178   0.52992
   1   20000.4    500.0   0.111822955   1.84063  -0.41957  -0.05168  -1.28916
   2   21078.7    474.4   0.102491965   1.60074   0.64348   0.85474  -0.67535
   3   21433.7    466.6   0.132264311   2.03152  -0.88330  -0.41558  -1.03855
   4   23358.3    428.1   0.022419714   0.31598  -0.52679  -0.14108  -0.13626
   5   24013.7    416.4   0.027931992   0.38293   0.16112  -0.25117  -0.54211
   6   24819.1    402.9   0.034142197   0.45288   0.51604   0.42754  -0.06153
   7   25164.7    397.4   0.128974652   1.68729  -0.80544  -0.76049   0.67839
   8   25372.4    394.1   0.195907618   2.54194  -0.54351  -1.40074   0.53336
   9   26115.1    382.9   0.220840545   2.78396   0.32883   0.73017   1.46379
  10   27084.9    369.2   0.036794948   0.44724   0.59205   0.30112  -0.07772
  11   28472.2    351.2   0.032243725   0.37282  -0.11228   0.47043   0.37270
  12   28623.9    349.4   0.027400986   0.31515  -0.16439  -0.18112  -0.50529
  13   29146.3    343.1   0.019806080   0.22371  -0.45945  -0.10744   0.03278
  14   29317.3    341.1   0.103356487   1.16062  -0.07095   1.02973   0.30862
  15   29421.7    339.9   0.011215002   0.12549   0.19010   0.29786  -0.02518
  16   29755.9    336.1   0.035340339   0.39100   0.28674   0.55118   0.07052
  17   30126.0    331.9   0.020193282   0.22067   0.09404   0.44126  -0.13082
  18   30584.6    327.0   0.173688304   1.86958  -1.25027  -0.13644   0.53645
  19   30618.6    326.6   0.119692186   1.28693  -0.14991   0.24454   1.09757
  20   30750.9    325.2   0.123127995   1.31818  -0.83778  -0.18533   0.76286
  21   30931.5    323.3   0.067769867   0.72129  -0.45963  -0.61372  -0.36522
  22   31151.8    321.0   0.095098466   1.00500   0.34654   0.92120   0.19056
  23   31313.1    319.4   0.036470733   0.38344   0.05759   0.52323   0.32612
  24   32035.0    312.2   0.025168911   0.25865  -0.04270   0.48162  -0.15772
  25   32154.1    311.0   0.092957353   0.95175  -0.25333  -0.93382  -0.12474
  26   32272.7    309.9   0.153892463   1.56985   0.91656  -0.39945   0.75512
  27   32371.0    308.9   0.072668614   0.73904  -0.25958   0.76796  -0.28616
  28   32931.1    303.7   0.254380314   2.54303  -0.57075  -0.94121  -1.15386
  29   33466.3    298.8   0.432749155   4.25700   0.19083  -1.07590  -1.75015
  30   33856.7    295.4   0.505265855   4.91305  -1.87836  -0.86655   0.79618
  31   34104.6    293.2   0.381367498   3.68134  -0.38495   1.02727   1.57413
  32   35079.6    285.1   0.174565176   1.63825   1.04665   0.01122  -0.73664
  33   35780.7    279.5   0.004283568   0.03941  -0.01095  -0.07769   0.18237
  34   36290.3    275.6   0.060483676   0.54869  -0.09577   0.30479   0.66830
  35   36824.5    271.6   0.129479801   1.15755  -0.22385  -1.05082   0.05676
  36   36969.4    270.5   0.053739927   0.47855   0.29822   0.62141  -0.05883
  37   37290.6    268.2   0.065103449   0.57475  -0.25897  -0.38253   0.60113
  38   37513.2    266.6   0.099235908   0.87088  -0.10421  -0.26339   0.88918
  39   37587.9    266.0   0.317181804   2.77803   0.45488  -0.36396  -1.56162
  40   37772.3    264.7   0.025955501   0.22622   0.15155   0.18942  -0.40912
  41   38024.7    263.0   0.021135562   0.18299  -0.10485  -0.04196   0.41259
  42   38139.1    262.2   0.066928245   0.57772   0.51603  -0.50779   0.23147
  43   38280.6    261.2   0.150557003   1.29478  -0.32470   0.62717   0.89219
  44   38421.4    260.3   0.114665070   0.98250   0.17680   0.15149  -0.96348
  45   38589.9    259.1   0.088463832   0.75469   0.21458  -0.41877  -0.73026
  46   38746.2    258.1   0.052471065   0.44583  -0.41468  -0.35782  -0.38188
  47   38907.5    257.0   0.003540404   0.02996   0.02422   0.11950   0.12284
  48   39035.9    256.2   0.017308650   0.14597  -0.00163  -0.38105   0.02775
  49   40176.2    248.9   0.004189110   0.03433  -0.13162   0.00641  -0.13024

FINAL SINGLE POINT ENERGY     -3973.582051201397

DIPOLE MOMENT
-------------
                                X             Y             Z
Electronic contribution:      8.83933       3.20557      -6.42601
Nuclear contribution   :    -11.45232      -2.26958       6.10371
                        -----------------------------------------
Total Dipole Moment    :     -2.61299       0.93598      -0.32230
                        -----------------------------------------
Magnitude (a.u.)       :      2.79422
Magnitude (Debye)      :      7.10233

Rotational constants in cm-1:     0.001726     0.000487     0.000411
Rotational constants in MHz :    51.745315    14.590355    12.325439

                             ****ORCA TERMINATED NORMALLY****
TOTAL RUN TIME: 0 days 0 hours 8 minutes 46 seconds 277 msec
