                         Program Version 4.2.0 -  RELEASE  -
|  1> # ORCA input file
|  2> # SCF done       -211.134531983212          0.000599970215
|  3> ! CAM-B3LYP def2-SVP def2/J RIJCOSX Grid4 TightSCF
|  4> %maxcore 5000
|  5> %tddft
|  6>     Mode sTDDFT
|  7>     Ethresh 5.0
|  8>     maxcore 5000
|  9> end
| 10>
| 11> %pal
| 12>   nprocs 6
| 13>   end
| 14> * xyz 0 1
| 15>    C        2.75235         8.11440        -0.01383
| 16>    C        2.37188         9.34293         0.73828
| 17>    O        2.48262         9.51305         1.93292
| 18>    C        1.90597        10.29046        -0.29167
| 19>    C        1.86157         9.64867        -1.53025
| 20>    C        2.21392         8.24422        -1.35212
| 21>    C        1.82737         7.21444        -2.16595
| 22>    C        1.89629         5.85974        -1.77393
| 23>    N        1.86378         4.75548        -1.46293
| 24>    C        1.21466         7.38761        -3.42290
| 25>    N        0.72557         7.47549        -4.45760
| 26>    C        1.48312        10.34537        -2.68472
| 27>    C        1.14783        11.66936        -2.57286
| 28>    C        1.16212        12.34449        -1.33223
| 29>    C        1.55264        11.64701        -0.15213
| 30>    C        1.56678        12.32652         1.08291
| 31>    C        1.20437        13.64365         1.14719
| 32>    C        0.81770        14.33541        -0.01184
| 33>    C        0.79788        13.70201        -1.22404
| 34>    C        3.58450         7.20313         0.55183
| 35>    C        4.39355         6.22288        -0.07494
| 36>    C        5.05067         5.19128         0.56665
| 37>    C        5.85217         4.41336        -0.27382
| 38>    C        6.66226         3.30542         0.25230
| 39>    C        6.03331         2.25604         0.93666
| 40>    C        6.80076         1.22410         1.46823
| 41>    C        8.17519         1.25409         1.32876
| 42>    C        8.81212         2.28939         0.66828
| 43>    C        8.05832         3.32350         0.12671
| 44>    O        8.57380         4.39284        -0.54297
| 45>    C        9.96504         4.45428        -0.74057
| 46>    O        4.67997         2.33013         1.00295
| 47>    C        3.96858         1.28170         1.61522
| 48>    C        5.82801         4.86253        -1.59147
| 49>    S        4.82910         6.26709        -1.75935
| 50>    C        6.45223         4.32336        -2.76065
| 51>    C        7.02826         3.06319        -2.83176
| 52>    C        7.63676         2.58764        -3.98980
| 53>    F        8.18128         1.35480        -3.90522
| 54>    C        7.72872         3.29033        -5.18639
| 55>    C        7.12437         4.57465        -5.14530
| 56>    C        6.48435         5.07768        -3.96484
| 57>    N        5.96363         6.28603        -4.16421
| 58>    S        6.24009         6.74172        -5.68061
| 59>    N        7.04937         5.43780        -6.15569
| 60>    C        8.31883         2.80926        -6.39908
| 61>    C        8.73476         1.53510        -6.73497
| 62>    C        9.21933         1.43178        -8.04221
| 63>    C        9.61301         0.16216        -8.67585
| 64>    C        8.75003        -0.29778        -9.69601
| 65>    C        8.96492        -1.52431       -10.30200
| 66>    C       10.03893        -2.30369        -9.89949
| 67>    C       10.89991        -1.86180        -8.92377
| 68>    C       10.70520        -0.62157        -8.30570
| 69>    O       11.66077        -0.31412        -7.38568
| 70>    C       11.85218         1.00387        -6.93293
| 71>    O        7.71854         0.53691        -9.98294
| 72>    C        6.75341         0.14233       -10.92785
| 73>    C        9.15304         2.64040        -8.73594
| 74>    S        8.52743         3.90618        -7.72113
| 75>    C        9.62883         2.85736       -10.04694
| 76>    C        9.49878         3.95703       -10.83799
| 77>    C       10.46260         4.18131       -11.94723
| 78>    O       11.18476         3.34747       -12.45106
| 79>    C       10.38705         5.62832       -12.23164
| 80>    C        9.37463         6.20202       -11.46178
| 81>    C        8.68748         5.14977       -10.71936
| 82>    C        7.40047         5.21550       -10.25584
| 83>    C        6.64051         4.07325        -9.92235
| 84>    N        5.94815         3.17629        -9.74009
| 85>    C        6.65389         6.40396       -10.14626
| 86>    N        6.01526         7.34580        -9.99136
| 87>    C        9.12274         7.57854       -11.52201
| 88>    C        9.88675         8.35107       -12.35690
| 89>    C       10.90692         7.80016       -13.16348
| 90>    C       11.17488         6.40145       -13.10654
| 91>    C       12.19456         5.85710       -13.91375
| 92>    C       12.91799         6.66566       -14.74616
| 93>    C       12.65779         8.04413       -14.80679
| 94>    C       11.67610         8.59967       -14.03319
| 95>    H        1.46848         9.85375        -3.64398
| 96>    H        0.85919        12.22513        -3.45337
| 97>    H        1.86628        11.78474         1.96611
| 98>    H        1.21289        14.16277         2.09402
| 99>    H        0.53528        15.37525         0.06193
|100>    H        0.50024        14.23213        -2.11727
|101>    H        3.71464         7.29856         1.62591
|102>    H        4.94206         4.99560         1.61826
|103>    H        6.33823         0.40217         1.98908
|104>    H        8.76599         0.45196         1.74422
|105>    H        9.88593         2.28090         0.58256
|106>    H       10.50596         4.50521         0.20949
|107>    H       10.13991         5.37040        -1.30262
|108>    H       10.32631         3.59952        -1.32141
|109>    H        4.22360         1.18668         2.67573
|110>    H        4.14497         0.32681         1.11062
|111>    H        2.91833         1.55124         1.51844
|112>    H        7.00475         2.40380        -1.98016
|113>    H        8.66088         0.69118        -6.07325
|114>    H        8.30623        -1.88122       -11.07617
|115>    H       10.20390        -3.26216       -10.36728
|116>    H       11.74747        -2.44957        -8.61173
|117>    H       11.14460         1.27077        -6.14263
|118>    H       11.77675         1.72807        -7.74791
|119>    H       12.86397         1.02562        -6.52588
|120>    H        7.18962         0.03530       -11.92627
|121>    H        6.02151         0.94857       -10.93194
|122>    H        6.26663        -0.79376       -10.63761
|123>    H       10.26606         2.07284       -10.44632
|124>    H        8.35165         8.02360       -10.91417
|125>    H        9.71156         9.41596       -12.41154
|126>    H       12.38529         4.79699       -13.85781
|127>    H       13.69759         6.24767       -15.36550
|128>    H       13.24113         8.66417       -15.47148
|129>    H       11.47331         9.66007       -14.07873
|130> *
|131>
|132>                          ****END OF INPUT****

CARTESIAN COORDINATES (ANGSTROEM)
---------------------------------
  C      2.752350    8.114400   -0.013830
  C      2.371880    9.342930    0.738280
  O      2.482620    9.513050    1.932920
  C      1.905970   10.290460   -0.291670
  C      1.861570    9.648670   -1.530250
  C      2.213920    8.244220   -1.352120
  C      1.827370    7.214440   -2.165950
  C      1.896290    5.859740   -1.773930
  N      1.863780    4.755480   -1.462930
  C      1.214660    7.387610   -3.422900
  N      0.725570    7.475490   -4.457600
  C      1.483120   10.345370   -2.684720
  C      1.147830   11.669360   -2.572860
  C      1.162120   12.344490   -1.332230
  C      1.552640   11.647010   -0.152130
  C      1.566780   12.326520    1.082910
  C      1.204370   13.643650    1.147190
  C      0.817700   14.335410   -0.011840
  C      0.797880   13.702010   -1.224040
  C      3.584500    7.203130    0.551830
  C      4.393550    6.222880   -0.074940
  C      5.050670    5.191280    0.566650
  C      5.852170    4.413360   -0.273820
  C      6.662260    3.305420    0.252300
  C      6.033310    2.256040    0.936660
  C      6.800760    1.224100    1.468230
  C      8.175190    1.254090    1.328760
  C      8.812120    2.289390    0.668280
  C      8.058320    3.323500    0.126710
  O      8.573800    4.392840   -0.542970
  C      9.965040    4.454280   -0.740570
  O      4.679970    2.330130    1.002950
  C      3.968580    1.281700    1.615220
  C      5.828010    4.862530   -1.591470
  S      4.829100    6.267090   -1.759350
  C      6.452230    4.323360   -2.760650
  C      7.028260    3.063190   -2.831760
  C      7.636760    2.587640   -3.989800
  F      8.181280    1.354800   -3.905220
  C      7.728720    3.290330   -5.186390
  C      7.124370    4.574650   -5.145300
  C      6.484350    5.077680   -3.964840
  N      5.963630    6.286030   -4.164210
  S      6.240090    6.741720   -5.680610
  N      7.049370    5.437800   -6.155690
  C      8.318830    2.809260   -6.399080
  C      8.734760    1.535100   -6.734970
  C      9.219330    1.431780   -8.042210
  C      9.613010    0.162160   -8.675850
  C      8.750030   -0.297780   -9.696010
  C      8.964920   -1.524310  -10.302000
  C     10.038930   -2.303690   -9.899490
  C     10.899910   -1.861800   -8.923770
  C     10.705200   -0.621570   -8.305700
  O     11.660770   -0.314120   -7.385680
  C     11.852180    1.003870   -6.932930
  O      7.718540    0.536910   -9.982940
  C      6.753410    0.142330  -10.927850
  C      9.153040    2.640400   -8.735940
  S      8.527430    3.906180   -7.721130
  C      9.628830    2.857360  -10.046940
  C      9.498780    3.957030  -10.837990
  C     10.462600    4.181310  -11.947230
  O     11.184760    3.347470  -12.451060
  C     10.387050    5.628320  -12.231640
  C      9.374630    6.202020  -11.461780
  C      8.687480    5.149770  -10.719360
  C      7.400470    5.215500  -10.255840
  C      6.640510    4.073250   -9.922350
  N      5.948150    3.176290   -9.740090
  C      6.653890    6.403960  -10.146260
  N      6.015260    7.345800   -9.991360
  C      9.122740    7.578540  -11.522010
  C      9.886750    8.351070  -12.356900
  C     10.906920    7.800160  -13.163480
  C     11.174880    6.401450  -13.106540
  C     12.194560    5.857100  -13.913750
  C     12.917990    6.665660  -14.746160
  C     12.657790    8.044130  -14.806790
  C     11.676100    8.599670  -14.033190
  H      1.468480    9.853750   -3.643980
  H      0.859190   12.225130   -3.453370
  H      1.866280   11.784740    1.966110
  H      1.212890   14.162770    2.094020
  H      0.535280   15.375250    0.061930
  H      0.500240   14.232130   -2.117270
  H      3.714640    7.298560    1.625910
  H      4.942060    4.995600    1.618260
  H      6.338230    0.402170    1.989080
  H      8.765990    0.451960    1.744220
  H      9.885930    2.280900    0.582560
  H     10.505960    4.505210    0.209490
  H     10.139910    5.370400   -1.302620
  H     10.326310    3.599520   -1.321410
  H      4.223600    1.186680    2.675730
  H      4.144970    0.326810    1.110620
  H      2.918330    1.551240    1.518440
  H      7.004750    2.403800   -1.980160
  H      8.660880    0.691180   -6.073250
  H      8.306230   -1.881220  -11.076170
  H     10.203900   -3.262160  -10.367280
  H     11.747470   -2.449570   -8.611730
  H     11.144600    1.270770   -6.142630
  H     11.776750    1.728070   -7.747910
  H     12.863970    1.025620   -6.525880
  H      7.189620    0.035300  -11.926270
  H      6.021510    0.948570  -10.931940
  H      6.266630   -0.793760  -10.637610
  H     10.266060    2.072840  -10.446320
  H      8.351650    8.023600  -10.914170
  H      9.711560    9.415960  -12.411540
  H     12.385290    4.796990  -13.857810
  H     13.697590    6.247670  -15.365500
  H     13.241130    8.664170  -15.471480
  H     11.473310    9.660070  -14.078730

 Total Charge           Charge          ....    0
 Multiplicity           Mult            ....    1
 Number of Electrons    NEL             ....  566
 Basis Dimension        Dim             .... 1307

ORBITAL ENERGIES
----------------

  NO   OCC          E(Eh)            E(eV)
   0   2.0000     -89.030228     -2422.6357
   1   2.0000     -88.953179     -2420.5391
   2   2.0000     -88.952984     -2420.5337
   3   2.0000     -24.796323      -674.7423
   4   2.0000     -19.251593      -523.8625
   5   2.0000     -19.248003      -523.7648
   6   2.0000     -19.234580      -523.3995
   7   2.0000     -19.233114      -523.3596
   8   2.0000     -19.209450      -522.7157
   9   2.0000     -19.206164      -522.6263
  10   2.0000     -14.445272      -393.0758
  11   2.0000     -14.443394      -393.0247
  12   2.0000     -14.408217      -392.0675
  13   2.0000     -14.407354      -392.0440
  14   2.0000     -14.403028      -391.9263
  15   2.0000     -14.402916      -391.9233
  16   2.0000     -10.377626      -282.3896
  17   2.0000     -10.360653      -281.9277
  18   2.0000     -10.357487      -281.8415
  19   2.0000     -10.338808      -281.3333
  20   2.0000     -10.338666      -281.3294
  21   2.0000     -10.335965      -281.2559
  22   2.0000     -10.334007      -281.2026
  23   2.0000     -10.332665      -281.1661
  24   2.0000     -10.332310      -281.1564
  25   2.0000     -10.331324      -281.1296
  26   2.0000     -10.329621      -281.0833
  27   2.0000     -10.327713      -281.0314
  28   2.0000     -10.327275      -281.0194
  29   2.0000     -10.325671      -280.9758
  30   2.0000     -10.322180      -280.8808
  31   2.0000     -10.313762      -280.6517
  32   2.0000     -10.312761      -280.6245
  33   2.0000     -10.311477      -280.5895
  34   2.0000     -10.310682      -280.5679
  35   2.0000     -10.310185      -280.5544
  36   2.0000     -10.309762      -280.5429
  37   2.0000     -10.309125      -280.5256
  38   2.0000     -10.308235      -280.5013
  39   2.0000     -10.306025      -280.4412
  40   2.0000     -10.305248      -280.4200
  41   2.0000     -10.304713      -280.4055
  42   2.0000     -10.302824      -280.3541
  43   2.0000     -10.302104      -280.3345
  44   2.0000     -10.300648      -280.2949
  45   2.0000     -10.298191      -280.2280
  46   2.0000     -10.294377      -280.1242
  47   2.0000     -10.293043      -280.0879
  48   2.0000     -10.290345      -280.0145
  49   2.0000     -10.289380      -279.9883
  50   2.0000     -10.289306      -279.9862
  51   2.0000     -10.288950      -279.9766
  52   2.0000     -10.288554      -279.9658
  53   2.0000     -10.288156      -279.9550
  54   2.0000     -10.288125      -279.9541
  55   2.0000     -10.287377      -279.9338
  56   2.0000     -10.286725      -279.9160
  57   2.0000     -10.286649      -279.9139
  58   2.0000     -10.285808      -279.8911
  59   2.0000     -10.284930      -279.8672
  60   2.0000     -10.284236      -279.8483
  61   2.0000     -10.281745      -279.7805
  62   2.0000     -10.280273      -279.7405
  63   2.0000     -10.279309      -279.7142
  64   2.0000     -10.278387      -279.6891
  65   2.0000     -10.277854      -279.6746
  66   2.0000     -10.277769      -279.6723
  67   2.0000     -10.277257      -279.6584
  68   2.0000     -10.276532      -279.6387
  69   2.0000     -10.276005      -279.6243
  70   2.0000     -10.275083      -279.5992
  71   2.0000     -10.272530      -279.5297
  72   2.0000     -10.271766      -279.5090
  73   2.0000     -10.270799      -279.4826
  74   2.0000     -10.268982      -279.4332
  75   2.0000     -10.268166      -279.4110
  76   2.0000     -10.267628      -279.3964
  77   2.0000     -10.264504      -279.3114
  78   2.0000     -10.252014      -278.9715
  79   2.0000     -10.248049      -278.8636
  80   2.0000      -8.121456      -220.9961
  81   2.0000      -8.047133      -218.9736
  82   2.0000      -8.047110      -218.9730
  83   2.0000      -6.092718      -165.7913
  84   2.0000      -6.084973      -165.5805
  85   2.0000      -6.083778      -165.5480
  86   2.0000      -6.016541      -163.7184
  87   2.0000      -6.016466      -163.7164
  88   2.0000      -6.012138      -163.5986
  89   2.0000      -6.012084      -163.5971
  90   2.0000      -6.009294      -163.5212
  91   2.0000      -6.009214      -163.5190
  92   2.0000      -1.309179       -35.6246
  93   2.0000      -1.155969       -31.4555
  94   2.0000      -1.153004       -31.3748
  95   2.0000      -1.139875       -31.0176
  96   2.0000      -1.137272       -30.9467
  97   2.0000      -1.131837       -30.7989
  98   2.0000      -1.124208       -30.5913
  99   2.0000      -1.120696       -30.4957
 100   2.0000      -1.011049       -27.5120
 101   2.0000      -1.010339       -27.4927
 102   2.0000      -0.999541       -27.1989
 103   2.0000      -0.995371       -27.0854
 104   2.0000      -0.990877       -26.9631
 105   2.0000      -0.990499       -26.9528
 106   2.0000      -0.983776       -26.7699
 107   2.0000      -0.983110       -26.7518
 108   2.0000      -0.977426       -26.5971
 109   2.0000      -0.966755       -26.3067
 110   2.0000      -0.961041       -26.1512
 111   2.0000      -0.959367       -26.1057
 112   2.0000      -0.949905       -25.8482
 113   2.0000      -0.936145       -25.4738
 114   2.0000      -0.916755       -24.9462
 115   2.0000      -0.915031       -24.8993
 116   2.0000      -0.902023       -24.5453
 117   2.0000      -0.896085       -24.3837
 118   2.0000      -0.891772       -24.2663
 119   2.0000      -0.884885       -24.0790
 120   2.0000      -0.874171       -23.7874
 121   2.0000      -0.872131       -23.7319
 122   2.0000      -0.863331       -23.4924
 123   2.0000      -0.862262       -23.4633
 124   2.0000      -0.852093       -23.1866
 125   2.0000      -0.848210       -23.0810
 126   2.0000      -0.846858       -23.0442
 127   2.0000      -0.836764       -22.7695
 128   2.0000      -0.836236       -22.7551
 129   2.0000      -0.832534       -22.6544
 130   2.0000      -0.823604       -22.4114
 131   2.0000      -0.814942       -22.1757
 132   2.0000      -0.811192       -22.0736
 133   2.0000      -0.796651       -21.6780
 134   2.0000      -0.793457       -21.5910
 135   2.0000      -0.774982       -21.0883
 136   2.0000      -0.773176       -21.0392
 137   2.0000      -0.771661       -20.9980
 138   2.0000      -0.764843       -20.8124
 139   2.0000      -0.763101       -20.7650
 140   2.0000      -0.761641       -20.7253
 141   2.0000      -0.748203       -20.3596
 142   2.0000      -0.744168       -20.2498
 143   2.0000      -0.720009       -19.5924
 144   2.0000      -0.716642       -19.5008
 145   2.0000      -0.708238       -19.2721
 146   2.0000      -0.706574       -19.2269
 147   2.0000      -0.703522       -19.1438
 148   2.0000      -0.702561       -19.1177
 149   2.0000      -0.698295       -19.0016
 150   2.0000      -0.690808       -18.7978
 151   2.0000      -0.686491       -18.6804
 152   2.0000      -0.671978       -18.2854
 153   2.0000      -0.668860       -18.2006
 154   2.0000      -0.667988       -18.1769
 155   2.0000      -0.667556       -18.1651
 156   2.0000      -0.663046       -18.0424
 157   2.0000      -0.651331       -17.7236
 158   2.0000      -0.648325       -17.6418
 159   2.0000      -0.639079       -17.3902
 160   2.0000      -0.636085       -17.3087
 161   2.0000      -0.631452       -17.1827
 162   2.0000      -0.623155       -16.9569
 163   2.0000      -0.621045       -16.8995
 164   2.0000      -0.620346       -16.8805
 165   2.0000      -0.615595       -16.7512
 166   2.0000      -0.610170       -16.6036
 167   2.0000      -0.603453       -16.4208
 168   2.0000      -0.596733       -16.2379
 169   2.0000      -0.592092       -16.1116
 170   2.0000      -0.590172       -16.0594
 171   2.0000      -0.588781       -16.0215
 172   2.0000      -0.582410       -15.8482
 173   2.0000      -0.581636       -15.8271
 174   2.0000      -0.581038       -15.8108
 175   2.0000      -0.580767       -15.8035
 176   2.0000      -0.578340       -15.7374
 177   2.0000      -0.576552       -15.6888
 178   2.0000      -0.572346       -15.5743
 179   2.0000      -0.568797       -15.4778
 180   2.0000      -0.562314       -15.3013
 181   2.0000      -0.558739       -15.2041
 182   2.0000      -0.558311       -15.1924
 183   2.0000      -0.554998       -15.1023
 184   2.0000      -0.553048       -15.0492
 185   2.0000      -0.549506       -14.9528
 186   2.0000      -0.548467       -14.9245
 187   2.0000      -0.545351       -14.8398
 188   2.0000      -0.543350       -14.7853
 189   2.0000      -0.539320       -14.6756
 190   2.0000      -0.537372       -14.6226
 191   2.0000      -0.532557       -14.4916
 192   2.0000      -0.529025       -14.3955
 193   2.0000      -0.527308       -14.3488
 194   2.0000      -0.526558       -14.3284
 195   2.0000      -0.523479       -14.2446
 196   2.0000      -0.521744       -14.1974
 197   2.0000      -0.519988       -14.1496
 198   2.0000      -0.518627       -14.1126
 199   2.0000      -0.513422       -13.9709
 200   2.0000      -0.511789       -13.9265
 201   2.0000      -0.507512       -13.8101
 202   2.0000      -0.505972       -13.7682
 203   2.0000      -0.503791       -13.7089
 204   2.0000      -0.500124       -13.6091
 205   2.0000      -0.499042       -13.5796
 206   2.0000      -0.498568       -13.5667
 207   2.0000      -0.496834       -13.5195
 208   2.0000      -0.493853       -13.4384
 209   2.0000      -0.492041       -13.3891
 210   2.0000      -0.489412       -13.3176
 211   2.0000      -0.488055       -13.2806
 212   2.0000      -0.484968       -13.1966
 213   2.0000      -0.484610       -13.1869
 214   2.0000      -0.483606       -13.1596
 215   2.0000      -0.481719       -13.1082
 216   2.0000      -0.477729       -12.9997
 217   2.0000      -0.475987       -12.9523
 218   2.0000      -0.472682       -12.8623
 219   2.0000      -0.470854       -12.8126
 220   2.0000      -0.469628       -12.7792
 221   2.0000      -0.468414       -12.7462
 222   2.0000      -0.464886       -12.6502
 223   2.0000      -0.463432       -12.6106
 224   2.0000      -0.461527       -12.5588
 225   2.0000      -0.454056       -12.3555
 226   2.0000      -0.452836       -12.3223
 227   2.0000      -0.450354       -12.2548
 228   2.0000      -0.448256       -12.1977
 229   2.0000      -0.446840       -12.1591
 230   2.0000      -0.443016       -12.0551
 231   2.0000      -0.442015       -12.0278
 232   2.0000      -0.439778       -11.9670
 233   2.0000      -0.438123       -11.9219
 234   2.0000      -0.433273       -11.7900
 235   2.0000      -0.432053       -11.7568
 236   2.0000      -0.431832       -11.7508
 237   2.0000      -0.431615       -11.7448
 238   2.0000      -0.430795       -11.7225
 239   2.0000      -0.429019       -11.6742
 240   2.0000      -0.425990       -11.5918
 241   2.0000      -0.424830       -11.5602
 242   2.0000      -0.424358       -11.5474
 243   2.0000      -0.424247       -11.5443
 244   2.0000      -0.423294       -11.5184
 245   2.0000      -0.422492       -11.4966
 246   2.0000      -0.416879       -11.3438
 247   2.0000      -0.416495       -11.3334
 248   2.0000      -0.415538       -11.3074
 249   2.0000      -0.414601       -11.2819
 250   2.0000      -0.411623       -11.2008
 251   2.0000      -0.410926       -11.1819
 252   2.0000      -0.403656       -10.9840
 253   2.0000      -0.401710       -10.9311
 254   2.0000      -0.400138       -10.8883
 255   2.0000      -0.394593       -10.7374
 256   2.0000      -0.392425       -10.6784
 257   2.0000      -0.389213       -10.5910
 258   2.0000      -0.388437       -10.5699
 259   2.0000      -0.386326       -10.5125
 260   2.0000      -0.382164       -10.3992
 261   2.0000      -0.371576       -10.1111
 262   2.0000      -0.369439       -10.0530
 263   2.0000      -0.365902        -9.9567
 264   2.0000      -0.357783        -9.7358
 265   2.0000      -0.352637        -9.5957
 266   2.0000      -0.349303        -9.5050
 267   2.0000      -0.335888        -9.1400
 268   2.0000      -0.330020        -8.9803
 269   2.0000      -0.327051        -8.8995
 270   2.0000      -0.323963        -8.8155
 271   2.0000      -0.321518        -8.7489
 272   2.0000      -0.315758        -8.5922
 273   2.0000      -0.311530        -8.4772
 274   2.0000      -0.305363        -8.3093
 275   2.0000      -0.292656        -7.9636
 276   2.0000      -0.290484        -7.9045
 277   2.0000      -0.288601        -7.8532
 278   2.0000      -0.286963        -7.8086
 279   2.0000      -0.286320        -7.7912
 280   2.0000      -0.275334        -7.4922
 281   2.0000      -0.270978        -7.3737
 282   2.0000      -0.245737        -6.6869
 283   0.0000      -0.096297        -2.6204
 284   0.0000      -0.074582        -2.0295
 285   0.0000      -0.066983        -1.8227
 286   0.0000      -0.056827        -1.5464
 287   0.0000      -0.049124        -1.3367

MULLIKEN ATOMIC CHARGES
-----------------------
   0 C :   -0.125062
   1 C :    0.121080
   2 O :   -0.155260
   3 C :    0.008648
   4 C :   -0.007656
   5 C :    0.243554
   6 C :   -0.308855
   7 C :   -0.202767
   8 N :    0.170795
   9 C :   -0.180898
  10 N :    0.157483
  11 C :   -0.020348
  12 C :    0.005385
  13 C :    0.079306
  14 C :    0.033155
  15 C :   -0.025272
  16 C :    0.035931
  17 C :    0.038061
  18 C :   -0.020480
  19 C :    0.054319
  20 C :   -0.065439
  21 C :    0.031496
  22 C :    0.135520
  23 C :   -0.102310
  24 C :    0.207462
  25 C :   -0.106350
  26 C :    0.047417
  27 C :   -0.104673
  28 C :    0.192940
  29 O :   -0.304931
  30 C :    0.180727
  31 O :   -0.295431
  32 C :    0.177116
  33 C :   -0.106564
  34 S :    0.165396
  35 C :    0.158174
  36 C :   -0.118374
  37 C :    0.180362
  38 F :   -0.183193
  39 C :    0.140143
  40 C :   -0.026445
  41 C :    0.012194
  42 N :   -0.307120
  43 S :    0.553094
  44 N :   -0.315904
  45 C :   -0.091842
  46 C :   -0.041934
  47 C :    0.077883
  48 C :   -0.107613
  49 C :    0.225527
  50 C :   -0.118592
  51 C :    0.056421
  52 C :   -0.037267
  53 C :    0.182023
  54 O :   -0.314488
  55 C :    0.214681
  56 O :   -0.301066
  57 C :    0.176735
  58 C :   -0.078643
  59 S :    0.156874
  60 C :    0.031695
  61 C :   -0.132442
  62 C :    0.120241
  63 O :   -0.156398
  64 C :    0.003589
  65 C :   -0.002486
  66 C :    0.244025
  67 C :   -0.314326
  68 C :   -0.178303
  69 N :    0.156706
  70 C :   -0.176032
  71 N :    0.141325
  72 C :   -0.023285
  73 C :    0.002638
  74 C :    0.078155
  75 C :    0.033918
  76 C :   -0.026525
  77 C :    0.036004
  78 C :    0.036443
  79 C :   -0.022085
  80 H :    0.001133
  81 H :   -0.014036
  82 H :   -0.001261
  83 H :   -0.008922
  84 H :   -0.008376
  85 H :   -0.023447
  86 H :    0.018947
  87 H :   -0.018951
  88 H :   -0.032500
  89 H :   -0.010098
  90 H :   -0.032171
  91 H :    0.026193
  92 H :    0.038400
  93 H :    0.023426
  94 H :    0.022266
  95 H :    0.024288
  96 H :    0.051266
  97 H :    0.007866
  98 H :   -0.005083
  99 H :   -0.034979
 100 H :   -0.014781
 101 H :   -0.028178
 102 H :    0.016948
 103 H :    0.023004
 104 H :    0.026564
 105 H :    0.017163
 106 H :    0.050097
 107 H :    0.016753
 108 H :    0.027255
 109 H :   -0.001914
 110 H :   -0.015061
 111 H :    0.000852
 112 H :   -0.008993
 113 H :   -0.008775
 114 H :   -0.022877
Sum of atomic charges:   -0.0000000

LOEWDIN ATOMIC CHARGES
----------------------
   0 C :   -0.095363
   1 C :    0.087398
   2 O :   -0.147268
   3 C :   -0.033982
   4 C :   -0.002489
   5 C :    0.061704
   6 C :   -0.135827
   7 C :   -0.035938
   8 N :   -0.045873
   9 C :   -0.020619
  10 N :   -0.050110
  11 C :   -0.017193
  12 C :    0.017406
  13 C :   -0.010391
  14 C :   -0.003312
  15 C :   -0.002791
  16 C :   -0.014137
  17 C :   -0.014909
  18 C :   -0.013037
  19 C :    0.051173
  20 C :   -0.189206
  21 C :    0.001761
  22 C :   -0.029812
  23 C :   -0.088405
  24 C :    0.069406
  25 C :   -0.093326
  26 C :    0.002451
  27 C :   -0.095854
  28 C :    0.066364
  29 O :   -0.095508
  30 C :    0.076953
  31 O :   -0.090347
  32 C :    0.078559
  33 C :   -0.139975
  34 S :    0.510572
  35 C :   -0.021446
  36 C :   -0.024912
  37 C :    0.102106
  38 F :   -0.056840
  39 C :   -0.080406
  40 C :   -0.042278
  41 C :   -0.051451
  42 N :   -0.292017
  43 S :    0.669031
  44 N :   -0.299647
  45 C :   -0.145022
  46 C :   -0.047894
  47 C :   -0.010542
  48 C :   -0.105902
  49 C :    0.074183
  50 C :   -0.097978
  51 C :   -0.000333
  52 C :   -0.066807
  53 C :    0.071088
  54 O :   -0.105487
  55 C :    0.076153
  56 O :   -0.088024
  57 C :    0.076220
  58 C :   -0.189454
  59 S :    0.517332
  60 C :    0.058094
  61 C :   -0.103857
  62 C :    0.086148
  63 O :   -0.149024
  64 C :   -0.032906
  65 C :   -0.003644
  66 C :    0.064245
  67 C :   -0.144493
  68 C :   -0.029414
  69 N :   -0.045231
  70 C :   -0.018420
  71 N :   -0.061288
  72 C :   -0.018991
  73 C :    0.014725
  74 C :   -0.010593
  75 C :   -0.003817
  76 C :   -0.002555
  77 C :   -0.014917
  78 C :   -0.015343
  79 C :   -0.014244
  80 H :    0.039554
  81 H :    0.034972
  82 H :    0.034906
  83 H :    0.031637
  84 H :    0.031138
  85 H :    0.029600
  86 H :    0.049233
  87 H :    0.033104
  88 H :    0.027726
  89 H :    0.032139
  90 H :    0.027502
  91 H :    0.016340
  92 H :    0.029775
  93 H :    0.015065
  94 H :    0.014679
  95 H :    0.016574
  96 H :    0.034803
  97 H :    0.049234
  98 H :    0.030770
  99 H :    0.026735
 100 H :    0.030443
 101 H :    0.029493
 102 H :    0.014830
 103 H :    0.018789
 104 H :    0.023863
 105 H :    0.012526
 106 H :    0.029008
 107 H :    0.013205
 108 H :    0.050365
 109 H :    0.038466
 110 H :    0.034203
 111 H :    0.035337
 112 H :    0.031564
 113 H :    0.030854
 114 H :    0.029344

  Mayer bond orders larger than 0.100000
B(  0-C ,  1-C ) :   0.9593 B(  0-C ,  5-C ) :   1.0190 B(  0-C , 19-C ) :   1.6585
B(  1-C ,  2-O ) :   2.1911 B(  1-C ,  3-C ) :   0.9393 B(  3-C ,  4-C ) :   1.4193
B(  3-C , 14-C ) :   1.2362 B(  4-C ,  5-C ) :   1.0038 B(  4-C , 11-C ) :   1.2619
B(  5-C ,  6-C ) :   1.6673 B(  6-C ,  7-C ) :   1.1434 B(  6-C ,  9-C ) :   1.1335
B(  7-C ,  8-N ) :   3.0312 B(  9-C , 10-N ) :   2.9991 B( 11-C , 12-C ) :   1.4667
B( 11-C , 80-H ) :   0.9876 B( 12-C , 13-C ) :   1.2245 B( 12-C , 81-H ) :   0.9940
B( 13-C , 14-C ) :   1.2439 B( 13-C , 18-C ) :   1.2394 B( 14-C , 15-C ) :   1.2764
B( 15-C , 16-C ) :   1.4745 B( 15-C , 82-H ) :   0.9861 B( 16-C , 17-C ) :   1.2556
B( 16-C , 83-H ) :   0.9875 B( 17-C , 18-C ) :   1.4964 B( 17-C , 84-H ) :   0.9885
B( 18-C , 85-H ) :   0.9970 B( 19-C , 20-C ) :   1.1278 B( 19-C , 86-H ) :   0.9483
B( 20-C , 21-C ) :   1.4152 B( 20-C , 34-S ) :   1.0876 B( 21-C , 22-C ) :   1.3118
B( 21-C , 87-H ) :   1.0065 B( 22-C , 23-C ) :   0.9027 B( 22-C , 33-C ) :   1.4698
B( 23-C , 24-C ) :   1.4103 B( 23-C , 28-C ) :   1.4111 B( 24-C , 25-C ) :   1.2929
B( 24-C , 31-O ) :   1.2046 B( 25-C , 26-C ) :   1.3621 B( 25-C , 88-H ) :   1.0018
B( 26-C , 27-C ) :   1.3539 B( 26-C , 89-H ) :   0.9875 B( 27-C , 28-C ) :   1.3036
B( 27-C , 90-H ) :   1.0036 B( 28-C , 29-O ) :   1.1777 B( 29-O , 30-C ) :   0.9595
B( 30-C , 91-H ) :   0.9698 B( 30-C , 92-H ) :   0.9791 B( 30-C , 93-H ) :   0.9686
B( 31-O , 32-C ) :   0.9556 B( 32-C , 94-H ) :   0.9692 B( 32-C , 95-H ) :   0.9695
B( 32-C , 96-H ) :   0.9787 B( 33-C , 34-S ) :   1.1586 B( 33-C , 35-C ) :   1.1301
B( 35-C , 36-C ) :   1.4109 B( 35-C , 39-C ) :   0.1033 B( 35-C , 41-C ) :   1.1676
B( 36-C , 37-C ) :   1.2340 B( 36-C , 97-H ) :   0.9853 B( 37-C , 38-F ) :   1.1097
B( 37-C , 39-C ) :   1.3652 B( 39-C , 40-C ) :   1.1605 B( 39-C , 45-C ) :   1.0961
B( 40-C , 41-C ) :   1.1664 B( 40-C , 44-N ) :   1.5097 B( 41-C , 42-N ) :   1.5024
B( 42-N , 43-S ) :   1.2668 B( 42-N , 44-N ) :   0.1448 B( 43-S , 44-N ) :   1.2552
B( 45-C , 46-C ) :   1.4326 B( 45-C , 59-S ) :   1.1708 B( 46-C , 47-C ) :   1.3176
B( 46-C , 98-H ) :   1.0013 B( 47-C , 48-C ) :   0.9168 B( 47-C , 58-C ) :   1.4396
B( 48-C , 49-C ) :   1.3472 B( 48-C , 53-C ) :   1.3845 B( 49-C , 50-C ) :   1.3451
B( 49-C , 56-O ) :   1.1887 B( 50-C , 51-C ) :   1.3052 B( 50-C , 99-H ) :   1.0054
B( 51-C , 52-C ) :   1.4058 B( 51-C ,100-H ) :   0.9920 B( 52-C , 53-C ) :   1.3294
B( 52-C ,101-H ) :   0.9950 B( 53-C , 54-O ) :   1.1734 B( 54-O , 55-C ) :   0.9526
B( 55-C ,102-H ) :   0.9654 B( 55-C ,103-H ) :   0.9606 B( 55-C ,104-H ) :   0.9743
B( 56-O , 57-C ) :   0.9528 B( 57-C ,105-H ) :   0.9688 B( 57-C ,106-H ) :   0.9669
B( 57-C ,107-H ) :   0.9690 B( 58-C , 59-S ) :   1.0748 B( 58-C , 60-C ) :   1.1611
B( 60-C , 61-C ) :   1.6369 B( 60-C ,108-H ) :   0.9390 B( 61-C , 62-C ) :   0.9670
B( 61-C , 66-C ) :   1.0225 B( 62-C , 63-O ) :   2.1833 B( 62-C , 64-C ) :   0.9354
B( 64-C , 65-C ) :   1.4181 B( 64-C , 75-C ) :   1.2431 B( 65-C , 66-C ) :   1.0124
B( 65-C , 72-C ) :   1.2609 B( 66-C , 67-C ) :   1.6472 B( 67-C , 68-C ) :   1.1481
B( 67-C , 70-C ) :   1.1350 B( 68-C , 69-N ) :   2.9768 B( 70-C , 71-N ) :   2.9896
B( 72-C , 73-C ) :   1.4671 B( 72-C ,109-H ) :   0.9866 B( 73-C , 74-C ) :   1.2260
B( 73-C ,110-H ) :   0.9932 B( 74-C , 75-C ) :   1.2409 B( 74-C , 79-C ) :   1.2408
B( 75-C , 76-C ) :   1.2758 B( 76-C , 77-C ) :   1.4759 B( 76-C ,111-H ) :   0.9853
B( 77-C , 78-C ) :   1.2542 B( 77-C ,112-H ) :   0.9877 B( 78-C , 79-C ) :   1.4967
B( 78-C ,113-H ) :   0.9891 B( 79-C ,114-H ) :   0.9964

-----------------------------------------------------------------------------
         ABSORPTION SPECTRUM VIA TRANSITION ELECTRIC DIPOLE MOMENTS
-----------------------------------------------------------------------------
State   Energy  Wavelength   fosc         T2         TX        TY        TZ
        (cm-1)    (nm)                  (au**2)     (au)      (au)      (au)
-----------------------------------------------------------------------------
   0   16366.1    611.0   0.903863944  18.18167   2.09019  -0.87446  -3.61221
   1   20904.4    478.4   0.298524479   4.70130  -1.19038   1.63184  -0.78830
   2   22754.0    439.5   0.075770693   1.09628  -0.02173  -0.16904  -1.03307
   3   22775.8    439.1   0.009419632   0.13616  -0.08365  -0.19298   0.30318
   4   23625.6    423.3   0.005699227   0.07942  -0.05875   0.27438   0.02607
   5   25137.0    397.8   0.089713307   1.17495  -0.50653   0.95090   0.11903
   6   25763.0    388.2   0.176285735   2.25266  -0.70679   0.96308  -0.90861
   7   25798.7    387.6   0.060281253   0.76924  -0.26592  -0.54800   0.63104
   8   26330.9    379.8   0.109078896   1.36380   1.07263  -0.46163  -0.01253
   9   26656.4    375.1   0.009882453   0.12205   0.14894   0.11804  -0.29314
  10   27088.5    369.2   0.256382027   3.11586   1.16358  -0.47884  -1.23800
  11   27314.8    366.1   0.329334275   3.96931   0.10253  -1.94335   0.42682
  12   29108.8    343.5   0.006642390   0.07512  -0.05747  -0.01483  -0.26758
  13   29179.5    342.7   0.010824494   0.12213  -0.19584   0.03536   0.28726
  14   29937.2    334.0   0.023712767   0.26076   0.28717  -0.03414  -0.42087
  15   30069.5    332.6   0.053665228   0.58755  -0.06859  -0.39283   0.65462
  16   30283.3    330.2   0.039156287   0.42567  -0.29454   0.25140   0.52509
  17   30294.8    330.1   0.035824941   0.38931   0.55524   0.28029   0.04952
  18   30611.3    326.7   0.022286104   0.23968   0.07860   0.47616   0.08228
  19   31162.9    320.9   0.023865707   0.25212   0.19711  -0.30471   0.34702
  20   31424.2    318.2   0.072057357   0.75490   0.22311  -0.23141  -0.80720
  21   31586.1    316.6   0.094387409   0.98377   0.41883  -0.67568  -0.59313
  22   31756.9    314.9   0.019268951   0.19975   0.32171  -0.05130  -0.30598
  23   31923.3    313.3   0.249101914   2.56889   0.61032  -1.18936  -0.88421
  24   31969.9    312.8   0.001667527   0.01717  -0.03948  -0.12470   0.00786
  25   32082.6    311.7   0.086559768   0.88822  -0.64252  -0.21444   0.65529
  26   32240.8    310.2   0.117317582   1.19793   0.11040   0.70005  -0.83407
  27   32806.2    304.8   0.275359550   2.76325  -1.01378  -1.11007  -0.70941
  28   33377.6    299.6   0.218409850   2.15423   1.06104  -0.64525  -0.78235
  29   33976.7    294.3   0.038600510   0.37401   0.08028  -0.16203  -0.58422
  30   34103.5    293.2   0.003620277   0.03495  -0.16334  -0.02504   0.08742
  31   34369.6    291.0   0.073819377   0.70709   0.05792  -0.80989   0.21866
  32   34405.6    290.6   0.037795968   0.36165   0.19443   0.54595   0.16060
  33   34452.9    290.3   0.239586005   2.28935   0.05574   1.22834  -0.88172
  34   34724.8    288.0   0.078092030   0.74036   0.84467  -0.04482  -0.15777
  35   34863.8    286.8   0.170784022   1.61268  -0.89665   0.58933   0.67925
  36   34990.7    285.8   0.553160304   5.20444   0.40696   2.15438  -0.63044
  37   35422.0    282.3   0.108887843   1.01200  -0.53111   0.78624   0.33428
  38   35777.9    279.5   0.045921411   0.42255   0.04434   0.55272  -0.33924
  39   35835.4    279.1   0.005421829   0.04981  -0.13884   0.14883   0.09156
  40   35955.0    278.1   0.011776637   0.10783  -0.22836   0.00211  -0.23596
  41   36067.7    277.3   0.046245121   0.42211  -0.08337   0.54297   0.34690
  42   37065.3    269.8   0.245789503   2.18309   0.48332  -0.55900  -1.27946
  43   37214.6    268.7   0.037283819   0.32982   0.05249  -0.52426   0.22851
  44   37553.2    266.3   0.044496191   0.39008   0.12341  -0.54934   0.27033
  45   38027.0    263.0   0.012093883   0.10470   0.06149   0.16358  -0.27233
  46   38094.1    262.5   0.009616691   0.08311   0.03962   0.19756  -0.20617
  47   38543.6    259.4   0.060122462   0.51352  -0.17614   0.64023  -0.26945
  48   38612.1    259.0   0.007282397   0.06209  -0.08536   0.21246   0.09831
  49   38763.5    258.0   0.061068894   0.51865  -0.03497   0.66666  -0.27018
  50   39127.0    255.6   0.002460537   0.02070   0.01216   0.12091  -0.07704
  51   39138.1    255.5   0.044177287   0.37160  -0.32318   0.08046  -0.51057
  52   39584.1    252.6   0.000571151   0.00475  -0.01850   0.05585  -0.03590
  53   39707.4    251.8   0.021263633   0.17630  -0.04831  -0.25104   0.33307
  54   40024.6    249.8   0.001438202   0.01183   0.05417  -0.09333  -0.01356
  55   40142.2    249.1   0.064039525   0.52520  -0.41892   0.50522  -0.30734

FINAL SINGLE POINT ENERGY     -4529.498752560686

DIPOLE MOMENT
-------------
                                X             Y             Z
Electronic contribution:    -21.91952      17.66509      -2.62059
Nuclear contribution   :     24.50837     -16.74498       4.11813
                        -----------------------------------------
Total Dipole Moment    :      2.58885       0.92012       1.49754
                        -----------------------------------------
Magnitude (a.u.)       :      3.12912
Magnitude (Debye)      :      7.95360

Rotational constants in cm-1:     0.001028     0.000414     0.000326
Rotational constants in MHz :    30.809092    12.404467     9.773979

                             ****ORCA TERMINATED NORMALLY****
TOTAL RUN TIME: 0 days 0 hours 20 minutes 14 seconds 774 msec
