                         Program Version 4.2.0 -  RELEASE  -
|  1> # ORCA input file
|  2> # SCF done       -175.063614077714          0.000993645444
|  3> ! CAM-B3LYP def2-SVP def2/J RIJCOSX Grid4 TightSCF
|  4> %maxcore 5000
|  5> %tddft
|  6>     Mode sTDDFT
|  7>     Ethresh 5.0
|  8>     maxcore 5000
|  9> end
| 10>
| 11> %pal
| 12>   nprocs 6
| 13>   end
| 14> * xyz 0 1
| 15>    C        2.44369        -1.44081         0.23824
| 16>    C        1.20978        -1.94302         0.90815
| 17>    O        0.31504        -1.26192         1.35794
| 18>    C        1.30907        -3.41217         0.83480
| 19>    C        2.55640        -3.77067         0.32109
| 20>    C        3.34470        -2.56406         0.09507
| 21>    C        4.71126        -2.49219         0.05254
| 22>    C        5.41297        -1.27168         0.15416
| 23>    N        6.01068        -0.30247         0.29733
| 24>    C        5.56337        -3.61350         0.01222
| 25>    N        6.30143        -4.49143        -0.03766
| 26>    C        2.89205        -5.11711         0.13203
| 27>    C        1.97128        -6.07664         0.46356
| 28>    C        0.70388        -5.74921         0.99403
| 29>    C        0.35067        -4.38190         1.18836
| 30>    C       -0.91717        -4.06009         1.71408
| 31>    C       -1.79956        -5.05382         2.03696
| 32>    C       -1.45634        -6.40245         1.84977
| 33>    C       -0.23361        -6.74356         1.34008
| 34>    C        2.49060        -0.16047        -0.21004
| 35>    C        3.30717         0.41816        -1.21267
| 36>    C        3.44885         1.77416        -1.43939
| 37>    C        4.22775         2.04099        -2.56215
| 38>    C        4.66800         0.89171        -3.23456
| 39>    S        4.12547        -0.54040        -2.44367
| 40>    C        5.40748         1.15592        -4.38450
| 41>    C        5.53714         2.51313        -4.60540
| 42>    S        4.74686         3.47206        -3.36867
| 43>    C        6.19477         3.12303        -5.72177
| 44>    C        6.23582         4.49328        -5.94838
| 45>    F        5.67189         5.33214        -5.06149
| 46>    C        6.82113         5.08227        -7.07681
| 47>    F        6.75524         6.42308        -7.15340
| 48>    C        7.43830         4.36443        -8.09350
| 49>    C        7.45137         2.96368        -7.87128
| 50>    C        6.84351         2.36235        -6.72793
| 51>    N        7.01939         1.03801        -6.83908
| 52>    N        7.67730         0.88580        -7.95353
| 53>    N        7.96411         1.97229        -8.61298
| 54>    C        8.06911        -0.40709        -8.42371
| 55>    C        7.98098         4.95399        -9.28029
| 56>    C        8.64580         4.28287       -10.28653
| 57>    C        8.99391         5.13640       -11.33135
| 58>    C        8.59110         6.46632       -11.13678
| 59>    S        7.79510         6.66457        -9.62228
| 60>    C        8.88211         7.30745       -12.20677
| 61>    C        9.52212         6.63614       -13.23206
| 62>    S        9.79417         4.94395       -12.84327
| 63>    C        9.99969         7.13568       -14.46815
| 64>    C        9.60208         8.23903       -15.15364
| 65>    C       10.49297         8.80015       -16.21063
| 66>    O       11.45487         8.24562       -16.69516
| 67>    C        9.97361        10.15318       -16.47560
| 68>    C        8.79747        10.34955       -15.75069
| 69>    C        8.45820         9.11872       -15.04150
| 70>    C        7.20534         8.77784       -14.60463
| 71>    C        6.84768         7.48043       -14.18371
| 72>    N        6.49040         6.43516       -13.87196
| 73>    C        6.09592         9.64858       -14.61762
| 74>    N        5.16185        10.31497       -14.58345
| 75>    C        8.12113        11.57505       -15.80652
| 76>    C        8.63003        12.57212       -16.59727
| 77>    C        9.80588        12.39893       -17.35991
| 78>    C       10.50873        11.16015       -17.30217
| 79>    C       11.68454        10.99285       -18.06167
| 80>    C       12.14291        12.01114       -18.85114
| 81>    C       11.45303        13.23259       -18.91414
| 82>    C       10.31163        13.42393       -18.18502
| 83>    H        3.85035        -5.39332        -0.27744
| 84>    H        2.21039        -7.12047         0.31952
| 85>    H       -1.16969        -3.02075         1.85300
| 86>    H       -2.77054        -4.80681         2.43954
| 87>    H       -2.16850        -7.17090         2.11191
| 88>    H        0.03257        -7.78074         1.19572
| 89>    H        1.72312         0.49555         0.19097
| 90>    H        3.01813         2.52316        -0.80060
| 91>    H        5.83164         0.41865        -5.03858
| 92>    H        7.64596        -1.15251        -7.75508
| 93>    H        9.15683        -0.48668        -8.42958
| 94>    H        7.70177        -0.55520        -9.43902
| 95>    H        8.84673         3.22955       -10.24706
| 96>    H        8.67195         8.36145       -12.22403
| 97>    H       10.83472         6.59866       -14.90813
| 98>    H        7.22424        11.73799       -15.23124
| 99>    H        8.12305        13.52484       -16.64863
|100>    H       12.20570        10.05029       -18.00524
|101>    H       13.04235        11.88200       -19.43429
|102>    H       11.83269        14.02269       -19.54497
|103>    H        9.77911        14.36282       -18.23200
|104> *
|105>
|106>                          ****END OF INPUT****

CARTESIAN COORDINATES (ANGSTROEM)
---------------------------------
  C      2.443690   -1.440810    0.238240
  C      1.209780   -1.943020    0.908150
  O      0.315040   -1.261920    1.357940
  C      1.309070   -3.412170    0.834800
  C      2.556400   -3.770670    0.321090
  C      3.344700   -2.564060    0.095070
  C      4.711260   -2.492190    0.052540
  C      5.412970   -1.271680    0.154160
  N      6.010680   -0.302470    0.297330
  C      5.563370   -3.613500    0.012220
  N      6.301430   -4.491430   -0.037660
  C      2.892050   -5.117110    0.132030
  C      1.971280   -6.076640    0.463560
  C      0.703880   -5.749210    0.994030
  C      0.350670   -4.381900    1.188360
  C     -0.917170   -4.060090    1.714080
  C     -1.799560   -5.053820    2.036960
  C     -1.456340   -6.402450    1.849770
  C     -0.233610   -6.743560    1.340080
  C      2.490600   -0.160470   -0.210040
  C      3.307170    0.418160   -1.212670
  C      3.448850    1.774160   -1.439390
  C      4.227750    2.040990   -2.562150
  C      4.668000    0.891710   -3.234560
  S      4.125470   -0.540400   -2.443670
  C      5.407480    1.155920   -4.384500
  C      5.537140    2.513130   -4.605400
  S      4.746860    3.472060   -3.368670
  C      6.194770    3.123030   -5.721770
  C      6.235820    4.493280   -5.948380
  F      5.671890    5.332140   -5.061490
  C      6.821130    5.082270   -7.076810
  F      6.755240    6.423080   -7.153400
  C      7.438300    4.364430   -8.093500
  C      7.451370    2.963680   -7.871280
  C      6.843510    2.362350   -6.727930
  N      7.019390    1.038010   -6.839080
  N      7.677300    0.885800   -7.953530
  N      7.964110    1.972290   -8.612980
  C      8.069110   -0.407090   -8.423710
  C      7.980980    4.953990   -9.280290
  C      8.645800    4.282870  -10.286530
  C      8.993910    5.136400  -11.331350
  C      8.591100    6.466320  -11.136780
  S      7.795100    6.664570   -9.622280
  C      8.882110    7.307450  -12.206770
  C      9.522120    6.636140  -13.232060
  S      9.794170    4.943950  -12.843270
  C      9.999690    7.135680  -14.468150
  C      9.602080    8.239030  -15.153640
  C     10.492970    8.800150  -16.210630
  O     11.454870    8.245620  -16.695160
  C      9.973610   10.153180  -16.475600
  C      8.797470   10.349550  -15.750690
  C      8.458200    9.118720  -15.041500
  C      7.205340    8.777840  -14.604630
  C      6.847680    7.480430  -14.183710
  N      6.490400    6.435160  -13.871960
  C      6.095920    9.648580  -14.617620
  N      5.161850   10.314970  -14.583450
  C      8.121130   11.575050  -15.806520
  C      8.630030   12.572120  -16.597270
  C      9.805880   12.398930  -17.359910
  C     10.508730   11.160150  -17.302170
  C     11.684540   10.992850  -18.061670
  C     12.142910   12.011140  -18.851140
  C     11.453030   13.232590  -18.914140
  C     10.311630   13.423930  -18.185020
  H      3.850350   -5.393320   -0.277440
  H      2.210390   -7.120470    0.319520
  H     -1.169690   -3.020750    1.853000
  H     -2.770540   -4.806810    2.439540
  H     -2.168500   -7.170900    2.111910
  H      0.032570   -7.780740    1.195720
  H      1.723120    0.495550    0.190970
  H      3.018130    2.523160   -0.800600
  H      5.831640    0.418650   -5.038580
  H      7.645960   -1.152510   -7.755080
  H      9.156830   -0.486680   -8.429580
  H      7.701770   -0.555200   -9.439020
  H      8.846730    3.229550  -10.247060
  H      8.671950    8.361450  -12.224030
  H     10.834720    6.598660  -14.908130
  H      7.224240   11.737990  -15.231240
  H      8.123050   13.524840  -16.648630
  H     12.205700   10.050290  -18.005240
  H     13.042350   11.882000  -19.434290
  H     11.832690   14.022690  -19.544970
  H      9.779110   14.362820  -18.232000

 Total Charge           Charge          ....    0
 Multiplicity           Mult            ....    1
 Number of Electrons    NEL             ....  486
 Basis Dimension        Dim             .... 1073

ORBITAL ENERGIES
----------------

  NO   OCC          E(Eh)            E(eV)
   0   2.0000     -88.964128     -2420.8370
   1   2.0000     -88.964126     -2420.8369
   2   2.0000     -88.963615     -2420.8230
   3   2.0000     -88.961866     -2420.7754
   4   2.0000     -24.806976      -675.0321
   5   2.0000     -24.806596      -675.0218
   6   2.0000     -19.216224      -522.9000
   7   2.0000     -19.214432      -522.8513
   8   2.0000     -14.558515      -396.1573
   9   2.0000     -14.461391      -393.5144
  10   2.0000     -14.459808      -393.4714
  11   2.0000     -14.414084      -392.2272
  12   2.0000     -14.412978      -392.1971
  13   2.0000     -14.412312      -392.1789
  14   2.0000     -14.407958      -392.0605
  15   2.0000     -10.384113      -282.5661
  16   2.0000     -10.383728      -282.5556
  17   2.0000     -10.366705      -282.0924
  18   2.0000     -10.365583      -282.0619
  19   2.0000     -10.343088      -281.4497
  20   2.0000     -10.341300      -281.4011
  21   2.0000     -10.340908      -281.3904
  22   2.0000     -10.337944      -281.3098
  23   2.0000     -10.335534      -281.2442
  24   2.0000     -10.325989      -280.9844
  25   2.0000     -10.325362      -280.9674
  26   2.0000     -10.322611      -280.8925
  27   2.0000     -10.321040      -280.8498
  28   2.0000     -10.320639      -280.8389
  29   2.0000     -10.320165      -280.8260
  30   2.0000     -10.317551      -280.7548
  31   2.0000     -10.316779      -280.7338
  32   2.0000     -10.316077      -280.7147
  33   2.0000     -10.315749      -280.7058
  34   2.0000     -10.315478      -280.6984
  35   2.0000     -10.315161      -280.6898
  36   2.0000     -10.313615      -280.6477
  37   2.0000     -10.310154      -280.5536
  38   2.0000     -10.309166      -280.5267
  39   2.0000     -10.308308      -280.5033
  40   2.0000     -10.307836      -280.4905
  41   2.0000     -10.306665      -280.4586
  42   2.0000     -10.304315      -280.3947
  43   2.0000     -10.303736      -280.3789
  44   2.0000     -10.299886      -280.2741
  45   2.0000     -10.298440      -280.2348
  46   2.0000     -10.295705      -280.1604
  47   2.0000     -10.295293      -280.1492
  48   2.0000     -10.294845      -280.1370
  49   2.0000     -10.294364      -280.1239
  50   2.0000     -10.294283      -280.1217
  51   2.0000     -10.294153      -280.1182
  52   2.0000     -10.293769      -280.1077
  53   2.0000     -10.292985      -280.0864
  54   2.0000     -10.292737      -280.0796
  55   2.0000     -10.292664      -280.0776
  56   2.0000     -10.290629      -280.0222
  57   2.0000     -10.289502      -279.9916
  58   2.0000     -10.286159      -279.9006
  59   2.0000     -10.285250      -279.8759
  60   2.0000     -10.283046      -279.8159
  61   2.0000     -10.282527      -279.8018
  62   2.0000     -10.281856      -279.7835
  63   2.0000     -10.281266      -279.7675
  64   2.0000     -10.280668      -279.7512
  65   2.0000     -10.279456      -279.7182
  66   2.0000     -10.276619      -279.6410
  67   2.0000     -10.275458      -279.6094
  68   2.0000      -8.059638      -219.3139
  69   2.0000      -8.058989      -219.2962
  70   2.0000      -8.058565      -219.2847
  71   2.0000      -8.056945      -219.2406
  72   2.0000      -6.029089      -164.0599
  73   2.0000      -6.028529      -164.0446
  74   2.0000      -6.028147      -164.0342
  75   2.0000      -6.026542      -163.9905
  76   2.0000      -6.025146      -163.9526
  77   2.0000      -6.024564      -163.9367
  78   2.0000      -6.023951      -163.9200
  79   2.0000      -6.022350      -163.8765
  80   2.0000      -6.021201      -163.8452
  81   2.0000      -6.020465      -163.8252
  82   2.0000      -6.020083      -163.8148
  83   2.0000      -6.018399      -163.7690
  84   2.0000      -1.330379       -36.2015
  85   2.0000      -1.312349       -35.7108
  86   2.0000      -1.237747       -33.6808
  87   2.0000      -1.131133       -30.7797
  88   2.0000      -1.129502       -30.7353
  89   2.0000      -1.019958       -27.7545
  90   2.0000      -1.019376       -27.7386
  91   2.0000      -1.015298       -27.6277
  92   2.0000      -1.014385       -27.6028
  93   2.0000      -1.008532       -27.4436
  94   2.0000      -1.001582       -27.2544
  95   2.0000      -0.997667       -27.1479
  96   2.0000      -0.995776       -27.0964
  97   2.0000      -0.991203       -26.9720
  98   2.0000      -0.988525       -26.8991
  99   2.0000      -0.968674       -26.3589
 100   2.0000      -0.967479       -26.3264
 101   2.0000      -0.958020       -26.0691
 102   2.0000      -0.955185       -25.9919
 103   2.0000      -0.937689       -25.5158
 104   2.0000      -0.921141       -25.0655
 105   2.0000      -0.919392       -25.0179
 106   2.0000      -0.904512       -24.6130
 107   2.0000      -0.901004       -24.5176
 108   2.0000      -0.896064       -24.3831
 109   2.0000      -0.884119       -24.0581
 110   2.0000      -0.878715       -23.9111
 111   2.0000      -0.867000       -23.5923
 112   2.0000      -0.864295       -23.5187
 113   2.0000      -0.856494       -23.3064
 114   2.0000      -0.852765       -23.2049
 115   2.0000      -0.840989       -22.8845
 116   2.0000      -0.836942       -22.7743
 117   2.0000      -0.831955       -22.6386
 118   2.0000      -0.815053       -22.1787
 119   2.0000      -0.808164       -21.9913
 120   2.0000      -0.805901       -21.9297
 121   2.0000      -0.797956       -21.7135
 122   2.0000      -0.782568       -21.2947
 123   2.0000      -0.772273       -21.0146
 124   2.0000      -0.768245       -20.9050
 125   2.0000      -0.755301       -20.5528
 126   2.0000      -0.749999       -20.4085
 127   2.0000      -0.743615       -20.2348
 128   2.0000      -0.719595       -19.5812
 129   2.0000      -0.712947       -19.4003
 130   2.0000      -0.711832       -19.3699
 131   2.0000      -0.710825       -19.3425
 132   2.0000      -0.704662       -19.1748
 133   2.0000      -0.699992       -19.0477
 134   2.0000      -0.683314       -18.5939
 135   2.0000      -0.676462       -18.4075
 136   2.0000      -0.673262       -18.3204
 137   2.0000      -0.671118       -18.2621
 138   2.0000      -0.667689       -18.1687
 139   2.0000      -0.655985       -17.8503
 140   2.0000      -0.654084       -17.7985
 141   2.0000      -0.650830       -17.7100
 142   2.0000      -0.642723       -17.4894
 143   2.0000      -0.636288       -17.3143
 144   2.0000      -0.631517       -17.1844
 145   2.0000      -0.628190       -17.0939
 146   2.0000      -0.626621       -17.0512
 147   2.0000      -0.622366       -16.9354
 148   2.0000      -0.621780       -16.9195
 149   2.0000      -0.608049       -16.5458
 150   2.0000      -0.604304       -16.4439
 151   2.0000      -0.595162       -16.1952
 152   2.0000      -0.592935       -16.1346
 153   2.0000      -0.590419       -16.0661
 154   2.0000      -0.587383       -15.9835
 155   2.0000      -0.586123       -15.9492
 156   2.0000      -0.584175       -15.8962
 157   2.0000      -0.580425       -15.7942
 158   2.0000      -0.572835       -15.5876
 159   2.0000      -0.572007       -15.5651
 160   2.0000      -0.570767       -15.5314
 161   2.0000      -0.561717       -15.2851
 162   2.0000      -0.559749       -15.2315
 163   2.0000      -0.554866       -15.0987
 164   2.0000      -0.553863       -15.0714
 165   2.0000      -0.538463       -14.6523
 166   2.0000      -0.536241       -14.5919
 167   2.0000      -0.535915       -14.5830
 168   2.0000      -0.533973       -14.5301
 169   2.0000      -0.526144       -14.3171
 170   2.0000      -0.523839       -14.2544
 171   2.0000      -0.522836       -14.2271
 172   2.0000      -0.521846       -14.2001
 173   2.0000      -0.520885       -14.1740
 174   2.0000      -0.518013       -14.0959
 175   2.0000      -0.513612       -13.9761
 176   2.0000      -0.512367       -13.9422
 177   2.0000      -0.511262       -13.9121
 178   2.0000      -0.510036       -13.8788
 179   2.0000      -0.506732       -13.7889
 180   2.0000      -0.505238       -13.7482
 181   2.0000      -0.503924       -13.7125
 182   2.0000      -0.499723       -13.5982
 183   2.0000      -0.497356       -13.5337
 184   2.0000      -0.495329       -13.4786
 185   2.0000      -0.494191       -13.4476
 186   2.0000      -0.493064       -13.4169
 187   2.0000      -0.486735       -13.2447
 188   2.0000      -0.482657       -13.1338
 189   2.0000      -0.479303       -13.0425
 190   2.0000      -0.478894       -13.0314
 191   2.0000      -0.475982       -12.9521
 192   2.0000      -0.474889       -12.9224
 193   2.0000      -0.469999       -12.7893
 194   2.0000      -0.469304       -12.7704
 195   2.0000      -0.464233       -12.6324
 196   2.0000      -0.463255       -12.6058
 197   2.0000      -0.458784       -12.4842
 198   2.0000      -0.456193       -12.4136
 199   2.0000      -0.447653       -12.1812
 200   2.0000      -0.445377       -12.1193
 201   2.0000      -0.441715       -12.0197
 202   2.0000      -0.440432       -11.9848
 203   2.0000      -0.439339       -11.9550
 204   2.0000      -0.438067       -11.9204
 205   2.0000      -0.436859       -11.8875
 206   2.0000      -0.435598       -11.8532
 207   2.0000      -0.433137       -11.7863
 208   2.0000      -0.431696       -11.7471
 209   2.0000      -0.429710       -11.6930
 210   2.0000      -0.428699       -11.6655
 211   2.0000      -0.427546       -11.6341
 212   2.0000      -0.424830       -11.5602
 213   2.0000      -0.423282       -11.5181
 214   2.0000      -0.420903       -11.4533
 215   2.0000      -0.416387       -11.3305
 216   2.0000      -0.414482       -11.2786
 217   2.0000      -0.411693       -11.2027
 218   2.0000      -0.410420       -11.1681
 219   2.0000      -0.406906       -11.0725
 220   2.0000      -0.403454       -10.9785
 221   2.0000      -0.401651       -10.9295
 222   2.0000      -0.391655       -10.6575
 223   2.0000      -0.389137       -10.5890
 224   2.0000      -0.387222       -10.5369
 225   2.0000      -0.373228       -10.1560
 226   2.0000      -0.372238       -10.1291
 227   2.0000      -0.365361        -9.9420
 228   2.0000      -0.362292        -9.8585
 229   2.0000      -0.355948        -9.6858
 230   2.0000      -0.347580        -9.4581
 231   2.0000      -0.334795        -9.1102
 232   2.0000      -0.333731        -9.0813
 233   2.0000      -0.331986        -9.0338
 234   2.0000      -0.322575        -8.7777
 235   2.0000      -0.315418        -8.5830
 236   2.0000      -0.308717        -8.4006
 237   2.0000      -0.298323        -8.1178
 238   2.0000      -0.298085        -8.1113
 239   2.0000      -0.293109        -7.9759
 240   2.0000      -0.291504        -7.9322
 241   2.0000      -0.276223        -7.5164
 242   2.0000      -0.248101        -6.7512
 243   0.0000      -0.095333        -2.5942
 244   0.0000      -0.083436        -2.2704
 245   0.0000      -0.072489        -1.9725
 246   0.0000      -0.065911        -1.7935
 247   0.0000      -0.048664        -1.3242

MULLIKEN ATOMIC CHARGES
-----------------------
   0 C :   -0.124116
   1 C :    0.123400
   2 O :   -0.152546
   3 C :    0.007449
   4 C :   -0.006963
   5 C :    0.245072
   6 C :   -0.312099
   7 C :   -0.210164
   8 N :    0.173601
   9 C :   -0.177810
  10 N :    0.155123
  11 C :   -0.018271
  12 C :    0.001834
  13 C :    0.080500
  14 C :    0.036737
  15 C :   -0.030145
  16 C :    0.041310
  17 C :    0.038112
  18 C :   -0.022940
  19 C :    0.043134
  20 C :   -0.092191
  21 C :    0.004893
  22 C :    0.002446
  23 C :    0.007027
  24 S :    0.152277
  25 C :   -0.045564
  26 C :   -0.137811
  27 S :    0.167602
  28 C :    0.109568
  29 C :    0.114797
  30 F :   -0.172884
  31 C :    0.115847
  32 F :   -0.172628
  33 C :    0.107649
  34 C :   -0.033768
  35 C :   -0.044394
  36 N :   -0.062389
  37 N :   -0.058191
  38 N :   -0.070296
  39 C :    0.143539
  40 C :   -0.134388
  41 C :   -0.047968
  42 C :    0.016938
  43 C :   -0.023880
  44 S :    0.166701
  45 C :    0.013450
  46 C :   -0.127595
  47 S :    0.160316
  48 C :    0.082981
  49 C :   -0.124483
  50 C :    0.117741
  51 O :   -0.151821
  52 C :    0.011947
  53 C :   -0.013190
  54 C :    0.261397
  55 C :   -0.341706
  56 C :   -0.203172
  57 N :    0.181916
  58 C :   -0.178625
  59 N :    0.159958
  60 C :   -0.022699
  61 C :    0.005957
  62 C :    0.078955
  63 C :    0.033871
  64 C :   -0.024893
  65 C :    0.037581
  66 C :    0.037849
  67 C :   -0.019517
  68 H :   -0.000498
  69 H :   -0.013453
  70 H :    0.000502
  71 H :   -0.008002
  72 H :   -0.006806
  73 H :   -0.021485
  74 H :    0.024726
  75 H :   -0.001084
  76 H :   -0.003407
  77 H :    0.056742
  78 H :    0.060198
  79 H :    0.058701
  80 H :   -0.004605
  81 H :    0.002103
  82 H :    0.023102
  83 H :    0.001085
  84 H :   -0.012990
  85 H :    0.000060
  86 H :   -0.006934
  87 H :   -0.006631
  88 H :   -0.021697
Sum of atomic charges:   -0.0000000

LOEWDIN ATOMIC CHARGES
----------------------
   0 C :   -0.095676
   1 C :    0.087834
   2 O :   -0.144257
   3 C :   -0.033373
   4 C :   -0.003627
   5 C :    0.061287
   6 C :   -0.137714
   7 C :   -0.036483
   8 N :   -0.045109
   9 C :   -0.020243
  10 N :   -0.051395
  11 C :   -0.017749
  12 C :    0.017905
  13 C :   -0.009924
  14 C :   -0.002925
  15 C :   -0.002383
  16 C :   -0.012648
  17 C :   -0.013601
  18 C :   -0.012958
  19 C :    0.047106
  20 C :   -0.171581
  21 C :   -0.020614
  22 C :   -0.205310
  23 C :   -0.180756
  24 S :    0.446665
  25 C :   -0.056265
  26 C :   -0.150665
  27 S :    0.444512
  28 C :   -0.062867
  29 C :    0.060884
  30 F :   -0.048240
  31 C :    0.060930
  32 F :   -0.048090
  33 C :   -0.062458
  34 C :   -0.038781
  35 C :   -0.042190
  36 N :   -0.080396
  37 N :    0.158503
  38 N :   -0.083917
  39 C :    0.034883
  40 C :   -0.151733
  41 C :   -0.055087
  42 C :   -0.184084
  43 C :   -0.199047
  44 S :    0.442484
  45 C :   -0.029461
  46 C :   -0.176553
  47 S :    0.440811
  48 C :    0.044739
  49 C :   -0.090342
  50 C :    0.087096
  51 O :   -0.143450
  52 C :   -0.033475
  53 C :   -0.004728
  54 C :    0.065911
  55 C :   -0.137156
  56 C :   -0.019554
  57 N :   -0.038932
  58 C :   -0.021802
  59 N :   -0.050120
  60 C :   -0.017973
  61 C :    0.018607
  62 C :   -0.009588
  63 C :   -0.003027
  64 C :   -0.002165
  65 C :   -0.012427
  66 C :   -0.012871
  67 C :   -0.012504
  68 H :    0.039166
  69 H :    0.035153
  70 H :    0.035460
  71 H :    0.032243
  72 H :    0.031826
  73 H :    0.030021
  74 H :    0.051429
  75 H :    0.039781
  76 H :    0.032108
  77 H :    0.044176
  78 H :    0.043712
  79 H :    0.043800
  80 H :    0.031778
  81 H :    0.036366
  82 H :    0.045946
  83 H :    0.039509
  84 H :    0.035549
  85 H :    0.035431
  86 H :    0.032508
  87 H :    0.031946
  88 H :    0.030214

  Mayer bond orders larger than 0.100000
B(  0-C ,  1-C ) :   0.9583 B(  0-C ,  5-C ) :   1.0231 B(  0-C , 19-C ) :   1.6548
B(  1-C ,  2-O ) :   2.1930 B(  1-C ,  3-C ) :   0.9387 B(  3-C ,  4-C ) :   1.4166
B(  3-C , 14-C ) :   1.2379 B(  4-C ,  5-C ) :   1.0051 B(  4-C , 11-C ) :   1.2617
B(  5-C ,  6-C ) :   1.6615 B(  6-C ,  7-C ) :   1.1465 B(  6-C ,  9-C ) :   1.1314
B(  7-C ,  8-N ) :   3.0328 B(  9-C , 10-N ) :   2.9978 B( 11-C , 12-C ) :   1.4666
B( 11-C , 68-H ) :   0.9867 B( 12-C , 13-C ) :   1.2241 B( 12-C , 69-H ) :   0.9945
B( 13-C , 14-C ) :   1.2418 B( 13-C , 18-C ) :   1.2384 B( 14-C , 15-C ) :   1.2744
B( 15-C , 16-C ) :   1.4767 B( 15-C , 70-H ) :   0.9870 B( 16-C , 17-C ) :   1.2539
B( 16-C , 71-H ) :   0.9868 B( 17-C , 18-C ) :   1.4955 B( 17-C , 72-H ) :   0.9894
B( 18-C , 73-H ) :   0.9983 B( 19-C , 20-C ) :   1.1446 B( 19-C , 74-H ) :   0.9454
B( 20-C , 21-C ) :   1.4589 B( 20-C , 24-S ) :   1.0854 B( 21-C , 22-C ) :   1.2675
B( 21-C , 75-H ) :   1.0067 B( 22-C , 23-C ) :   1.3904 B( 22-C , 27-S ) :   1.0461
B( 23-C , 24-S ) :   1.0872 B( 23-C , 25-C ) :   1.2378 B( 25-C , 26-C ) :   1.5220
B( 25-C , 76-H ) :   0.9870 B( 26-C , 27-S ) :   1.1027 B( 26-C , 28-C ) :   1.1511
B( 28-C , 29-C ) :   1.3663 B( 28-C , 33-C ) :   0.1264 B( 28-C , 35-C ) :   1.1694
B( 29-C , 30-F ) :   1.1370 B( 29-C , 31-C ) :   1.2007 B( 31-C , 32-F ) :   1.1398
B( 31-C , 33-C ) :   1.3631 B( 33-C , 34-C ) :   1.1721 B( 33-C , 40-C ) :   1.1477
B( 34-C , 35-C ) :   1.2230 B( 34-C , 38-N ) :   1.4742 B( 35-C , 36-N ) :   1.4776
B( 36-N , 37-N ) :   1.2369 B( 36-N , 38-N ) :   0.1604 B( 37-N , 38-N ) :   1.2193
B( 37-N , 39-C ) :   0.9511 B( 39-C , 77-H ) :   0.9666 B( 39-C , 78-H ) :   0.9693
B( 39-C , 79-H ) :   0.9692 B( 40-C , 41-C ) :   1.5310 B( 40-C , 44-S ) :   1.0974
B( 41-C , 42-C ) :   1.2259 B( 41-C , 80-H ) :   0.9859 B( 42-C , 43-C ) :   1.4010
B( 42-C , 47-S ) :   1.0854 B( 43-C , 44-S ) :   1.0495 B( 43-C , 45-C ) :   1.3069
B( 45-C , 46-C ) :   1.4710 B( 45-C , 81-H ) :   0.9927 B( 46-C , 47-S ) :   1.0874
B( 46-C , 48-C ) :   1.1171 B( 48-C , 49-C ) :   1.6906 B( 48-C , 82-H ) :   0.9282
B( 49-C , 50-C ) :   0.9593 B( 49-C , 54-C ) :   1.0271 B( 50-C , 51-O ) :   2.1926
B( 50-C , 52-C ) :   0.9385 B( 52-C , 53-C ) :   1.4186 B( 52-C , 63-C ) :   1.2351
B( 53-C , 54-C ) :   1.0015 B( 53-C , 60-C ) :   1.2596 B( 54-C , 55-C ) :   1.6509
B( 55-C , 56-C ) :   1.1659 B( 55-C , 58-C ) :   1.1273 B( 56-C , 57-N ) :   3.0141
B( 58-C , 59-N ) :   2.9969 B( 60-C , 61-C ) :   1.4681 B( 60-C , 83-H ) :   0.9865
B( 61-C , 62-C ) :   1.2240 B( 61-C , 84-H ) :   0.9939 B( 62-C , 63-C ) :   1.2400
B( 62-C , 67-C ) :   1.2407 B( 63-C , 64-C ) :   1.2755 B( 64-C , 65-C ) :   1.4751
B( 64-C , 85-H ) :   0.9863 B( 65-C , 66-C ) :   1.2545 B( 65-C , 86-H ) :   0.9877
B( 66-C , 67-C ) :   1.4945 B( 66-C , 87-H ) :   0.9894 B( 67-C , 88-H ) :   0.9976

-----------------------------------------------------------------------------
         ABSORPTION SPECTRUM VIA TRANSITION ELECTRIC DIPOLE MOMENTS
-----------------------------------------------------------------------------
State   Energy  Wavelength   fosc         T2         TX        TY        TZ
        (cm-1)    (nm)                  (au**2)     (au)      (au)      (au)
-----------------------------------------------------------------------------
   0   18080.0    553.1   2.236481327  40.72332  -1.67632  -3.70493   4.91800
   1   20730.3    482.4   0.080857441   1.28407  -0.80923  -0.69275   0.38641
   2   23531.4    425.0   0.453335791   6.34232  -1.27981  -0.95994   1.94497
   3   25552.7    391.3   0.026343216   0.33940   0.51026   0.24883   0.13082
   4   26751.1    373.8   0.006847869   0.08427  -0.03578  -0.24838  -0.14594
   5   27193.2    367.7   0.082981147   1.00460  -0.56030  -0.83041   0.03288
   6   27554.9    362.9   0.279191690   3.33564   1.51432   0.69917  -0.74407
   7   27673.1    361.4   0.041425919   0.49282  -0.66566   0.21984   0.03720
   8   27777.4    360.0   0.035838888   0.42476   0.31029   0.18303  -0.54312
   9   28639.5    349.2   0.130150635   1.49608  -0.33859   1.17257  -0.08077
  10   29839.6    335.1   0.010321496   0.11387   0.16027   0.05842   0.29116
  11   30307.5    330.0   0.000803783   0.00873  -0.01158  -0.05787   0.07244
  12   30418.2    328.8   0.074699919   0.80847  -0.80955  -0.30462   0.24556
  13   30653.5    326.2   0.025968193   0.27889  -0.50448   0.11916  -0.10097
  14   31205.1    320.5   0.190701125   2.01189  -0.54676   1.27936  -0.27602
  15   31997.0    312.5   0.396853968   4.08316  -1.87101   0.05742   0.76104
  16   32134.4    311.2   0.023191046   0.23759  -0.48398   0.04808   0.03224
  17   32439.9    308.3   0.014334698   0.14547  -0.18320   0.26549   0.20354
  18   32700.5    305.8   0.109179126   1.09916   0.74490   0.45218  -0.58293
  19   32848.1    304.4   0.204713282   2.05169  -0.97269  -1.04035   0.15244
  20   32930.4    303.7   0.208957386   2.08899  -0.47069  -1.10450   0.80468
  21   33324.0    300.1   0.029278541   0.28925   0.00140   0.48913  -0.22359
  22   34393.0    290.8   0.737351081   7.05797  -1.92225  -1.50900   1.04204
  23   35022.9    285.5   0.029933025   0.28137   0.23490  -0.42219   0.21897
  24   35232.4    283.8   0.060490142   0.56522   0.56841  -0.08520  -0.48464
  25   35372.6    282.7   0.106008422   0.98662  -0.01098  -0.93893  -0.32391
  26   35647.3    280.5   0.014506856   0.13397  -0.31809   0.10501   0.14754
  27   35884.2    278.7   0.102435738   0.93977   0.75177  -0.48611  -0.37191
  28   35965.0    278.0   0.008642497   0.07911   0.23038  -0.08229  -0.13880
  29   36810.7    271.7   0.008906893   0.07966   0.11043  -0.24765  -0.07832
  30   37598.4    266.0   0.131453298   1.15101   0.76786   0.74010  -0.11681
  31   37748.9    264.9   0.119512539   1.04228  -0.38860  -0.77153   0.54407
  32   38249.5    261.4   0.014731114   0.12679   0.05087   0.26343   0.23411
  33   38860.6    257.3   0.142101791   1.20383   0.07073   0.52901  -0.95863
  34   39505.1    253.1   0.005291130   0.04409  -0.10805  -0.18001  -0.00357
  35   39782.7    251.4   0.004218698   0.03491  -0.10661  -0.11157   0.10534
  36   40108.8    249.3   0.024070613   0.19757  -0.35345   0.17296   0.20671

FINAL SINGLE POINT ENERGY     -4354.422720160452

DIPOLE MOMENT
-------------
                                X             Y             Z
Electronic contribution:      4.02468      14.61740      12.63710
Nuclear contribution   :     -3.76895     -15.28522     -13.91924
                        -----------------------------------------
Total Dipole Moment    :      0.25573      -0.66782      -1.28214
                        -----------------------------------------
Magnitude (a.u.)       :      1.46808
Magnitude (Debye)      :      3.73157

Rotational constants in cm-1:     0.003763     0.000214     0.000211
Rotational constants in MHz :   112.810117     6.428891     6.328158

                             ****ORCA TERMINATED NORMALLY****
TOTAL RUN TIME: 0 days 0 hours 8 minutes 28 seconds 199 msec
