                         Program Version 4.2.0 -  RELEASE  -
|  1> # ORCA input file
|  2> # SCF done       -163.401268589121          0.000942794721
|  3> ! CAM-B3LYP def2-SVP def2/J RIJCOSX Grid4 TightSCF
|  4> %maxcore 5000
|  5> %tddft
|  6>     Mode sTDDFT
|  7>     Ethresh 5.0
|  8>     maxcore 5000
|  9> end
| 10>
| 11> %pal
| 12>   nprocs 6
| 13>   end
| 14> * xyz 0 1
| 15>    C        3.10625         1.43860         0.31099
| 16>    C        2.01098         2.30892         0.83312
| 17>    O        1.28578         3.01354         0.16719
| 18>    C        1.99261         2.06600         2.28575
| 19>    C        3.07377         1.25567         2.63820
| 20>    C        3.87858         0.98842         1.45171
| 21>    C        5.20758         0.66279         1.43951
| 22>    C        5.99859         0.72146         0.27198
| 23>    N        6.67818         0.81630        -0.64795
| 24>    C        5.95639         0.34909         2.59225
| 25>    N        6.60795         0.07130         3.49495
| 26>    C        3.26745         0.85939         3.96747
| 27>    C        2.37730         1.28841         4.91717
| 28>    C        1.28110         2.12003         4.59766
| 29>    C        1.07081         2.52493         3.24714
| 30>    C       -0.02687         3.35148         2.93269
| 31>    C       -0.88100         3.76365         3.91822
| 32>    C       -0.67757         3.37002         5.25053
| 33>    C        0.37819         2.56647         5.58388
| 34>    C        3.15774         1.13859        -1.00887
| 35>    C        3.82812         0.07046        -1.66354
| 36>    C        4.15539         0.03283        -3.00292
| 37>    C        4.75969        -1.17279        -3.35636
| 38>    C        4.85924        -2.09089        -2.30521
| 39>    S        4.22223        -1.43721        -0.84503
| 40>    C        5.44131        -3.31117        -2.66303
| 41>    C        5.79719        -3.32814        -3.99249
| 42>    S        5.41332        -1.82540        -4.81335
| 43>    C        6.43041        -4.38233        -4.72518
| 44>    C        6.49293        -5.72557        -4.42358
| 45>    C        5.87284        -6.33146        -3.20869
| 46>    O        6.50763        -6.81577        -2.31797
| 47>    O        4.52834        -6.28548        -3.16788
| 48>    C        7.27453        -6.46719        -5.35730
| 49>    C        7.77277        -5.66280        -6.35116
| 50>    S        7.32847        -4.02431        -6.17339
| 51>    C        7.47876        -7.89577        -5.32298
| 52>    C        8.55169        -8.57817        -5.83921
| 53>    C        8.40391        -9.96169        -5.68977
| 54>    C        7.20553       -10.33874        -5.07205
| 55>    S        6.26071        -8.95770        -4.65242
| 56>    C        7.03201       -11.71599        -4.95798
| 57>    C        8.10175       -12.41402        -5.48547
| 58>    S        9.34992       -11.33668        -6.09965
| 59>    C        8.34149       -13.80768        -5.54131
| 60>    C        7.47245       -14.84775        -5.44536
| 61>    C        8.01028       -16.20636        -5.14211
| 62>    O        9.17516       -16.53451        -5.19189
| 63>    C        6.84066       -17.00567        -4.73848
| 64>    C        5.68131       -16.24712        -4.90380
| 65>    C        6.03059       -14.95620        -5.49200
| 66>    C        5.17174       -14.14854        -6.19011
| 67>    C        5.58791       -13.06188        -6.98576
| 68>    N        5.87221       -12.19437        -7.68157
| 69>    C        3.78011       -14.35845        -6.28084
| 70>    N        2.64058       -14.46226        -6.37212
| 71>    C        4.43028       -16.77214        -4.55485
| 72>    C        4.36662       -18.04969        -4.06255
| 73>    C        5.51792       -18.85227        -3.90601
| 74>    C        6.79759       -18.32450        -4.24620
| 75>    C        7.94502       -19.12778        -4.08595
| 76>    C        7.82820       -20.40545        -3.61246
| 77>    C        6.56989       -20.93136        -3.27786
| 78>    C        5.44028       -20.17302        -3.41926
| 79>    H        4.09245         0.21977         4.23667
| 80>    H        2.50774         0.98888         5.94703
| 81>    H       -0.17310         3.64745         1.90591
| 82>    H       -1.72118         4.39744         3.67697
| 83>    H       -1.36421         3.70772         6.01262
| 84>    H        0.53676         2.26286         6.60853
| 85>    H        2.53874         1.75963        -1.65017
| 86>    H        3.99207         0.85709        -3.67225
| 87>    H        5.62121        -4.11894        -1.97859
| 88>    H        4.13867        -5.89720        -3.96208
| 89>    H        8.36341        -5.96366        -7.19274
| 90>    H        9.40778        -8.10258        -6.27961
| 91>    H        6.19039       -12.18073        -4.47781
| 92>    H        9.38548       -14.09918        -5.61502
| 93>    H        3.53445       -16.18185        -4.65921
| 94>    H        3.41015       -18.46837        -3.78460
| 95>    H        8.90602       -18.71298        -4.34602
| 96>    H        8.70687       -21.02141        -3.49263
| 97>    H        6.50118       -21.94311        -2.90636
| 98>    H        4.47101       -20.57557        -3.16270
| 99> *
|100>
|101>                          ****END OF INPUT****

CARTESIAN COORDINATES (ANGSTROEM)
---------------------------------
  C      3.106250    1.438600    0.310990
  C      2.010980    2.308920    0.833120
  O      1.285780    3.013540    0.167190
  C      1.992610    2.066000    2.285750
  C      3.073770    1.255670    2.638200
  C      3.878580    0.988420    1.451710
  C      5.207580    0.662790    1.439510
  C      5.998590    0.721460    0.271980
  N      6.678180    0.816300   -0.647950
  C      5.956390    0.349090    2.592250
  N      6.607950    0.071300    3.494950
  C      3.267450    0.859390    3.967470
  C      2.377300    1.288410    4.917170
  C      1.281100    2.120030    4.597660
  C      1.070810    2.524930    3.247140
  C     -0.026870    3.351480    2.932690
  C     -0.881000    3.763650    3.918220
  C     -0.677570    3.370020    5.250530
  C      0.378190    2.566470    5.583880
  C      3.157740    1.138590   -1.008870
  C      3.828120    0.070460   -1.663540
  C      4.155390    0.032830   -3.002920
  C      4.759690   -1.172790   -3.356360
  C      4.859240   -2.090890   -2.305210
  S      4.222230   -1.437210   -0.845030
  C      5.441310   -3.311170   -2.663030
  C      5.797190   -3.328140   -3.992490
  S      5.413320   -1.825400   -4.813350
  C      6.430410   -4.382330   -4.725180
  C      6.492930   -5.725570   -4.423580
  C      5.872840   -6.331460   -3.208690
  O      6.507630   -6.815770   -2.317970
  O      4.528340   -6.285480   -3.167880
  C      7.274530   -6.467190   -5.357300
  C      7.772770   -5.662800   -6.351160
  S      7.328470   -4.024310   -6.173390
  C      7.478760   -7.895770   -5.322980
  C      8.551690   -8.578170   -5.839210
  C      8.403910   -9.961690   -5.689770
  C      7.205530  -10.338740   -5.072050
  S      6.260710   -8.957700   -4.652420
  C      7.032010  -11.715990   -4.957980
  C      8.101750  -12.414020   -5.485470
  S      9.349920  -11.336680   -6.099650
  C      8.341490  -13.807680   -5.541310
  C      7.472450  -14.847750   -5.445360
  C      8.010280  -16.206360   -5.142110
  O      9.175160  -16.534510   -5.191890
  C      6.840660  -17.005670   -4.738480
  C      5.681310  -16.247120   -4.903800
  C      6.030590  -14.956200   -5.492000
  C      5.171740  -14.148540   -6.190110
  C      5.587910  -13.061880   -6.985760
  N      5.872210  -12.194370   -7.681570
  C      3.780110  -14.358450   -6.280840
  N      2.640580  -14.462260   -6.372120
  C      4.430280  -16.772140   -4.554850
  C      4.366620  -18.049690   -4.062550
  C      5.517920  -18.852270   -3.906010
  C      6.797590  -18.324500   -4.246200
  C      7.945020  -19.127780   -4.085950
  C      7.828200  -20.405450   -3.612460
  C      6.569890  -20.931360   -3.277860
  C      5.440280  -20.173020   -3.419260
  H      4.092450    0.219770    4.236670
  H      2.507740    0.988880    5.947030
  H     -0.173100    3.647450    1.905910
  H     -1.721180    4.397440    3.676970
  H     -1.364210    3.707720    6.012620
  H      0.536760    2.262860    6.608530
  H      2.538740    1.759630   -1.650170
  H      3.992070    0.857090   -3.672250
  H      5.621210   -4.118940   -1.978590
  H      4.138670   -5.897200   -3.962080
  H      8.363410   -5.963660   -7.192740
  H      9.407780   -8.102580   -6.279610
  H      6.190390  -12.180730   -4.477810
  H      9.385480  -14.099180   -5.615020
  H      3.534450  -16.181850   -4.659210
  H      3.410150  -18.468370   -3.784600
  H      8.906020  -18.712980   -4.346020
  H      8.706870  -21.021410   -3.492630
  H      6.501180  -21.943110   -2.906360
  H      4.471010  -20.575570   -3.162700

 Total Charge           Charge          ....    0
 Multiplicity           Mult            ....    1
 Number of Electrons    NEL             ....  466
 Basis Dimension        Dim             .... 1016

ORBITAL ENERGIES
----------------

  NO   OCC          E(Eh)            E(eV)
   0   2.0000     -88.981555     -2421.3112
   1   2.0000     -88.975355     -2421.1425
   2   2.0000     -88.971749     -2421.0444
   3   2.0000     -88.965335     -2420.8699
   4   2.0000     -88.964942     -2420.8591
   5   2.0000     -19.269195      -524.3415
   6   2.0000     -19.219230      -522.9818
   7   2.0000     -19.215536      -522.8813
   8   2.0000     -19.211392      -522.7685
   9   2.0000     -14.415817      -392.2743
  10   2.0000     -14.414089      -392.2273
  11   2.0000     -14.413109      -392.2006
  12   2.0000     -14.412708      -392.1897
  13   2.0000     -10.415676      -283.4249
  14   2.0000     -10.370093      -282.1846
  15   2.0000     -10.365810      -282.0680
  16   2.0000     -10.346014      -281.5293
  17   2.0000     -10.342858      -281.4435
  18   2.0000     -10.342300      -281.4283
  19   2.0000     -10.340780      -281.3869
  20   2.0000     -10.335575      -281.2453
  21   2.0000     -10.332691      -281.1668
  22   2.0000     -10.322294      -280.8839
  23   2.0000     -10.321356      -280.8584
  24   2.0000     -10.320563      -280.8368
  25   2.0000     -10.317928      -280.7651
  26   2.0000     -10.317750      -280.7603
  27   2.0000     -10.317080      -280.7420
  28   2.0000     -10.316935      -280.7381
  29   2.0000     -10.315960      -280.7116
  30   2.0000     -10.314934      -280.6836
  31   2.0000     -10.314774      -280.6793
  32   2.0000     -10.314629      -280.6753
  33   2.0000     -10.314294      -280.6662
  34   2.0000     -10.311291      -280.5845
  35   2.0000     -10.310666      -280.5675
  36   2.0000     -10.310535      -280.5639
  37   2.0000     -10.307559      -280.4830
  38   2.0000     -10.307378      -280.4780
  39   2.0000     -10.306246      -280.4472
  40   2.0000     -10.305260      -280.4204
  41   2.0000     -10.300462      -280.2898
  42   2.0000     -10.300065      -280.2790
  43   2.0000     -10.299100      -280.2527
  44   2.0000     -10.297506      -280.2094
  45   2.0000     -10.296801      -280.1902
  46   2.0000     -10.296432      -280.1802
  47   2.0000     -10.295920      -280.1662
  48   2.0000     -10.294970      -280.1404
  49   2.0000     -10.294170      -280.1186
  50   2.0000     -10.294106      -280.1169
  51   2.0000     -10.293551      -280.1018
  52   2.0000     -10.293390      -280.0974
  53   2.0000     -10.292326      -280.0684
  54   2.0000     -10.290813      -280.0273
  55   2.0000     -10.289981      -280.0046
  56   2.0000     -10.284487      -279.8551
  57   2.0000     -10.283900      -279.8392
  58   2.0000     -10.282362      -279.7973
  59   2.0000     -10.282152      -279.7916
  60   2.0000     -10.281807      -279.7822
  61   2.0000     -10.279833      -279.7285
  62   2.0000     -10.278287      -279.6864
  63   2.0000     -10.275896      -279.6213
  64   2.0000      -8.077491      -219.7997
  65   2.0000      -8.070806      -219.6178
  66   2.0000      -8.066555      -219.5021
  67   2.0000      -8.060592      -219.3399
  68   2.0000      -8.060535      -219.3383
  69   2.0000      -6.046780      -164.5412
  70   2.0000      -6.042380      -164.4215
  71   2.0000      -6.040364      -164.3667
  72   2.0000      -6.039765      -164.3504
  73   2.0000      -6.036333      -164.2570
  74   2.0000      -6.036115      -164.2510
  75   2.0000      -6.032261      -164.1462
  76   2.0000      -6.032075      -164.1411
  77   2.0000      -6.030075      -164.0867
  78   2.0000      -6.029989      -164.0843
  79   2.0000      -6.028078      -164.0324
  80   2.0000      -6.026108      -163.9787
  81   2.0000      -6.026030      -163.9766
  82   2.0000      -6.022105      -163.8698
  83   2.0000      -6.022103      -163.8698
  84   2.0000      -1.192810       -32.4580
  85   2.0000      -1.134291       -30.8656
  86   2.0000      -1.130559       -30.7641
  87   2.0000      -1.108888       -30.1744
  88   2.0000      -1.028535       -27.9878
  89   2.0000      -1.021028       -27.7836
  90   2.0000      -1.018842       -27.7241
  91   2.0000      -1.015661       -27.6375
  92   2.0000      -1.007326       -27.4107
  93   2.0000      -0.999284       -27.1919
  94   2.0000      -0.997389       -27.1403
  95   2.0000      -0.992552       -27.0087
  96   2.0000      -0.991741       -26.9866
  97   2.0000      -0.971726       -26.4420
  98   2.0000      -0.968181       -26.3455
  99   2.0000      -0.962685       -26.1960
 100   2.0000      -0.954087       -25.9620
 101   2.0000      -0.923048       -25.1174
 102   2.0000      -0.920427       -25.0461
 103   2.0000      -0.905395       -24.6370
 104   2.0000      -0.902423       -24.5562
 105   2.0000      -0.892504       -24.2863
 106   2.0000      -0.886770       -24.1302
 107   2.0000      -0.880503       -23.9597
 108   2.0000      -0.874741       -23.8029
 109   2.0000      -0.867757       -23.6129
 110   2.0000      -0.864211       -23.5164
 111   2.0000      -0.856145       -23.2969
 112   2.0000      -0.852084       -23.1864
 113   2.0000      -0.840051       -22.8589
 114   2.0000      -0.836898       -22.7731
 115   2.0000      -0.816565       -22.2199
 116   2.0000      -0.811781       -22.0897
 117   2.0000      -0.809610       -22.0306
 118   2.0000      -0.796044       -21.6615
 119   2.0000      -0.778837       -21.1932
 120   2.0000      -0.773105       -21.0373
 121   2.0000      -0.766957       -20.8700
 122   2.0000      -0.754422       -20.5289
 123   2.0000      -0.732363       -19.9286
 124   2.0000      -0.718144       -19.5417
 125   2.0000      -0.714923       -19.4540
 126   2.0000      -0.714563       -19.4443
 127   2.0000      -0.712052       -19.3759
 128   2.0000      -0.706509       -19.2251
 129   2.0000      -0.702955       -19.1284
 130   2.0000      -0.689540       -18.7633
 131   2.0000      -0.683306       -18.5937
 132   2.0000      -0.677544       -18.4369
 133   2.0000      -0.676236       -18.4013
 134   2.0000      -0.672333       -18.2951
 135   2.0000      -0.660748       -17.9799
 136   2.0000      -0.654978       -17.8229
 137   2.0000      -0.647107       -17.6087
 138   2.0000      -0.644006       -17.5243
 139   2.0000      -0.634114       -17.2551
 140   2.0000      -0.629981       -17.1426
 141   2.0000      -0.627027       -17.0623
 142   2.0000      -0.615855       -16.7583
 143   2.0000      -0.602661       -16.3992
 144   2.0000      -0.598049       -16.2737
 145   2.0000      -0.594681       -16.1821
 146   2.0000      -0.590721       -16.0743
 147   2.0000      -0.589400       -16.0384
 148   2.0000      -0.586768       -15.9668
 149   2.0000      -0.584788       -15.9129
 150   2.0000      -0.579608       -15.7719
 151   2.0000      -0.568633       -15.4733
 152   2.0000      -0.565926       -15.3996
 153   2.0000      -0.563355       -15.3297
 154   2.0000      -0.556365       -15.1395
 155   2.0000      -0.547837       -14.9074
 156   2.0000      -0.542674       -14.7669
 157   2.0000      -0.538641       -14.6572
 158   2.0000      -0.538395       -14.6505
 159   2.0000      -0.535977       -14.5847
 160   2.0000      -0.534064       -14.5326
 161   2.0000      -0.528362       -14.3775
 162   2.0000      -0.527076       -14.3425
 163   2.0000      -0.526332       -14.3222
 164   2.0000      -0.522813       -14.2265
 165   2.0000      -0.519444       -14.1348
 166   2.0000      -0.518185       -14.1005
 167   2.0000      -0.513713       -13.9789
 168   2.0000      -0.511900       -13.9295
 169   2.0000      -0.508674       -13.8417
 170   2.0000      -0.506989       -13.7959
 171   2.0000      -0.504513       -13.7285
 172   2.0000      -0.503373       -13.6975
 173   2.0000      -0.499094       -13.5810
 174   2.0000      -0.497036       -13.5250
 175   2.0000      -0.495196       -13.4750
 176   2.0000      -0.493403       -13.4262
 177   2.0000      -0.492310       -13.3964
 178   2.0000      -0.486182       -13.2297
 179   2.0000      -0.481544       -13.1035
 180   2.0000      -0.479471       -13.0471
 181   2.0000      -0.477963       -13.0060
 182   2.0000      -0.476194       -12.9579
 183   2.0000      -0.474046       -12.8994
 184   2.0000      -0.470621       -12.8063
 185   2.0000      -0.469787       -12.7836
 186   2.0000      -0.463488       -12.6122
 187   2.0000      -0.461443       -12.5565
 188   2.0000      -0.459498       -12.5036
 189   2.0000      -0.453352       -12.3363
 190   2.0000      -0.449864       -12.2414
 191   2.0000      -0.447665       -12.1816
 192   2.0000      -0.445519       -12.1232
 193   2.0000      -0.443964       -12.0809
 194   2.0000      -0.441437       -12.0121
 195   2.0000      -0.440025       -11.9737
 196   2.0000      -0.438313       -11.9271
 197   2.0000      -0.438252       -11.9254
 198   2.0000      -0.435638       -11.8543
 199   2.0000      -0.433420       -11.7940
 200   2.0000      -0.431679       -11.7466
 201   2.0000      -0.430637       -11.7182
 202   2.0000      -0.428291       -11.6544
 203   2.0000      -0.427073       -11.6213
 204   2.0000      -0.425240       -11.5714
 205   2.0000      -0.421700       -11.4750
 206   2.0000      -0.419527       -11.4159
 207   2.0000      -0.418036       -11.3753
 208   2.0000      -0.417006       -11.3473
 209   2.0000      -0.410122       -11.1600
 210   2.0000      -0.406253       -11.0547
 211   2.0000      -0.403058       -10.9678
 212   2.0000      -0.396232       -10.7820
 213   2.0000      -0.392878       -10.6907
 214   2.0000      -0.377953       -10.2846
 215   2.0000      -0.375862       -10.2277
 216   2.0000      -0.373442       -10.1619
 217   2.0000      -0.369182       -10.0460
 218   2.0000      -0.364895        -9.9293
 219   2.0000      -0.359718        -9.7884
 220   2.0000      -0.353813        -9.6277
 221   2.0000      -0.338552        -9.2125
 222   2.0000      -0.336121        -9.1463
 223   2.0000      -0.331607        -9.0235
 224   2.0000      -0.327099        -8.9008
 225   2.0000      -0.315828        -8.5941
 226   2.0000      -0.312842        -8.5129
 227   2.0000      -0.307464        -8.3665
 228   2.0000      -0.299032        -8.1371
 229   2.0000      -0.294538        -8.0148
 230   2.0000      -0.292552        -7.9608
 231   2.0000      -0.273814        -7.4509
 232   2.0000      -0.260477        -7.0879
 233   0.0000      -0.090590        -2.4651
 234   0.0000      -0.085475        -2.3259
 235   0.0000      -0.071782        -1.9533
 236   0.0000      -0.068137        -1.8541
 237   0.0000      -0.037036        -1.0078

MULLIKEN ATOMIC CHARGES
-----------------------
   0 C :   -0.119993
   1 C :    0.119742
   2 O :   -0.148666
   3 C :    0.009541
   4 C :   -0.005950
   5 C :    0.239355
   6 C :   -0.310144
   7 C :   -0.204252
   8 N :    0.173702
   9 C :   -0.177618
  10 N :    0.159669
  11 C :   -0.020024
  12 C :    0.007221
  13 C :    0.078980
  14 C :    0.033902
  15 C :   -0.025215
  16 C :    0.038141
  17 C :    0.038165
  18 C :   -0.019269
  19 C :    0.043902
  20 C :   -0.105591
  21 C :    0.018503
  22 C :   -0.003641
  23 C :   -0.013287
  24 S :    0.168419
  25 C :   -0.034501
  26 C :   -0.116692
  27 S :    0.151000
  28 C :   -0.099015
  29 C :   -0.062995
  30 C :    0.126261
  31 O :   -0.157156
  32 O :   -0.160191
  33 C :    0.141721
  34 C :   -0.121499
  35 S :    0.165471
  36 C :   -0.091599
  37 C :   -0.030633
  38 C :    0.005075
  39 C :   -0.025038
  40 S :    0.148952
  41 C :    0.024097
  42 C :   -0.129197
  43 S :    0.157475
  44 C :    0.083480
  45 C :   -0.123286
  46 C :    0.115643
  47 O :   -0.153383
  48 C :    0.015251
  49 C :   -0.014774
  50 C :    0.264419
  51 C :   -0.334460
  52 C :   -0.206106
  53 N :    0.174615
  54 C :   -0.178557
  55 N :    0.156819
  56 C :   -0.021010
  57 C :    0.004926
  58 C :    0.080203
  59 C :    0.035928
  60 C :   -0.026667
  61 C :    0.036549
  62 C :    0.041199
  63 C :   -0.022196
  64 H :    0.002891
  65 H :   -0.011851
  66 H :    0.000016
  67 H :   -0.006341
  68 H :   -0.005816
  69 H :   -0.020950
  70 H :    0.027469
  71 H :   -0.000517
  72 H :    0.027364
  73 H :    0.193069
  74 H :    0.033287
  75 H :   -0.013535
  76 H :    0.003532
  77 H :    0.023404
  78 H :    0.000881
  79 H :   -0.013391
  80 H :    0.000314
  81 H :   -0.006503
  82 H :   -0.006925
  83 H :   -0.022118
Sum of atomic charges:    0.0000000

LOEWDIN ATOMIC CHARGES
----------------------
   0 C :   -0.088932
   1 C :    0.087845
   2 O :   -0.141742
   3 C :   -0.033985
   4 C :   -0.002883
   5 C :    0.060434
   6 C :   -0.133168
   7 C :   -0.033778
   8 N :   -0.044719
   9 C :   -0.020878
  10 N :   -0.045610
  11 C :   -0.017186
  12 C :    0.020514
  13 C :   -0.009566
  14 C :   -0.002680
  15 C :   -0.002339
  16 C :   -0.011786
  17 C :   -0.012623
  18 C :   -0.011838
  19 C :    0.044087
  20 C :   -0.170692
  21 C :   -0.024264
  22 C :   -0.199833
  23 C :   -0.182194
  24 S :    0.455801
  25 C :   -0.058094
  26 C :   -0.181739
  27 S :    0.425066
  28 C :   -0.182178
  29 C :   -0.107442
  30 C :    0.056240
  31 O :   -0.134234
  32 O :   -0.028604
  33 C :   -0.063705
  34 C :   -0.170520
  35 S :    0.468413
  36 C :   -0.142617
  37 C :   -0.065634
  38 C :   -0.182659
  39 C :   -0.198061
  40 S :    0.451210
  41 C :   -0.023193
  42 C :   -0.178168
  43 S :    0.441760
  44 C :    0.044838
  45 C :   -0.092792
  46 C :    0.087634
  47 O :   -0.143318
  48 C :   -0.033003
  49 C :   -0.005038
  50 C :    0.067271
  51 C :   -0.139312
  52 C :   -0.019647
  53 N :   -0.040026
  54 C :   -0.021772
  55 N :   -0.051218
  56 C :   -0.018083
  57 C :    0.018429
  58 C :   -0.009508
  59 C :   -0.002885
  60 C :   -0.001971
  61 C :   -0.012600
  62 C :   -0.012768
  63 C :   -0.012657
  64 H :    0.040133
  65 H :    0.035975
  66 H :    0.035341
  67 H :    0.032756
  68 H :    0.032287
  69 H :    0.030499
  70 H :    0.051749
  71 H :    0.040151
  72 H :    0.043848
  73 H :    0.100502
  74 H :    0.029403
  75 H :    0.033890
  76 H :    0.037461
  77 H :    0.045890
  78 H :    0.039384
  79 H :    0.035344
  80 H :    0.035440
  81 H :    0.032588
  82 H :    0.031895
  83 H :    0.030067

  Mayer bond orders larger than 0.100000
B(  0-C ,  1-C ) :   0.9512 B(  0-C ,  5-C ) :   1.0170 B(  0-C , 19-C ) :   1.6873
B(  1-C ,  2-O ) :   2.1990 B(  1-C ,  3-C ) :   0.9417 B(  3-C ,  4-C ) :   1.4156
B(  3-C , 14-C ) :   1.2344 B(  4-C ,  5-C ) :   1.0052 B(  4-C , 11-C ) :   1.2605
B(  5-C ,  6-C ) :   1.6684 B(  6-C ,  7-C ) :   1.1487 B(  6-C ,  9-C ) :   1.1310
B(  7-C ,  8-N ) :   3.0287 B(  9-C , 10-N ) :   2.9985 B( 11-C , 12-C ) :   1.4676
B( 11-C , 64-H ) :   0.9869 B( 12-C , 13-C ) :   1.2250 B( 12-C , 65-H ) :   0.9940
B( 13-C , 14-C ) :   1.2425 B( 13-C , 18-C ) :   1.2387 B( 14-C , 15-C ) :   1.2771
B( 15-C , 16-C ) :   1.4756 B( 15-C , 66-H ) :   0.9864 B( 16-C , 17-C ) :   1.2549
B( 16-C , 67-H ) :   0.9873 B( 17-C , 18-C ) :   1.4959 B( 17-C , 68-H ) :   0.9889
B( 18-C , 69-H ) :   0.9979 B( 19-C , 20-C ) :   1.1130 B( 19-C , 70-H ) :   0.9452
B( 20-C , 21-C ) :   1.4734 B( 20-C , 24-S ) :   1.0956 B( 21-C , 22-C ) :   1.2624
B( 21-C , 71-H ) :   1.0058 B( 22-C , 23-C ) :   1.4081 B( 22-C , 27-S ) :   1.0616
B( 23-C , 24-S ) :   1.0913 B( 23-C , 25-C ) :   1.2467 B( 25-C , 26-C ) :   1.5424
B( 25-C , 72-H ) :   0.9885 B( 26-C , 27-S ) :   1.1056 B( 26-C , 28-C ) :   1.0916
B( 28-C , 29-C ) :   1.5688 B( 28-C , 35-S ) :   1.1566 B( 29-C , 30-C ) :   0.8761
B( 29-C , 33-C ) :   1.2665 B( 30-C , 31-O ) :   2.1892 B( 30-C , 32-O ) :   1.2172
B( 32-O , 73-H ) :   0.9479 B( 33-C , 34-C ) :   1.5479 B( 33-C , 36-C ) :   1.0287
B( 34-C , 35-S ) :   1.1589 B( 34-C , 74-H ) :   0.9656 B( 36-C , 37-C ) :   1.5579
B( 36-C , 40-S ) :   1.1235 B( 37-C , 38-C ) :   1.2326 B( 37-C , 75-H ) :   1.0031
B( 38-C , 39-C ) :   1.4090 B( 38-C , 43-S ) :   1.0895 B( 39-C , 40-S ) :   1.0764
B( 39-C , 41-C ) :   1.3033 B( 41-C , 42-C ) :   1.4655 B( 41-C , 76-H ) :   0.9905
B( 42-C , 43-S ) :   1.0871 B( 42-C , 44-C ) :   1.1286 B( 44-C , 45-C ) :   1.6832
B( 44-C , 77-H ) :   0.9251 B( 45-C , 46-C ) :   0.9599 B( 45-C , 50-C ) :   1.0299
B( 46-C , 47-O ) :   2.1881 B( 46-C , 48-C ) :   0.9398 B( 48-C , 49-C ) :   1.4202
B( 48-C , 59-C ) :   1.2350 B( 49-C , 50-C ) :   0.9995 B( 49-C , 56-C ) :   1.2600
B( 50-C , 51-C ) :   1.6470 B( 51-C , 52-C ) :   1.1616 B( 51-C , 54-C ) :   1.1247
B( 52-C , 53-N ) :   3.0111 B( 54-C , 55-N ) :   2.9963 B( 56-C , 57-C ) :   1.4678
B( 56-C , 78-H ) :   0.9861 B( 57-C , 58-C ) :   1.2255 B( 57-C , 79-H ) :   0.9941
B( 58-C , 59-C ) :   1.2404 B( 58-C , 63-C ) :   1.2381 B( 59-C , 60-C ) :   1.2753
B( 60-C , 61-C ) :   1.4751 B( 60-C , 80-H ) :   0.9868 B( 61-C , 62-C ) :   1.2539
B( 61-C , 81-H ) :   0.9879 B( 62-C , 63-C ) :   1.4968 B( 62-C , 82-H ) :   0.9886
B( 63-C , 83-H ) :   0.9979

-----------------------------------------------------------------------------
         ABSORPTION SPECTRUM VIA TRANSITION ELECTRIC DIPOLE MOMENTS
-----------------------------------------------------------------------------
State   Energy  Wavelength   fosc         T2         TX        TY        TZ
        (cm-1)    (nm)                  (au**2)     (au)      (au)      (au)
-----------------------------------------------------------------------------
   0   20837.2    479.9   1.061228938  16.76662   0.09527   3.78634   1.55601
   1   21682.9    461.2   0.355555897   5.39842   1.05469  -0.60570  -1.97969
   2   25622.5    390.3   0.653055646   8.39082   0.24484  -2.78144  -0.77102
   3   26198.1    381.7   0.131309436   1.65007  -0.64192  -0.62345   0.92158
   4   27595.0    362.4   0.351297985   4.19103  -1.57121   0.80017   1.04023
   5   27939.5    357.9   0.269450819   3.17495  -0.22997   1.68556  -0.53004
   6   28066.7    356.3   0.119397860   1.40049   0.26654  -0.30600  -1.11167
   7   28473.1    351.2   0.044002444   0.50877  -0.70145  -0.08404   0.09831
   8   28532.7    350.5   0.047390724   0.54680  -0.22316  -0.16509   0.68538
   9   29906.0    334.4   0.054652378   0.60162  -0.57512   0.40570  -0.32599
  10   30111.1    332.1   0.057099913   0.62429   0.39474  -0.67992   0.07856
  11   30179.5    331.4   0.020852112   0.22746   0.18527  -0.23251   0.37293
  12   30480.6    328.1   0.016566668   0.17893  -0.24551  -0.01304   0.34422
  13   30569.6    327.1   0.069616772   0.74972   0.77963   0.28105  -0.25081
  14   32006.0    312.4   0.587864679   6.04675  -1.98262   1.45425   0.03346
  15   32264.3    309.9   0.215766752   2.20160   0.76680  -1.16129   0.51481
  16   32735.0    305.5   0.257235404   2.58698  -1.18532   0.61414   0.89713
  17   33060.9    302.5   0.531535948   5.29290   0.00873  -2.03842   1.06662
  18   33311.4    300.2   0.037891577   0.37448  -0.27672   0.19832  -0.50850
  19   34196.6    292.4   0.288245101   2.77495  -1.01219   1.20344   0.54969
  20   34303.1    291.5   0.160091150   1.53642   0.88894   0.22439  -0.83418
  21   34726.9    288.0   0.027197436   0.25783  -0.46287   0.19793   0.06641
  22   35085.6    285.0   0.015652815   0.14687   0.05994  -0.28563   0.24839
  23   35135.8    284.6   0.041538869   0.38921   0.36711  -0.38287   0.32840
  24   35565.4    281.2   0.072308292   0.66932  -0.59547   0.33999   0.44625
  25   35673.4    280.3   0.101484107   0.93655   0.26003   0.70762  -0.60680
  26   36800.2    271.7   0.127499054   1.14060  -0.65313   0.41698  -0.73494
  27   37220.6    268.7   0.127177922   1.12487   0.01615   1.05058  -0.14453
  28   37915.2    263.7   0.094870630   0.82375  -0.85134   0.16897  -0.26535
  29   38012.0    263.1   0.002456477   0.02127  -0.14445   0.01063   0.01720
  30   38988.8    256.5   0.079348107   0.67000  -0.23224   0.75395   0.21822
  31   39421.1    253.7   0.018615765   0.15546  -0.24642   0.30066  -0.06592
  32   39861.8    250.9   0.001220451   0.01008   0.04238  -0.04970  -0.07625
  33   40057.4    249.6   0.074191995   0.60975  -0.53610  -0.26932   0.49980
  34   40069.2    249.6   0.043812678   0.35997  -0.40318   0.44006   0.06133

FINAL SINGLE POINT ENERGY     -4462.541763441221

DIPOLE MOMENT
-------------
                                X             Y             Z
Electronic contribution:     15.16724      14.99549     -22.09140
Nuclear contribution   :    -16.57299     -15.09357      22.58426
                        -----------------------------------------
Total Dipole Moment    :     -1.40575      -0.09808       0.49286
                        -----------------------------------------
Magnitude (a.u.)       :      1.49287
Magnitude (Debye)      :      3.79458

Rotational constants in cm-1:     0.002083     0.000274     0.000256
Rotational constants in MHz :    62.450639     8.209661     7.673081

                             ****ORCA TERMINATED NORMALLY****
TOTAL RUN TIME: 0 days 0 hours 16 minutes 27 seconds 641 msec
