                         Program Version 4.2.0 -  RELEASE  -
|  1> # ORCA input file
|  2> # SCF done       -227.163326693325          0.000706742287
|  3> ! CAM-B3LYP def2-SVP def2/J RIJCOSX Grid4 TightSCF
|  4> %maxcore 5000
|  5> %tddft
|  6>     Mode sTDDFT
|  7>     Ethresh 5.0
|  8>     maxcore 5000
|  9> end
| 10>
| 11> %pal
| 12>   nprocs 6
| 13>   end
| 14> * xyz 0 1
| 15>    C        8.77733        12.64248         0.34004
| 16>    C        8.25421        13.94771         0.86117
| 17>    O        7.62651        14.76116         0.22296
| 18>    C        8.62482        13.96857         2.28411
| 19>    C        9.43681        12.86963         2.56993
| 20>    C        9.67583        12.11071         1.34770
| 21>    C       10.70389        11.23335         1.13998
| 22>    C       11.00806        10.67550        -0.11823
| 23>    N       11.29348        10.21034        -1.12790
| 24>    C       11.62477        10.83742         2.13329
| 25>    N       12.40267        10.47802         2.89625
| 26>    C        9.89892        12.64385         3.87305
| 27>    C        9.54328        13.52653         4.85914
| 28>    C        8.73415        14.65530         4.60138
| 29>    C        8.25338        14.89283         3.28075
| 30>    C        7.44037        16.01648         3.02946
| 31>    C        7.11827        16.87249         4.04660
| 32>    C        7.59033        16.64444         5.34907
| 33>    C        8.38011        15.56117         5.62165
| 34>    C        8.30101        12.17924        -0.83595
| 35>    C        8.34956        10.85929        -1.40938
| 36>    C        8.34511         9.67093        -0.66581
| 37>    F        8.30652         9.72862         0.67626
| 38>    C        8.32034         8.43410        -1.27402
| 39>    F        8.29388         7.34359        -0.48930
| 40>    C        8.30043         8.26548        -2.67141
| 41>    C        8.30157         9.46054        -3.41181
| 42>    C        8.30677        10.69976        -2.80217
| 43>    F        8.29370        11.79736        -3.57031
| 44>    F        8.28931         9.43137        -4.75264
| 45>    C        8.25676         6.93065        -3.20438
| 46>    C        8.04943         6.57297        -4.48995
| 47>    C        7.92905         5.22179        -4.97254
| 48>    C        7.44521         5.02841        -6.24891
| 49>    C        7.21042         3.72669        -6.73179
| 50>    C        6.67001         3.28572        -7.93099
| 51>    C        6.21659         4.14149        -9.06443
| 52>    C        6.82853         3.70980       -10.41066
| 53>    N        7.03275         4.88093       -11.24186
| 54>    C        4.67809         4.18640        -9.12868
| 55>    N        4.17090         4.89670        -7.97038
| 56>    C        6.57806         1.84526        -7.83784
| 57>    C        6.05444         0.92631        -8.66875
| 58>    C        5.98560        -0.51874        -8.29340
| 59>    C        6.67916        -0.86621        -7.01709
| 60>    C        7.19062         0.06554        -6.19258
| 61>    C        7.13654         1.43758        -6.53741
| 62>    C        7.51183         2.58631        -5.87509
| 63>    C        8.06948         2.81334        -4.59348
| 64>    C        8.26244         4.08319        -4.16118
| 65>    C        6.37436        -1.35720        -9.48085
| 66>    C        7.47119        -2.11462        -9.52943
| 67>    C        7.88148        -2.98383       -10.61606
| 68>    C        7.21128        -3.15306       -11.83470
| 69>    F        6.10122        -2.44985       -12.11009
| 70>    C        7.65258        -4.04677       -12.79207
| 71>    F        6.94883        -4.15561       -13.93096
| 72>    C        8.80014        -4.83806       -12.63009
| 73>    C        9.48017        -4.66036       -11.41788
| 74>    C        9.03165        -3.77176       -10.45680
| 75>    F        9.72640        -3.67631        -9.31312
| 76>    F       10.57542        -5.37948       -11.14185
| 77>    C        9.18053        -5.72706       -13.69935
| 78>    C       10.33091        -6.41657       -13.82918
| 79>    C       10.61095        -7.26605       -14.94504
| 80>    C       10.17080        -7.19284       -16.22327
| 81>    C       10.31588        -8.39904       -17.10013
| 82>    O       11.01764        -9.35711       -16.86815
| 83>    C        9.39801        -8.17096       -18.22584
| 84>    C        8.86922        -6.88193       -18.13863
| 85>    C        9.45508        -6.19048       -16.99400
| 86>    C        9.50110        -4.83231       -16.83730
| 87>    C       10.21763        -4.16332       -15.82366
| 88>    N       10.78699        -3.55034       -15.03809
| 89>    C        8.88831        -3.91188       -17.71558
| 90>    N        8.41819        -3.11212       -18.39058
| 91>    C        7.92951        -6.43266       -19.07596
| 92>    C        7.55222        -7.27777       -20.08655
| 93>    C        8.08277        -8.58051       -20.21460
| 94>    C        9.03057        -9.05357       -19.26078
| 95>    C        9.55104       -10.35733       -19.38689
| 96>    C        9.15102       -11.15930       -20.42035
| 97>    C        8.21963       -10.69771       -21.36415
| 98>    C        7.69618        -9.43763       -21.26456
| 99>    H       10.50832        11.78463         4.10076
|100>    H        9.88527        13.36404         5.87110
|101>    H        7.08318        16.18205         2.02536
|102>    H        6.49570        17.73329         3.85360
|103>    H        7.32318        17.33309         6.13694
|104>    H        8.74454        15.38346         6.62310
|105>    H        7.74701        12.90854        -1.42103
|106>    H        8.36011         6.16122        -2.45281
|107>    H        7.90041         7.33047        -5.24457
|108>    H        7.20237         5.87830        -6.86950
|109>    H        6.55748         5.16340        -8.87976
|110>    H        6.18970         2.94582       -10.88601
|111>    H        7.80995         3.26167       -10.23156
|112>    H        6.14680         5.31853       -11.46995
|113>    H        7.49352         4.63246       -12.10951
|114>    H        4.28829         3.15685        -9.21820
|115>    H        4.36677         4.74504       -10.01623
|116>    H        4.44246         4.41730        -7.11817
|117>    H        3.15935         4.95360        -7.99461
|118>    H        5.63915         1.18774        -9.63126
|119>    H        4.91020        -0.72565        -8.13358
|120>    H        6.69818        -1.91387        -6.75859
|121>    H        7.64893        -0.21966        -5.25701
|122>    H        8.32785         1.97016        -3.96985
|123>    H        8.69123         4.25249        -3.18638
|124>    H        5.68969        -1.29284       -10.31191
|125>    H        8.13640        -2.12549        -8.67687
|126>    H        8.43139        -5.82736       -14.47454
|127>    H       11.08011        -6.40360       -13.05263
|128>    H       11.23454        -8.13064       -14.73451
|129>    H        7.49879        -5.44786       -18.99823
|130>    H        6.82540        -6.94848       -20.81492
|131>    H       10.26584       -10.70179       -18.65638
|132>    H        9.55096       -12.15742       -20.51754
|133>    H        7.91807       -11.34803       -22.17180
|134>    H        6.97937        -9.08006       -21.98945
|135> *
|136>
|137>                          ****END OF INPUT****

CARTESIAN COORDINATES (ANGSTROEM)
---------------------------------
  C      8.777330   12.642480    0.340040
  C      8.254210   13.947710    0.861170
  O      7.626510   14.761160    0.222960
  C      8.624820   13.968570    2.284110
  C      9.436810   12.869630    2.569930
  C      9.675830   12.110710    1.347700
  C     10.703890   11.233350    1.139980
  C     11.008060   10.675500   -0.118230
  N     11.293480   10.210340   -1.127900
  C     11.624770   10.837420    2.133290
  N     12.402670   10.478020    2.896250
  C      9.898920   12.643850    3.873050
  C      9.543280   13.526530    4.859140
  C      8.734150   14.655300    4.601380
  C      8.253380   14.892830    3.280750
  C      7.440370   16.016480    3.029460
  C      7.118270   16.872490    4.046600
  C      7.590330   16.644440    5.349070
  C      8.380110   15.561170    5.621650
  C      8.301010   12.179240   -0.835950
  C      8.349560   10.859290   -1.409380
  C      8.345110    9.670930   -0.665810
  F      8.306520    9.728620    0.676260
  C      8.320340    8.434100   -1.274020
  F      8.293880    7.343590   -0.489300
  C      8.300430    8.265480   -2.671410
  C      8.301570    9.460540   -3.411810
  C      8.306770   10.699760   -2.802170
  F      8.293700   11.797360   -3.570310
  F      8.289310    9.431370   -4.752640
  C      8.256760    6.930650   -3.204380
  C      8.049430    6.572970   -4.489950
  C      7.929050    5.221790   -4.972540
  C      7.445210    5.028410   -6.248910
  C      7.210420    3.726690   -6.731790
  C      6.670010    3.285720   -7.930990
  C      6.216590    4.141490   -9.064430
  C      6.828530    3.709800  -10.410660
  N      7.032750    4.880930  -11.241860
  C      4.678090    4.186400   -9.128680
  N      4.170900    4.896700   -7.970380
  C      6.578060    1.845260   -7.837840
  C      6.054440    0.926310   -8.668750
  C      5.985600   -0.518740   -8.293400
  C      6.679160   -0.866210   -7.017090
  C      7.190620    0.065540   -6.192580
  C      7.136540    1.437580   -6.537410
  C      7.511830    2.586310   -5.875090
  C      8.069480    2.813340   -4.593480
  C      8.262440    4.083190   -4.161180
  C      6.374360   -1.357200   -9.480850
  C      7.471190   -2.114620   -9.529430
  C      7.881480   -2.983830  -10.616060
  C      7.211280   -3.153060  -11.834700
  F      6.101220   -2.449850  -12.110090
  C      7.652580   -4.046770  -12.792070
  F      6.948830   -4.155610  -13.930960
  C      8.800140   -4.838060  -12.630090
  C      9.480170   -4.660360  -11.417880
  C      9.031650   -3.771760  -10.456800
  F      9.726400   -3.676310   -9.313120
  F     10.575420   -5.379480  -11.141850
  C      9.180530   -5.727060  -13.699350
  C     10.330910   -6.416570  -13.829180
  C     10.610950   -7.266050  -14.945040
  C     10.170800   -7.192840  -16.223270
  C     10.315880   -8.399040  -17.100130
  O     11.017640   -9.357110  -16.868150
  C      9.398010   -8.170960  -18.225840
  C      8.869220   -6.881930  -18.138630
  C      9.455080   -6.190480  -16.994000
  C      9.501100   -4.832310  -16.837300
  C     10.217630   -4.163320  -15.823660
  N     10.786990   -3.550340  -15.038090
  C      8.888310   -3.911880  -17.715580
  N      8.418190   -3.112120  -18.390580
  C      7.929510   -6.432660  -19.075960
  C      7.552220   -7.277770  -20.086550
  C      8.082770   -8.580510  -20.214600
  C      9.030570   -9.053570  -19.260780
  C      9.551040  -10.357330  -19.386890
  C      9.151020  -11.159300  -20.420350
  C      8.219630  -10.697710  -21.364150
  C      7.696180   -9.437630  -21.264560
  H     10.508320   11.784630    4.100760
  H      9.885270   13.364040    5.871100
  H      7.083180   16.182050    2.025360
  H      6.495700   17.733290    3.853600
  H      7.323180   17.333090    6.136940
  H      8.744540   15.383460    6.623100
  H      7.747010   12.908540   -1.421030
  H      8.360110    6.161220   -2.452810
  H      7.900410    7.330470   -5.244570
  H      7.202370    5.878300   -6.869500
  H      6.557480    5.163400   -8.879760
  H      6.189700    2.945820  -10.886010
  H      7.809950    3.261670  -10.231560
  H      6.146800    5.318530  -11.469950
  H      7.493520    4.632460  -12.109510
  H      4.288290    3.156850   -9.218200
  H      4.366770    4.745040  -10.016230
  H      4.442460    4.417300   -7.118170
  H      3.159350    4.953600   -7.994610
  H      5.639150    1.187740   -9.631260
  H      4.910200   -0.725650   -8.133580
  H      6.698180   -1.913870   -6.758590
  H      7.648930   -0.219660   -5.257010
  H      8.327850    1.970160   -3.969850
  H      8.691230    4.252490   -3.186380
  H      5.689690   -1.292840  -10.311910
  H      8.136400   -2.125490   -8.676870
  H      8.431390   -5.827360  -14.474540
  H     11.080110   -6.403600  -13.052630
  H     11.234540   -8.130640  -14.734510
  H      7.498790   -5.447860  -18.998230
  H      6.825400   -6.948480  -20.814920
  H     10.265840  -10.701790  -18.656380
  H      9.550960  -12.157420  -20.517540
  H      7.918070  -11.348030  -22.171800
  H      6.979370   -9.080060  -21.989450

 Total Charge           Charge          ....    0
 Multiplicity           Mult            ....    1
 Number of Electrons    NEL             ....  574
 Basis Dimension        Dim             .... 1356

ORBITAL ENERGIES
----------------

  NO   OCC          E(Eh)            E(eV)
   0   2.0000     -24.807187      -675.0379
   1   2.0000     -24.807128      -675.0363
   2   2.0000     -24.806905      -675.0302
   3   2.0000     -24.804336      -674.9603
   4   2.0000     -24.802095      -674.8993
   5   2.0000     -24.796991      -674.7604
   6   2.0000     -24.794924      -674.7042
   7   2.0000     -24.793323      -674.6606
   8   2.0000     -19.222181      -523.0621
   9   2.0000     -19.219211      -522.9813
  10   2.0000     -14.419684      -392.3795
  11   2.0000     -14.418663      -392.3518
  12   2.0000     -14.415485      -392.2653
  13   2.0000     -14.414573      -392.2405
  14   2.0000     -14.374479      -391.1495
  15   2.0000     -14.373690      -391.1280
  16   2.0000     -10.384846      -282.5860
  17   2.0000     -10.383968      -282.5621
  18   2.0000     -10.383000      -282.5358
  19   2.0000     -10.380979      -282.4808
  20   2.0000     -10.378374      -282.4099
  21   2.0000     -10.376272      -282.3527
  22   2.0000     -10.372249      -282.2432
  23   2.0000     -10.372153      -282.2406
  24   2.0000     -10.370649      -282.1997
  25   2.0000     -10.369113      -282.1579
  26   2.0000     -10.349744      -281.6308
  27   2.0000     -10.347206      -281.5618
  28   2.0000     -10.344842      -281.4975
  29   2.0000     -10.340053      -281.3671
  30   2.0000     -10.321183      -280.8537
  31   2.0000     -10.320957      -280.8475
  32   2.0000     -10.320634      -280.8387
  33   2.0000     -10.319674      -280.8126
  34   2.0000     -10.317599      -280.7561
  35   2.0000     -10.316783      -280.7339
  36   2.0000     -10.316289      -280.7205
  37   2.0000     -10.315480      -280.6985
  38   2.0000     -10.313753      -280.6515
  39   2.0000     -10.312651      -280.6215
  40   2.0000     -10.312155      -280.6080
  41   2.0000     -10.309297      -280.5302
  42   2.0000     -10.309090      -280.5246
  43   2.0000     -10.304682      -280.4047
  44   2.0000     -10.302826      -280.3542
  45   2.0000     -10.301132      -280.3081
  46   2.0000     -10.300406      -280.2883
  47   2.0000     -10.299989      -280.2770
  48   2.0000     -10.299612      -280.2667
  49   2.0000     -10.299463      -280.2626
  50   2.0000     -10.298834      -280.2455
  51   2.0000     -10.296283      -280.1761
  52   2.0000     -10.295723      -280.1609
  53   2.0000     -10.295516      -280.1552
  54   2.0000     -10.295114      -280.1443
  55   2.0000     -10.295018      -280.1417
  56   2.0000     -10.294607      -280.1305
  57   2.0000     -10.294564      -280.1293
  58   2.0000     -10.291295      -280.0404
  59   2.0000     -10.290562      -280.0204
  60   2.0000     -10.287140      -279.9273
  61   2.0000     -10.286624      -279.9133
  62   2.0000     -10.284774      -279.8629
  63   2.0000     -10.283235      -279.8211
  64   2.0000     -10.282663      -279.8055
  65   2.0000     -10.282624      -279.8044
  66   2.0000     -10.281021      -279.7608
  67   2.0000     -10.280866      -279.7566
  68   2.0000     -10.280423      -279.7445
  69   2.0000     -10.278622      -279.6955
  70   2.0000     -10.277321      -279.6601
  71   2.0000     -10.276985      -279.6510
  72   2.0000     -10.275524      -279.6112
  73   2.0000     -10.274388      -279.5803
  74   2.0000     -10.274000      -279.5698
  75   2.0000     -10.270928      -279.4862
  76   2.0000     -10.268098      -279.4091
  77   2.0000     -10.267263      -279.3864
  78   2.0000     -10.264910      -279.3224
  79   2.0000     -10.262570      -279.2587
  80   2.0000     -10.262128      -279.2467
  81   2.0000     -10.261532      -279.2305
  82   2.0000     -10.261477      -279.2290
  83   2.0000     -10.259175      -279.1663
  84   2.0000      -1.330206       -36.1967
  85   2.0000      -1.328815       -36.1589
  86   2.0000      -1.322462       -35.9860
  87   2.0000      -1.319563       -35.9071
  88   2.0000      -1.313014       -35.7289
  89   2.0000      -1.311142       -35.6780
  90   2.0000      -1.303209       -35.4621
  91   2.0000      -1.302430       -35.4409
  92   2.0000      -1.137474       -30.9522
  93   2.0000      -1.134469       -30.8705
  94   2.0000      -1.023146       -27.8412
  95   2.0000      -1.018591       -27.7173
  96   2.0000      -1.003283       -27.3007
  97   2.0000      -0.998871       -27.1807
  98   2.0000      -0.997889       -27.1539
  99   2.0000      -0.994760       -27.0688
 100   2.0000      -0.994218       -27.0540
 101   2.0000      -0.985315       -26.8118
 102   2.0000      -0.983852       -26.7720
 103   2.0000      -0.972680       -26.4680
 104   2.0000      -0.967833       -26.3361
 105   2.0000      -0.963454       -26.2169
 106   2.0000      -0.949066       -25.8254
 107   2.0000      -0.947667       -25.7873
 108   2.0000      -0.937051       -25.4984
 109   2.0000      -0.927457       -25.2374
 110   2.0000      -0.924079       -25.1455
 111   2.0000      -0.919385       -25.0178
 112   2.0000      -0.912501       -24.8304
 113   2.0000      -0.907110       -24.6837
 114   2.0000      -0.899877       -24.4869
 115   2.0000      -0.896864       -24.4049
 116   2.0000      -0.879303       -23.9270
 117   2.0000      -0.876043       -23.8383
 118   2.0000      -0.868219       -23.6254
 119   2.0000      -0.861432       -23.4408
 120   2.0000      -0.856795       -23.3146
 121   2.0000      -0.854634       -23.2558
 122   2.0000      -0.848547       -23.0901
 123   2.0000      -0.847477       -23.0610
 124   2.0000      -0.841827       -22.9073
 125   2.0000      -0.837483       -22.7891
 126   2.0000      -0.831350       -22.6222
 127   2.0000      -0.828409       -22.5421
 128   2.0000      -0.819958       -22.3122
 129   2.0000      -0.802791       -21.8450
 130   2.0000      -0.786861       -21.4116
 131   2.0000      -0.779837       -21.2204
 132   2.0000      -0.773800       -21.0562
 133   2.0000      -0.767590       -20.8872
 134   2.0000      -0.758339       -20.6355
 135   2.0000      -0.751976       -20.4623
 136   2.0000      -0.744436       -20.2571
 137   2.0000      -0.734718       -19.9927
 138   2.0000      -0.728564       -19.8252
 139   2.0000      -0.720756       -19.6128
 140   2.0000      -0.719647       -19.5826
 141   2.0000      -0.717688       -19.5293
 142   2.0000      -0.715537       -19.4708
 143   2.0000      -0.712994       -19.4015
 144   2.0000      -0.707176       -19.2432
 145   2.0000      -0.704947       -19.1826
 146   2.0000      -0.698933       -19.0189
 147   2.0000      -0.691531       -18.8175
 148   2.0000      -0.683871       -18.6091
 149   2.0000      -0.682978       -18.5848
 150   2.0000      -0.679772       -18.4975
 151   2.0000      -0.676126       -18.3983
 152   2.0000      -0.673613       -18.3299
 153   2.0000      -0.667925       -18.1752
 154   2.0000      -0.663717       -18.0606
 155   2.0000      -0.656772       -17.8717
 156   2.0000      -0.652189       -17.7470
 157   2.0000      -0.650019       -17.6879
 158   2.0000      -0.645702       -17.5705
 159   2.0000      -0.643029       -17.4977
 160   2.0000      -0.633891       -17.2490
 161   2.0000      -0.631393       -17.1811
 162   2.0000      -0.629399       -17.1268
 163   2.0000      -0.623394       -16.9634
 164   2.0000      -0.620958       -16.8971
 165   2.0000      -0.616655       -16.7800
 166   2.0000      -0.611455       -16.6385
 167   2.0000      -0.607889       -16.5415
 168   2.0000      -0.605123       -16.4662
 169   2.0000      -0.602859       -16.4046
 170   2.0000      -0.598424       -16.2839
 171   2.0000      -0.595837       -16.2135
 172   2.0000      -0.593258       -16.1434
 173   2.0000      -0.592234       -16.1155
 174   2.0000      -0.590145       -16.0587
 175   2.0000      -0.587860       -15.9965
 176   2.0000      -0.585029       -15.9194
 177   2.0000      -0.583432       -15.8760
 178   2.0000      -0.581492       -15.8232
 179   2.0000      -0.579974       -15.7819
 180   2.0000      -0.574252       -15.6262
 181   2.0000      -0.572096       -15.5675
 182   2.0000      -0.570341       -15.5198
 183   2.0000      -0.567260       -15.4359
 184   2.0000      -0.564021       -15.3478
 185   2.0000      -0.562286       -15.3006
 186   2.0000      -0.558177       -15.1888
 187   2.0000      -0.557703       -15.1759
 188   2.0000      -0.555325       -15.1111
 189   2.0000      -0.552797       -15.0424
 190   2.0000      -0.549407       -14.9501
 191   2.0000      -0.548654       -14.9296
 192   2.0000      -0.547759       -14.9053
 193   2.0000      -0.542754       -14.7691
 194   2.0000      -0.540259       -14.7012
 195   2.0000      -0.538145       -14.6437
 196   2.0000      -0.536574       -14.6009
 197   2.0000      -0.534630       -14.5480
 198   2.0000      -0.534075       -14.5329
 199   2.0000      -0.530896       -14.4464
 200   2.0000      -0.527118       -14.3436
 201   2.0000      -0.525225       -14.2921
 202   2.0000      -0.522930       -14.2297
 203   2.0000      -0.520143       -14.1538
 204   2.0000      -0.517506       -14.0821
 205   2.0000      -0.515442       -14.0259
 206   2.0000      -0.513526       -13.9737
 207   2.0000      -0.510978       -13.9044
 208   2.0000      -0.510767       -13.8987
 209   2.0000      -0.510113       -13.8809
 210   2.0000      -0.509259       -13.8576
 211   2.0000      -0.508746       -13.8437
 212   2.0000      -0.508309       -13.8318
 213   2.0000      -0.505532       -13.7562
 214   2.0000      -0.504066       -13.7163
 215   2.0000      -0.501710       -13.6522
 216   2.0000      -0.499193       -13.5837
 217   2.0000      -0.496661       -13.5148
 218   2.0000      -0.494526       -13.4567
 219   2.0000      -0.491650       -13.3785
 220   2.0000      -0.489291       -13.3143
 221   2.0000      -0.485193       -13.2028
 222   2.0000      -0.483697       -13.1621
 223   2.0000      -0.483233       -13.1494
 224   2.0000      -0.482104       -13.1187
 225   2.0000      -0.480037       -13.0625
 226   2.0000      -0.478535       -13.0216
 227   2.0000      -0.475720       -12.9450
 228   2.0000      -0.473605       -12.8874
 229   2.0000      -0.470494       -12.8028
 230   2.0000      -0.469805       -12.7841
 231   2.0000      -0.464652       -12.6438
 232   2.0000      -0.463161       -12.6033
 233   2.0000      -0.461192       -12.5497
 234   2.0000      -0.456491       -12.4218
 235   2.0000      -0.454233       -12.3603
 236   2.0000      -0.453545       -12.3416
 237   2.0000      -0.452053       -12.3010
 238   2.0000      -0.448920       -12.2157
 239   2.0000      -0.447278       -12.1710
 240   2.0000      -0.445546       -12.1239
 241   2.0000      -0.443173       -12.0594
 242   2.0000      -0.440371       -11.9831
 243   2.0000      -0.439940       -11.9714
 244   2.0000      -0.438033       -11.9195
 245   2.0000      -0.436329       -11.8731
 246   2.0000      -0.433703       -11.8017
 247   2.0000      -0.433309       -11.7909
 248   2.0000      -0.433062       -11.7842
 249   2.0000      -0.431515       -11.7421
 250   2.0000      -0.430509       -11.7147
 251   2.0000      -0.428874       -11.6703
 252   2.0000      -0.428678       -11.6649
 253   2.0000      -0.425448       -11.5770
 254   2.0000      -0.423648       -11.5281
 255   2.0000      -0.421036       -11.4570
 256   2.0000      -0.418172       -11.3790
 257   2.0000      -0.411441       -11.1959
 258   2.0000      -0.410687       -11.1754
 259   2.0000      -0.408260       -11.1093
 260   2.0000      -0.405934       -11.0460
 261   2.0000      -0.400843       -10.9075
 262   2.0000      -0.399720       -10.8769
 263   2.0000      -0.390134       -10.6161
 264   2.0000      -0.386638       -10.5210
 265   2.0000      -0.380798       -10.3620
 266   2.0000      -0.380405       -10.3513
 267   2.0000      -0.368278       -10.0213
 268   2.0000      -0.367409        -9.9977
 269   2.0000      -0.364434        -9.9168
 270   2.0000      -0.351037        -9.5522
 271   2.0000      -0.341407        -9.2902
 272   2.0000      -0.336681        -9.1616
 273   2.0000      -0.334514        -9.1026
 274   2.0000      -0.328751        -8.9458
 275   2.0000      -0.323142        -8.7931
 276   2.0000      -0.320124        -8.7110
 277   2.0000      -0.318399        -8.6641
 278   2.0000      -0.316368        -8.6088
 279   2.0000      -0.307843        -8.3768
 280   2.0000      -0.301873        -8.2144
 281   2.0000      -0.297864        -8.1053
 282   2.0000      -0.294752        -8.0206
 283   2.0000      -0.292439        -7.9577
 284   2.0000      -0.285729        -7.7751
 285   2.0000      -0.271611        -7.3909
 286   2.0000      -0.222128        -6.0444
 287   0.0000      -0.091941        -2.5018
 288   0.0000      -0.085455        -2.3254
 289   0.0000      -0.075237        -2.0473
 290   0.0000      -0.072653        -1.9770
 291   0.0000      -0.062443        -1.6992

MULLIKEN ATOMIC CHARGES
-----------------------
   0 C :   -0.090642
   1 C :    0.111146
   2 O :   -0.144241
   3 C :    0.013934
   4 C :   -0.007141
   5 C :    0.276448
   6 C :   -0.317877
   7 C :   -0.203327
   8 N :    0.173639
   9 C :   -0.182093
  10 N :    0.161125
  11 C :   -0.018397
  12 C :    0.007347
  13 C :    0.077935
  14 C :    0.035494
  15 C :   -0.025366
  16 C :    0.038342
  17 C :    0.037933
  18 C :   -0.018599
  19 C :    0.014268
  20 C :   -0.106827
  21 C :    0.204359
  22 F :   -0.168823
  23 C :    0.192092
  24 F :   -0.176348
  25 C :   -0.022009
  26 C :    0.187250
  27 C :    0.214940
  28 F :   -0.163354
  29 F :   -0.170062
  30 C :   -0.020842
  31 C :    0.017150
  32 C :    0.105721
  33 C :   -0.090283
  34 C :    0.048123
  35 C :   -0.075648
  36 C :   -0.030251
  37 C :    0.129912
  38 N :   -0.210759
  39 C :    0.163758
  40 N :   -0.227423
  41 C :    0.091476
  42 C :   -0.121400
  43 C :    0.180978
  44 C :   -0.069361
  45 C :    0.026350
  46 C :    0.002795
  47 C :    0.043032
  48 C :   -0.001564
  49 C :   -0.004308
  50 C :   -0.093890
  51 C :    0.019121
  52 C :   -0.034621
  53 C :    0.181542
  54 F :   -0.174601
  55 C :    0.201807
  56 F :   -0.174531
  57 C :   -0.064821
  58 C :    0.203868
  59 C :    0.181056
  60 F :   -0.171811
  61 F :   -0.167430
  62 C :    0.001353
  63 C :    0.031312
  64 C :    0.026593
  65 C :   -0.099813
  66 C :    0.111084
  67 O :   -0.148070
  68 C :    0.017000
  69 C :   -0.011744
  70 C :    0.260907
  71 C :   -0.331977
  72 C :   -0.193945
  73 N :    0.175567
  74 C :   -0.182601
  75 N :    0.162945
  76 C :   -0.017537
  77 C :    0.003950
  78 C :    0.077970
  79 C :    0.034979
  80 C :   -0.027404
  81 C :    0.039571
  82 C :    0.040043
  83 C :   -0.020375
  84 H :    0.002740
  85 H :   -0.012301
  86 H :    0.000468
  87 H :   -0.006038
  88 H :   -0.005825
  89 H :   -0.021308
  90 H :    0.037097
  91 H :   -0.006486
  92 H :    0.000800
  93 H :   -0.024620
  94 H :   -0.007914
  95 H :   -0.021033
  96 H :    0.005127
  97 H :    0.086644
  98 H :    0.092165
  99 H :   -0.031757
 100 H :   -0.019255
 101 H :    0.099536
 102 H :    0.090395
 103 H :   -0.008880
 104 H :    0.049834
 105 H :   -0.005994
 106 H :   -0.035039
 107 H :   -0.037583
 108 H :   -0.023639
 109 H :    0.015880
 110 H :    0.009361
 111 H :    0.017194
 112 H :    0.025047
 113 H :    0.030315
 114 H :    0.002013
 115 H :   -0.011468
 116 H :    0.001326
 117 H :   -0.005934
 118 H :   -0.005081
 119 H :   -0.019889
Sum of atomic charges:   -0.0000000

LOEWDIN ATOMIC CHARGES
----------------------
   0 C :   -0.069435
   1 C :    0.089541
   2 O :   -0.134812
   3 C :   -0.034589
   4 C :   -0.000812
   5 C :    0.068102
   6 C :   -0.126389
   7 C :   -0.018032
   8 N :   -0.042201
   9 C :   -0.019208
  10 N :   -0.045038
  11 C :   -0.016253
  12 C :    0.021319
  13 C :   -0.009472
  14 C :   -0.002202
  15 C :   -0.001993
  16 C :   -0.011497
  17 C :   -0.012588
  18 C :   -0.011786
  19 C :    0.063468
  20 C :   -0.088016
  21 C :    0.068649
  22 F :   -0.040724
  23 C :    0.062088
  24 F :   -0.050134
  25 C :   -0.040712
  26 C :    0.062431
  27 C :    0.077597
  28 F :   -0.042764
  29 F :   -0.041555
  30 C :   -0.044849
  31 C :    0.020473
  32 C :   -0.032542
  33 C :    0.005089
  34 C :   -0.024422
  35 C :   -0.030601
  36 C :   -0.039123
  37 C :    0.026880
  38 N :   -0.114728
  39 C :    0.027181
  40 N :   -0.118636
  41 C :   -0.017127
  42 C :    0.064036
  43 C :   -0.031790
  44 C :   -0.040208
  45 C :   -0.011781
  46 C :   -0.038685
  47 C :   -0.028547
  48 C :   -0.009249
  49 C :   -0.021744
  50 C :    0.011506
  51 C :   -0.032775
  52 C :   -0.055310
  53 C :    0.061398
  54 F :   -0.044559
  55 C :    0.069358
  56 F :   -0.048848
  57 C :   -0.069098
  58 C :    0.071730
  59 C :    0.061754
  60 F :   -0.046874
  61 F :   -0.038212
  62 C :    0.020559
  63 C :   -0.019950
  64 C :    0.060298
  65 C :   -0.078559
  66 C :    0.088072
  67 O :   -0.137864
  68 C :   -0.033317
  69 C :   -0.004007
  70 C :    0.065235
  71 C :   -0.130926
  72 C :   -0.016283
  73 N :   -0.039864
  74 C :   -0.020523
  75 N :   -0.046110
  76 C :   -0.016886
  77 C :    0.020615
  78 C :   -0.009029
  79 C :   -0.002729
  80 C :   -0.001948
  81 C :   -0.010930
  82 C :   -0.011323
  83 C :   -0.011884
  84 H :    0.040362
  85 H :    0.035956
  86 H :    0.035600
  87 H :    0.032875
  88 H :    0.032256
  89 H :    0.030442
  90 H :    0.051019
  91 H :    0.029658
  92 H :    0.029731
  93 H :    0.030367
  94 H :    0.032670
  95 H :   -0.005456
  96 H :    0.021809
  97 H :    0.049006
  98 H :    0.055434
  99 H :   -0.006510
 100 H :    0.010416
 101 H :    0.053004
 102 H :    0.054186
 103 H :    0.024896
 104 H :    0.069282
 105 H :    0.025375
 106 H :    0.030663
 107 H :    0.027308
 108 H :    0.026776
 109 H :    0.023719
 110 H :    0.035697
 111 H :    0.034959
 112 H :    0.036338
 113 H :    0.048060
 114 H :    0.040085
 115 H :    0.036251
 116 H :    0.035847
 117 H :    0.033121
 118 H :    0.032617
 119 H :    0.030857

  Mayer bond orders larger than 0.100000
B(  0-C ,  1-C ) :   0.9437 B(  0-C ,  5-C ) :   1.0061 B(  0-C , 19-C ) :   1.7419
B(  1-C ,  2-O ) :   2.1984 B(  1-C ,  3-C ) :   0.9441 B(  3-C ,  4-C ) :   1.4114
B(  3-C , 14-C ) :   1.2303 B(  4-C ,  5-C ) :   1.0056 B(  4-C , 11-C ) :   1.2589
B(  5-C ,  6-C ) :   1.6720 B(  6-C ,  7-C ) :   1.1639 B(  6-C ,  9-C ) :   1.1284
B(  7-C ,  8-N ) :   3.0112 B(  9-C , 10-N ) :   2.9966 B( 11-C , 12-C ) :   1.4709
B( 11-C , 84-H ) :   0.9859 B( 12-C , 13-C ) :   1.2235 B( 12-C , 85-H ) :   0.9937
B( 13-C , 14-C ) :   1.2427 B( 13-C , 18-C ) :   1.2395 B( 14-C , 15-C ) :   1.2777
B( 15-C , 16-C ) :   1.4753 B( 15-C , 86-H ) :   0.9864 B( 16-C , 17-C ) :   1.2556
B( 16-C , 87-H ) :   0.9872 B( 17-C , 18-C ) :   1.4951 B( 17-C , 88-H ) :   0.9888
B( 18-C , 89-H ) :   0.9977 B( 19-C , 20-C ) :   1.0530 B( 19-C , 90-H ) :   0.9328
B( 20-C , 21-C ) :   1.2713 B( 20-C , 25-C ) :   0.1266 B( 20-C , 27-C ) :   1.3010
B( 21-C , 22-F ) :   1.1400 B( 21-C , 23-C ) :   1.3304 B( 23-C , 24-F ) :   1.1339
B( 23-C , 25-C ) :   1.2897 B( 25-C , 26-C ) :   1.2489 B( 25-C , 30-C ) :   1.1299
B( 26-C , 27-C ) :   1.3243 B( 26-C , 29-F ) :   1.1292 B( 27-C , 28-F ) :   1.1835
B( 30-C , 31-C ) :   1.6401 B( 30-C , 91-H ) :   0.9686 B( 31-C , 32-C ) :   1.0836
B( 31-C , 92-H ) :   0.9845 B( 32-C , 33-C ) :   1.4966 B( 32-C , 49-C ) :   1.1148
B( 33-C , 34-C ) :   1.1229 B( 33-C , 93-H ) :   1.0041 B( 34-C , 35-C ) :   1.5025
B( 34-C , 47-C ) :   1.1107 B( 35-C , 36-C ) :   1.0482 B( 35-C , 41-C ) :   1.0749
B( 36-C , 37-C ) :   1.0311 B( 36-C , 39-C ) :   1.0332 B( 36-C , 94-H ) :   0.8748
B( 37-C , 38-N ) :   1.1057 B( 37-C , 95-H ) :   0.9242 B( 37-C , 96-H ) :   0.9466
B( 38-N , 97-H ) :   0.9705 B( 38-N , 98-H ) :   0.9673 B( 39-C , 40-N ) :   1.0934
B( 39-C , 99-H ) :   0.9288 B( 39-C ,100-H ) :   0.9331 B( 40-N ,101-H ) :   0.9682
B( 40-N ,102-H ) :   0.9663 B( 41-C , 42-C ) :   1.6917 B( 41-C , 46-C ) :   1.0473
B( 42-C , 43-C ) :   0.9630 B( 42-C ,103-H ) :   0.9576 B( 43-C , 44-C ) :   1.0057
B( 43-C , 50-C ) :   0.9481 B( 43-C ,104-H ) :   0.8324 B( 44-C , 45-C ) :   1.7132
B( 44-C ,105-H ) :   0.9673 B( 45-C , 46-C ) :   1.1275 B( 45-C ,106-H ) :   0.9900
B( 46-C , 47-C ) :   1.4527 B( 47-C , 48-C ) :   1.1306 B( 48-C , 49-C ) :   1.6306
B( 48-C ,107-H ) :   0.9898 B( 49-C ,108-H ) :   0.9803 B( 50-C , 51-C ) :   1.8383
B( 50-C ,109-H ) :   0.9651 B( 51-C , 52-C ) :   1.0931 B( 51-C ,110-H ) :   0.9565
B( 52-C , 53-C ) :   1.2705 B( 52-C , 57-C ) :   0.1296 B( 52-C , 59-C ) :   1.3027
B( 53-C , 54-F ) :   1.1265 B( 53-C , 55-C ) :   1.3254 B( 55-C , 56-F ) :   1.1407
B( 55-C , 57-C ) :   1.2955 B( 57-C , 58-C ) :   1.2650 B( 57-C , 62-C ) :   1.1410
B( 58-C , 59-C ) :   1.3167 B( 58-C , 61-F ) :   1.1409 B( 59-C , 60-F ) :   1.1408
B( 62-C , 63-C ) :   1.7008 B( 62-C ,111-H ) :   0.9619 B( 63-C , 64-C ) :   1.1027
B( 63-C ,112-H ) :   0.9511 B( 64-C , 65-C ) :   1.7330 B( 64-C ,113-H ) :   0.9249
B( 65-C , 66-C ) :   0.9489 B( 65-C , 70-C ) :   1.0061 B( 66-C , 67-O ) :   2.1947
B( 66-C , 68-C ) :   0.9407 B( 68-C , 69-C ) :   1.4121 B( 68-C , 79-C ) :   1.2334
B( 69-C , 70-C ) :   1.0029 B( 69-C , 76-C ) :   1.2571 B( 70-C , 71-C ) :   1.6660
B( 71-C , 72-C ) :   1.1685 B( 71-C , 74-C ) :   1.1225 B( 72-C , 73-N ) :   2.9917
B( 74-C , 75-N ) :   3.0003 B( 76-C , 77-C ) :   1.4731 B( 76-C ,114-H ) :   0.9861
B( 77-C , 78-C ) :   1.2215 B( 77-C ,115-H ) :   0.9947 B( 78-C , 79-C ) :   1.2412
B( 78-C , 83-C ) :   1.2403 B( 79-C , 80-C ) :   1.2753 B( 80-C , 81-C ) :   1.4745
B( 80-C ,116-H ) :   0.9875 B( 81-C , 82-C ) :   1.2559 B( 81-C ,117-H ) :   0.9871
B( 82-C , 83-C ) :   1.4933 B( 82-C ,118-H ) :   0.9893 B( 83-C ,119-H ) :   0.9985

-----------------------------------------------------------------------------
         ABSORPTION SPECTRUM VIA TRANSITION ELECTRIC DIPOLE MOMENTS
-----------------------------------------------------------------------------
State   Energy  Wavelength   fosc         T2         TX        TY        TZ
        (cm-1)    (nm)                  (au**2)     (au)      (au)      (au)
-----------------------------------------------------------------------------
   0   14928.4    669.9   0.079550748   1.75431   0.32698  -0.08460   1.28072
   1   19052.4    524.9   0.019059808   0.32934  -0.33868  -0.35817  -0.29386
   2   19413.6    515.1   0.545264730   9.24647  -0.37536  -2.44304  -1.77119
   3   23252.4    430.1   0.104976662   1.48628   0.05465  -1.00756  -0.68418
   4   23713.6    421.7   0.305965931   4.24767  -0.25964   0.62835   1.94562
   5   23936.0    417.8   0.206566873   2.84108  -0.24186   0.94667   1.37346
   6   25110.4    398.2   0.997143439  13.07315  -0.73610  -2.53077  -2.47517
   7   27065.6    369.5   0.039510194   0.48058   0.09563  -0.16984   0.66527
   8   27151.2    368.3   0.055580453   0.67392  -0.69972  -0.37742   0.20462
   9   28123.2    355.6   0.112727137   1.31959   0.52244  -0.87053  -0.53741
  10   28667.2    348.8   0.571910627   6.56777   0.14871  -1.46538  -2.09721
  11   29000.3    344.8   0.021132861   0.23990  -0.18665   0.44319   0.09298
  12   29612.5    337.7   0.090084279   1.00150   0.23075   0.81928   0.52633
  13   29740.0    336.2   0.057969163   0.64170   0.00103  -0.37616  -0.70725
  14   29881.6    334.7   0.090526458   0.99735   0.30932  -0.86521  -0.39126
  15   29974.0    333.6   0.072541662   0.79674  -0.39756   0.08872  -0.79424
  16   30221.4    330.9   0.026476797   0.28842  -0.42771  -0.17396  -0.27427
  17   30616.6    326.6   0.326219683   3.50775   0.28977  -1.59059  -0.94541
  18   31064.0    321.9   0.017730560   0.18791   0.11270  -0.17181  -0.38169
  19   31209.5    320.4   0.416101741   4.38924   0.14426   1.95746   0.73266
  20   31627.3    316.2   0.246679011   2.56771   0.07913   1.30121   0.93183
  21   31858.3    313.9   0.055159433   0.57000   0.39717   0.16532   0.62042
  22   31899.6    313.5   0.291953325   3.01304  -0.10683   1.46272   0.92848
  23   32189.2    310.7   0.288515633   2.95077  -0.71479   1.53178   0.30577
  24   32613.1    306.6   0.440098240   4.44256   0.31186   1.62694   1.30322
  25   32725.2    305.6   0.262943415   2.64519  -1.19227   1.08362   0.22238
  26   33109.3    302.0   0.019269487   0.19160  -0.10325   0.41840   0.07666
  27   33442.2    299.0   0.342188594   3.36857   0.84710  -1.01082  -1.27642
  28   34526.2    289.6   0.103817519   0.98991   0.17165  -0.40955  -0.89034
  29   34784.4    287.5   0.120139442   1.13704   0.42434   0.71521   0.66742
  30   35182.7    284.2   0.000146118   0.00137   0.02183  -0.02927   0.00586
  31   35477.0    281.9   0.029993567   0.27833  -0.27011  -0.28634  -0.35125
  32   35830.6    279.1   0.107262727   0.98553   0.62033  -0.76271   0.13782
  33   36245.1    275.9   0.000793106   0.00720   0.02051  -0.01230   0.08144
  34   36669.2    272.7   0.012659135   0.11365   0.26565  -0.05194   0.20095
  35   36929.8    270.8   0.143607048   1.28019  -0.32799   0.60737  -0.89650
  36   37109.1    269.5   0.021546054   0.19114   0.20968   0.31574   0.21792
  37   37304.6    268.1   0.012781288   0.11279  -0.07058  -0.09212  -0.31516
  38   37650.5    265.6   0.155089025   1.35608   0.13560  -1.13924  -0.19958
  39   38210.6    261.7   0.028990125   0.24977   0.37174  -0.28722   0.17055
  40   38475.6    259.9   0.115904200   0.99172  -0.43518  -0.81771  -0.36563
  41   38846.9    257.4   0.010325689   0.08751   0.11681  -0.23717  -0.13270
  42   39146.6    255.4   0.005739402   0.04827  -0.08872   0.15894   0.12302
  43   39527.7    253.0   0.114671299   0.95506   0.26776  -0.64172  -0.68670
  44   39673.4    252.1   0.279430184   2.31873  -0.46775   1.12526   0.91309
  45   39835.0    251.0   0.011780518   0.09736  -0.11553   0.16708   0.23684
  46   39855.9    250.9   0.050846657   0.42000  -0.00049  -0.44071  -0.47516
  47   39904.8    250.6   0.041099601   0.33907  -0.23980   0.39334   0.35615
  48   40083.8    249.5   0.048884900   0.40150   0.60076   0.11574   0.16487

FINAL SINGLE POINT ENERGY     -3885.657590825907

DIPOLE MOMENT
-------------
                                X             Y             Z
Electronic contribution:     28.78948       7.54088      26.21277
Nuclear contribution   :    -32.23820     -10.04801     -26.80415
                        -----------------------------------------
Total Dipole Moment    :     -3.44871      -2.50713      -0.59138
                        -----------------------------------------
Magnitude (a.u.)       :      4.30454
Magnitude (Debye)      :     10.94127

Rotational constants in cm-1:     0.002815     0.000121     0.000119
Rotational constants in MHz :    84.402369     3.629707     3.581700

                             ****ORCA TERMINATED NORMALLY****
TOTAL RUN TIME: 0 days 0 hours 12 minutes 29 seconds 19 msec
