                         Program Version 4.2.0 -  RELEASE  -
|  1> # ORCA input file
|  2> # SCF done       -203.455742354058          0.000927015446
|  3> ! CAM-B3LYP def2-SVP def2/J RIJCOSX Grid4 TightSCF
|  4> %maxcore 5000
|  5> %tddft
|  6>     Mode sTDDFT
|  7>     Ethresh 5.0
|  8>     maxcore 5000
|  9> end
| 10>
| 11> %pal
| 12>   nprocs 6
| 13>   end
| 14> * xyz 0 1
| 15>    C        6.85778         4.26537        -2.15391
| 16>    C        5.87498         4.53215        -3.24887
| 17>    O        4.67235         4.44209        -3.15243
| 18>    C        6.69105         4.96345        -4.39437
| 19>    C        8.04689         4.83111        -4.08072
| 20>    C        8.18402         4.24806        -2.75324
| 21>    C        9.29207         3.62029        -2.25855
| 22>    C        9.31102         2.87013        -1.06401
| 23>    N        9.38094         2.19951        -0.13482
| 24>    C       10.53442         3.56121        -2.92770
| 25>    N       11.56798         3.48989        -3.42015
| 26>    C        9.03283         5.21805        -4.99869
| 27>    C        8.64143         5.71700        -6.21309
| 28>    C        7.28048         5.84563        -6.56935
| 29>    C        6.26745         5.46437        -5.64120
| 30>    C        4.91093         5.59891        -5.99980
| 31>    C        4.57179         6.08777        -7.23163
| 32>    C        5.56519         6.46313        -8.15006
| 33>    C        6.88976         6.34627        -7.82735
| 34>    C        6.45984         4.20811        -0.86876
| 35>    C        7.31678         4.32998         0.28511
| 36>    C        8.23528         5.31451         0.43975
| 37>    C        8.83962         5.19127         1.76096
| 38>    C        9.79593         6.08870         2.25568
| 39>    N       10.58346         6.83907         2.62062
| 40>    C        8.32593         4.09462         2.38211
| 41>    C        7.38031         3.46538         1.48573
| 42>    C        6.77760         2.24836         1.63116
| 43>    C        7.03107         1.23017         2.68125
| 44>    C        6.08723         0.25676         2.53747
| 45>    C        5.24878         0.57866         1.40007
| 46>    C        5.69070         1.73941         0.83278
| 47>    C        4.17737        -0.21487         0.96432
| 48>    N        3.30342        -0.87405         0.62050
| 49>    C        8.17231         1.19671         3.54146
| 50>    C        8.28325         0.38770         4.61694
| 51>    C        9.45292         0.22566         5.42617
| 52>    C       10.43393         1.09797         5.89595
| 53>    N       10.31690         2.51031         5.84630
| 54>    O        9.44833         2.99975         5.14426
| 55>    O       11.06040         3.17004         6.54351
| 56>    C       11.49761         0.45459         6.60133
| 57>    C       12.73795         1.14718         7.05133
| 58>    C       11.28844        -0.89810         6.71821
| 59>    S        9.80093        -1.38768         5.95054
| 60>    C       12.13654        -1.92339         7.26828
| 61>    C       12.37114        -3.13207         6.69611
| 62>    C       13.38340        -3.82722         7.47624
| 63>    C       13.84524        -5.11786         7.18260
| 64>    N       14.21869        -6.17080         6.92135
| 65>    C       13.78946        -3.02404         8.50282
| 66>    C       12.98246        -1.82977         8.47579
| 67>    C       12.85896        -0.92828         9.49660
| 68>    C       13.80262        -0.72314        10.61920
| 69>    C       13.16936         0.06131        11.54015
| 70>    C       11.85135         0.39276        11.04001
| 71>    C       11.68938        -0.14859         9.79323
| 72>    C       10.90846         1.15364        11.74720
| 73>    N       10.14645         1.78060        12.33224
| 74>    C       15.16895        -1.12413        10.60110
| 75>    C       15.97714        -1.18570        11.68785
| 76>    C       17.34319        -1.55053        11.58765
| 77>    C       18.18646        -1.88559        12.59908
| 78>    C       19.66302        -1.84923        12.38908
| 79>    O       20.22493        -1.79150        11.31798
| 80>    C       20.24157        -1.84233        13.74351
| 81>    C       19.22380        -2.00087        14.68700
| 82>    C       17.95105        -2.18163        13.99546
| 83>    C       16.82015        -2.74928        14.52081
| 84>    C       15.72609        -3.17402        13.73669
| 85>    N       14.83976        -3.58048        13.13102
| 86>    C       16.66035        -3.08281        15.88225
| 87>    N       16.46777        -3.35134        16.98118
| 88>    C       19.51544        -2.00088        16.05693
| 89>    C       20.81929        -1.84928        16.45221
| 90>    C       21.87333        -1.70055        15.52418
| 91>    C       21.58836        -1.69305        14.12728
| 92>    C       22.64278        -1.54094        13.20401
| 93>    C       23.92946        -1.40474        13.64752
| 94>    C       24.21625        -1.41314        15.02203
| 95>    C       23.21244        -1.55712        15.94040
| 96>    H       10.07877         5.13758        -4.75130
| 97>    H        9.38847         6.02463        -6.93031
| 98>    H        4.15561         5.30838        -5.28685
| 99>    H        3.53276         6.18856        -7.50682
|100>    H        5.27453         6.84677        -9.11664
|101>    H        7.65604         6.63429        -8.53221
|102>    H        5.38753         4.20541        -0.69925
|103>    H        8.46184         6.10267        -0.25559
|104>    H        8.54637         3.78621         3.38458
|105>    H        5.98713        -0.64836         3.10629
|106>    H        5.26259         2.21436        -0.02678
|107>    H        9.00884         1.80784         3.24670
|108>    H        7.47445        -0.28957         4.85971
|109>    H       13.08007         1.83559         6.28111
|110>    H       13.52404         0.42624         7.25832
|111>    H       12.55031         1.73989         7.94552
|112>    H       11.92621        -3.52148         5.79947
|113>    H       14.47329        -3.29467         9.28357
|114>    H       13.56565         0.43195        12.46624
|115>    H       10.79788        -0.11311         9.19819
|116>    H       15.58149        -1.40241         9.64011
|117>    H       15.57709        -0.95367        12.66398
|118>    H       17.79903        -1.49436        10.60401
|119>    H       18.73122        -2.10706        16.78881
|120>    H       21.06108        -1.84308        17.50517
|121>    H       22.41093        -1.53545        12.15072
|122>    H       24.73687        -1.28942        12.94008
|123>    H       25.23949        -1.30423        15.34952
|124>    H       23.43097        -1.56451        16.99837
|125> *
|126>
|127>                          ****END OF INPUT****

CARTESIAN COORDINATES (ANGSTROEM)
---------------------------------
  C      6.857780    4.265370   -2.153910
  C      5.874980    4.532150   -3.248870
  O      4.672350    4.442090   -3.152430
  C      6.691050    4.963450   -4.394370
  C      8.046890    4.831110   -4.080720
  C      8.184020    4.248060   -2.753240
  C      9.292070    3.620290   -2.258550
  C      9.311020    2.870130   -1.064010
  N      9.380940    2.199510   -0.134820
  C     10.534420    3.561210   -2.927700
  N     11.567980    3.489890   -3.420150
  C      9.032830    5.218050   -4.998690
  C      8.641430    5.717000   -6.213090
  C      7.280480    5.845630   -6.569350
  C      6.267450    5.464370   -5.641200
  C      4.910930    5.598910   -5.999800
  C      4.571790    6.087770   -7.231630
  C      5.565190    6.463130   -8.150060
  C      6.889760    6.346270   -7.827350
  C      6.459840    4.208110   -0.868760
  C      7.316780    4.329980    0.285110
  C      8.235280    5.314510    0.439750
  C      8.839620    5.191270    1.760960
  C      9.795930    6.088700    2.255680
  N     10.583460    6.839070    2.620620
  C      8.325930    4.094620    2.382110
  C      7.380310    3.465380    1.485730
  C      6.777600    2.248360    1.631160
  C      7.031070    1.230170    2.681250
  C      6.087230    0.256760    2.537470
  C      5.248780    0.578660    1.400070
  C      5.690700    1.739410    0.832780
  C      4.177370   -0.214870    0.964320
  N      3.303420   -0.874050    0.620500
  C      8.172310    1.196710    3.541460
  C      8.283250    0.387700    4.616940
  C      9.452920    0.225660    5.426170
  C     10.433930    1.097970    5.895950
  N     10.316900    2.510310    5.846300
  O      9.448330    2.999750    5.144260
  O     11.060400    3.170040    6.543510
  C     11.497610    0.454590    6.601330
  C     12.737950    1.147180    7.051330
  C     11.288440   -0.898100    6.718210
  S      9.800930   -1.387680    5.950540
  C     12.136540   -1.923390    7.268280
  C     12.371140   -3.132070    6.696110
  C     13.383400   -3.827220    7.476240
  C     13.845240   -5.117860    7.182600
  N     14.218690   -6.170800    6.921350
  C     13.789460   -3.024040    8.502820
  C     12.982460   -1.829770    8.475790
  C     12.858960   -0.928280    9.496600
  C     13.802620   -0.723140   10.619200
  C     13.169360    0.061310   11.540150
  C     11.851350    0.392760   11.040010
  C     11.689380   -0.148590    9.793230
  C     10.908460    1.153640   11.747200
  N     10.146450    1.780600   12.332240
  C     15.168950   -1.124130   10.601100
  C     15.977140   -1.185700   11.687850
  C     17.343190   -1.550530   11.587650
  C     18.186460   -1.885590   12.599080
  C     19.663020   -1.849230   12.389080
  O     20.224930   -1.791500   11.317980
  C     20.241570   -1.842330   13.743510
  C     19.223800   -2.000870   14.687000
  C     17.951050   -2.181630   13.995460
  C     16.820150   -2.749280   14.520810
  C     15.726090   -3.174020   13.736690
  N     14.839760   -3.580480   13.131020
  C     16.660350   -3.082810   15.882250
  N     16.467770   -3.351340   16.981180
  C     19.515440   -2.000880   16.056930
  C     20.819290   -1.849280   16.452210
  C     21.873330   -1.700550   15.524180
  C     21.588360   -1.693050   14.127280
  C     22.642780   -1.540940   13.204010
  C     23.929460   -1.404740   13.647520
  C     24.216250   -1.413140   15.022030
  C     23.212440   -1.557120   15.940400
  H     10.078770    5.137580   -4.751300
  H      9.388470    6.024630   -6.930310
  H      4.155610    5.308380   -5.286850
  H      3.532760    6.188560   -7.506820
  H      5.274530    6.846770   -9.116640
  H      7.656040    6.634290   -8.532210
  H      5.387530    4.205410   -0.699250
  H      8.461840    6.102670   -0.255590
  H      8.546370    3.786210    3.384580
  H      5.987130   -0.648360    3.106290
  H      5.262590    2.214360   -0.026780
  H      9.008840    1.807840    3.246700
  H      7.474450   -0.289570    4.859710
  H     13.080070    1.835590    6.281110
  H     13.524040    0.426240    7.258320
  H     12.550310    1.739890    7.945520
  H     11.926210   -3.521480    5.799470
  H     14.473290   -3.294670    9.283570
  H     13.565650    0.431950   12.466240
  H     10.797880   -0.113110    9.198190
  H     15.581490   -1.402410    9.640110
  H     15.577090   -0.953670   12.663980
  H     17.799030   -1.494360   10.604010
  H     18.731220   -2.107060   16.788810
  H     21.061080   -1.843080   17.505170
  H     22.410930   -1.535450   12.150720
  H     24.736870   -1.289420   12.940080
  H     25.239490   -1.304230   15.349520
  H     23.430970   -1.564510   16.998370

 Total Charge           Charge          ....    0
 Multiplicity           Mult            ....    1
 Number of Electrons    NEL             ....  542
 Basis Dimension        Dim             .... 1283

ORBITAL ENERGIES
----------------

  NO   OCC          E(Eh)            E(eV)
   0   2.0000     -88.988503     -2421.5003
   1   2.0000     -19.251066      -523.8481
   2   2.0000     -19.248476      -523.7777
   3   2.0000     -19.233487      -523.3698
   4   2.0000     -19.223978      -523.1110
   5   2.0000     -14.660790      -398.9404
   6   2.0000     -14.430283      -392.6680
   7   2.0000     -14.428057      -392.6074
   8   2.0000     -14.421792      -392.4369
   9   2.0000     -14.421678      -392.4338
  10   2.0000     -14.420520      -392.4023
  11   2.0000     -14.420241      -392.3947
  12   2.0000     -14.418055      -392.3352
  13   2.0000     -14.413835      -392.2204
  14   2.0000     -10.383688      -282.5545
  15   2.0000     -10.374227      -282.2971
  16   2.0000     -10.360746      -281.9302
  17   2.0000     -10.357133      -281.8319
  18   2.0000     -10.353180      -281.7244
  19   2.0000     -10.350012      -281.6381
  20   2.0000     -10.348484      -281.5966
  21   2.0000     -10.341589      -281.4089
  22   2.0000     -10.340556      -281.3808
  23   2.0000     -10.338889      -281.3355
  24   2.0000     -10.336391      -281.2675
  25   2.0000     -10.335732      -281.2496
  26   2.0000     -10.334062      -281.2041
  27   2.0000     -10.333173      -281.1799
  28   2.0000     -10.331940      -281.1464
  29   2.0000     -10.331131      -281.1244
  30   2.0000     -10.331020      -281.1213
  31   2.0000     -10.329932      -281.0917
  32   2.0000     -10.329920      -281.0914
  33   2.0000     -10.328027      -281.0399
  34   2.0000     -10.324041      -280.9314
  35   2.0000     -10.323803      -280.9250
  36   2.0000     -10.323592      -280.9192
  37   2.0000     -10.319834      -280.8170
  38   2.0000     -10.318825      -280.7895
  39   2.0000     -10.318362      -280.7769
  40   2.0000     -10.318090      -280.7695
  41   2.0000     -10.317380      -280.7502
  42   2.0000     -10.316617      -280.7294
  43   2.0000     -10.316179      -280.7175
  44   2.0000     -10.315324      -280.6942
  45   2.0000     -10.315047      -280.6867
  46   2.0000     -10.314992      -280.6852
  47   2.0000     -10.314357      -280.6679
  48   2.0000     -10.313685      -280.6497
  49   2.0000     -10.313672      -280.6493
  50   2.0000     -10.312605      -280.6202
  51   2.0000     -10.312286      -280.6116
  52   2.0000     -10.312204      -280.6093
  53   2.0000     -10.312144      -280.6077
  54   2.0000     -10.309860      -280.5456
  55   2.0000     -10.308924      -280.5201
  56   2.0000     -10.308447      -280.5071
  57   2.0000     -10.308159      -280.4993
  58   2.0000     -10.307700      -280.4868
  59   2.0000     -10.306741      -280.4607
  60   2.0000     -10.306671      -280.4588
  61   2.0000     -10.305553      -280.4284
  62   2.0000     -10.304638      -280.4035
  63   2.0000     -10.304103      -280.3889
  64   2.0000     -10.304068      -280.3880
  65   2.0000     -10.303996      -280.3860
  66   2.0000     -10.303226      -280.3650
  67   2.0000     -10.301344      -280.3138
  68   2.0000     -10.300898      -280.3017
  69   2.0000     -10.300498      -280.2908
  70   2.0000     -10.299751      -280.2705
  71   2.0000     -10.296331      -280.1774
  72   2.0000     -10.293863      -280.1102
  73   2.0000     -10.293346      -280.0962
  74   2.0000     -10.291555      -280.0474
  75   2.0000     -10.288097      -279.9534
  76   2.0000     -10.287748      -279.9439
  77   2.0000     -10.287245      -279.9302
  78   2.0000     -10.285488      -279.8823
  79   2.0000     -10.281692      -279.7791
  80   2.0000     -10.278930      -279.7039
  81   2.0000      -8.084170      -219.9814
  82   2.0000      -6.053432      -164.7222
  83   2.0000      -6.049211      -164.6074
  84   2.0000      -6.046332      -164.5291
  85   2.0000      -1.332253       -36.2524
  86   2.0000      -1.148433       -31.2504
  87   2.0000      -1.148355       -31.2483
  88   2.0000      -1.138727       -30.9863
  89   2.0000      -1.035217       -28.1697
  90   2.0000      -1.034044       -28.1378
  91   2.0000      -1.025393       -27.9024
  92   2.0000      -1.022576       -27.8257
  93   2.0000      -1.021224       -27.7889
  94   2.0000      -1.013273       -27.5726
  95   2.0000      -1.012260       -27.5450
  96   2.0000      -1.009664       -27.4743
  97   2.0000      -1.005880       -27.3714
  98   2.0000      -1.004869       -27.3439
  99   2.0000      -1.000179       -27.2162
 100   2.0000      -0.998754       -27.1775
 101   2.0000      -0.994226       -27.0543
 102   2.0000      -0.990038       -26.9403
 103   2.0000      -0.986440       -26.8424
 104   2.0000      -0.980216       -26.6730
 105   2.0000      -0.974316       -26.5125
 106   2.0000      -0.937928       -25.5223
 107   2.0000      -0.935844       -25.4656
 108   2.0000      -0.927338       -25.2341
 109   2.0000      -0.923814       -25.1383
 110   2.0000      -0.920427       -25.0461
 111   2.0000      -0.919650       -25.0250
 112   2.0000      -0.906707       -24.6728
 113   2.0000      -0.903983       -24.5986
 114   2.0000      -0.896949       -24.4072
 115   2.0000      -0.890178       -24.2230
 116   2.0000      -0.885332       -24.0911
 117   2.0000      -0.880100       -23.9488
 118   2.0000      -0.871455       -23.7135
 119   2.0000      -0.862189       -23.4613
 120   2.0000      -0.855100       -23.2684
 121   2.0000      -0.853855       -23.2346
 122   2.0000      -0.845884       -23.0177
 123   2.0000      -0.836826       -22.7712
 124   2.0000      -0.830278       -22.5930
 125   2.0000      -0.823459       -22.4075
 126   2.0000      -0.812112       -22.0987
 127   2.0000      -0.806340       -21.9416
 128   2.0000      -0.792272       -21.5588
 129   2.0000      -0.787581       -21.4312
 130   2.0000      -0.784358       -21.3435
 131   2.0000      -0.777350       -21.1528
 132   2.0000      -0.772712       -21.0266
 133   2.0000      -0.770115       -20.9559
 134   2.0000      -0.747341       -20.3362
 135   2.0000      -0.739429       -20.1209
 136   2.0000      -0.733387       -19.9565
 137   2.0000      -0.732337       -19.9279
 138   2.0000      -0.726060       -19.7571
 139   2.0000      -0.724047       -19.7023
 140   2.0000      -0.719092       -19.5675
 141   2.0000      -0.713426       -19.4133
 142   2.0000      -0.711973       -19.3738
 143   2.0000      -0.703874       -19.1534
 144   2.0000      -0.690586       -18.7918
 145   2.0000      -0.690043       -18.7770
 146   2.0000      -0.684026       -18.6133
 147   2.0000      -0.679628       -18.4936
 148   2.0000      -0.669883       -18.2284
 149   2.0000      -0.664587       -18.0843
 150   2.0000      -0.658691       -17.9239
 151   2.0000      -0.653075       -17.7711
 152   2.0000      -0.651299       -17.7227
 153   2.0000      -0.644258       -17.5312
 154   2.0000      -0.642851       -17.4929
 155   2.0000      -0.641389       -17.4531
 156   2.0000      -0.639091       -17.3905
 157   2.0000      -0.634957       -17.2781
 158   2.0000      -0.622149       -16.9295
 159   2.0000      -0.619989       -16.8708
 160   2.0000      -0.617762       -16.8102
 161   2.0000      -0.611800       -16.6479
 162   2.0000      -0.609135       -16.5754
 163   2.0000      -0.604302       -16.4439
 164   2.0000      -0.602140       -16.3851
 165   2.0000      -0.600558       -16.3420
 166   2.0000      -0.600319       -16.3355
 167   2.0000      -0.593248       -16.1431
 168   2.0000      -0.587075       -15.9751
 169   2.0000      -0.579804       -15.7773
 170   2.0000      -0.577580       -15.7167
 171   2.0000      -0.576202       -15.6792
 172   2.0000      -0.571625       -15.5547
 173   2.0000      -0.560951       -15.2643
 174   2.0000      -0.553899       -15.0724
 175   2.0000      -0.553067       -15.0497
 176   2.0000      -0.552017       -15.0212
 177   2.0000      -0.545063       -14.8319
 178   2.0000      -0.544282       -14.8107
 179   2.0000      -0.542526       -14.7629
 180   2.0000      -0.540231       -14.7004
 181   2.0000      -0.539725       -14.6867
 182   2.0000      -0.537786       -14.6339
 183   2.0000      -0.537255       -14.6195
 184   2.0000      -0.531292       -14.4572
 185   2.0000      -0.530708       -14.4413
 186   2.0000      -0.527392       -14.3511
 187   2.0000      -0.522142       -14.2082
 188   2.0000      -0.522099       -14.2070
 189   2.0000      -0.520313       -14.1584
 190   2.0000      -0.517712       -14.0877
 191   2.0000      -0.516334       -14.0502
 192   2.0000      -0.515468       -14.0266
 193   2.0000      -0.514202       -13.9921
 194   2.0000      -0.513594       -13.9756
 195   2.0000      -0.511616       -13.9218
 196   2.0000      -0.510538       -13.8925
 197   2.0000      -0.509303       -13.8588
 198   2.0000      -0.507257       -13.8032
 199   2.0000      -0.506991       -13.7959
 200   2.0000      -0.504634       -13.7318
 201   2.0000      -0.503686       -13.7060
 202   2.0000      -0.501615       -13.6496
 203   2.0000      -0.497388       -13.5346
 204   2.0000      -0.495550       -13.4846
 205   2.0000      -0.493616       -13.4320
 206   2.0000      -0.491610       -13.3774
 207   2.0000      -0.489384       -13.3168
 208   2.0000      -0.485314       -13.2061
 209   2.0000      -0.483851       -13.1663
 210   2.0000      -0.480492       -13.0749
 211   2.0000      -0.479532       -13.0487
 212   2.0000      -0.477496       -12.9933
 213   2.0000      -0.470634       -12.8066
 214   2.0000      -0.467791       -12.7292
 215   2.0000      -0.465336       -12.6624
 216   2.0000      -0.464564       -12.6414
 217   2.0000      -0.460397       -12.5281
 218   2.0000      -0.459103       -12.4928
 219   2.0000      -0.456355       -12.4181
 220   2.0000      -0.454514       -12.3679
 221   2.0000      -0.451567       -12.2878
 222   2.0000      -0.449195       -12.2232
 223   2.0000      -0.447754       -12.1840
 224   2.0000      -0.447416       -12.1748
 225   2.0000      -0.447019       -12.1640
 226   2.0000      -0.446782       -12.1576
 227   2.0000      -0.446066       -12.1381
 228   2.0000      -0.445032       -12.1099
 229   2.0000      -0.444641       -12.0993
 230   2.0000      -0.441496       -12.0137
 231   2.0000      -0.440986       -11.9999
 232   2.0000      -0.440881       -11.9970
 233   2.0000      -0.440146       -11.9770
 234   2.0000      -0.438062       -11.9203
 235   2.0000      -0.435583       -11.8528
 236   2.0000      -0.434227       -11.8159
 237   2.0000      -0.431833       -11.7508
 238   2.0000      -0.427911       -11.6440
 239   2.0000      -0.426933       -11.6174
 240   2.0000      -0.421829       -11.4785
 241   2.0000      -0.421199       -11.4614
 242   2.0000      -0.419093       -11.4041
 243   2.0000      -0.417897       -11.3715
 244   2.0000      -0.415800       -11.3145
 245   2.0000      -0.414068       -11.2674
 246   2.0000      -0.409380       -11.1398
 247   2.0000      -0.407930       -11.1003
 248   2.0000      -0.402323       -10.9478
 249   2.0000      -0.392301       -10.6751
 250   2.0000      -0.390458       -10.6249
 251   2.0000      -0.387972       -10.5573
 252   2.0000      -0.383614       -10.4387
 253   2.0000      -0.376023       -10.2321
 254   2.0000      -0.373424       -10.1614
 255   2.0000      -0.365984        -9.9589
 256   2.0000      -0.357571        -9.7300
 257   2.0000      -0.352200        -9.5839
 258   2.0000      -0.349300        -9.5049
 259   2.0000      -0.348184        -9.4746
 260   2.0000      -0.341103        -9.2819
 261   2.0000      -0.337959        -9.1963
 262   2.0000      -0.335688        -9.1345
 263   2.0000      -0.327989        -8.9250
 264   2.0000      -0.321608        -8.7514
 265   2.0000      -0.312323        -8.4987
 266   2.0000      -0.307890        -8.3781
 267   2.0000      -0.305179        -8.3043
 268   2.0000      -0.299552        -8.1512
 269   2.0000      -0.286798        -7.8042
 270   2.0000      -0.278893        -7.5891
 271   0.0000      -0.138080        -3.7574
 272   0.0000      -0.130783        -3.5588
 273   0.0000      -0.094557        -2.5730
 274   0.0000      -0.090956        -2.4750
 275   0.0000      -0.076137        -2.0718

MULLIKEN ATOMIC CHARGES
-----------------------
   0 C :   -0.098971
   1 C :    0.119604
   2 O :   -0.140953
   3 C :    0.008479
   4 C :   -0.004440
   5 C :    0.269825
   6 C :   -0.336448
   7 C :   -0.158951
   8 N :    0.162361
   9 C :   -0.192008
  10 N :    0.170292
  11 C :   -0.024713
  12 C :    0.013324
  13 C :    0.077524
  14 C :    0.034921
  15 C :   -0.022974
  16 C :    0.036803
  17 C :    0.043204
  18 C :   -0.018535
  19 C :    0.005525
  20 C :   -0.024833
  21 C :    0.019043
  22 C :   -0.107610
  23 C :   -0.128600
  24 N :    0.149943
  25 C :    0.003416
  26 C :    0.079937
  27 C :    0.082156
  28 C :    0.054294
  29 C :   -0.010462
  30 C :   -0.091947
  31 C :   -0.018006
  32 C :   -0.133351
  33 N :    0.147075
  34 C :    0.060432
  35 C :   -0.006522
  36 C :   -0.122160
  37 C :    0.115424
  38 N :    0.276233
  39 O :   -0.261563
  40 O :   -0.232222
  41 C :   -0.108249
  42 C :    0.184267
  43 C :   -0.208305
  44 S :    0.178204
  45 C :    0.085208
  46 C :   -0.010721
  47 C :   -0.101070
  48 C :   -0.131394
  49 N :    0.153940
  50 C :   -0.032173
  51 C :    0.037519
  52 C :    0.035068
  53 C :    0.098262
  54 C :    0.008635
  55 C :   -0.104238
  56 C :   -0.013639
  57 C :   -0.133579
  58 N :    0.156351
  59 C :   -0.016955
  60 C :    0.016100
  61 C :    0.013685
  62 C :   -0.091820
  63 C :    0.125124
  64 O :   -0.145738
  65 C :    0.002407
  66 C :   -0.003974
  67 C :    0.265544
  68 C :   -0.325238
  69 C :   -0.212617
  70 N :    0.167493
  71 C :   -0.176613
  72 N :    0.159480
  73 C :   -0.022067
  74 C :    0.006223
  75 C :    0.078359
  76 C :    0.037392
  77 C :   -0.025551
  78 C :    0.036612
  79 C :    0.039624
  80 C :   -0.019202
  81 H :    0.005600
  82 H :   -0.007919
  83 H :    0.003251
  84 H :   -0.001678
  85 H :   -0.002578
  86 H :   -0.017126
  87 H :    0.049445
  88 H :    0.003856
  89 H :    0.002607
  90 H :   -0.002581
  91 H :   -0.008549
  92 H :    0.023877
  93 H :    0.004955
  94 H :    0.031131
  95 H :    0.010668
  96 H :    0.042655
  97 H :    0.001634
  98 H :    0.021193
  99 H :    0.002461
 100 H :    0.019272
 101 H :    0.012362
 102 H :    0.022075
 103 H :    0.018621
 104 H :    0.003185
 105 H :   -0.010378
 106 H :    0.001900
 107 H :   -0.003546
 108 H :   -0.004833
 109 H :   -0.018462
Sum of atomic charges:   -0.0000000

LOEWDIN ATOMIC CHARGES
----------------------
   0 C :   -0.067334
   1 C :    0.087312
   2 O :   -0.133411
   3 C :   -0.032038
   4 C :   -0.004553
   5 C :    0.069490
   6 C :   -0.125879
   7 C :   -0.009003
   8 N :   -0.049486
   9 C :   -0.021466
  10 N :   -0.038670
  11 C :   -0.017016
  12 C :    0.024777
  13 C :   -0.007560
  14 C :   -0.002659
  15 C :   -0.000876
  16 C :   -0.008126
  17 C :   -0.007664
  18 C :   -0.010489
  19 C :    0.056271
  20 C :   -0.043293
  21 C :    0.035593
  22 C :   -0.053849
  23 C :   -0.030172
  24 N :   -0.035138
  25 C :    0.027095
  26 C :    0.043720
  27 C :    0.046258
  28 C :   -0.028968
  29 C :    0.027238
  30 C :   -0.050996
  31 C :    0.009722
  32 C :   -0.031673
  33 N :   -0.036331
  34 C :    0.031204
  35 C :   -0.058244
  36 C :   -0.125174
  37 C :   -0.082610
  38 N :    0.293537
  39 O :   -0.213846
  40 O :   -0.186663
  41 C :   -0.036102
  42 C :   -0.049785
  43 C :   -0.184532
  44 S :    0.476602
  45 C :   -0.050699
  46 C :    0.014266
  47 C :   -0.048403
  48 C :   -0.031601
  49 N :   -0.031487
  50 C :    0.004543
  51 C :    0.036928
  52 C :    0.044812
  53 C :   -0.034211
  54 C :    0.039063
  55 C :   -0.049835
  56 C :    0.015917
  57 C :   -0.031889
  58 N :   -0.031038
  59 C :    0.016908
  60 C :   -0.015215
  61 C :    0.056572
  62 C :   -0.080059
  63 C :    0.086903
  64 O :   -0.138392
  65 C :   -0.032486
  66 C :   -0.004867
  67 C :    0.069855
  68 C :   -0.133156
  69 C :   -0.021832
  70 N :   -0.048061
  71 C :   -0.021371
  72 N :   -0.043514
  73 C :   -0.017672
  74 C :    0.021020
  75 C :   -0.008684
  76 C :   -0.002706
  77 C :   -0.001813
  78 C :   -0.010694
  79 C :   -0.010644
  80 C :   -0.011604
  81 H :    0.041108
  82 H :    0.037943
  83 H :    0.036643
  84 H :    0.034684
  85 H :    0.033879
  86 H :    0.032105
  87 H :    0.047627
  88 H :    0.036332
  89 H :    0.035676
  90 H :    0.033410
  91 H :    0.035415
  92 H :    0.036814
  93 H :    0.030905
  94 H :    0.040354
  95 H :    0.026921
  96 H :    0.042811
  97 H :    0.034063
  98 H :    0.041936
  99 H :    0.036854
 100 H :    0.039380
 101 H :    0.035628
 102 H :    0.033371
 103 H :    0.045780
 104 H :    0.040204
 105 H :    0.036585
 106 H :    0.035911
 107 H :    0.033635
 108 H :    0.032779
 109 H :    0.031176

  Mayer bond orders larger than 0.100000
B(  0-C ,  1-C ) :   0.9344 B(  0-C ,  5-C ) :   0.9957 B(  0-C , 19-C ) :   1.8039
B(  1-C ,  2-O ) :   2.2139 B(  1-C ,  3-C ) :   0.9407 B(  3-C ,  4-C ) :   1.4027
B(  3-C , 14-C ) :   1.2337 B(  4-C ,  5-C ) :   1.0107 B(  4-C , 11-C ) :   1.2552
B(  5-C ,  6-C ) :   1.6802 B(  6-C ,  7-C ) :   1.1611 B(  6-C ,  9-C ) :   1.1268
B(  7-C ,  8-N ) :   2.9740 B(  9-C , 10-N ) :   2.9990 B( 11-C , 12-C ) :   1.4716
B( 11-C , 81-H ) :   0.9869 B( 12-C , 13-C ) :   1.2207 B( 12-C , 82-H ) :   0.9938
B( 13-C , 14-C ) :   1.2403 B( 13-C , 18-C ) :   1.2427 B( 14-C , 15-C ) :   1.2765
B( 15-C , 16-C ) :   1.4731 B( 15-C , 83-H ) :   0.9870 B( 16-C , 17-C ) :   1.2581
B( 16-C , 84-H ) :   0.9879 B( 17-C , 18-C ) :   1.4922 B( 17-C , 85-H ) :   0.9886
B( 18-C , 86-H ) :   0.9978 B( 19-C , 20-C ) :   0.9598 B( 19-C , 87-H ) :   0.9241
B( 20-C , 21-C ) :   1.6718 B( 20-C , 26-C ) :   1.0652 B( 21-C , 22-C ) :   1.0716
B( 21-C , 88-H ) :   1.0199 B( 22-C , 23-C ) :   1.0612 B( 22-C , 25-C ) :   1.6722
B( 23-C , 24-N ) :   3.0410 B( 25-C , 26-C ) :   1.0451 B( 25-C , 89-H ) :   1.0017
B( 26-C , 27-C ) :   1.5201 B( 27-C , 28-C ) :   1.0398 B( 27-C , 31-C ) :   1.0635
B( 28-C , 29-C ) :   1.6126 B( 28-C , 34-C ) :   1.1054 B( 29-C , 30-C ) :   1.0984
B( 29-C , 90-H ) :   1.0090 B( 30-C , 31-C ) :   1.6395 B( 30-C , 32-C ) :   1.0534
B( 31-C , 91-H ) :   1.0149 B( 32-C , 33-N ) :   3.0427 B( 34-C , 35-C ) :   1.7331
B( 34-C , 92-H ) :   0.9565 B( 35-C , 36-C ) :   1.0717 B( 35-C , 93-H ) :   0.9432
B( 36-C , 37-C ) :   1.4663 B( 36-C , 44-S ) :   1.1713 B( 37-C , 38-N ) :   0.9500
B( 37-C , 41-C ) :   1.2034 B( 38-N , 39-O ) :   1.4595 B( 38-N , 40-O ) :   1.5359
B( 39-O , 40-O ) :   0.2468 B( 41-C , 42-C ) :   1.1392 B( 41-C , 43-C ) :   1.5863
B( 42-C , 94-H ) :   0.9305 B( 42-C , 95-H ) :   0.9253 B( 42-C , 96-H ) :   0.9110
B( 43-C , 44-S ) :   1.1101 B( 43-C , 45-C ) :   0.9965 B( 45-C , 46-C ) :   1.6501
B( 45-C , 51-C ) :   1.0792 B( 46-C , 47-C ) :   1.0821 B( 46-C , 97-H ) :   1.0178
B( 47-C , 48-C ) :   1.0637 B( 47-C , 50-C ) :   1.6503 B( 48-C , 49-N ) :   3.0409
B( 50-C , 51-C ) :   1.0784 B( 50-C , 98-H ) :   1.0142 B( 51-C , 52-C ) :   1.4996
B( 52-C , 53-C ) :   1.0380 B( 52-C , 56-C ) :   1.0893 B( 53-C , 54-C ) :   1.5999
B( 53-C , 59-C ) :   1.0641 B( 54-C , 55-C ) :   1.0993 B( 54-C , 99-H ) :   1.0124
B( 55-C , 56-C ) :   1.6265 B( 55-C , 57-C ) :   1.0637 B( 56-C ,100-H ) :   1.0184
B( 57-C , 58-N ) :   3.0446 B( 59-C , 60-C ) :   1.6811 B( 59-C ,101-H ) :   0.9739
B( 60-C , 61-C ) :   1.1087 B( 60-C ,102-H ) :   0.9619 B( 61-C , 62-C ) :   1.6448
B( 61-C ,103-H ) :   0.9549 B( 62-C , 63-C ) :   0.9499 B( 62-C , 67-C ) :   1.0250
B( 63-C , 64-O ) :   2.1990 B( 63-C , 65-C ) :   0.9427 B( 65-C , 66-C ) :   1.4097
B( 65-C , 76-C ) :   1.2411 B( 66-C , 67-C ) :   1.0055 B( 66-C , 73-C ) :   1.2617
B( 67-C , 68-C ) :   1.6515 B( 68-C , 69-C ) :   1.1589 B( 68-C , 71-C ) :   1.1238
B( 69-C , 70-N ) :   3.0087 B( 71-C , 72-N ) :   2.9948 B( 73-C , 74-C ) :   1.4688
B( 73-C ,104-H ) :   0.9857 B( 74-C , 75-C ) :   1.2219 B( 74-C ,105-H ) :   0.9944
B( 75-C , 76-C ) :   1.2416 B( 75-C , 80-C ) :   1.2416 B( 76-C , 77-C ) :   1.2726
B( 77-C , 78-C ) :   1.4761 B( 77-C ,106-H ) :   0.9871 B( 78-C , 79-C ) :   1.2558
B( 78-C ,107-H ) :   0.9872 B( 79-C , 80-C ) :   1.4939 B( 79-C ,108-H ) :   0.9895
B( 80-C ,109-H ) :   0.9981

-----------------------------------------------------------------------------
         ABSORPTION SPECTRUM VIA TRANSITION ELECTRIC DIPOLE MOMENTS
-----------------------------------------------------------------------------
State   Energy  Wavelength   fosc         T2         TX        TY        TZ
        (cm-1)    (nm)                  (au**2)     (au)      (au)      (au)
-----------------------------------------------------------------------------
   0   13012.7    768.5   0.170770093   4.32036  -1.29069   0.47792  -1.55759
   1   14227.1    702.9   0.013233980   0.30623   0.41738   0.35392   0.08227
   2   14430.6    693.0   0.059627433   1.36031   0.57332  -0.47016   0.90031
   3   18294.2    546.6   0.024617210   0.44300   0.18789   0.35533  -0.53051
   4   21431.9    466.6   0.019990990   0.30708   0.14274  -0.53514  -0.01796
   5   22899.1    436.7   0.096198173   1.38301  -1.02875  -0.06555  -0.56602
   6   23425.7    426.9   0.135550049   1.90495   0.30989  -0.68707   1.15622
   7   23986.3    416.9   0.349358281   4.79495   1.54510  -0.20805   1.53764
   8   24104.4    414.9   0.139895458   1.91066   0.78738  -0.36681   1.07524
   9   25564.3    391.2   0.057361511   0.73869  -0.44202   0.08619  -0.73204
  10   25674.3    389.5   0.216737999   2.77915   0.30592  -0.58200   1.53194
  11   25856.8    386.7   0.059833210   0.76180  -0.67359   0.54570  -0.10146
  12   25969.8    385.1   0.024958654   0.31639   0.48231  -0.28780  -0.03074
  13   26522.0    377.0   0.047549398   0.59022   0.60336   0.31067   0.36008
  14   26966.0    370.8   0.229966085   2.80752  -0.94486  -0.25855  -1.35938
  15   27048.2    369.7   0.044622074   0.54311  -0.15583  -0.31019  -0.65008
  16   27397.3    365.0   0.116371267   1.39834   0.52886   0.06653   1.05557
  17   27832.3    359.3   0.002569991   0.03040   0.07705  -0.05084   0.14791
  18   28552.7    350.2   0.086599511   0.99849   0.96087  -0.18504  -0.20243
  19   28682.4    348.6   0.054946528   0.63067  -0.14291  -0.75986   0.18125
  20   28694.9    348.5   0.050566553   0.58014  -0.55156  -0.31938  -0.41703
  21   29538.7    338.5   0.337556128   3.76210   1.12564   1.51097  -0.46043
  22   29568.5    338.2   0.027261563   0.30353  -0.25715   0.01930  -0.48686
  23   29972.8    333.6   0.004687035   0.05148  -0.21483   0.07253  -0.00828
  24   30005.9    333.3   0.282586661   3.10042  -1.56027   0.41762  -0.70112
  25   30086.4    332.4   0.118269085   1.29413   0.17185  -1.12069  -0.09294
  26   30145.7    331.7   0.072236752   0.78887  -0.32786   0.79205   0.23246
  27   30336.5    329.6   0.151925540   1.64870   0.49216  -1.18218  -0.09454
  28   30389.6    329.1   0.118821272   1.28719   0.90252   0.65313   0.21467
  29   30969.6    322.9   0.017625688   0.18736   0.04592   0.05513   0.42687
  30   31033.2    322.2   0.034185414   0.36265   0.32647  -0.05032  -0.50353
  31   31175.6    320.8   0.082045811   0.86640  -0.30400  -0.80393  -0.35733
  32   31626.9    316.2   0.051232141   0.53329   0.33764  -0.06185  -0.64457
  33   31672.8    315.7   0.240200647   2.49669   1.04339  -0.44430  -1.10028
  34   31756.9    314.9   0.022079298   0.22889  -0.19537   0.39043   0.19567
  35   32218.5    310.4   0.118084426   1.20660   0.00808   0.85439  -0.69032
  36   32546.1    307.3   0.392003899   3.96522  -0.91322   1.05630  -1.41968
  37   32935.7    303.6   0.174235654   1.74159  -0.43994  -0.18695  -1.23008
  38   33032.3    302.7   0.892680873   8.89677   2.90510   0.50218   0.45272
  39   33121.6    301.9   0.177216615   1.76144   1.11795  -0.09051  -0.70953
  40   33740.3    296.4   0.190255360   1.85636   1.07646  -0.29132   0.78277
  41   34055.5    293.6   0.297932054   2.88009  -0.85186   0.39430  -1.41384
  42   34315.0    291.4   0.004588007   0.04402   0.06625  -0.04854   0.19306
  43   34385.8    290.8   0.039349368   0.37673   0.29845   0.33924   0.41543
  44   34527.7    289.6   0.068916970   0.65710   0.10031   0.65551  -0.46621
  45   34789.0    287.4   0.092227086   0.87275  -0.19970  -0.20152   0.89009
  46   34958.4    286.1   0.005484089   0.05165  -0.21006   0.05671  -0.06560
  47   34977.9    285.9   0.046075118   0.43366   0.14712  -0.53151   0.35988
  48   35032.5    285.4   0.033655844   0.31628   0.41688   0.18557  -0.32871
  49   35178.1    284.3   0.026442800   0.24746  -0.43095  -0.21567  -0.12341
  50   35416.1    282.4   0.007932805   0.07374  -0.20852  -0.17293   0.01881
  51   35512.7    281.6   0.124540723   1.15453  -0.71436  -0.71943  -0.35586
  52   35691.8    280.2   0.023954546   0.22095  -0.30167  -0.35988  -0.02074
  53   35742.2    279.8   0.025389308   0.23385  -0.20823  -0.43638  -0.00798
  54   35902.2    278.5   0.036286921   0.33274   0.48960   0.29735   0.06797
  55   36496.2    274.0   0.029810507   0.26890  -0.19748   0.34526   0.33272
  56   36852.1    271.4   0.034401152   0.30732   0.28492  -0.26238   0.39660
  57   37018.7    270.1   0.011286456   0.10037  -0.31473  -0.02869  -0.02229
  58   37023.8    270.1   0.012943852   0.11510  -0.20030   0.27305  -0.02041
  59   37553.8    266.3   0.079880261   0.70026  -0.68203   0.18071  -0.44994
  60   38236.2    261.5   0.001999481   0.01722  -0.10554  -0.05803  -0.05205
  61   38355.1    260.7   0.285847650   2.45351   1.13079  -0.37147   1.01825
  62   38773.4    257.9   0.004989424   0.04236   0.14096   0.05508  -0.13950
  63   38912.7    257.0   0.004965770   0.04201   0.15987   0.04968  -0.11826
  64   39107.0    255.7   0.001289980   0.01086   0.08613  -0.05858   0.00297
  65   39216.3    255.0   0.003028832   0.02543  -0.05851   0.13494  -0.06160
  66   39322.8    254.3   0.003085584   0.02583  -0.08698  -0.11543  -0.07032
  67   39398.1    253.8   0.159345521   1.33150   0.91862  -0.67174  -0.19080
  68   39624.2    252.4   0.035381997   0.29397  -0.33264   0.39778   0.15839
  69   39711.5    251.8   0.000297902   0.00247   0.00032  -0.04577  -0.01935
  70   39956.3    250.3   0.007073684   0.05828  -0.19909   0.04853   0.12764
  71   40183.3    248.9   0.097215914   0.79647  -0.11217  -0.51497   0.72020

FINAL SINGLE POINT ENERGY     -3757.647656690032

DIPOLE MOMENT
-------------
                                X             Y             Z
Electronic contribution:    -19.19644      -8.05979       0.58321
Nuclear contribution   :     20.48207       9.93486      -2.68448
                        -----------------------------------------
Total Dipole Moment    :      1.28563       1.87507      -2.10127
                        -----------------------------------------
Magnitude (a.u.)       :      3.09581
Magnitude (Debye)      :      7.86894

Rotational constants in cm-1:     0.001766     0.000197     0.000189
Rotational constants in MHz :    52.938816     5.899810     5.657127

                             ****ORCA TERMINATED NORMALLY****
TOTAL RUN TIME: 0 days 0 hours 26 minutes 33 seconds 398 msec
