                         Program Version 4.2.0 -  RELEASE  -
|  1> # ORCA input file
|  2> # SCF done       -186.456283312402          0.000822445655
|  3> ! CAM-B3LYP def2-SVP def2/J RIJCOSX Grid4 TightSCF
|  4> %maxcore 5000
|  5> %tddft
|  6>     Mode sTDDFT
|  7>     Ethresh 5.0
|  8>     maxcore 5000
|  9> end
| 10>
| 11> %pal
| 12>   nprocs 6
| 13>   end
| 14> * xyz 0 1
| 15>    C       15.75660       -11.90867        -5.93849
| 16>    C       16.90995       -12.41878        -6.71541
| 17>    O       17.86607       -11.76897        -7.08880
| 18>    C       16.61195       -13.84407        -6.96351
| 19>    C       15.43597       -14.19001        -6.29879
| 20>    C       14.95371       -13.03182        -5.54392
| 21>    C       14.06030       -13.07941        -4.49949
| 22>    C       13.84935       -12.01924        -3.59479
| 23>    N       13.67677       -11.21193        -2.79605
| 24>    C       13.33364       -14.22674        -4.12691
| 25>    N       12.69168       -15.11752        -3.78828
| 26>    C       14.91425       -15.48484        -6.39989
| 27>    C       15.58428       -16.40783        -7.16129
| 28>    C       16.78348       -16.09387        -7.83581
| 29>    C       17.32162       -14.77710        -7.74260
| 30>    C       18.51803       -14.46727        -8.42163
| 31>    C       19.15629       -15.42377        -9.16129
| 32>    C       18.63121       -16.72300        -9.25530
| 33>    C       17.47193       -17.05143        -8.60861
| 34>    C       15.56079       -10.55223        -5.80239
| 35>    C       14.36130        -9.91724        -5.49125
| 36>    C       14.22478        -8.56204        -5.25394
| 37>    C       15.21676        -7.56136        -5.15636
| 38>    C       14.72465        -6.32233        -4.85962
| 39>    C       13.32363        -6.28226        -4.71295
| 40>    S       12.64633        -7.87176        -4.96314
| 41>    C       12.51737        -5.19275        -4.41486
| 42>    C       12.91673        -3.86612        -4.16503
| 43>    C       11.86401        -3.04215        -3.89984
| 44>    C       10.59055        -3.66887        -3.93142
| 45>    S       10.77599        -5.36432        -4.30511
| 46>    C        9.43130        -2.95677        -3.69476
| 47>    C        8.07134        -3.31294        -3.68615
| 48>    C        7.10641        -2.31904        -3.42221
| 49>    C        5.75798        -2.56742        -3.41438
| 50>    C        5.22782        -3.84378        -3.67087
| 51>    C        6.17403        -4.89601        -3.92823
| 52>    N        5.72441        -6.13684        -4.16325
| 53>    C        6.59830        -7.08784        -4.39312
| 54>    C        7.97285        -6.83276        -4.40010
| 55>    N        8.42890        -5.62420        -4.17492
| 56>    C        7.57092        -4.63059        -3.93471
| 57>    C        3.86332        -4.17901        -3.70534
| 58>    C        2.73524        -3.41353        -3.51098
| 59>    C        1.41844        -3.92352        -3.60889
| 60>    C        0.43438        -3.00582        -3.38664
| 61>    C        0.91694        -1.71656        -3.09551
| 62>    S        2.66418        -1.70387        -3.11704
| 63>    C        0.17177        -0.58127        -2.81942
| 64>    C        0.64287         0.70873        -2.50981
| 65>    C       -0.34733         1.61999        -2.27846
| 66>    C       -1.65154         1.09058        -2.39715
| 67>    S       -1.57688        -0.60513        -2.81352
| 68>    C       -2.87508         1.71867        -2.25785
| 69>    C       -3.04156         3.03942        -1.84939
| 70>    C       -4.22904         3.73010        -1.75752
| 71>    C       -4.32014         4.92160        -0.88164
| 72>    O       -3.38544         5.52045        -0.38800
| 73>    C       -5.76564         5.17135        -0.71391
| 74>    C       -6.48168         4.27969        -1.51185
| 75>    C       -5.54049         3.45853        -2.27635
| 76>    C       -5.84671         2.74708        -3.41235
| 77>    C       -4.88145         2.22019        -4.29416
| 78>    N       -4.13932         1.81669        -5.07248
| 79>    C       -7.15327         2.55820        -3.90274
| 80>    N       -8.19436         2.34872        -4.34079
| 81>    C       -7.88135         4.28385        -1.50504
| 82>    C       -8.53414         5.18315        -0.70131
| 83>    C       -7.83930         6.10679         0.10855
| 84>    C       -6.41384         6.11035         0.11019
| 85>    C       -5.72324         7.03297         0.92272
| 86>    C       -6.41697         7.91676         1.70180
| 87>    C       -7.82143         7.91736         1.70449
| 88>    C       -8.51736         7.03367         0.92675
| 89>    H       13.99776       -15.75289        -5.89999
| 90>    H       15.19165       -17.41017        -7.25481
| 91>    H       18.91084       -13.46591        -8.34211
| 92>    H       20.07266       -15.18597        -9.68077
| 93>    H       19.15225       -17.46287        -9.84495
| 94>    H       17.06584       -18.05035        -8.67869
| 95>    H       16.41831        -9.94233        -6.06122
| 96>    H       13.45664       -10.50772        -5.45651
| 97>    H       16.26056        -7.77672        -5.29520
| 98>    H       15.33405        -5.44404        -4.74297
| 99>    H       13.94433        -3.54871        -4.18082
|100>    H       11.96222        -1.99247        -3.68235
|101>    H        9.60894        -1.90698        -3.48136
|102>    H        7.45339        -1.31533        -3.22197
|103>    H        5.08217        -1.75289        -3.20806
|104>    H        6.20035        -8.07623        -4.57644
|105>    H        8.71158        -7.59907        -4.58677
|106>    H        3.67529        -5.22189        -3.93113
|107>    H        1.24102        -4.95775        -3.84428
|108>    H       -0.62106        -3.21085        -3.42164
|109>    H        1.69685         0.92307        -2.46798
|110>    H       -0.17067         2.65171        -2.03526
|111>    H       -3.75324         1.11818        -2.44799
|112>    H       -2.18072         3.57238        -1.46283
|113>    H       -8.43980         3.58689        -2.10848
|114>    H       -9.61439         5.19396        -0.67869
|115>    H       -4.64479         7.02146         0.91272
|116>    H       -5.88754         8.62336         2.32361
|117>    H       -8.34901         8.62377         2.32846
|118>    H       -9.59796         7.03265         0.92657
|119> *
|120>
|121>                          ****END OF INPUT****

CARTESIAN COORDINATES (ANGSTROEM)
---------------------------------
  C     15.756600  -11.908670   -5.938490
  C     16.909950  -12.418780   -6.715410
  O     17.866070  -11.768970   -7.088800
  C     16.611950  -13.844070   -6.963510
  C     15.435970  -14.190010   -6.298790
  C     14.953710  -13.031820   -5.543920
  C     14.060300  -13.079410   -4.499490
  C     13.849350  -12.019240   -3.594790
  N     13.676770  -11.211930   -2.796050
  C     13.333640  -14.226740   -4.126910
  N     12.691680  -15.117520   -3.788280
  C     14.914250  -15.484840   -6.399890
  C     15.584280  -16.407830   -7.161290
  C     16.783480  -16.093870   -7.835810
  C     17.321620  -14.777100   -7.742600
  C     18.518030  -14.467270   -8.421630
  C     19.156290  -15.423770   -9.161290
  C     18.631210  -16.723000   -9.255300
  C     17.471930  -17.051430   -8.608610
  C     15.560790  -10.552230   -5.802390
  C     14.361300   -9.917240   -5.491250
  C     14.224780   -8.562040   -5.253940
  C     15.216760   -7.561360   -5.156360
  C     14.724650   -6.322330   -4.859620
  C     13.323630   -6.282260   -4.712950
  S     12.646330   -7.871760   -4.963140
  C     12.517370   -5.192750   -4.414860
  C     12.916730   -3.866120   -4.165030
  C     11.864010   -3.042150   -3.899840
  C     10.590550   -3.668870   -3.931420
  S     10.775990   -5.364320   -4.305110
  C      9.431300   -2.956770   -3.694760
  C      8.071340   -3.312940   -3.686150
  C      7.106410   -2.319040   -3.422210
  C      5.757980   -2.567420   -3.414380
  C      5.227820   -3.843780   -3.670870
  C      6.174030   -4.896010   -3.928230
  N      5.724410   -6.136840   -4.163250
  C      6.598300   -7.087840   -4.393120
  C      7.972850   -6.832760   -4.400100
  N      8.428900   -5.624200   -4.174920
  C      7.570920   -4.630590   -3.934710
  C      3.863320   -4.179010   -3.705340
  C      2.735240   -3.413530   -3.510980
  C      1.418440   -3.923520   -3.608890
  C      0.434380   -3.005820   -3.386640
  C      0.916940   -1.716560   -3.095510
  S      2.664180   -1.703870   -3.117040
  C      0.171770   -0.581270   -2.819420
  C      0.642870    0.708730   -2.509810
  C     -0.347330    1.619990   -2.278460
  C     -1.651540    1.090580   -2.397150
  S     -1.576880   -0.605130   -2.813520
  C     -2.875080    1.718670   -2.257850
  C     -3.041560    3.039420   -1.849390
  C     -4.229040    3.730100   -1.757520
  C     -4.320140    4.921600   -0.881640
  O     -3.385440    5.520450   -0.388000
  C     -5.765640    5.171350   -0.713910
  C     -6.481680    4.279690   -1.511850
  C     -5.540490    3.458530   -2.276350
  C     -5.846710    2.747080   -3.412350
  C     -4.881450    2.220190   -4.294160
  N     -4.139320    1.816690   -5.072480
  C     -7.153270    2.558200   -3.902740
  N     -8.194360    2.348720   -4.340790
  C     -7.881350    4.283850   -1.505040
  C     -8.534140    5.183150   -0.701310
  C     -7.839300    6.106790    0.108550
  C     -6.413840    6.110350    0.110190
  C     -5.723240    7.032970    0.922720
  C     -6.416970    7.916760    1.701800
  C     -7.821430    7.917360    1.704490
  C     -8.517360    7.033670    0.926750
  H     13.997760  -15.752890   -5.899990
  H     15.191650  -17.410170   -7.254810
  H     18.910840  -13.465910   -8.342110
  H     20.072660  -15.185970   -9.680770
  H     19.152250  -17.462870   -9.844950
  H     17.065840  -18.050350   -8.678690
  H     16.418310   -9.942330   -6.061220
  H     13.456640  -10.507720   -5.456510
  H     16.260560   -7.776720   -5.295200
  H     15.334050   -5.444040   -4.742970
  H     13.944330   -3.548710   -4.180820
  H     11.962220   -1.992470   -3.682350
  H      9.608940   -1.906980   -3.481360
  H      7.453390   -1.315330   -3.221970
  H      5.082170   -1.752890   -3.208060
  H      6.200350   -8.076230   -4.576440
  H      8.711580   -7.599070   -4.586770
  H      3.675290   -5.221890   -3.931130
  H      1.241020   -4.957750   -3.844280
  H     -0.621060   -3.210850   -3.421640
  H      1.696850    0.923070   -2.467980
  H     -0.170670    2.651710   -2.035260
  H     -3.753240    1.118180   -2.447990
  H     -2.180720    3.572380   -1.462830
  H     -8.439800    3.586890   -2.108480
  H     -9.614390    5.193960   -0.678690
  H     -4.644790    7.021460    0.912720
  H     -5.887540    8.623360    2.323610
  H     -8.349010    8.623770    2.328460
  H     -9.597960    7.032650    0.926570

 Total Charge           Charge          ....    0
 Multiplicity           Mult            ....    1
 Number of Electrons    NEL             ....  524
 Basis Dimension        Dim             .... 1202

ORBITAL ENERGIES
----------------

  NO   OCC          E(Eh)            E(eV)
   0   2.0000     -88.968733     -2420.9623
   1   2.0000     -88.961401     -2420.7628
   2   2.0000     -88.960041     -2420.7258
   3   2.0000     -88.958354     -2420.6799
   4   2.0000     -19.203662      -522.5582
   5   2.0000     -19.202676      -522.5314
   6   2.0000     -14.448689      -393.1688
   7   2.0000     -14.441958      -392.9857
   8   2.0000     -14.402625      -391.9153
   9   2.0000     -14.402214      -391.9042
  10   2.0000     -14.401099      -391.8738
  11   2.0000     -14.400137      -391.8476
  12   2.0000     -10.353804      -281.7413
  13   2.0000     -10.352826      -281.7147
  14   2.0000     -10.339437      -281.3504
  15   2.0000     -10.336990      -281.2838
  16   2.0000     -10.336765      -281.2777
  17   2.0000     -10.335895      -281.2540
  18   2.0000     -10.335180      -281.2346
  19   2.0000     -10.330019      -281.0941
  20   2.0000     -10.329534      -281.0809
  21   2.0000     -10.328318      -281.0478
  22   2.0000     -10.327004      -281.0121
  23   2.0000     -10.326991      -281.0117
  24   2.0000     -10.326918      -281.0097
  25   2.0000     -10.326854      -281.0080
  26   2.0000     -10.325903      -280.9821
  27   2.0000     -10.325414      -280.9688
  28   2.0000     -10.320983      -280.8482
  29   2.0000     -10.316925      -280.7378
  30   2.0000     -10.310342      -280.5587
  31   2.0000     -10.306988      -280.4674
  32   2.0000     -10.306152      -280.4447
  33   2.0000     -10.305934      -280.4387
  34   2.0000     -10.305892      -280.4376
  35   2.0000     -10.305823      -280.4357
  36   2.0000     -10.304362      -280.3959
  37   2.0000     -10.304217      -280.3920
  38   2.0000     -10.303960      -280.3850
  39   2.0000     -10.303443      -280.3709
  40   2.0000     -10.301372      -280.3146
  41   2.0000     -10.301339      -280.3137
  42   2.0000     -10.301189      -280.3096
  43   2.0000     -10.300825      -280.2997
  44   2.0000     -10.299876      -280.2739
  45   2.0000     -10.299845      -280.2730
  46   2.0000     -10.299402      -280.2610
  47   2.0000     -10.298221      -280.2288
  48   2.0000     -10.297587      -280.2116
  49   2.0000     -10.296344      -280.1778
  50   2.0000     -10.295557      -280.1563
  51   2.0000     -10.293707      -280.1060
  52   2.0000     -10.286043      -279.8975
  53   2.0000     -10.285666      -279.8872
  54   2.0000     -10.285464      -279.8817
  55   2.0000     -10.284912      -279.8667
  56   2.0000     -10.284443      -279.8539
  57   2.0000     -10.284333      -279.8509
  58   2.0000     -10.283816      -279.8369
  59   2.0000     -10.283713      -279.8341
  60   2.0000     -10.282418      -279.7988
  61   2.0000     -10.281675      -279.7786
  62   2.0000     -10.280305      -279.7413
  63   2.0000     -10.279714      -279.7252
  64   2.0000     -10.278303      -279.6868
  65   2.0000     -10.276636      -279.6415
  66   2.0000     -10.274959      -279.5958
  67   2.0000     -10.274492      -279.5831
  68   2.0000     -10.274452      -279.5821
  69   2.0000     -10.273981      -279.5692
  70   2.0000     -10.272539      -279.5300
  71   2.0000     -10.272038      -279.5164
  72   2.0000     -10.268119      -279.4097
  73   2.0000     -10.267587      -279.3952
  74   2.0000      -8.064393      -219.4433
  75   2.0000      -8.057768      -219.2630
  76   2.0000      -8.054807      -219.1824
  77   2.0000      -8.053056      -219.1348
  78   2.0000      -6.034107      -164.1964
  79   2.0000      -6.030091      -164.0871
  80   2.0000      -6.027469      -164.0158
  81   2.0000      -6.025442      -163.9606
  82   2.0000      -6.024458      -163.9338
  83   2.0000      -6.023392      -163.9048
  84   2.0000      -6.023237      -163.9006
  85   2.0000      -6.020293      -163.8205
  86   2.0000      -6.018753      -163.7786
  87   2.0000      -6.018455      -163.7705
  88   2.0000      -6.015968      -163.7028
  89   2.0000      -6.014087      -163.6516
  90   2.0000      -1.117251       -30.4019
  91   2.0000      -1.116187       -30.3730
  92   2.0000      -1.103145       -30.0181
  93   2.0000      -1.026662       -27.9369
  94   2.0000      -1.014280       -27.6000
  95   2.0000      -1.007759       -27.4225
  96   2.0000      -1.005501       -27.3611
  97   2.0000      -1.004551       -27.3352
  98   2.0000      -0.992548       -27.0086
  99   2.0000      -0.987252       -26.8645
 100   2.0000      -0.986743       -26.8506
 101   2.0000      -0.986008       -26.8307
 102   2.0000      -0.980497       -26.6807
 103   2.0000      -0.979812       -26.6620
 104   2.0000      -0.973182       -26.4816
 105   2.0000      -0.957451       -26.0536
 106   2.0000      -0.956680       -26.0326
 107   2.0000      -0.923343       -25.1254
 108   2.0000      -0.916982       -24.9524
 109   2.0000      -0.913812       -24.8661
 110   2.0000      -0.905420       -24.6377
 111   2.0000      -0.901195       -24.5228
 112   2.0000      -0.889841       -24.2138
 113   2.0000      -0.887066       -24.1383
 114   2.0000      -0.882784       -24.0218
 115   2.0000      -0.878207       -23.8972
 116   2.0000      -0.869968       -23.6730
 117   2.0000      -0.861348       -23.4385
 118   2.0000      -0.857131       -23.3237
 119   2.0000      -0.854724       -23.2582
 120   2.0000      -0.852204       -23.1897
 121   2.0000      -0.845080       -22.9958
 122   2.0000      -0.841813       -22.9069
 123   2.0000      -0.837370       -22.7860
 124   2.0000      -0.832238       -22.6463
 125   2.0000      -0.827112       -22.5069
 126   2.0000      -0.819137       -22.2899
 127   2.0000      -0.801942       -21.8219
 128   2.0000      -0.788627       -21.4596
 129   2.0000      -0.777780       -21.1645
 130   2.0000      -0.769799       -20.9473
 131   2.0000      -0.765728       -20.8365
 132   2.0000      -0.760710       -20.7000
 133   2.0000      -0.758997       -20.6534
 134   2.0000      -0.747845       -20.3499
 135   2.0000      -0.737997       -20.0819
 136   2.0000      -0.726713       -19.7749
 137   2.0000      -0.712711       -19.3939
 138   2.0000      -0.703504       -19.1433
 139   2.0000      -0.702407       -19.1135
 140   2.0000      -0.696654       -18.9569
 141   2.0000      -0.696179       -18.9440
 142   2.0000      -0.690836       -18.7986
 143   2.0000      -0.681967       -18.5573
 144   2.0000      -0.675015       -18.3681
 145   2.0000      -0.670961       -18.2578
 146   2.0000      -0.664019       -18.0689
 147   2.0000      -0.663075       -18.0432
 148   2.0000      -0.660514       -17.9735
 149   2.0000      -0.653440       -17.7810
 150   2.0000      -0.648113       -17.6360
 151   2.0000      -0.642095       -17.4723
 152   2.0000      -0.635061       -17.2809
 153   2.0000      -0.632901       -17.2221
 154   2.0000      -0.629534       -17.1305
 155   2.0000      -0.628874       -17.1125
 156   2.0000      -0.621365       -16.9082
 157   2.0000      -0.616654       -16.7800
 158   2.0000      -0.614968       -16.7341
 159   2.0000      -0.606187       -16.4952
 160   2.0000      -0.604803       -16.4575
 161   2.0000      -0.604013       -16.4360
 162   2.0000      -0.595735       -16.2108
 163   2.0000      -0.580237       -15.7891
 164   2.0000      -0.578582       -15.7440
 165   2.0000      -0.577056       -15.7025
 166   2.0000      -0.576243       -15.6804
 167   2.0000      -0.574598       -15.6356
 168   2.0000      -0.572448       -15.5771
 169   2.0000      -0.566283       -15.4093
 170   2.0000      -0.558818       -15.2062
 171   2.0000      -0.556432       -15.1413
 172   2.0000      -0.552366       -15.0307
 173   2.0000      -0.549536       -14.9536
 174   2.0000      -0.548564       -14.9272
 175   2.0000      -0.538936       -14.6652
 176   2.0000      -0.533764       -14.5245
 177   2.0000      -0.528612       -14.3843
 178   2.0000      -0.526247       -14.3199
 179   2.0000      -0.524715       -14.2782
 180   2.0000      -0.523860       -14.2550
 181   2.0000      -0.522027       -14.2051
 182   2.0000      -0.521071       -14.1791
 183   2.0000      -0.517867       -14.0919
 184   2.0000      -0.514849       -14.0097
 185   2.0000      -0.511132       -13.9086
 186   2.0000      -0.509908       -13.8753
 187   2.0000      -0.508760       -13.8441
 188   2.0000      -0.506449       -13.7812
 189   2.0000      -0.505222       -13.7478
 190   2.0000      -0.503163       -13.6918
 191   2.0000      -0.500056       -13.6072
 192   2.0000      -0.496658       -13.5148
 193   2.0000      -0.495856       -13.4929
 194   2.0000      -0.494940       -13.4680
 195   2.0000      -0.493849       -13.4383
 196   2.0000      -0.491557       -13.3760
 197   2.0000      -0.486974       -13.2512
 198   2.0000      -0.486550       -13.2397
 199   2.0000      -0.485756       -13.2181
 200   2.0000      -0.484366       -13.1803
 201   2.0000      -0.482720       -13.1355
 202   2.0000      -0.482185       -13.1209
 203   2.0000      -0.480904       -13.0861
 204   2.0000      -0.478132       -13.0106
 205   2.0000      -0.470418       -12.8007
 206   2.0000      -0.469521       -12.7763
 207   2.0000      -0.466990       -12.7074
 208   2.0000      -0.465800       -12.6751
 209   2.0000      -0.461998       -12.5716
 210   2.0000      -0.460612       -12.5339
 211   2.0000      -0.457869       -12.4592
 212   2.0000      -0.450846       -12.2682
 213   2.0000      -0.448479       -12.2037
 214   2.0000      -0.445827       -12.1316
 215   2.0000      -0.443805       -12.0765
 216   2.0000      -0.441666       -12.0184
 217   2.0000      -0.437934       -11.9168
 218   2.0000      -0.437270       -11.8987
 219   2.0000      -0.433546       -11.7974
 220   2.0000      -0.431667       -11.7463
 221   2.0000      -0.431326       -11.7370
 222   2.0000      -0.429078       -11.6758
 223   2.0000      -0.428872       -11.6702
 224   2.0000      -0.427003       -11.6194
 225   2.0000      -0.423256       -11.5174
 226   2.0000      -0.422117       -11.4864
 227   2.0000      -0.421313       -11.4645
 228   2.0000      -0.420313       -11.4373
 229   2.0000      -0.420011       -11.4291
 230   2.0000      -0.419832       -11.4242
 231   2.0000      -0.418421       -11.3858
 232   2.0000      -0.412897       -11.2355
 233   2.0000      -0.412261       -11.2182
 234   2.0000      -0.407271       -11.0824
 235   2.0000      -0.405202       -11.0261
 236   2.0000      -0.399754       -10.8779
 237   2.0000      -0.394013       -10.7216
 238   2.0000      -0.389492       -10.5986
 239   2.0000      -0.383389       -10.4326
 240   2.0000      -0.375030       -10.2051
 241   2.0000      -0.372275       -10.1301
 242   2.0000      -0.365103        -9.9349
 243   2.0000      -0.358428        -9.7533
 244   2.0000      -0.354271        -9.6402
 245   2.0000      -0.350874        -9.5478
 246   2.0000      -0.348570        -9.4851
 247   2.0000      -0.347506        -9.4561
 248   2.0000      -0.343661        -9.3515
 249   2.0000      -0.336568        -9.1585
 250   2.0000      -0.334402        -9.0995
 251   2.0000      -0.329433        -8.9643
 252   2.0000      -0.324206        -8.8221
 253   2.0000      -0.322281        -8.7697
 254   2.0000      -0.313689        -8.5359
 255   2.0000      -0.306934        -8.3521
 256   2.0000      -0.299469        -8.1490
 257   2.0000      -0.284452        -7.7403
 258   2.0000      -0.283379        -7.7111
 259   2.0000      -0.280693        -7.6380
 260   2.0000      -0.239500        -6.5171
 261   2.0000      -0.214251        -5.8301
 262   0.0000      -0.125922        -3.4265
 263   0.0000      -0.094682        -2.5764
 264   0.0000      -0.067813        -1.8453
 265   0.0000      -0.063239        -1.7208
 266   0.0000      -0.057702        -1.5702

MULLIKEN ATOMIC CHARGES
-----------------------
   0 C :   -0.124709
   1 C :    0.122269
   2 O :   -0.164469
   3 C :    0.000511
   4 C :   -0.008694
   5 C :    0.278761
   6 C :   -0.342835
   7 C :   -0.219295
   8 N :    0.161696
   9 C :   -0.180522
  10 N :    0.139524
  11 C :   -0.022179
  12 C :    0.001658
  13 C :    0.078628
  14 C :    0.034443
  15 C :   -0.024869
  16 C :    0.035611
  17 C :    0.036055
  18 C :   -0.021140
  19 C :    0.026045
  20 C :    0.035858
  21 C :   -0.043365
  22 C :    0.023740
  23 C :    0.034919
  24 C :   -0.067616
  25 S :    0.124918
  26 C :   -0.007007
  27 C :    0.030006
  28 C :    0.031048
  29 C :    0.018492
  30 S :    0.116886
  31 C :   -0.083755
  32 C :    0.105411
  33 C :   -0.028207
  34 C :   -0.033292
  35 C :    0.077837
  36 C :   -0.034060
  37 N :   -0.020346
  38 C :    0.038435
  39 C :    0.073547
  40 N :   -0.095797
  41 C :    0.035137
  42 C :   -0.045539
  43 C :   -0.007161
  44 C :    0.049497
  45 C :    0.018208
  46 C :   -0.013266
  47 S :    0.063515
  48 C :   -0.062906
  49 C :    0.028167
  50 C :    0.035280
  51 C :   -0.049676
  52 S :    0.125994
  53 C :    0.039005
  54 C :    0.026906
  55 C :   -0.127748
  56 C :    0.121902
  57 O :   -0.163503
  58 C :    0.002791
  59 C :   -0.007172
  60 C :    0.279294
  61 C :   -0.345216
  62 C :   -0.219155
  63 N :    0.163405
  64 C :   -0.177041
  65 N :    0.141725
  66 C :   -0.021981
  67 C :   -0.001302
  68 C :    0.079163
  69 C :    0.033267
  70 C :   -0.027573
  71 C :    0.036318
  72 C :    0.036456
  73 C :   -0.022626
  74 H :   -0.003684
  75 H :   -0.018174
  76 H :   -0.002688
  77 H :   -0.011418
  78 H :   -0.010235
  79 H :   -0.025108
  80 H :    0.002921
  81 H :    0.002144
  82 H :    0.002346
  83 H :   -0.006391
  84 H :   -0.011677
  85 H :   -0.006401
  86 H :   -0.018182
  87 H :   -0.017377
  88 H :   -0.009860
  89 H :    0.021624
  90 H :    0.018070
  91 H :    0.004359
  92 H :    0.002656
  93 H :    0.009022
  94 H :    0.002222
  95 H :    0.004367
  96 H :    0.003749
  97 H :    0.001673
  98 H :   -0.001833
  99 H :   -0.015498
 100 H :   -0.001147
 101 H :   -0.010793
 102 H :   -0.010347
 103 H :   -0.022644
Sum of atomic charges:    0.0000000

LOEWDIN ATOMIC CHARGES
----------------------
   0 C :   -0.104376
   1 C :    0.083253
   2 O :   -0.156759
   3 C :   -0.033487
   4 C :   -0.004898
   5 C :    0.068536
   6 C :   -0.149927
   7 C :   -0.024102
   8 N :   -0.059037
   9 C :   -0.021180
  10 N :   -0.063168
  11 C :   -0.018534
  12 C :    0.012818
  13 C :   -0.011056
  14 C :   -0.004130
  15 C :   -0.003139
  16 C :   -0.016459
  17 C :   -0.016867
  18 C :   -0.014236
  19 C :    0.052290
  20 C :   -0.066265
  21 C :   -0.106183
  22 C :   -0.041705
  23 C :   -0.008078
  24 C :   -0.185646
  25 S :    0.407099
  26 C :   -0.170125
  27 C :   -0.032609
  28 C :   -0.018806
  29 C :   -0.137727
  30 S :    0.443332
  31 C :   -0.038696
  32 C :   -0.027776
  33 C :   -0.005200
  34 C :   -0.014011
  35 C :   -0.036124
  36 C :    0.006477
  37 N :   -0.033835
  38 C :    0.014946
  39 C :    0.018385
  40 N :   -0.050015
  41 C :    0.001901
  42 C :   -0.024720
  43 C :   -0.146850
  44 C :   -0.004188
  45 C :   -0.043408
  46 C :   -0.152574
  47 S :    0.395416
  48 C :   -0.185474
  49 C :   -0.014082
  50 C :   -0.034210
  51 C :   -0.106767
  52 S :    0.414216
  53 C :   -0.064590
  54 C :    0.051736
  55 C :   -0.102652
  56 C :    0.083346
  57 O :   -0.156564
  58 C :   -0.033433
  59 C :   -0.004425
  60 C :    0.068548
  61 C :   -0.148043
  62 C :   -0.024252
  63 N :   -0.057501
  64 C :   -0.021009
  65 N :   -0.060883
  66 C :   -0.018259
  67 C :    0.013158
  68 C :   -0.010800
  69 C :   -0.003955
  70 C :   -0.003397
  71 C :   -0.016347
  72 C :   -0.016606
  73 C :   -0.014302
  74 H :    0.038380
  75 H :    0.033408
  76 H :    0.034405
  77 H :    0.030642
  78 H :    0.030216
  79 H :    0.028829
  80 H :    0.038476
  81 H :    0.032203
  82 H :    0.037193
  83 H :    0.035527
  84 H :    0.031404
  85 H :    0.034579
  86 H :    0.038032
  87 H :    0.033141
  88 H :    0.017547
  89 H :    0.031112
  90 H :    0.027056
  91 H :    0.040054
  92 H :    0.039981
  93 H :    0.035122
  94 H :    0.033605
  95 H :    0.038091
  96 H :    0.033140
  97 H :    0.038186
  98 H :    0.038752
  99 H :    0.033969
 100 H :    0.034587
 101 H :    0.030768
 102 H :    0.030281
 103 H :    0.029303

  Mayer bond orders larger than 0.100000
B(  0-C ,  1-C ) :   0.9788 B(  0-C ,  5-C ) :   1.0780 B(  0-C , 19-C ) :   1.5353
B(  1-C ,  2-O ) :   2.1708 B(  1-C ,  3-C ) :   0.9392 B(  3-C ,  4-C ) :   1.4214
B(  3-C , 14-C ) :   1.2416 B(  4-C ,  5-C ) :   0.9919 B(  4-C , 11-C ) :   1.2661
B(  5-C ,  6-C ) :   1.6027 B(  6-C ,  7-C ) :   1.1622 B(  6-C ,  9-C ) :   1.1329
B(  7-C ,  8-N ) :   3.0178 B(  9-C , 10-N ) :   2.9825 B( 11-C , 12-C ) :   1.4605
B( 11-C , 74-H ) :   0.9856 B( 12-C , 13-C ) :   1.2288 B( 12-C , 75-H ) :   0.9938
B( 13-C , 14-C ) :   1.2395 B( 13-C , 18-C ) :   1.2363 B( 14-C , 15-C ) :   1.2721
B( 15-C , 16-C ) :   1.4766 B( 15-C , 76-H ) :   0.9860 B( 16-C , 17-C ) :   1.2518
B( 16-C , 77-H ) :   0.9877 B( 17-C , 18-C ) :   1.4975 B( 17-C , 78-H ) :   0.9892
B( 18-C , 79-H ) :   0.9975 B( 19-C , 20-C ) :   1.2502 B( 19-C , 80-H ) :   0.9447
B( 20-C , 21-C ) :   1.4680 B( 20-C , 81-H ) :   0.9468 B( 21-C , 22-C ) :   1.1948
B( 21-C , 25-S ) :   1.0898 B( 22-C , 23-C ) :   1.5543 B( 22-C , 82-H ) :   0.9906
B( 23-C , 24-C ) :   1.2177 B( 23-C , 83-H ) :   0.9940 B( 24-C , 25-S ) :   1.0533
B( 24-C , 26-C ) :   1.4604 B( 26-C , 27-C ) :   1.1990 B( 26-C , 30-S ) :   1.0124
B( 27-C , 28-C ) :   1.5689 B( 27-C , 84-H ) :   0.9943 B( 28-C , 29-C ) :   1.1515
B( 28-C , 85-H ) :   1.0009 B( 29-C , 30-S ) :   1.0553 B( 29-C , 31-C ) :   1.5134
B( 31-C , 32-C ) :   1.1900 B( 31-C , 86-H ) :   0.9597 B( 32-C , 33-C ) :   1.3110
B( 32-C , 35-C ) :   0.1005 B( 32-C , 41-C ) :   1.1636 B( 33-C , 34-C ) :   1.3645
B( 33-C , 87-H ) :   0.9969 B( 34-C , 35-C ) :   1.3035 B( 34-C , 88-H ) :   0.9800
B( 35-C , 36-C ) :   1.1666 B( 35-C , 42-C ) :   1.2149 B( 36-C , 37-N ) :   1.5040
B( 36-C , 41-C ) :   1.2361 B( 37-N , 38-C ) :   1.6212 B( 38-C , 39-C ) :   1.2776
B( 38-C , 89-H ) :   0.9791 B( 39-C , 40-N ) :   1.5391 B( 39-C , 90-H ) :   0.9639
B( 40-N , 41-C ) :   1.4457 B( 42-C , 43-C ) :   1.4946 B( 42-C , 91-H ) :   0.9578
B( 43-C , 44-C ) :   1.1665 B( 43-C , 47-S ) :   1.0349 B( 44-C , 45-C ) :   1.5613
B( 44-C , 92-H ) :   1.0025 B( 45-C , 46-C ) :   1.1832 B( 45-C , 93-H ) :   0.9928
B( 46-C , 47-S ) :   1.0608 B( 46-C , 48-C ) :   1.4998 B( 48-C , 49-C ) :   1.1949
B( 48-C , 52-S ) :   1.0527 B( 49-C , 50-C ) :   1.5651 B( 49-C , 94-H ) :   0.9918
B( 50-C , 51-C ) :   1.1911 B( 50-C , 95-H ) :   0.9905 B( 51-C , 52-S ) :   1.0928
B( 51-C , 53-C ) :   1.4734 B( 53-C , 54-C ) :   1.2443 B( 53-C , 96-H ) :   0.9473
B( 54-C , 55-C ) :   1.5445 B( 54-C , 97-H ) :   0.9428 B( 55-C , 56-C ) :   0.9788
B( 55-C , 60-C ) :   1.0725 B( 56-C , 57-O ) :   2.1691 B( 56-C , 58-C ) :   0.9390
B( 58-C , 59-C ) :   1.4209 B( 58-C , 69-C ) :   1.2445 B( 59-C , 60-C ) :   0.9937
B( 59-C , 66-C ) :   1.2679 B( 60-C , 61-C ) :   1.6067 B( 61-C , 62-C ) :   1.1634
B( 61-C , 64-C ) :   1.1325 B( 62-C , 63-N ) :   3.0164 B( 64-C , 65-N ) :   2.9829
B( 66-C , 67-C ) :   1.4635 B( 66-C , 98-H ) :   0.9844 B( 67-C , 68-C ) :   1.2299
B( 67-C , 99-H ) :   0.9925 B( 68-C , 69-C ) :   1.2403 B( 68-C , 73-C ) :   1.2377
B( 69-C , 70-C ) :   1.2736 B( 70-C , 71-C ) :   1.4787 B( 70-C ,100-H ) :   0.9846
B( 71-C , 72-C ) :   1.2530 B( 71-C ,101-H ) :   0.9869 B( 72-C , 73-C ) :   1.4997
B( 72-C ,102-H ) :   0.9884 B( 73-C ,103-H ) :   0.9962

-----------------------------------------------------------------------------
         ABSORPTION SPECTRUM VIA TRANSITION ELECTRIC DIPOLE MOMENTS
-----------------------------------------------------------------------------
State   Energy  Wavelength   fosc         T2         TX        TY        TZ
        (cm-1)    (nm)                  (au**2)     (au)      (au)      (au)
-----------------------------------------------------------------------------
   0    7820.4   1278.7   2.489282138 104.79044  -8.10929   6.06071   1.51577
   1   13647.5    732.7   0.070640457   1.70402   1.30443  -0.02336  -0.04408
   2   14327.0    698.0   0.043343992   0.99598   0.87951   0.46961   0.04358
   3   18376.8    544.2   0.174813631   3.13171  -0.03653   1.76480  -0.12596
   4   19910.3    502.3   0.006797020   0.11239  -0.33176  -0.01684  -0.04515
   5   20330.2    491.9   0.124290391   2.01266   0.89380  -0.91544  -0.61299
   6   21654.2    461.8   0.261368616   3.97362  -0.06836  -1.96421  -0.33288
   7   22027.5    454.0   0.203168096   3.03645  -0.21956  -1.72125  -0.15981
   8   23679.1    422.3   0.146702732   2.03962   0.66670  -0.84312  -0.94036
   9   23748.2    421.1   0.042206696   0.58510   0.13681  -0.55358  -0.50983
  10   24936.3    401.0   0.046088321   0.60846  -0.09118  -0.76650  -0.11236
  11   25144.0    397.7   0.104100356   1.36300  -0.24379  -1.13733  -0.10019
  12   25936.3    385.6   0.001509492   0.01916  -0.02975  -0.01405  -0.13445
  13   26157.4    382.3   0.097061263   1.22160   0.65482   0.88791   0.06646
  14   27337.0    365.8   0.003054434   0.03678   0.18782   0.02036   0.03307
  15   27583.7    362.5   0.018383108   0.21940  -0.13102  -0.44845  -0.03359
  16   28312.7    353.2   0.006140245   0.07140   0.21994   0.12049   0.09221
  17   28866.5    346.4   0.006002385   0.06845  -0.22811   0.12728   0.01480
  18   28913.8    345.9   0.012089895   0.13766  -0.36977  -0.02870  -0.01018
  19   29055.9    344.2   0.015720660   0.17812   0.29981   0.29557  -0.02953
  20   29191.8    342.6   0.006003980   0.06771   0.01081  -0.25553  -0.04796
  21   29323.2    341.0   0.016029064   0.17996   0.20684  -0.22683  -0.29278
  22   29756.7    336.1   0.045985584   0.50876   0.01171   0.71303   0.01469
  23   30250.9    330.6   0.074126234   0.80669  -0.60926  -0.65964  -0.01932
  24   30407.6    328.9   0.075483286   0.81723   0.67848   0.56196   0.20271
  25   30450.4    328.4   0.017239251   0.18638   0.42343   0.07760  -0.03262
  26   30817.0    324.5   0.127678778   1.36397  -1.07730  -0.44236  -0.08780
  27   30841.1    324.2   0.095563707   1.02009  -0.06223  -0.04986  -1.00684
  28   31080.0    321.8   0.185311499   1.96290  -0.77405   0.89119   0.75467
  29   31531.0    317.1   0.117262567   1.22433   0.06405  -0.87877  -0.66931
  30   31839.2    314.1   0.003192886   0.03301  -0.16309  -0.07517   0.02766
  31   32352.2    309.1   0.040224749   0.40932  -0.25545  -0.58341  -0.06077
  32   32440.3    308.3   0.071199905   0.72255  -0.61583   0.09477   0.57821
  33   32577.3    307.0   0.064999859   0.65686  -0.75274  -0.21622  -0.20853
  34   32911.9    303.8   0.031715734   0.31725  -0.07622  -0.52174  -0.19804
  35   33521.2    298.3   0.600935775   5.90180  -1.02604   1.23324   1.82432
  36   33538.2    298.2   0.016113898   0.15817   0.18526  -0.29937  -0.18501
  37   33673.3    297.0   0.075038491   0.73362  -0.34959  -0.36153  -0.69333
  38   34004.8    294.1   0.139833411   1.35377   0.17586  -1.04609  -0.47805
  39   34293.7    291.6   0.316250862   3.03594   1.02763  -0.94354  -1.04386
  40   34651.1    288.6   0.004595132   0.04366  -0.17644  -0.02279   0.10958
  41   34908.7    286.5   0.055541862   0.52380   0.66406  -0.21405  -0.19235
  42   35130.5    284.7   0.074086053   0.69427  -0.24229  -0.79081  -0.10089
  43   35709.2    280.0   0.012210476   0.11257  -0.11579   0.27994  -0.14421
  44   35980.5    277.9   0.039977157   0.36578   0.54924  -0.13545  -0.21395
  45   36174.9    276.4   0.000163809   0.00149  -0.00365   0.03360  -0.01867
  46   36273.9    275.7   0.002001920   0.01817   0.02729   0.01313  -0.13135
  47   36521.7    273.8   0.083240755   0.75034   0.15166   0.46307   0.71618
  48   37035.5    270.0   0.007688896   0.06835   0.04329   0.21240   0.14615
  49   37656.8    265.6   0.001572801   0.01375  -0.08671   0.00139   0.07892
  50   37733.2    265.0   0.039267465   0.34260   0.52852  -0.09008  -0.23485
  51   38131.9    262.2   0.276400618   2.38631  -0.64912   1.00523   0.97697
  52   38219.6    261.6   0.016574948   0.14277  -0.16483  -0.20674  -0.26993
  53   38487.8    259.8   0.001159807   0.00992  -0.06800  -0.07193  -0.01109
  54   38905.0    257.0   0.233207033   1.97339   0.71668  -0.80435  -0.90154
  55   39201.4    255.1   0.005092434   0.04277  -0.00912   0.20349   0.03569
  56   39315.8    254.4   0.000226321   0.00190  -0.01111   0.00598   0.04166
  57   39399.1    253.8   0.007591021   0.06343   0.24941  -0.03181   0.01450
  58   39778.6    251.4   0.001525663   0.01263  -0.09552   0.05662   0.01725
  59   40196.3    248.8   0.008837063   0.07238   0.25103   0.01013  -0.09623

FINAL SINGLE POINT ENERGY     -4448.111623774182

DIPOLE MOMENT
-------------
                                X             Y             Z
Electronic contribution:     -6.38962      -4.08872      -0.82170
Nuclear contribution   :      8.26467       5.39324       1.03457
                        -----------------------------------------
Total Dipole Moment    :      1.87505       1.30452       0.21287
                        -----------------------------------------
Magnitude (a.u.)       :      2.29410
Magnitude (Debye)      :      5.83114

Rotational constants in cm-1:     0.003073     0.000128     0.000125
Rotational constants in MHz :    92.118109     3.841688     3.750852

                             ****ORCA TERMINATED NORMALLY****
TOTAL RUN TIME: 0 days 0 hours 12 minutes 3 seconds 707 msec
