                         Program Version 4.2.0 -  RELEASE  -
|  1> # ORCA input file
|  2> # SCF done       -209.430827684417          0.000351472310
|  3> ! CAM-B3LYP def2-SVP def2/J RIJCOSX Grid4 TightSCF
|  4> %maxcore 5000
|  5> %tddft
|  6>     Mode sTDDFT
|  7>     Ethresh 5.0
|  8>     maxcore 5000
|  9> end
| 10>
| 11> %pal
| 12>   nprocs 6
| 13>   end
| 14> * xyz 0 1
| 15>    C        1.83039        -3.75095         1.39129
| 16>    C        1.39647        -4.67297         0.30646
| 17>    O        1.32157        -4.40280        -0.87287
| 18>    C        1.14646        -5.96212         0.97869
| 19>    C        1.26289        -5.79710         2.35946
| 20>    C        1.52912        -4.39229         2.65165
| 21>    C        1.24796        -3.75534         3.83208
| 22>    C        1.24184        -2.35114         3.96569
| 23>    N        1.17669        -1.21219         4.09575
| 24>    C        0.83192        -4.41242         5.00704
| 25>    N        0.49764        -4.89608         5.99302
| 26>    C        1.09848        -6.88345         3.22737
| 27>    C        0.81502        -8.11355         2.69351
| 28>    C        0.67616        -8.31320         1.30236
| 29>    C        0.84636        -7.21492         0.40956
| 30>    C        0.71082        -7.42131        -0.97840
| 31>    C        0.41562        -8.66570        -1.46268
| 32>    C        0.24513        -9.75079        -0.58790
| 33>    C        0.37262        -9.57993         0.76318
| 34>    C        2.47109        -2.58897         1.08899
| 35>    C        3.31529        -1.80978         1.91075
| 36>    C        3.65618        -0.47594         1.70721
| 37>    C        4.53119         0.00040         2.66515
| 38>    C        4.91102        -0.98345         3.58789
| 39>    S        4.16144        -2.49186         3.29266
| 40>    C        5.81053        -0.43238         4.51865
| 41>    C        6.00287         0.92191         4.20643
| 42>    C        5.18863         1.31927         2.99710
| 43>    C        4.13647         2.37040         3.36444
| 44>    C        6.08031         1.81647         1.85694
| 45>    C        6.86552         1.54920         5.08118
| 46>    C        7.34316         0.68555         6.06862
| 47>    S        6.70457        -0.93559         5.89407
| 48>    C        8.22079         1.00972         7.13386
| 49>    C        8.62534         0.04202         8.08186
| 50>    C        9.47174         0.35469         9.19495
| 51>    N        9.80448        -0.62141        10.06123
| 52>    C        9.36315        -1.82396         9.87957
| 53>    C        8.53006        -2.13447         8.77512
| 54>    N        8.18751        -1.22167         7.92451
| 55>    F        8.08059        -3.37053         8.57923
| 56>    F        9.71600        -2.75770        10.75800
| 57>    C        9.97127         1.65538         9.43324
| 58>    C        9.59764         2.62649         8.47049
| 59>    C        8.74286         2.31054         7.34550
| 60>    N        8.52851         3.37982         6.57936
| 61>    S        9.30841         4.64182         7.19248
| 62>    N        9.95940         3.90922         8.46371
| 63>    C       10.77115         1.94899        10.56685
| 64>    C       11.29075         3.19352        10.92716
| 65>    C       12.00177         3.14438        12.10815
| 66>    C       12.03861         1.85579        12.66215
| 67>    S       11.18873         0.69977        11.72005
| 68>    C       12.76783         1.90290        13.86495
| 69>    C       13.19457         3.22046        14.09622
| 70>    C       12.74932         4.12958        12.97583
| 71>    C       11.82752         5.24474        13.47547
| 72>    C       13.96070         4.71127        12.24037
| 73>    C       13.93947         3.34831        15.24936
| 74>    C       14.10032         2.13467        15.91953
| 75>    S       13.26642         0.82646        15.09321
| 76>    C       14.75275         1.84882        17.13211
| 77>    C       15.65046         2.59336        17.84208
| 78>    C       15.85397         2.28109        19.28334
| 79>    O       15.46990         1.28456        19.85686
| 80>    C       16.56123         3.44994        19.83833
| 81>    C       16.87525         4.33259        18.80538
| 82>    C       16.45186         3.75134        17.53194
| 83>    C       16.94826         4.10178        16.30120
| 84>    C       16.74738         3.34586        15.12918
| 85>    N       16.64731         2.75444        14.15015
| 86>    C       17.78300         5.21213        16.06584
| 87>    N       18.43623         6.11830        15.79878
| 88>    C       17.52403         5.54388        19.07596
| 89>    C       17.84964         5.84096        20.37407
| 90>    C       17.56093         4.96162        21.44015
| 91>    C       16.89670         3.72817        21.17695
| 92>    C       16.60918         2.85255        22.24401
| 93>    C       16.96781         3.18507        23.52092
| 94>    C       17.62242         4.39894        23.78616
| 95>    C       17.91212         5.26818        22.77072
| 96>    H        1.20662        -6.75876         4.29270
| 97>    H        0.69144        -8.96520         3.34685
| 98>    H        0.84447        -6.58029        -1.64035
| 99>    H        0.31135        -8.82301        -2.52587
|100>    H        0.01228       -10.72489        -0.99212
|101>    H        0.24152       -10.41324         1.43837
|102>    H        2.38210        -2.26201         0.05711
|103>    H        3.23477         0.10247         0.90491
|104>    H        3.49203         1.99641         4.15625
|105>    H        3.52229         2.60210         2.49807
|106>    H        4.62329         3.28004         3.70674
|107>    H        6.82143         1.06332         1.59927
|108>    H        6.59620         2.72431         2.15878
|109>    H        5.47843         2.02975         0.97717
|110>    H        7.16055         2.58101         5.04626
|111>    H       11.12717         4.06717        10.32480
|112>    H       10.96727         4.82349        13.99091
|113>    H       11.47500         5.83799        12.63574
|114>    H       12.36387         5.89380        14.16326
|115>    H       14.63881         3.91524        11.94302
|116>    H       14.49989         5.39548        12.89082
|117>    H       13.63554         5.24895        11.35346
|118>    H       14.32127         4.27794        15.63128
|119>    H       14.45240         0.92729        17.62273
|120>    H       17.75395         6.23751        18.28351
|121>    H       18.34476         6.77422        20.60080
|122>    H       16.10550         1.92372        22.02750
|123>    H       16.74916         2.51353        24.33772
|124>    H       17.89599         4.64127        24.80248
|125>    H       18.41635         6.20231        22.97238
|126> *
|127>
|128>                          ****END OF INPUT****

CARTESIAN COORDINATES (ANGSTROEM)
---------------------------------
  C      1.830390   -3.750950    1.391290
  C      1.396470   -4.672970    0.306460
  O      1.321570   -4.402800   -0.872870
  C      1.146460   -5.962120    0.978690
  C      1.262890   -5.797100    2.359460
  C      1.529120   -4.392290    2.651650
  C      1.247960   -3.755340    3.832080
  C      1.241840   -2.351140    3.965690
  N      1.176690   -1.212190    4.095750
  C      0.831920   -4.412420    5.007040
  N      0.497640   -4.896080    5.993020
  C      1.098480   -6.883450    3.227370
  C      0.815020   -8.113550    2.693510
  C      0.676160   -8.313200    1.302360
  C      0.846360   -7.214920    0.409560
  C      0.710820   -7.421310   -0.978400
  C      0.415620   -8.665700   -1.462680
  C      0.245130   -9.750790   -0.587900
  C      0.372620   -9.579930    0.763180
  C      2.471090   -2.588970    1.088990
  C      3.315290   -1.809780    1.910750
  C      3.656180   -0.475940    1.707210
  C      4.531190    0.000400    2.665150
  C      4.911020   -0.983450    3.587890
  S      4.161440   -2.491860    3.292660
  C      5.810530   -0.432380    4.518650
  C      6.002870    0.921910    4.206430
  C      5.188630    1.319270    2.997100
  C      4.136470    2.370400    3.364440
  C      6.080310    1.816470    1.856940
  C      6.865520    1.549200    5.081180
  C      7.343160    0.685550    6.068620
  S      6.704570   -0.935590    5.894070
  C      8.220790    1.009720    7.133860
  C      8.625340    0.042020    8.081860
  C      9.471740    0.354690    9.194950
  N      9.804480   -0.621410   10.061230
  C      9.363150   -1.823960    9.879570
  C      8.530060   -2.134470    8.775120
  N      8.187510   -1.221670    7.924510
  F      8.080590   -3.370530    8.579230
  F      9.716000   -2.757700   10.758000
  C      9.971270    1.655380    9.433240
  C      9.597640    2.626490    8.470490
  C      8.742860    2.310540    7.345500
  N      8.528510    3.379820    6.579360
  S      9.308410    4.641820    7.192480
  N      9.959400    3.909220    8.463710
  C     10.771150    1.948990   10.566850
  C     11.290750    3.193520   10.927160
  C     12.001770    3.144380   12.108150
  C     12.038610    1.855790   12.662150
  S     11.188730    0.699770   11.720050
  C     12.767830    1.902900   13.864950
  C     13.194570    3.220460   14.096220
  C     12.749320    4.129580   12.975830
  C     11.827520    5.244740   13.475470
  C     13.960700    4.711270   12.240370
  C     13.939470    3.348310   15.249360
  C     14.100320    2.134670   15.919530
  S     13.266420    0.826460   15.093210
  C     14.752750    1.848820   17.132110
  C     15.650460    2.593360   17.842080
  C     15.853970    2.281090   19.283340
  O     15.469900    1.284560   19.856860
  C     16.561230    3.449940   19.838330
  C     16.875250    4.332590   18.805380
  C     16.451860    3.751340   17.531940
  C     16.948260    4.101780   16.301200
  C     16.747380    3.345860   15.129180
  N     16.647310    2.754440   14.150150
  C     17.783000    5.212130   16.065840
  N     18.436230    6.118300   15.798780
  C     17.524030    5.543880   19.075960
  C     17.849640    5.840960   20.374070
  C     17.560930    4.961620   21.440150
  C     16.896700    3.728170   21.176950
  C     16.609180    2.852550   22.244010
  C     16.967810    3.185070   23.520920
  C     17.622420    4.398940   23.786160
  C     17.912120    5.268180   22.770720
  H      1.206620   -6.758760    4.292700
  H      0.691440   -8.965200    3.346850
  H      0.844470   -6.580290   -1.640350
  H      0.311350   -8.823010   -2.525870
  H      0.012280  -10.724890   -0.992120
  H      0.241520  -10.413240    1.438370
  H      2.382100   -2.262010    0.057110
  H      3.234770    0.102470    0.904910
  H      3.492030    1.996410    4.156250
  H      3.522290    2.602100    2.498070
  H      4.623290    3.280040    3.706740
  H      6.821430    1.063320    1.599270
  H      6.596200    2.724310    2.158780
  H      5.478430    2.029750    0.977170
  H      7.160550    2.581010    5.046260
  H     11.127170    4.067170   10.324800
  H     10.967270    4.823490   13.990910
  H     11.475000    5.837990   12.635740
  H     12.363870    5.893800   14.163260
  H     14.638810    3.915240   11.943020
  H     14.499890    5.395480   12.890820
  H     13.635540    5.248950   11.353460
  H     14.321270    4.277940   15.631280
  H     14.452400    0.927290   17.622730
  H     17.753950    6.237510   18.283510
  H     18.344760    6.774220   20.600800
  H     16.105500    1.923720   22.027500
  H     16.749160    2.513530   24.337720
  H     17.895990    4.641270   24.802480
  H     18.416350    6.202310   22.972380

 Total Charge           Charge          ....    0
 Multiplicity           Mult            ....    1
 Number of Electrons    NEL             ....  584
 Basis Dimension        Dim             .... 1304

ORBITAL ENERGIES
----------------

  NO   OCC          E(Eh)            E(eV)
   0   2.0000     -89.043002     -2422.9833
   1   2.0000     -88.969112     -2420.9726
   2   2.0000     -88.968631     -2420.9595
   3   2.0000     -88.961829     -2420.7744
   4   2.0000     -88.961653     -2420.7696
   5   2.0000     -24.818945      -675.3578
   6   2.0000     -24.818615      -675.3489
   7   2.0000     -19.210160      -522.7350
   8   2.0000     -19.209880      -522.7274
   9   2.0000     -14.459720      -393.4690
  10   2.0000     -14.459570      -393.4649
  11   2.0000     -14.453379      -393.2964
  12   2.0000     -14.453240      -393.2926
  13   2.0000     -14.410159      -392.1204
  14   2.0000     -14.409847      -392.1119
  15   2.0000     -14.408313      -392.0701
  16   2.0000     -14.406499      -392.0208
  17   2.0000     -10.435437      -283.9627
  18   2.0000     -10.435094      -283.9533
  19   2.0000     -10.361326      -281.9460
  20   2.0000     -10.360296      -281.9180
  21   2.0000     -10.345678      -281.5202
  22   2.0000     -10.345397      -281.5126
  23   2.0000     -10.342622      -281.4370
  24   2.0000     -10.342384      -281.4306
  25   2.0000     -10.336578      -281.2726
  26   2.0000     -10.336247      -281.2636
  27   2.0000     -10.335617      -281.2464
  28   2.0000     -10.334109      -281.2054
  29   2.0000     -10.315277      -280.6930
  30   2.0000     -10.315221      -280.6914
  31   2.0000     -10.314837      -280.6810
  32   2.0000     -10.314226      -280.6644
  33   2.0000     -10.313286      -280.6388
  34   2.0000     -10.312030      -280.6046
  35   2.0000     -10.311959      -280.6027
  36   2.0000     -10.311831      -280.5992
  37   2.0000     -10.311823      -280.5990
  38   2.0000     -10.311683      -280.5952
  39   2.0000     -10.311256      -280.5835
  40   2.0000     -10.310166      -280.5539
  41   2.0000     -10.309738      -280.5422
  42   2.0000     -10.308975      -280.5215
  43   2.0000     -10.302739      -280.3518
  44   2.0000     -10.302685      -280.3503
  45   2.0000     -10.300275      -280.2847
  46   2.0000     -10.300060      -280.2789
  47   2.0000     -10.296784      -280.1897
  48   2.0000     -10.295719      -280.1608
  49   2.0000     -10.292025      -280.0602
  50   2.0000     -10.292009      -280.0598
  51   2.0000     -10.291190      -280.0375
  52   2.0000     -10.291190      -280.0375
  53   2.0000     -10.290224      -280.0112
  54   2.0000     -10.290215      -280.0110
  55   2.0000     -10.289880      -280.0019
  56   2.0000     -10.289830      -280.0005
  57   2.0000     -10.288915      -279.9756
  58   2.0000     -10.288642      -279.9682
  59   2.0000     -10.287021      -279.9241
  60   2.0000     -10.286147      -279.9003
  61   2.0000     -10.286123      -279.8996
  62   2.0000     -10.285989      -279.8960
  63   2.0000     -10.280403      -279.7440
  64   2.0000     -10.280320      -279.7417
  65   2.0000     -10.279335      -279.7149
  66   2.0000     -10.279151      -279.7099
  67   2.0000     -10.278817      -279.7008
  68   2.0000     -10.278637      -279.6959
  69   2.0000     -10.277389      -279.6620
  70   2.0000     -10.277158      -279.6557
  71   2.0000     -10.276895      -279.6485
  72   2.0000     -10.276719      -279.6437
  73   2.0000     -10.276606      -279.6407
  74   2.0000     -10.276551      -279.6392
  75   2.0000     -10.272593      -279.5315
  76   2.0000     -10.272476      -279.5283
  77   2.0000     -10.267559      -279.3945
  78   2.0000     -10.266766      -279.3729
  79   2.0000     -10.263933      -279.2958
  80   2.0000     -10.260802      -279.2106
  81   2.0000      -8.134370      -221.3475
  82   2.0000      -8.064280      -219.4402
  83   2.0000      -8.063263      -219.4125
  84   2.0000      -8.055144      -219.1916
  85   2.0000      -8.054955      -219.1865
  86   2.0000      -6.105570      -166.1410
  87   2.0000      -6.097667      -165.9260
  88   2.0000      -6.097025      -165.9085
  89   2.0000      -6.033492      -164.1797
  90   2.0000      -6.032611      -164.1557
  91   2.0000      -6.029480      -164.0705
  92   2.0000      -6.028511      -164.0441
  93   2.0000      -6.026447      -163.9880
  94   2.0000      -6.025304      -163.9568
  95   2.0000      -6.024731      -163.9413
  96   2.0000      -6.024553      -163.9364
  97   2.0000      -6.020126      -163.8160
  98   2.0000      -6.019929      -163.8106
  99   2.0000      -6.017211      -163.7366
 100   2.0000      -6.017038      -163.7319
 101   2.0000      -1.347078       -36.6558
 102   2.0000      -1.333078       -36.2749
 103   2.0000      -1.140997       -31.0481
 104   2.0000      -1.124757       -30.6062
 105   2.0000      -1.124744       -30.6058
 106   2.0000      -1.119161       -30.4539
 107   2.0000      -1.045839       -28.4587
 108   2.0000      -1.018157       -27.7054
 109   2.0000      -1.017750       -27.6944
 110   2.0000      -1.012114       -27.5410
 111   2.0000      -1.010961       -27.5096
 112   2.0000      -0.997234       -27.1361
 113   2.0000      -0.993382       -27.0313
 114   2.0000      -0.992292       -27.0016
 115   2.0000      -0.989217       -26.9180
 116   2.0000      -0.987423       -26.8691
 117   2.0000      -0.985020       -26.8038
 118   2.0000      -0.976298       -26.5664
 119   2.0000      -0.966523       -26.3004
 120   2.0000      -0.962380       -26.1877
 121   2.0000      -0.960899       -26.1474
 122   2.0000      -0.932846       -25.3840
 123   2.0000      -0.926513       -25.2117
 124   2.0000      -0.915927       -24.9237
 125   2.0000      -0.915178       -24.9033
 126   2.0000      -0.897435       -24.4204
 127   2.0000      -0.897025       -24.4093
 128   2.0000      -0.890611       -24.2348
 129   2.0000      -0.887892       -24.1608
 130   2.0000      -0.884440       -24.0668
 131   2.0000      -0.882281       -24.0081
 132   2.0000      -0.863187       -23.4885
 133   2.0000      -0.857144       -23.3241
 134   2.0000      -0.848861       -23.0987
 135   2.0000      -0.843941       -22.9648
 136   2.0000      -0.836208       -22.7544
 137   2.0000      -0.834549       -22.7092
 138   2.0000      -0.832910       -22.6646
 139   2.0000      -0.830340       -22.5947
 140   2.0000      -0.825173       -22.4541
 141   2.0000      -0.824638       -22.4395
 142   2.0000      -0.817402       -22.2426
 143   2.0000      -0.799939       -21.7674
 144   2.0000      -0.789582       -21.4856
 145   2.0000      -0.777690       -21.1620
 146   2.0000      -0.776317       -21.1247
 147   2.0000      -0.775632       -21.1060
 148   2.0000      -0.772976       -21.0338
 149   2.0000      -0.764936       -20.8150
 150   2.0000      -0.763583       -20.7782
 151   2.0000      -0.747311       -20.3354
 152   2.0000      -0.742136       -20.1946
 153   2.0000      -0.723663       -19.6919
 154   2.0000      -0.711774       -19.3683
 155   2.0000      -0.709976       -19.3194
 156   2.0000      -0.708357       -19.2754
 157   2.0000      -0.706189       -19.2164
 158   2.0000      -0.701751       -19.0956
 159   2.0000      -0.700714       -19.0674
 160   2.0000      -0.695564       -18.9273
 161   2.0000      -0.685358       -18.6495
 162   2.0000      -0.683465       -18.5980
 163   2.0000      -0.675105       -18.3705
 164   2.0000      -0.669891       -18.2287
 165   2.0000      -0.669462       -18.2170
 166   2.0000      -0.664637       -18.0857
 167   2.0000      -0.658719       -17.9247
 168   2.0000      -0.645260       -17.5584
 169   2.0000      -0.639386       -17.3986
 170   2.0000      -0.634109       -17.2550
 171   2.0000      -0.631819       -17.1927
 172   2.0000      -0.629064       -17.1177
 173   2.0000      -0.627446       -17.0737
 174   2.0000      -0.625023       -17.0077
 175   2.0000      -0.622787       -16.9469
 176   2.0000      -0.622455       -16.9379
 177   2.0000      -0.622232       -16.9318
 178   2.0000      -0.620110       -16.8741
 179   2.0000      -0.605722       -16.4825
 180   2.0000      -0.600764       -16.3476
 181   2.0000      -0.590701       -16.0738
 182   2.0000      -0.588935       -16.0257
 183   2.0000      -0.583404       -15.8752
 184   2.0000      -0.582756       -15.8576
 185   2.0000      -0.581958       -15.8359
 186   2.0000      -0.574158       -15.6236
 187   2.0000      -0.568568       -15.4715
 188   2.0000      -0.567929       -15.4541
 189   2.0000      -0.567270       -15.4362
 190   2.0000      -0.564235       -15.3536
 191   2.0000      -0.559302       -15.2194
 192   2.0000      -0.553017       -15.0484
 193   2.0000      -0.549223       -14.9451
 194   2.0000      -0.548009       -14.9121
 195   2.0000      -0.545024       -14.8309
 196   2.0000      -0.541286       -14.7292
 197   2.0000      -0.531318       -14.4579
 198   2.0000      -0.531067       -14.4511
 199   2.0000      -0.530853       -14.4452
 200   2.0000      -0.529677       -14.4133
 201   2.0000      -0.528894       -14.3919
 202   2.0000      -0.527722       -14.3601
 203   2.0000      -0.523737       -14.2516
 204   2.0000      -0.522042       -14.2055
 205   2.0000      -0.521298       -14.1852
 206   2.0000      -0.519539       -14.1374
 207   2.0000      -0.516055       -14.0426
 208   2.0000      -0.513006       -13.9596
 209   2.0000      -0.510635       -13.8951
 210   2.0000      -0.509198       -13.8560
 211   2.0000      -0.507242       -13.8028
 212   2.0000      -0.505329       -13.7507
 213   2.0000      -0.503320       -13.6960
 214   2.0000      -0.501732       -13.6528
 215   2.0000      -0.501435       -13.6447
 216   2.0000      -0.498798       -13.5730
 217   2.0000      -0.498635       -13.5685
 218   2.0000      -0.496288       -13.5047
 219   2.0000      -0.494611       -13.4590
 220   2.0000      -0.488410       -13.2903
 221   2.0000      -0.486873       -13.2485
 222   2.0000      -0.485968       -13.2239
 223   2.0000      -0.482745       -13.1362
 224   2.0000      -0.479855       -13.0575
 225   2.0000      -0.478210       -13.0128
 226   2.0000      -0.477467       -12.9925
 227   2.0000      -0.476085       -12.9549
 228   2.0000      -0.474415       -12.9095
 229   2.0000      -0.471280       -12.8242
 230   2.0000      -0.470070       -12.7912
 231   2.0000      -0.467418       -12.7191
 232   2.0000      -0.465721       -12.6729
 233   2.0000      -0.463182       -12.6038
 234   2.0000      -0.462529       -12.5861
 235   2.0000      -0.460213       -12.5230
 236   2.0000      -0.456444       -12.4205
 237   2.0000      -0.450626       -12.2622
 238   2.0000      -0.448326       -12.1996
 239   2.0000      -0.446189       -12.1414
 240   2.0000      -0.444722       -12.1015
 241   2.0000      -0.442190       -12.0326
 242   2.0000      -0.439702       -11.9649
 243   2.0000      -0.439139       -11.9496
 244   2.0000      -0.437272       -11.8988
 245   2.0000      -0.435075       -11.8390
 246   2.0000      -0.433942       -11.8082
 247   2.0000      -0.432539       -11.7700
 248   2.0000      -0.431369       -11.7382
 249   2.0000      -0.428456       -11.6589
 250   2.0000      -0.427283       -11.6270
 251   2.0000      -0.425899       -11.5893
 252   2.0000      -0.424897       -11.5620
 253   2.0000      -0.424846       -11.5606
 254   2.0000      -0.423877       -11.5343
 255   2.0000      -0.421988       -11.4829
 256   2.0000      -0.421406       -11.4670
 257   2.0000      -0.420947       -11.4546
 258   2.0000      -0.419526       -11.4159
 259   2.0000      -0.415606       -11.3092
 260   2.0000      -0.413522       -11.2525
 261   2.0000      -0.412816       -11.2333
 262   2.0000      -0.407737       -11.0951
 263   2.0000      -0.407218       -11.0810
 264   2.0000      -0.406665       -11.0659
 265   2.0000      -0.405680       -11.0391
 266   2.0000      -0.404847       -11.0164
 267   2.0000      -0.394988       -10.7482
 268   2.0000      -0.391924       -10.6648
 269   2.0000      -0.378076       -10.2880
 270   2.0000      -0.375286       -10.2120
 271   2.0000      -0.374819       -10.1994
 272   2.0000      -0.373161       -10.1542
 273   2.0000      -0.362105        -9.8534
 274   2.0000      -0.358109        -9.7446
 275   2.0000      -0.356207        -9.6929
 276   2.0000      -0.345428        -9.3996
 277   2.0000      -0.343622        -9.3504
 278   2.0000      -0.332456        -9.0466
 279   2.0000      -0.329383        -8.9630
 280   2.0000      -0.328290        -8.9332
 281   2.0000      -0.327696        -8.9171
 282   2.0000      -0.324698        -8.8355
 283   2.0000      -0.320542        -8.7224
 284   2.0000      -0.320348        -8.7171
 285   2.0000      -0.312955        -8.5159
 286   2.0000      -0.308116        -8.3843
 287   2.0000      -0.291177        -7.9233
 288   2.0000      -0.288534        -7.8514
 289   2.0000      -0.287328        -7.8186
 290   2.0000      -0.257254        -7.0002
 291   2.0000      -0.223821        -6.0905
 292   0.0000      -0.119582        -3.2540
 293   0.0000      -0.080989        -2.2038
 294   0.0000      -0.078454        -2.1348
 295   0.0000      -0.063539        -1.7290
 296   0.0000      -0.062602        -1.7035

MULLIKEN ATOMIC CHARGES
-----------------------
   0 C :   -0.135073
   1 C :    0.122550
   2 O :   -0.156544
   3 C :    0.010489
   4 C :   -0.010426
   5 C :    0.246194
   6 C :   -0.324527
   7 C :   -0.202410
   8 N :    0.167814
   9 C :   -0.181564
  10 N :    0.156997
  11 C :   -0.021384
  12 C :    0.003451
  13 C :    0.079665
  14 C :    0.032898
  15 C :   -0.025948
  16 C :    0.034432
  17 C :    0.038265
  18 C :   -0.020359
  19 C :    0.042155
  20 C :   -0.101739
  21 C :   -0.000153
  22 C :    0.025822
  23 C :   -0.075366
  24 S :    0.170814
  25 C :   -0.050393
  26 C :    0.036817
  27 C :   -0.104315
  28 C :    0.106643
  29 C :    0.103272
  30 C :   -0.060827
  31 C :   -0.182615
  32 S :    0.172602
  33 C :    0.183257
  34 C :   -0.058864
  35 C :   -0.054801
  36 N :   -0.044564
  37 C :    0.149293
  38 C :    0.148259
  39 N :   -0.042031
  40 F :   -0.135679
  41 F :   -0.136410
  42 C :    0.181395
  43 C :   -0.014635
  44 C :   -0.014060
  45 N :   -0.293278
  46 S :    0.539854
  47 N :   -0.293359
  48 C :   -0.180069
  49 C :   -0.064143
  50 C :    0.039851
  51 C :   -0.053972
  52 S :    0.171879
  53 C :   -0.067105
  54 C :   -0.000676
  55 C :   -0.107768
  56 C :    0.105541
  57 C :    0.108381
  58 C :    0.002634
  59 C :   -0.117740
  60 S :    0.176368
  61 C :    0.078298
  62 C :   -0.137853
  63 C :    0.113721
  64 O :   -0.156055
  65 C :    0.015315
  66 C :   -0.014458
  67 C :    0.272398
  68 C :   -0.354623
  69 C :   -0.201477
  70 N :    0.170327
  71 C :   -0.177074
  72 N :    0.150415
  73 C :   -0.023577
  74 C :    0.003974
  75 C :    0.078483
  76 C :    0.033737
  77 C :   -0.024766
  78 C :    0.034763
  79 C :    0.038382
  80 C :   -0.020621
  81 H :    0.001989
  82 H :   -0.014144
  83 H :   -0.000430
  84 H :   -0.007468
  85 H :   -0.009147
  86 H :   -0.021958
  87 H :    0.022895
  88 H :   -0.012858
  89 H :    0.034456
  90 H :    0.010920
  91 H :    0.010202
  92 H :    0.021004
  93 H :    0.012956
  94 H :    0.010278
  95 H :   -0.010495
  96 H :   -0.009410
  97 H :    0.019373
  98 H :    0.012474
  99 H :    0.011645
 100 H :    0.035421
 101 H :    0.013166
 102 H :    0.009546
 103 H :   -0.004501
 104 H :    0.017513
 105 H :   -0.001059
 106 H :   -0.016284
 107 H :   -0.000527
 108 H :   -0.007847
 109 H :   -0.008603
 110 H :   -0.023211
Sum of atomic charges:   -0.0000000

LOEWDIN ATOMIC CHARGES
----------------------
   0 C :   -0.103880
   1 C :    0.086571
   2 O :   -0.148760
   3 C :   -0.033313
   4 C :   -0.004114
   5 C :    0.061205
   6 C :   -0.143164
   7 C :   -0.031688
   8 N :   -0.052975
   9 C :   -0.021538
  10 N :   -0.054013
  11 C :   -0.017493
  12 C :    0.016630
  13 C :   -0.010188
  14 C :   -0.003501
  15 C :   -0.002661
  16 C :   -0.014280
  17 C :   -0.014517
  18 C :   -0.013199
  19 C :    0.044348
  20 C :   -0.179682
  21 C :   -0.011008
  22 C :   -0.034923
  23 C :   -0.166248
  24 S :    0.470837
  25 C :   -0.197746
  26 C :   -0.029836
  27 C :   -0.035298
  28 C :   -0.022153
  29 C :   -0.024960
  30 C :   -0.038503
  31 C :   -0.159831
  32 S :    0.478353
  33 C :   -0.046046
  34 C :   -0.017255
  35 C :   -0.016538
  36 N :   -0.052764
  37 C :    0.062889
  38 C :    0.062701
  39 N :   -0.052436
  40 F :   -0.025440
  41 F :   -0.025685
  42 C :   -0.047189
  43 C :   -0.037067
  44 C :   -0.037377
  45 N :   -0.278695
  46 S :    0.662722
  47 N :   -0.278673
  48 C :   -0.158947
  49 C :   -0.039104
  50 C :   -0.028055
  51 C :   -0.199339
  52 S :    0.477460
  53 C :   -0.168140
  54 C :   -0.030851
  55 C :   -0.035542
  56 C :   -0.024799
  57 C :   -0.022133
  58 C :   -0.011061
  59 C :   -0.182611
  60 S :    0.464048
  61 C :    0.041717
  62 C :   -0.104967
  63 C :    0.086092
  64 O :   -0.148072
  65 C :   -0.032882
  66 C :   -0.005887
  67 C :    0.068343
  68 C :   -0.148729
  69 C :   -0.016725
  70 N :   -0.046940
  71 C :   -0.022617
  72 N :   -0.058025
  73 C :   -0.018967
  74 C :    0.015472
  75 C :   -0.010108
  76 C :   -0.003353
  77 C :   -0.002204
  78 C :   -0.014336
  79 C :   -0.014268
  80 C :   -0.013643
  81 H :    0.039525
  82 H :    0.034819
  83 H :    0.035156
  84 H :    0.031968
  85 H :    0.031031
  86 H :    0.029825
  87 H :    0.049842
  88 H :    0.035940
  89 H :    0.035380
  90 H :    0.024138
  91 H :    0.023609
  92 H :    0.029659
  93 H :    0.025077
  94 H :    0.023597
  95 H :    0.028299
  96 H :    0.028523
  97 H :    0.029076
  98 H :    0.025187
  99 H :    0.024007
 100 H :    0.035294
 101 H :    0.024801
 102 H :    0.023685
 103 H :    0.034256
 104 H :    0.043986
 105 H :    0.038765
 106 H :    0.034315
 107 H :    0.035176
 108 H :    0.031986
 109 H :    0.031074
 110 H :    0.029558

  Mayer bond orders larger than 0.100000
B(  0-C ,  1-C ) :   0.9645 B(  0-C ,  5-C ) :   1.0379 B(  0-C , 19-C ) :   1.6221
B(  1-C ,  2-O ) :   2.1920 B(  1-C ,  3-C ) :   0.9372 B(  3-C ,  4-C ) :   1.4198
B(  3-C , 14-C ) :   1.2390 B(  4-C ,  5-C ) :   1.0021 B(  4-C , 11-C ) :   1.2618
B(  5-C ,  6-C ) :   1.6475 B(  6-C ,  7-C ) :   1.1533 B(  6-C ,  9-C ) :   1.1363
B(  7-C ,  8-N ) :   3.0233 B(  9-C , 10-N ) :   2.9985 B( 11-C , 12-C ) :   1.4651
B( 11-C , 81-H ) :   0.9873 B( 12-C , 13-C ) :   1.2253 B( 12-C , 82-H ) :   0.9943
B( 13-C , 14-C ) :   1.2420 B( 13-C , 18-C ) :   1.2392 B( 14-C , 15-C ) :   1.2738
B( 15-C , 16-C ) :   1.4761 B( 15-C , 83-H ) :   0.9868 B( 16-C , 17-C ) :   1.2531
B( 16-C , 84-H ) :   0.9880 B( 17-C , 18-C ) :   1.4971 B( 17-C , 85-H ) :   0.9891
B( 18-C , 86-H ) :   0.9973 B( 19-C , 20-C ) :   1.1513 B( 19-C , 87-H ) :   0.9486
B( 20-C , 21-C ) :   1.3770 B( 20-C , 24-S ) :   1.0954 B( 21-C , 22-C ) :   1.3417
B( 21-C , 88-H ) :   1.0088 B( 22-C , 23-C ) :   1.4745 B( 22-C , 27-C ) :   0.9350
B( 23-C , 24-S ) :   1.1079 B( 23-C , 25-C ) :   1.2057 B( 25-C , 26-C ) :   1.4720
B( 25-C , 32-S ) :   1.0462 B( 26-C , 27-C ) :   0.9372 B( 26-C , 30-C ) :   1.3172
B( 27-C , 28-C ) :   1.0342 B( 27-C , 29-C ) :   1.0354 B( 28-C , 89-H ) :   0.9634
B( 28-C , 90-H ) :   0.9641 B( 28-C , 91-H ) :   0.9645 B( 29-C , 92-H ) :   0.9645
B( 29-C , 93-H ) :   0.9653 B( 29-C , 94-H ) :   0.9646 B( 30-C , 31-C ) :   1.4040
B( 30-C , 95-H ) :   0.9913 B( 31-C , 32-S ) :   1.0988 B( 31-C , 33-C ) :   1.2055
B( 33-C , 34-C ) :   1.2822 B( 33-C , 42-C ) :   0.1230 B( 33-C , 44-C ) :   1.1887
B( 34-C , 35-C ) :   1.1211 B( 34-C , 39-N ) :   1.3856 B( 35-C , 36-N ) :   1.3838
B( 35-C , 42-C ) :   1.2827 B( 36-N , 37-C ) :   1.6531 B( 37-C , 38-C ) :   1.1117
B( 37-C , 41-F ) :   1.1854 B( 38-C , 39-N ) :   1.6515 B( 38-C , 40-F ) :   1.1867
B( 42-C , 43-C ) :   1.1891 B( 42-C , 48-C ) :   1.2034 B( 43-C , 44-C ) :   1.1010
B( 43-C , 47-N ) :   1.5161 B( 44-C , 45-N ) :   1.5166 B( 45-N , 46-S ) :   1.2711
B( 45-N , 47-N ) :   0.1501 B( 46-S , 47-N ) :   1.2707 B( 48-C , 49-C ) :   1.4053
B( 48-C , 52-S ) :   1.0999 B( 49-C , 50-C ) :   1.3146 B( 49-C , 96-H ) :   0.9913
B( 50-C , 51-C ) :   1.4765 B( 50-C , 55-C ) :   0.9343 B( 51-C , 52-S ) :   1.0441
B( 51-C , 53-C ) :   1.1999 B( 53-C , 54-C ) :   1.4654 B( 53-C , 60-S ) :   1.1162
B( 54-C , 55-C ) :   0.9355 B( 54-C , 58-C ) :   1.4070 B( 55-C , 56-C ) :   1.0370
B( 55-C , 57-C ) :   1.0374 B( 56-C , 97-H ) :   0.9641 B( 56-C , 98-H ) :   0.9646
B( 56-C , 99-H ) :   0.9649 B( 57-C ,100-H ) :   0.9616 B( 57-C ,101-H ) :   0.9634
B( 57-C ,102-H ) :   0.9633 B( 58-C , 59-C ) :   1.3606 B( 58-C ,103-H ) :   0.9885
B( 59-C , 60-S ) :   1.0873 B( 59-C , 61-C ) :   1.1724 B( 61-C , 62-C ) :   1.6227
B( 61-C ,104-H ) :   0.9259 B( 62-C , 63-C ) :   0.9699 B( 62-C , 67-C ) :   1.0511
B( 63-C , 64-O ) :   2.1851 B( 63-C , 65-C ) :   0.9364 B( 65-C , 66-C ) :   1.4225
B( 65-C , 76-C ) :   1.2376 B( 66-C , 67-C ) :   0.9973 B( 66-C , 73-C ) :   1.2619
B( 67-C , 68-C ) :   1.6227 B( 68-C , 69-C ) :   1.1725 B( 68-C , 71-C ) :   1.1274
B( 69-C , 70-N ) :   2.9867 B( 71-C , 72-N ) :   2.9912 B( 73-C , 74-C ) :   1.4640
B( 73-C ,105-H ) :   0.9859 B( 74-C , 75-C ) :   1.2299 B( 74-C ,106-H ) :   0.9930
B( 75-C , 76-C ) :   1.2398 B( 75-C , 80-C ) :   1.2357 B( 76-C , 77-C ) :   1.2757
B( 77-C , 78-C ) :   1.4758 B( 77-C ,107-H ) :   0.9855 B( 78-C , 79-C ) :   1.2538
B( 78-C ,108-H ) :   0.9876 B( 79-C , 80-C ) :   1.4986 B( 79-C ,109-H ) :   0.9886
B( 80-C ,110-H ) :   0.9970

-----------------------------------------------------------------------------
         ABSORPTION SPECTRUM VIA TRANSITION ELECTRIC DIPOLE MOMENTS
-----------------------------------------------------------------------------
State   Energy  Wavelength   fosc         T2         TX        TY        TZ
        (cm-1)    (nm)                  (au**2)     (au)      (au)      (au)
-----------------------------------------------------------------------------
   0    8275.2   1208.4   1.041315385  41.42658  -3.99829  -1.89335  -4.67499
   1   16403.9    609.6   0.053392924   1.07155  -0.10843  -0.66213   0.78827
   2   17508.9    571.1   0.785558878  14.77052  -2.77201  -1.74199  -2.01294
   3   17846.5    560.3   0.055695531   1.02741   0.30279  -0.41473   0.87392
   4   21875.4    457.1   0.688906682  10.36763   1.72387   0.77659   2.60630
   5   22328.5    447.9   0.070238092   1.03559   0.46079   0.90722  -0.01491
   6   23902.8    418.4   0.106225725   1.46304   0.91039   0.55641   0.56977
   7   24868.1    402.1   0.005514230   0.07300   0.22187   0.15405  -0.00636
   8   26069.5    383.6   0.181122004   2.28726   0.26318   1.09716   1.00709
   9   26460.6    377.9   0.017733884   0.22064   0.01257  -0.19187   0.42856
  10   26463.9    377.9   0.033798460   0.42045  -0.02777   0.19016  -0.61929
  11   26542.5    376.8   0.065775695   0.81583  -0.12696   0.00898  -0.89422
  12   26719.1    374.3   0.059200806   0.72943   0.20599   0.48169  -0.67451
  13   27056.0    369.6   0.021746805   0.26461  -0.38744  -0.07743   0.32940
  14   28969.1    345.2   0.008208062   0.09328   0.00042  -0.26073  -0.15905
  15   29329.6    341.0   0.125945199   1.41368  -0.09952  -0.59601   1.02399
  16   29589.0    338.0   0.035050824   0.38998  -0.15689   0.15623  -0.58392
  17   29789.7    335.7   0.005380072   0.05946   0.09246   0.18472   0.12957
  18   29931.8    334.1   0.016595384   0.18253  -0.11408  -0.40767  -0.05759
  19   30198.4    331.1   0.081419830   0.88761   0.50463   0.00589   0.79556
  20   30445.1    328.5   0.082842660   0.89580   0.29059   0.13739   0.89021
  21   30598.0    326.8   0.032055375   0.34489   0.36243   0.44877   0.11020
  22   30929.9    323.3   0.085903975   0.91435  -0.38024   0.39373   0.78405
  23   31228.5    320.2   0.009409495   0.09920   0.20573  -0.23847   0.00122
  24   31291.3    319.6   0.115873708   1.21910   0.28346   1.04215  -0.22951
  25   31590.0    316.6   0.063305958   0.65974   0.42691   0.26392   0.63862
  26   31913.9    313.3   0.035244428   0.36357  -0.27890  -0.03472  -0.53346
  27   32020.7    312.3   0.074954287   0.77062   0.23171   0.28110   0.79869
  28   32196.5    310.6   0.403177713   4.12252  -0.30965  -1.06750  -1.69914
  29   32578.9    306.9   0.238458552   2.40964  -0.15938  -1.30653   0.82294
  30   32669.4    306.1   0.209306333   2.10920   0.09611  -0.05229   1.44818
  31   32779.0    305.1   0.002310865   0.02321   0.00917   0.08830   0.12381
  32   32954.5    303.4   0.174112296   1.73936   0.04590  -1.13686   0.66693
  33   33044.0    302.6   0.073269781   0.72998  -0.18524  -0.30807   0.77508
  34   33578.1    297.8   0.257961059   2.52914  -0.00712   0.82076   1.36214
  35   33936.5    294.7   0.235809139   2.28754   0.01325   0.39073   1.46106
  36   34366.3    291.0   0.319665398   3.06223  -0.33547  -1.70324   0.22062
  37   34672.6    288.4   0.033318968   0.31636  -0.32094   0.33290  -0.32021
  38   34787.2    287.5   0.000659737   0.00624   0.01381   0.07733   0.00857
  39   35136.8    284.6   0.164062256   1.53717  -0.19231  -0.56023  -1.08919
  40   35163.3    284.4   0.001768482   0.01656   0.00873  -0.00359  -0.12833
  41   36015.0    277.7   0.052380475   0.47881  -0.00196   0.65415  -0.22558
  42   36108.6    276.9   0.036741909   0.33499   0.09681   0.19458  -0.53643
  43   36314.2    275.4   0.543587856   4.92798  -0.22599  -2.13290   0.57242
  44   36919.1    270.9   0.017703287   0.15786   0.06700   0.25966   0.29317
  45   37270.9    268.3   0.036298224   0.32062   0.09983  -0.53806  -0.14542
  46   37322.2    267.9   0.059072967   0.52107   0.04068   0.27367  -0.66672
  47   37477.4    266.8   0.019259969   0.16918  -0.08333  -0.39811  -0.06124
  48   37877.6    264.0   0.013332985   0.11588   0.07604   0.27549   0.18496
  49   38489.1    259.8   0.029708556   0.25411  -0.02125  -0.50355  -0.00961
  50   38719.6    258.3   0.059323983   0.50440   0.08704   0.47705  -0.51889
  51   38905.0    257.0   0.009111258   0.07710   0.00514  -0.27655  -0.02437
  52   39330.7    254.3   0.007110443   0.05952  -0.00022  -0.07851   0.23098
  53   39388.7    253.9   0.000909787   0.00760  -0.00120  -0.00197   0.08717
  54   40037.3    249.8   0.002730181   0.02245   0.00263  -0.14968   0.00609
  55   40145.9    249.1   0.026792520   0.21971  -0.06250  -0.44609   0.12965
  56   40289.4    248.2   0.002384317   0.01948   0.07279  -0.08921   0.07890

FINAL SINGLE POINT ENERGY     -5231.217971794187

DIPOLE MOMENT
-------------
                                X             Y             Z
Electronic contribution:     -0.66797     -29.79266       2.02550
Nuclear contribution   :      0.64682      30.78924      -2.53082
                        -----------------------------------------
Total Dipole Moment    :     -0.02115       0.99658      -0.50533
                        -----------------------------------------
Magnitude (a.u.)       :      1.11758
Magnitude (Debye)      :      2.84065

Rotational constants in cm-1:     0.002060     0.000165     0.000156
Rotational constants in MHz :    61.749845     4.948623     4.690838

                             ****ORCA TERMINATED NORMALLY****
TOTAL RUN TIME: 0 days 0 hours 13 minutes 12 seconds 356 msec
