                         Program Version 4.2.0 -  RELEASE  -
|  1> # ORCA input file
|  2> # SCF done       -198.736172171376          0.000425933800
|  3> ! CAM-B3LYP def2-SVP def2/J RIJCOSX Grid4 TightSCF
|  4> %maxcore 5000
|  5> %tddft
|  6>     Mode sTDDFT
|  7>     Ethresh 5.0
|  8>     maxcore 5000
|  9> end
| 10>
| 11> %pal
| 12>   nprocs 6
| 13>   end
| 14> * xyz 0 1
| 15>    C        0.95368         0.49375        -0.48193
| 16>    C        0.34074         0.19770        -1.80692
| 17>    O        0.34713         0.92976        -2.77288
| 18>    C       -0.20767        -1.16513        -1.68463
| 19>    C       -0.06811        -1.60281        -0.36782
| 20>    C        0.51379        -0.52901         0.43607
| 21>    C        0.41260        -0.41872         1.79980
| 22>    C        0.73848         0.75005         2.51629
| 23>    N        0.96099         1.68656         3.14210
| 24>    C       -0.10350        -1.42333         2.64271
| 25>    N       -0.48360        -2.21307         3.38450
| 26>    C       -0.48305        -2.88788         0.00358
| 27>    C       -1.03213        -3.70408        -0.95121
| 28>    C       -1.20029        -3.28627        -2.28934
| 29>    C       -0.77956        -1.98132        -2.67905
| 30>    C       -0.94761        -1.56760        -4.01635
| 31>    C       -1.51122        -2.41336        -4.93113
| 32>    C       -1.92698        -3.70040        -4.55310
| 33>    C       -1.77547        -4.12833        -3.26289
| 34>    C        1.82345         1.53949        -0.38575
| 35>    C        2.80300         1.81734         0.58713
| 36>    C        3.37852         0.98849         1.54755
| 37>    C        4.35079         1.63183         2.28892
| 38>    C        4.53308         2.96572         1.90213
| 39>    S        3.52331         3.42024         0.60299
| 40>    C        5.52258         3.54817         2.72282
| 41>    C        5.97248         2.59543         3.64177
| 42>    C        5.25079         1.28300         3.45019
| 43>    C        6.22781         0.15718         3.10216
| 44>    C        4.42393         0.92277         4.68859
| 45>    C        6.95992         3.07992         4.48459
| 46>    C        7.27206         4.40434         4.20985
| 47>    S        6.31641         5.05637         2.89061
| 48>    C        8.24370         5.20947         4.84904
| 49>    C        9.10507         4.91604         5.88586
| 50>    C        9.40929         3.77298         6.75197
| 51>    O        8.93558         2.66023         6.79412
| 52>    N       10.42635         4.21828         7.58684
| 53>    C       11.02561         3.39492         8.60717
| 54>    C       10.81986         5.52861         7.34831
| 55>    O       11.69506         6.09410         7.96292
| 56>    C        9.96446         5.98547         6.24812
| 57>    C        9.78889         7.13040         5.49930
| 58>    S        8.51475         6.86092         4.32459
| 59>    C       10.46790         8.37019         5.55129
| 60>    C       11.50491         8.72824         6.40182
| 61>    C       11.95774        10.01390         6.15279
| 62>    C       11.26660        10.64530         5.11439
| 63>    S       10.04495         9.65587         4.43469
| 64>    C       11.80641        11.93458         4.91864
| 65>    C       12.85272        12.13098         5.82907
| 66>    C       13.02869        10.91916         6.71257
| 67>    C       14.41819        10.29483         6.56286
| 68>    C       12.74425        11.26944         8.17673
| 69>    C       13.43080        13.38080         5.71754
| 70>    C       12.83736        14.15754         4.72496
| 71>    S       11.55221        13.28385         3.90427
| 72>    C       13.15744        15.45089         4.26902
| 73>    C       13.92447        16.41989         4.84544
| 74>    C       14.46887        17.50423         3.98143
| 75>    O       14.11561        17.75681         2.84984
| 76>    C       15.53372        18.13839         4.77956
| 77>    C       15.54202        17.58642         6.06031
| 78>    C       14.45040        16.62036         6.17411
| 79>    C       13.88471        16.20167         7.35177
| 80>    C       12.66888        15.49332         7.42708
| 81>    N       11.66957        14.94090         7.54636
| 82>    C       14.40060        16.49448         8.63011
| 83>    N       14.78440        16.67432         9.69725
| 84>    C       16.48773        17.99863         7.00756
| 85>    C       17.40068        18.95759         6.65232
| 86>    C       17.41038        19.54591         5.36889
| 87>    C       16.45466        19.13174         4.39584
| 88>    C       16.46873        19.71925         3.11426
| 89>    C       17.39241        20.68036         2.80955
| 90>    C       18.33615        21.09268         3.76433
| 91>    C       18.34634        20.53910         5.01499
| 92>    H       -0.36266        -3.23703         1.01630
| 93>    H       -1.35063        -4.70116        -0.68313
| 94>    H       -0.62369        -0.57714        -4.29447
| 95>    H       -1.64077        -2.09594        -5.95503
| 96>    H       -2.36872        -4.35198        -5.29253
| 97>    H       -2.09539        -5.11785        -2.96973
| 98>    H        1.79638         2.21978        -1.23241
| 99>    H        3.11625        -0.04864         1.65349
|100>    H        6.81036         0.41782         2.22118
|101>    H        5.68291        -0.76196         2.90182
|102>    H        6.90767        -0.01081         3.93323
|103>    H        3.69600         1.70308         4.89678
|104>    H        5.07689         0.80847         5.54984
|105>    H        3.88971        -0.00932         4.52269
|106>    H        7.45009         2.52621         5.26485
|107>    H       10.55407         2.41502         8.56162
|108>    H       10.86663         3.84098         9.58978
|109>    H       12.09810         3.30420         8.43115
|110>    H       11.88885         8.05858         7.15016
|111>    H       14.61480        10.04959         5.52140
|112>    H       14.47861         9.38448         7.15338
|113>    H       15.17947        10.98975         6.90836
|114>    H       11.77836        11.76040         8.26693
|115>    H       13.50850        11.94393         8.55449
|116>    H       12.73991        10.36543         8.77998
|117>    H       14.27668        13.71555         6.29032
|118>    H       12.80273        15.69862         3.27244
|119>    H       16.50896        17.56375         7.99366
|120>    H       18.14130        19.28207         7.36903
|121>    H       15.73918        19.39385         2.38959
|122>    H       17.40254        21.13070         1.82822
|123>    H       19.05672        21.85308         3.50165
|124>    H       19.07112        20.85530         5.75131
|125> *
|126>
|127>                          ****END OF INPUT****

CARTESIAN COORDINATES (ANGSTROEM)
---------------------------------
  C      0.953680    0.493750   -0.481930
  C      0.340740    0.197700   -1.806920
  O      0.347130    0.929760   -2.772880
  C     -0.207670   -1.165130   -1.684630
  C     -0.068110   -1.602810   -0.367820
  C      0.513790   -0.529010    0.436070
  C      0.412600   -0.418720    1.799800
  C      0.738480    0.750050    2.516290
  N      0.960990    1.686560    3.142100
  C     -0.103500   -1.423330    2.642710
  N     -0.483600   -2.213070    3.384500
  C     -0.483050   -2.887880    0.003580
  C     -1.032130   -3.704080   -0.951210
  C     -1.200290   -3.286270   -2.289340
  C     -0.779560   -1.981320   -2.679050
  C     -0.947610   -1.567600   -4.016350
  C     -1.511220   -2.413360   -4.931130
  C     -1.926980   -3.700400   -4.553100
  C     -1.775470   -4.128330   -3.262890
  C      1.823450    1.539490   -0.385750
  C      2.803000    1.817340    0.587130
  C      3.378520    0.988490    1.547550
  C      4.350790    1.631830    2.288920
  C      4.533080    2.965720    1.902130
  S      3.523310    3.420240    0.602990
  C      5.522580    3.548170    2.722820
  C      5.972480    2.595430    3.641770
  C      5.250790    1.283000    3.450190
  C      6.227810    0.157180    3.102160
  C      4.423930    0.922770    4.688590
  C      6.959920    3.079920    4.484590
  C      7.272060    4.404340    4.209850
  S      6.316410    5.056370    2.890610
  C      8.243700    5.209470    4.849040
  C      9.105070    4.916040    5.885860
  C      9.409290    3.772980    6.751970
  O      8.935580    2.660230    6.794120
  N     10.426350    4.218280    7.586840
  C     11.025610    3.394920    8.607170
  C     10.819860    5.528610    7.348310
  O     11.695060    6.094100    7.962920
  C      9.964460    5.985470    6.248120
  C      9.788890    7.130400    5.499300
  S      8.514750    6.860920    4.324590
  C     10.467900    8.370190    5.551290
  C     11.504910    8.728240    6.401820
  C     11.957740   10.013900    6.152790
  C     11.266600   10.645300    5.114390
  S     10.044950    9.655870    4.434690
  C     11.806410   11.934580    4.918640
  C     12.852720   12.130980    5.829070
  C     13.028690   10.919160    6.712570
  C     14.418190   10.294830    6.562860
  C     12.744250   11.269440    8.176730
  C     13.430800   13.380800    5.717540
  C     12.837360   14.157540    4.724960
  S     11.552210   13.283850    3.904270
  C     13.157440   15.450890    4.269020
  C     13.924470   16.419890    4.845440
  C     14.468870   17.504230    3.981430
  O     14.115610   17.756810    2.849840
  C     15.533720   18.138390    4.779560
  C     15.542020   17.586420    6.060310
  C     14.450400   16.620360    6.174110
  C     13.884710   16.201670    7.351770
  C     12.668880   15.493320    7.427080
  N     11.669570   14.940900    7.546360
  C     14.400600   16.494480    8.630110
  N     14.784400   16.674320    9.697250
  C     16.487730   17.998630    7.007560
  C     17.400680   18.957590    6.652320
  C     17.410380   19.545910    5.368890
  C     16.454660   19.131740    4.395840
  C     16.468730   19.719250    3.114260
  C     17.392410   20.680360    2.809550
  C     18.336150   21.092680    3.764330
  C     18.346340   20.539100    5.014990
  H     -0.362660   -3.237030    1.016300
  H     -1.350630   -4.701160   -0.683130
  H     -0.623690   -0.577140   -4.294470
  H     -1.640770   -2.095940   -5.955030
  H     -2.368720   -4.351980   -5.292530
  H     -2.095390   -5.117850   -2.969730
  H      1.796380    2.219780   -1.232410
  H      3.116250   -0.048640    1.653490
  H      6.810360    0.417820    2.221180
  H      5.682910   -0.761960    2.901820
  H      6.907670   -0.010810    3.933230
  H      3.696000    1.703080    4.896780
  H      5.076890    0.808470    5.549840
  H      3.889710   -0.009320    4.522690
  H      7.450090    2.526210    5.264850
  H     10.554070    2.415020    8.561620
  H     10.866630    3.840980    9.589780
  H     12.098100    3.304200    8.431150
  H     11.888850    8.058580    7.150160
  H     14.614800   10.049590    5.521400
  H     14.478610    9.384480    7.153380
  H     15.179470   10.989750    6.908360
  H     11.778360   11.760400    8.266930
  H     13.508500   11.943930    8.554490
  H     12.739910   10.365430    8.779980
  H     14.276680   13.715550    6.290320
  H     12.802730   15.698620    3.272440
  H     16.508960   17.563750    7.993660
  H     18.141300   19.282070    7.369030
  H     15.739180   19.393850    2.389590
  H     17.402540   21.130700    1.828220
  H     19.056720   21.853080    3.501650
  H     19.071120   20.855300    5.751310

 Total Charge           Charge          ....    0
 Multiplicity           Mult            ....    1
 Number of Electrons    NEL             ....  558
 Basis Dimension        Dim             .... 1263

ORBITAL ENERGIES
----------------

  NO   OCC          E(Eh)            E(eV)
   0   2.0000     -88.980480     -2421.2820
   1   2.0000     -88.975377     -2421.1431
   2   2.0000     -88.975264     -2421.1400
   3   2.0000     -88.973618     -2421.0952
   4   2.0000     -88.973487     -2421.0917
   5   2.0000     -19.215421      -522.8782
   6   2.0000     -19.215075      -522.8688
   7   2.0000     -19.213109      -522.8153
   8   2.0000     -19.212941      -522.8107
   9   2.0000     -14.459658      -393.4673
  10   2.0000     -14.413081      -392.1999
  11   2.0000     -14.412920      -392.1955
  12   2.0000     -14.412475      -392.1834
  13   2.0000     -14.412295      -392.1785
  14   2.0000     -10.398516      -282.9580
  15   2.0000     -10.397202      -282.9222
  16   2.0000     -10.363457      -282.0040
  17   2.0000     -10.363422      -282.0031
  18   2.0000     -10.340121      -281.3690
  19   2.0000     -10.340103      -281.3685
  20   2.0000     -10.339903      -281.3631
  21   2.0000     -10.339888      -281.3627
  22   2.0000     -10.338869      -281.3349
  23   2.0000     -10.338672      -281.3296
  24   2.0000     -10.321227      -280.8549
  25   2.0000     -10.321132      -280.8523
  26   2.0000     -10.320082      -280.8237
  27   2.0000     -10.319943      -280.8199
  28   2.0000     -10.315672      -280.7037
  29   2.0000     -10.315609      -280.7020
  30   2.0000     -10.315496      -280.6989
  31   2.0000     -10.315468      -280.6982
  32   2.0000     -10.315187      -280.6905
  33   2.0000     -10.315127      -280.6889
  34   2.0000     -10.314373      -280.6683
  35   2.0000     -10.314235      -280.6646
  36   2.0000     -10.313552      -280.6460
  37   2.0000     -10.313450      -280.6432
  38   2.0000     -10.305974      -280.4398
  39   2.0000     -10.305520      -280.4275
  40   2.0000     -10.305428      -280.4250
  41   2.0000     -10.299496      -280.2635
  42   2.0000     -10.299469      -280.2628
  43   2.0000     -10.296069      -280.1703
  44   2.0000     -10.295629      -280.1583
  45   2.0000     -10.295598      -280.1575
  46   2.0000     -10.295550      -280.1562
  47   2.0000     -10.293564      -280.1021
  48   2.0000     -10.293508      -280.1006
  49   2.0000     -10.292645      -280.0771
  50   2.0000     -10.292535      -280.0741
  51   2.0000     -10.292238      -280.0660
  52   2.0000     -10.292169      -280.0642
  53   2.0000     -10.291427      -280.0440
  54   2.0000     -10.291332      -280.0414
  55   2.0000     -10.290150      -280.0092
  56   2.0000     -10.290048      -280.0064
  57   2.0000     -10.288664      -279.9688
  58   2.0000     -10.288542      -279.9655
  59   2.0000     -10.284994      -279.8689
  60   2.0000     -10.284900      -279.8664
  61   2.0000     -10.284319      -279.8505
  62   2.0000     -10.284266      -279.8491
  63   2.0000     -10.283810      -279.8367
  64   2.0000     -10.283594      -279.8308
  65   2.0000     -10.281372      -279.7704
  66   2.0000     -10.281328      -279.7692
  67   2.0000     -10.280831      -279.7556
  68   2.0000     -10.280814      -279.7552
  69   2.0000     -10.278805      -279.7005
  70   2.0000     -10.278762      -279.6993
  71   2.0000     -10.274752      -279.5902
  72   2.0000     -10.274656      -279.5876
  73   2.0000     -10.268443      -279.4185
  74   2.0000     -10.268270      -279.4138
  75   2.0000     -10.262709      -279.2625
  76   2.0000     -10.262599      -279.2595
  77   2.0000      -8.076017      -219.7596
  78   2.0000      -8.070539      -219.6105
  79   2.0000      -8.070434      -219.6077
  80   2.0000      -8.068826      -219.5639
  81   2.0000      -8.068708      -219.5607
  82   2.0000      -6.045593      -164.5090
  83   2.0000      -6.041199      -164.3894
  84   2.0000      -6.039939      -164.3551
  85   2.0000      -6.039829      -164.3521
  86   2.0000      -6.038068      -164.3042
  87   2.0000      -6.037958      -164.3012
  88   2.0000      -6.037708      -164.2944
  89   2.0000      -6.035818      -164.2430
  90   2.0000      -6.035720      -164.2403
  91   2.0000      -6.034030      -164.1943
  92   2.0000      -6.033916      -164.1912
  93   2.0000      -6.032456      -164.1515
  94   2.0000      -6.032352      -164.1486
  95   2.0000      -6.030954      -164.1106
  96   2.0000      -6.030824      -164.1071
  97   2.0000      -1.161489       -31.6057
  98   2.0000      -1.137406       -30.9504
  99   2.0000      -1.127932       -30.6926
 100   2.0000      -1.127840       -30.6901
 101   2.0000      -1.052632       -28.6436
 102   2.0000      -1.026449       -27.9311
 103   2.0000      -1.024550       -27.8794
 104   2.0000      -1.016077       -27.6489
 105   2.0000      -1.015520       -27.6337
 106   2.0000      -1.008578       -27.4448
 107   2.0000      -0.996066       -27.1043
 108   2.0000      -0.995979       -27.1020
 109   2.0000      -0.992100       -26.9964
 110   2.0000      -0.991198       -26.9719
 111   2.0000      -0.987010       -26.8579
 112   2.0000      -0.979505       -26.6537
 113   2.0000      -0.965339       -26.2682
 114   2.0000      -0.964951       -26.2576
 115   2.0000      -0.939224       -25.5576
 116   2.0000      -0.933328       -25.3971
 117   2.0000      -0.918743       -25.0003
 118   2.0000      -0.918549       -24.9950
 119   2.0000      -0.900694       -24.5091
 120   2.0000      -0.900582       -24.5061
 121   2.0000      -0.895808       -24.3762
 122   2.0000      -0.892577       -24.2883
 123   2.0000      -0.888057       -24.1653
 124   2.0000      -0.882959       -24.0265
 125   2.0000      -0.866268       -23.5724
 126   2.0000      -0.858143       -23.3513
 127   2.0000      -0.851215       -23.1628
 128   2.0000      -0.844000       -22.9664
 129   2.0000      -0.842091       -22.9145
 130   2.0000      -0.841857       -22.9081
 131   2.0000      -0.835990       -22.7485
 132   2.0000      -0.832518       -22.6540
 133   2.0000      -0.831295       -22.6207
 134   2.0000      -0.830342       -22.5948
 135   2.0000      -0.801413       -21.8076
 136   2.0000      -0.799244       -21.7485
 137   2.0000      -0.790966       -21.5233
 138   2.0000      -0.777629       -21.1604
 139   2.0000      -0.777519       -21.1574
 140   2.0000      -0.775593       -21.1050
 141   2.0000      -0.771231       -20.9863
 142   2.0000      -0.764037       -20.7905
 143   2.0000      -0.763942       -20.7879
 144   2.0000      -0.738146       -20.0860
 145   2.0000      -0.724632       -19.7182
 146   2.0000      -0.717507       -19.5244
 147   2.0000      -0.712667       -19.3926
 148   2.0000      -0.710911       -19.3449
 149   2.0000      -0.708382       -19.2761
 150   2.0000      -0.704394       -19.1675
 151   2.0000      -0.702780       -19.1236
 152   2.0000      -0.698499       -19.0071
 153   2.0000      -0.686397       -18.6778
 154   2.0000      -0.684749       -18.6330
 155   2.0000      -0.676952       -18.4208
 156   2.0000      -0.672398       -18.2969
 157   2.0000      -0.670268       -18.2389
 158   2.0000      -0.651056       -17.7161
 159   2.0000      -0.645083       -17.5536
 160   2.0000      -0.638676       -17.3793
 161   2.0000      -0.636087       -17.3088
 162   2.0000      -0.634883       -17.2760
 163   2.0000      -0.633600       -17.2411
 164   2.0000      -0.626364       -17.0442
 165   2.0000      -0.625315       -17.0157
 166   2.0000      -0.622237       -16.9319
 167   2.0000      -0.604371       -16.4458
 168   2.0000      -0.601004       -16.3542
 169   2.0000      -0.598287       -16.2802
 170   2.0000      -0.593006       -16.1365
 171   2.0000      -0.588007       -16.0005
 172   2.0000      -0.585232       -15.9250
 173   2.0000      -0.585004       -15.9188
 174   2.0000      -0.581992       -15.8368
 175   2.0000      -0.576624       -15.6907
 176   2.0000      -0.570862       -15.5339
 177   2.0000      -0.570258       -15.5175
 178   2.0000      -0.566732       -15.4216
 179   2.0000      -0.559776       -15.2323
 180   2.0000      -0.554705       -15.0943
 181   2.0000      -0.553688       -15.0666
 182   2.0000      -0.550304       -14.9745
 183   2.0000      -0.544537       -14.8176
 184   2.0000      -0.541941       -14.7470
 185   2.0000      -0.536146       -14.5893
 186   2.0000      -0.535206       -14.5637
 187   2.0000      -0.533326       -14.5126
 188   2.0000      -0.532813       -14.4986
 189   2.0000      -0.531827       -14.4717
 190   2.0000      -0.527496       -14.3539
 191   2.0000      -0.527003       -14.3405
 192   2.0000      -0.525076       -14.2880
 193   2.0000      -0.524257       -14.2657
 194   2.0000      -0.520643       -14.1674
 195   2.0000      -0.515601       -14.0302
 196   2.0000      -0.513329       -13.9684
 197   2.0000      -0.511872       -13.9288
 198   2.0000      -0.507068       -13.7980
 199   2.0000      -0.505690       -13.7605
 200   2.0000      -0.505508       -13.7556
 201   2.0000      -0.503902       -13.7119
 202   2.0000      -0.503582       -13.7032
 203   2.0000      -0.500631       -13.6228
 204   2.0000      -0.500494       -13.6191
 205   2.0000      -0.497278       -13.5316
 206   2.0000      -0.496166       -13.5014
 207   2.0000      -0.494837       -13.4652
 208   2.0000      -0.490730       -13.3534
 209   2.0000      -0.487546       -13.2668
 210   2.0000      -0.485498       -13.2111
 211   2.0000      -0.483148       -13.1471
 212   2.0000      -0.481520       -13.1028
 213   2.0000      -0.480098       -13.0641
 214   2.0000      -0.479796       -13.0559
 215   2.0000      -0.478275       -13.0145
 216   2.0000      -0.478002       -13.0071
 217   2.0000      -0.476768       -12.9735
 218   2.0000      -0.473164       -12.8754
 219   2.0000      -0.472969       -12.8701
 220   2.0000      -0.470469       -12.8021
 221   2.0000      -0.469737       -12.7822
 222   2.0000      -0.466491       -12.6939
 223   2.0000      -0.465490       -12.6666
 224   2.0000      -0.464386       -12.6366
 225   2.0000      -0.460434       -12.5290
 226   2.0000      -0.458783       -12.4841
 227   2.0000      -0.453504       -12.3405
 228   2.0000      -0.447369       -12.1735
 229   2.0000      -0.447184       -12.1685
 230   2.0000      -0.444533       -12.0964
 231   2.0000      -0.442952       -12.0533
 232   2.0000      -0.441563       -12.0156
 233   2.0000      -0.439387       -11.9563
 234   2.0000      -0.438997       -11.9457
 235   2.0000      -0.436383       -11.8746
 236   2.0000      -0.436248       -11.8709
 237   2.0000      -0.431882       -11.7521
 238   2.0000      -0.431050       -11.7295
 239   2.0000      -0.428901       -11.6710
 240   2.0000      -0.428608       -11.6630
 241   2.0000      -0.427212       -11.6250
 242   2.0000      -0.426896       -11.6164
 243   2.0000      -0.425746       -11.5851
 244   2.0000      -0.424126       -11.5410
 245   2.0000      -0.424027       -11.5384
 246   2.0000      -0.420351       -11.4383
 247   2.0000      -0.418989       -11.4013
 248   2.0000      -0.412932       -11.2364
 249   2.0000      -0.410942       -11.1823
 250   2.0000      -0.410587       -11.1726
 251   2.0000      -0.410229       -11.1629
 252   2.0000      -0.409967       -11.1558
 253   2.0000      -0.409046       -11.1307
 254   2.0000      -0.401372       -10.9219
 255   2.0000      -0.398070       -10.8320
 256   2.0000      -0.386784       -10.5249
 257   2.0000      -0.376684       -10.2501
 258   2.0000      -0.370290       -10.0761
 259   2.0000      -0.367200        -9.9920
 260   2.0000      -0.362290        -9.8584
 261   2.0000      -0.357206        -9.7201
 262   2.0000      -0.352943        -9.6041
 263   2.0000      -0.350035        -9.5249
 264   2.0000      -0.342367        -9.3163
 265   2.0000      -0.334951        -9.1145
 266   2.0000      -0.334772        -9.1096
 267   2.0000      -0.332006        -9.0343
 268   2.0000      -0.331794        -9.0286
 269   2.0000      -0.328896        -8.9497
 270   2.0000      -0.328831        -8.9479
 271   2.0000      -0.324859        -8.8399
 272   2.0000      -0.316531        -8.6133
 273   2.0000      -0.311583        -8.4786
 274   2.0000      -0.298618        -8.1258
 275   2.0000      -0.291326        -7.9274
 276   2.0000      -0.290484        -7.9045
 277   2.0000      -0.260119        -7.0782
 278   2.0000      -0.236444        -6.4340
 279   0.0000      -0.094740        -2.5780
 280   0.0000      -0.086096        -2.3428
 281   0.0000      -0.071906        -1.9567
 282   0.0000      -0.068712        -1.8698
 283   0.0000      -0.046941        -1.2773

MULLIKEN ATOMIC CHARGES
-----------------------
   0 C :   -0.134294
   1 C :    0.114592
   2 O :   -0.156261
   3 C :    0.015061
   4 C :   -0.011844
   5 C :    0.266440
   6 C :   -0.347958
   7 C :   -0.199055
   8 N :    0.169448
   9 C :   -0.176745
  10 N :    0.152929
  11 C :   -0.023822
  12 C :    0.004632
  13 C :    0.080317
  14 C :    0.034294
  15 C :   -0.025076
  16 C :    0.036894
  17 C :    0.038096
  18 C :   -0.020602
  19 C :    0.077565
  20 C :   -0.114924
  21 C :    0.001704
  22 C :   -0.000283
  23 C :   -0.062052
  24 S :    0.174874
  25 C :   -0.083026
  26 C :    0.015231
  27 C :   -0.109042
  28 C :    0.102202
  29 C :    0.103819
  30 C :   -0.052758
  31 C :   -0.071846
  32 S :    0.154963
  33 C :   -0.092773
  34 C :   -0.019045
  35 C :    0.195267
  36 O :   -0.176915
  37 N :   -0.303029
  38 C :    0.140346
  39 C :    0.193284
  40 O :   -0.179419
  41 C :   -0.015814
  42 C :   -0.097904
  43 S :    0.150708
  44 C :   -0.068821
  45 C :   -0.057091
  46 C :    0.019039
  47 C :   -0.079857
  48 S :    0.154331
  49 C :   -0.063582
  50 C :   -0.000317
  51 C :   -0.113123
  52 C :    0.103956
  53 C :    0.104606
  54 C :    0.003785
  55 C :   -0.113843
  56 S :    0.175114
  57 C :    0.073774
  58 C :   -0.132270
  59 C :    0.113144
  60 O :   -0.154926
  61 C :    0.015394
  62 C :   -0.015083
  63 C :    0.269197
  64 C :   -0.349938
  65 C :   -0.202274
  66 N :    0.174141
  67 C :   -0.177849
  68 N :    0.153390
  69 C :   -0.020366
  70 C :    0.002562
  71 C :    0.079900
  72 C :    0.033419
  73 C :   -0.024543
  74 C :    0.037970
  75 C :    0.037546
  76 C :   -0.021666
  77 H :   -0.001806
  78 H :   -0.014756
  79 H :   -0.000754
  80 H :   -0.007884
  81 H :   -0.007001
  82 H :   -0.023143
  83 H :    0.019339
  84 H :   -0.004143
  85 H :    0.019820
  86 H :    0.011830
  87 H :    0.022198
  88 H :    0.036112
  89 H :    0.018774
  90 H :    0.013933
  91 H :    0.000011
  92 H :    0.051896
  93 H :    0.039652
  94 H :    0.038779
  95 H :    0.001256
  96 H :    0.019206
  97 H :    0.022020
  98 H :    0.012139
  99 H :    0.034712
 100 H :    0.014347
 101 H :    0.019385
 102 H :   -0.004066
 103 H :    0.018469
 104 H :   -0.001548
 105 H :   -0.014378
 106 H :   -0.000200
 107 H :   -0.008470
 108 H :   -0.007441
 109 H :   -0.022184
Sum of atomic charges:   -0.0000000

LOEWDIN ATOMIC CHARGES
----------------------
   0 C :   -0.101700
   1 C :    0.086828
   2 O :   -0.146924
   3 C :   -0.032877
   4 C :   -0.005829
   5 C :    0.068304
   6 C :   -0.146320
   7 C :   -0.016933
   8 N :   -0.045327
   9 C :   -0.022698
  10 N :   -0.054784
  11 C :   -0.018579
  12 C :    0.016590
  13 C :   -0.009818
  14 C :   -0.003227
  15 C :   -0.002160
  16 C :   -0.013471
  17 C :   -0.013824
  18 C :   -0.013044
  19 C :    0.041463
  20 C :   -0.181596
  21 C :   -0.010420
  22 C :   -0.030941
  23 C :   -0.172168
  24 S :    0.463717
  25 C :   -0.191453
  26 C :   -0.025283
  27 C :   -0.034642
  28 C :   -0.023971
  29 C :   -0.021266
  30 C :   -0.027281
  31 C :   -0.186970
  32 S :    0.437188
  33 C :   -0.142014
  34 C :   -0.099734
  35 C :    0.094807
  36 O :   -0.169291
  37 N :   -0.034250
  38 C :    0.036920
  39 C :    0.093916
  40 O :   -0.168529
  41 C :   -0.099591
  42 C :   -0.142691
  43 S :    0.433216
  44 C :   -0.186840
  45 C :   -0.027536
  46 C :   -0.025220
  47 C :   -0.191523
  48 S :    0.437011
  49 C :   -0.172167
  50 C :   -0.031062
  51 C :   -0.034691
  52 C :   -0.023933
  53 C :   -0.021181
  54 C :   -0.010111
  55 C :   -0.181782
  56 S :    0.463816
  57 C :    0.041560
  58 C :   -0.101703
  59 C :    0.086694
  60 O :   -0.146816
  61 C :   -0.032929
  62 C :   -0.005892
  63 C :    0.068162
  64 C :   -0.146408
  65 C :   -0.017144
  66 N :   -0.045152
  67 C :   -0.022671
  68 N :   -0.054993
  69 C :   -0.018405
  70 C :    0.016318
  71 C :   -0.009780
  72 C :   -0.003219
  73 C :   -0.002342
  74 C :   -0.013464
  75 C :   -0.013741
  76 C :   -0.013297
  77 H :    0.038799
  78 H :    0.034798
  79 H :    0.035152
  80 H :    0.032116
  81 H :    0.031632
  82 H :    0.029728
  83 H :    0.044382
  84 H :    0.034750
  85 H :    0.029141
  86 H :    0.024474
  87 H :    0.028827
  88 H :    0.035475
  89 H :    0.027169
  90 H :    0.025422
  91 H :    0.034837
  92 H :    0.037454
  93 H :    0.032997
  94 H :    0.032744
  95 H :    0.035046
  96 H :    0.028970
  97 H :    0.028850
  98 H :    0.024583
  99 H :    0.035271
 100 H :    0.025544
 101 H :    0.027264
 102 H :    0.034754
 103 H :    0.044223
 104 H :    0.038860
 105 H :    0.034948
 106 H :    0.035342
 107 H :    0.032059
 108 H :    0.031539
 109 H :    0.029945

  Mayer bond orders larger than 0.100000
B(  0-C ,  1-C ) :   0.9664 B(  0-C ,  5-C ) :   1.0453 B(  0-C , 19-C ) :   1.6394
B(  1-C ,  2-O ) :   2.1845 B(  1-C ,  3-C ) :   0.9378 B(  3-C ,  4-C ) :   1.4223
B(  3-C , 14-C ) :   1.2369 B(  4-C ,  5-C ) :   0.9975 B(  4-C , 11-C ) :   1.2608
B(  5-C ,  6-C ) :   1.6300 B(  6-C ,  7-C ) :   1.1691 B(  6-C ,  9-C ) :   1.1265
B(  7-C ,  8-N ) :   2.9873 B(  9-C , 10-N ) :   2.9924 B( 11-C , 12-C ) :   1.4673
B( 11-C , 77-H ) :   0.9864 B( 12-C , 13-C ) :   1.2277 B( 12-C , 78-H ) :   0.9931
B( 13-C , 14-C ) :   1.2403 B( 13-C , 18-C ) :   1.2379 B( 14-C , 15-C ) :   1.2750
B( 15-C , 16-C ) :   1.4773 B( 15-C , 79-H ) :   0.9858 B( 16-C , 17-C ) :   1.2535
B( 16-C , 80-H ) :   0.9873 B( 17-C , 18-C ) :   1.4992 B( 17-C , 81-H ) :   0.9882
B( 18-C , 82-H ) :   0.9968 B( 19-C , 20-C ) :   1.1611 B( 19-C , 83-H ) :   0.9247
B( 20-C , 21-C ) :   1.3775 B( 20-C , 24-S ) :   1.0881 B( 21-C , 22-C ) :   1.3952
B( 21-C , 84-H ) :   0.9887 B( 22-C , 23-C ) :   1.4822 B( 22-C , 27-C ) :   0.9385
B( 23-C , 24-S ) :   1.1177 B( 23-C , 25-C ) :   1.1832 B( 25-C , 26-C ) :   1.5103
B( 25-C , 32-S ) :   1.0887 B( 26-C , 27-C ) :   0.9367 B( 26-C , 30-C ) :   1.3017
B( 27-C , 28-C ) :   1.0356 B( 27-C , 29-C ) :   1.0348 B( 28-C , 85-H ) :   0.9643
B( 28-C , 86-H ) :   0.9647 B( 28-C , 87-H ) :   0.9650 B( 29-C , 88-H ) :   0.9621
B( 29-C , 89-H ) :   0.9641 B( 29-C , 90-H ) :   0.9636 B( 30-C , 31-C ) :   1.4610
B( 30-C , 91-H ) :   0.9835 B( 31-C , 32-S ) :   1.0902 B( 31-C , 33-C ) :   1.1652
B( 33-C , 34-C ) :   1.5517 B( 33-C , 43-S ) :   1.1069 B( 34-C , 35-C ) :   0.9094
B( 34-C , 41-C ) :   1.2395 B( 35-C , 36-O ) :   2.0985 B( 35-C , 37-N ) :   1.0894
B( 37-N , 38-C ) :   0.9410 B( 37-N , 39-C ) :   1.0851 B( 38-C , 92-H ) :   0.9599
B( 38-C , 93-H ) :   0.9762 B( 38-C , 94-H ) :   0.9749 B( 39-C , 40-O ) :   2.1094
B( 39-C , 41-C ) :   0.9046 B( 41-C , 42-C ) :   1.5536 B( 42-C , 43-S ) :   1.1059
B( 42-C , 44-C ) :   1.1639 B( 44-C , 45-C ) :   1.4602 B( 44-C , 48-S ) :   1.0898
B( 45-C , 46-C ) :   1.3015 B( 45-C , 95-H ) :   0.9835 B( 46-C , 47-C ) :   1.5079
B( 46-C , 51-C ) :   0.9386 B( 47-C , 48-S ) :   1.0891 B( 47-C , 49-C ) :   1.1817
B( 49-C , 50-C ) :   1.4837 B( 49-C , 56-S ) :   1.1173 B( 50-C , 51-C ) :   0.9383
B( 50-C , 54-C ) :   1.3932 B( 51-C , 52-C ) :   1.0373 B( 51-C , 53-C ) :   1.0349
B( 52-C , 96-H ) :   0.9640 B( 52-C , 97-H ) :   0.9648 B( 52-C , 98-H ) :   0.9643
B( 53-C , 99-H ) :   0.9619 B( 53-C ,100-H ) :   0.9634 B( 53-C ,101-H ) :   0.9643
B( 54-C , 55-C ) :   1.3766 B( 54-C ,102-H ) :   0.9897 B( 55-C , 56-S ) :   1.0888
B( 55-C , 57-C ) :   1.1599 B( 57-C , 58-C ) :   1.6392 B( 57-C ,103-H ) :   0.9251
B( 58-C , 59-C ) :   0.9681 B( 58-C , 63-C ) :   1.0447 B( 59-C , 60-O ) :   2.1864
B( 59-C , 61-C ) :   0.9375 B( 61-C , 62-C ) :   1.4191 B( 61-C , 72-C ) :   1.2381
B( 62-C , 63-C ) :   0.9984 B( 62-C , 69-C ) :   1.2630 B( 63-C , 64-C ) :   1.6296
B( 64-C , 65-C ) :   1.1725 B( 64-C , 67-C ) :   1.1270 B( 65-C , 66-N ) :   2.9891
B( 67-C , 68-N ) :   2.9931 B( 69-C , 70-C ) :   1.4653 B( 69-C ,104-H ) :   0.9856
B( 70-C , 71-C ) :   1.2264 B( 70-C ,105-H ) :   0.9938 B( 71-C , 72-C ) :   1.2402
B( 71-C , 76-C ) :   1.2368 B( 72-C , 73-C ) :   1.2742 B( 73-C , 74-C ) :   1.4755
B( 73-C ,106-H ) :   0.9862 B( 74-C , 75-C ) :   1.2532 B( 74-C ,107-H ) :   0.9874
B( 75-C , 76-C ) :   1.4972 B( 75-C ,108-H ) :   0.9896 B( 76-C ,109-H ) :   0.9976

-----------------------------------------------------------------------------
         ABSORPTION SPECTRUM VIA TRANSITION ELECTRIC DIPOLE MOMENTS
-----------------------------------------------------------------------------
State   Energy  Wavelength   fosc         T2         TX        TY        TZ
        (cm-1)    (nm)                  (au**2)     (au)      (au)      (au)
-----------------------------------------------------------------------------
   0   16089.3    621.5   2.542560327  52.02473  -4.40594  -5.41532  -1.81292
   1   18481.8    541.1   0.178313715   3.17626  -1.04561   1.14001  -0.88506
   2   21598.0    463.0   0.248261556   3.78418   1.18872   1.45823   0.49465
   3   22888.3    436.9   0.260877758   3.75232  -0.61530   1.02910  -1.52141
   4   24187.7    413.4   0.024239837   0.32992  -0.31245   0.33078  -0.35054
   5   26227.5    381.3   0.209153490   2.62533  -0.99578  -1.21489  -0.39724
   6   27340.7    365.8   0.157032877   1.89085   0.85307   1.01044   0.37700
   7   27405.9    364.9   0.234307759   2.81461  -0.04885   0.61731  -1.55921
   8   27822.0    359.4   0.053626059   0.63455  -0.43889   0.16927   0.64286
   9   27952.8    357.7   0.008954705   0.10546  -0.21028  -0.22422  -0.10475
  10   29945.4    333.9   0.018992672   0.20880  -0.17507  -0.00485   0.42205
  11   30101.2    332.2   0.101187148   1.10667   0.64012   0.78932   0.27182
  12   30492.4    328.0   0.023650415   0.25534   0.31727   0.37587   0.11579
  13   30569.6    327.1   0.080486175   0.86678  -0.13108  -0.18284   0.90342
  14   30994.0    322.6   0.014997926   0.15930   0.12383  -0.18495   0.33131
  15   31104.7    321.5   0.007970493   0.08436  -0.16725  -0.22985  -0.05965
  16   31804.9    314.4   0.010272717   0.10633   0.21127   0.23063   0.09224
  17   32053.6    312.0   0.626490905   6.43448   0.04119   0.78591  -2.41146
  18   32665.6    306.1   0.019619117   0.19773  -0.27941  -0.33831  -0.07214
  19   32872.7    304.2   0.224071463   2.24402  -0.46325  -0.18140   1.41298
  20   33113.4    302.0   0.478678837   4.75901  -1.33771  -1.61430  -0.60297
  21   33934.7    294.7   0.000151300   0.00147   0.01579  -0.01793   0.02995
  22   34086.1    293.4   0.011267854   0.10883   0.26904  -0.17664  -0.07240
  23   34313.2    291.4   0.106894692   1.02558   0.29473   0.83176   0.49688
  24   34341.0    291.2   0.080530749   0.77201   0.80762   0.15951  -0.30712
  25   34782.6    287.5   0.001772128   0.01677   0.10215  -0.05056   0.06150
  26   34857.4    286.9   0.014061628   0.13281  -0.22290  -0.28706  -0.02680
  27   34916.8    286.4   0.244100113   2.30149   0.08850   0.44367  -1.44804
  28   35041.3    285.4   0.055328387   0.51981  -0.43077  -0.51237  -0.26781
  29   35817.8    279.2   0.001584651   0.01457   0.09526  -0.06257  -0.03968
  30   36117.9    276.9   0.055315680   0.50420  -0.42969  -0.53257  -0.18957
  31   37039.2    270.0   0.007257263   0.06450  -0.16256   0.07163   0.18151
  32   37358.4    267.7   0.010844363   0.09556  -0.20045  -0.21875  -0.08679
  33   37899.8    263.9   0.114256147   0.99247   0.27178   0.22083  -0.93265
  34   38005.8    263.1   0.083904986   0.72680  -0.49642  -0.61029  -0.32850
  35   38320.5    261.0   0.023654955   0.20322   0.26225  -0.29522   0.21745
  36   38403.9    260.4   0.090529812   0.77605   0.30080  -0.51093   0.65155
  37   38429.8    260.2   0.009603256   0.08227  -0.19266  -0.16135  -0.13825
  38   38750.3    258.1   0.000602674   0.00512  -0.02540  -0.06615  -0.00996
  39   39769.9    251.4   0.007017325   0.05809   0.14463   0.18204   0.06349
  40   39813.8    251.2   0.026012808   0.21509   0.23349  -0.28354   0.28316
  41   40084.4    249.5   0.068517872   0.56274   0.47018  -0.47626   0.33888

FINAL SINGLE POINT ENERGY     -4981.766064407530

DIPOLE MOMENT
-------------
                                X             Y             Z
Electronic contribution:    -20.88166      20.78521     -11.44408
Nuclear contribution   :     23.13872     -21.95592       9.35592
                        -----------------------------------------
Total Dipole Moment    :      2.25706      -1.17071      -2.08816
                        -----------------------------------------
Magnitude (a.u.)       :      3.29018
Magnitude (Debye)      :      8.36298

Rotational constants in cm-1:     0.001963     0.000167     0.000157
Rotational constants in MHz :    58.851481     5.003335     4.701097

                             ****ORCA TERMINATED NORMALLY****
TOTAL RUN TIME: 0 days 0 hours 11 minutes 40 seconds 597 msec
