                         Program Version 4.2.0 -  RELEASE  -
|  1> # ORCA input file
|  2> # SCF done       -188.355986582840          0.000551551759
|  3> ! CAM-B3LYP def2-SVP def2/J RIJCOSX Grid4 TightSCF
|  4> %maxcore 5000
|  5> %tddft
|  6>     Mode sTDDFT
|  7>     Ethresh 5.0
|  8>     maxcore 5000
|  9> end
| 10>
| 11> %pal
| 12>   nprocs 6
| 13>   end
| 14> * xyz 0 1
| 15>    C        3.38885        -1.85811         0.88334
| 16>    C        3.05428        -2.53930         2.16966
| 17>    O        2.38174        -3.53882         2.28870
| 18>    C        3.75882        -1.76626         3.20683
| 19>    C        4.33681        -0.63342         2.63131
| 20>    C        3.98857        -0.58266         1.21456
| 21>    C        3.98800         0.54172         0.43292
| 22>    C        3.39351         0.59996        -0.84489
| 23>    N        2.88623         0.70739        -1.86871
| 24>    C        4.49270         1.79301         0.84353
| 25>    N        4.90561         2.82821         1.11729
| 26>    C        5.09266         0.25488         3.40695
| 27>    C        5.25001        -0.00836         4.74282
| 28>    C        4.66847        -1.13822         5.35895
| 29>    C        3.89904        -2.05055         4.57920
| 30>    C        3.32229        -3.17820         5.19813
| 31>    C        3.50009        -3.39272         6.53714
| 32>    C        4.25724        -2.49766         7.31004
| 33>    C        4.82882        -1.39555         6.73563
| 34>    C        3.19323        -2.51610        -0.28774
| 35>    C        3.76161        -2.25385        -1.55935
| 36>    C        4.91851        -1.57431        -1.88363
| 37>    C        5.18843        -1.57953        -3.25037
| 38>   Cl        6.56404        -0.81024        -3.92124
| 39>    C        4.24498        -2.25608        -4.01717
| 40>    S        3.01962        -2.91978        -2.98478
| 41>    C        4.22411        -2.42372        -5.42424
| 42>    C        3.30069        -3.12234        -6.19208
| 43>   Cl        1.95120        -3.93709        -5.52426
| 44>    C        3.56813        -3.11110        -7.56174
| 45>    C        4.70498        -2.39817        -7.87326
| 46>    S        5.44838        -1.73366        -6.45055
| 47>    C        5.26527        -2.20428        -9.16301
| 48>    C        6.39017        -1.48196        -9.51029
| 49>    F        7.13543        -0.82447        -8.61653
| 50>    C        6.67937        -1.50588       -10.88180
| 51>    F        7.73049        -0.87187       -11.41104
| 52>    C        5.78572        -2.25125       -11.62760
| 53>    S        4.56553        -2.92005       -10.58530
| 54>    C        5.79375        -2.49993       -13.02721
| 55>    C        6.66941        -2.01180       -13.97201
| 56>    C        6.38748        -2.48348       -15.25639
| 57>   Cl        7.31521        -2.03356       -16.62369
| 58>    C        5.29606        -3.33891       -15.32914
| 59>    S        4.60623        -3.54679       -13.74483
| 60>    C        4.76413        -3.98657       -16.47101
| 61>    C        3.65231        -4.81565       -16.55380
| 62>   Cl        2.67747        -5.20003       -15.19955
| 63>    C        3.40594        -5.31773       -17.83201
| 64>    C        4.30155        -4.85983       -18.77437
| 65>    S        5.49572        -3.82713       -18.03622
| 66>    C        4.35706        -5.23780       -20.14179
| 67>    C        4.99696        -4.62226       -21.16612
| 68>    C        5.34116        -5.38974       -22.39965
| 69>    O        4.87127        -6.45592       -22.72813
| 70>    C        6.39699        -4.59855       -23.05572
| 71>    C        6.56628        -3.38971       -22.37724
| 72>    C        5.58989        -3.30591       -21.29778
| 73>    C        5.11958        -2.15342       -20.72937
| 74>    C        3.96236        -2.11413       -19.92198
| 75>    N        2.99584        -2.04007       -19.30788
| 76>    C        5.66965        -0.87552       -20.95623
| 77>    N        6.08950         0.18383       -21.09254
| 78>    C        7.53310        -2.46523       -22.79215
| 79>    C        8.30479        -2.76680       -23.88375
| 80>    C        8.14940        -3.97272       -24.60263
| 81>    C        7.17443        -4.92508       -24.18430
| 82>    C        7.02782        -6.12929       -24.90227
| 83>    C        7.81234        -6.37777       -25.99483
| 84>    C        8.77123        -5.44161       -26.41383
| 85>    C        8.93770        -4.26639       -25.73369
| 86>    H        5.55362         1.12190         2.96225
| 87>    H        5.83530         0.66276         5.35466
| 88>    H        2.74346        -3.85913         4.59439
| 89>    H        3.05753        -4.25606         7.01099
| 90>    H        4.38546        -2.68741         8.36540
| 91>    H        5.41113        -0.70505         7.32838
| 92>    H        2.56960        -3.40224        -0.21997
| 93>    H        5.57573        -1.12412        -1.16247
| 94>    H        2.95678        -3.60343        -8.29546
| 95>    H        7.48122        -1.34319       -13.75635
| 96>    H        2.58200        -5.96734       -18.06330
| 97>    H        3.89631        -6.19101       -20.38300
| 98>    H        7.67597        -1.54043       -22.25701
| 99>    H        9.05841        -2.06756       -24.21611
|100>    H        6.28823        -6.84110       -24.57131
|101>    H        7.69871        -7.29978       -26.54504
|102>    H        9.37879        -5.65787       -27.28006
|103>    H        9.67478        -3.54441       -26.05420
|104> *
|105>
|106>                          ****END OF INPUT****

CARTESIAN COORDINATES (ANGSTROEM)
---------------------------------
  C      3.388850   -1.858110    0.883340
  C      3.054280   -2.539300    2.169660
  O      2.381740   -3.538820    2.288700
  C      3.758820   -1.766260    3.206830
  C      4.336810   -0.633420    2.631310
  C      3.988570   -0.582660    1.214560
  C      3.988000    0.541720    0.432920
  C      3.393510    0.599960   -0.844890
  N      2.886230    0.707390   -1.868710
  C      4.492700    1.793010    0.843530
  N      4.905610    2.828210    1.117290
  C      5.092660    0.254880    3.406950
  C      5.250010   -0.008360    4.742820
  C      4.668470   -1.138220    5.358950
  C      3.899040   -2.050550    4.579200
  C      3.322290   -3.178200    5.198130
  C      3.500090   -3.392720    6.537140
  C      4.257240   -2.497660    7.310040
  C      4.828820   -1.395550    6.735630
  C      3.193230   -2.516100   -0.287740
  C      3.761610   -2.253850   -1.559350
  C      4.918510   -1.574310   -1.883630
  C      5.188430   -1.579530   -3.250370
  Cl     6.564040   -0.810240   -3.921240
  C      4.244980   -2.256080   -4.017170
  S      3.019620   -2.919780   -2.984780
  C      4.224110   -2.423720   -5.424240
  C      3.300690   -3.122340   -6.192080
  Cl     1.951200   -3.937090   -5.524260
  C      3.568130   -3.111100   -7.561740
  C      4.704980   -2.398170   -7.873260
  S      5.448380   -1.733660   -6.450550
  C      5.265270   -2.204280   -9.163010
  C      6.390170   -1.481960   -9.510290
  F      7.135430   -0.824470   -8.616530
  C      6.679370   -1.505880  -10.881800
  F      7.730490   -0.871870  -11.411040
  C      5.785720   -2.251250  -11.627600
  S      4.565530   -2.920050  -10.585300
  C      5.793750   -2.499930  -13.027210
  C      6.669410   -2.011800  -13.972010
  C      6.387480   -2.483480  -15.256390
  Cl     7.315210   -2.033560  -16.623690
  C      5.296060   -3.338910  -15.329140
  S      4.606230   -3.546790  -13.744830
  C      4.764130   -3.986570  -16.471010
  C      3.652310   -4.815650  -16.553800
  Cl     2.677470   -5.200030  -15.199550
  C      3.405940   -5.317730  -17.832010
  C      4.301550   -4.859830  -18.774370
  S      5.495720   -3.827130  -18.036220
  C      4.357060   -5.237800  -20.141790
  C      4.996960   -4.622260  -21.166120
  C      5.341160   -5.389740  -22.399650
  O      4.871270   -6.455920  -22.728130
  C      6.396990   -4.598550  -23.055720
  C      6.566280   -3.389710  -22.377240
  C      5.589890   -3.305910  -21.297780
  C      5.119580   -2.153420  -20.729370
  C      3.962360   -2.114130  -19.921980
  N      2.995840   -2.040070  -19.307880
  C      5.669650   -0.875520  -20.956230
  N      6.089500    0.183830  -21.092540
  C      7.533100   -2.465230  -22.792150
  C      8.304790   -2.766800  -23.883750
  C      8.149400   -3.972720  -24.602630
  C      7.174430   -4.925080  -24.184300
  C      7.027820   -6.129290  -24.902270
  C      7.812340   -6.377770  -25.994830
  C      8.771230   -5.441610  -26.413830
  C      8.937700   -4.266390  -25.733690
  H      5.553620    1.121900    2.962250
  H      5.835300    0.662760    5.354660
  H      2.743460   -3.859130    4.594390
  H      3.057530   -4.256060    7.010990
  H      4.385460   -2.687410    8.365400
  H      5.411130   -0.705050    7.328380
  H      2.569600   -3.402240   -0.219970
  H      5.575730   -1.124120   -1.162470
  H      2.956780   -3.603430   -8.295460
  H      7.481220   -1.343190  -13.756350
  H      2.582000   -5.967340  -18.063300
  H      3.896310   -6.191010  -20.383000
  H      7.675970   -1.540430  -22.257010
  H      9.058410   -2.067560  -24.216110
  H      6.288230   -6.841100  -24.571310
  H      7.698710   -7.299780  -26.545040
  H      9.378790   -5.657870  -27.280060
  H      9.674780   -3.544410  -26.054200

 Total Charge           Charge          ....    0
 Multiplicity           Mult            ....    1
 Number of Electrons    NEL             ....  552
 Basis Dimension        Dim             .... 1120

ORBITAL ENERGIES
----------------

  NO   OCC          E(Eh)            E(eV)
   0   2.0000    -101.606461     -2764.8524
   1   2.0000    -101.605586     -2764.8285
   2   2.0000    -101.605483     -2764.8257
   3   2.0000    -101.602910     -2764.7557
   4   2.0000     -88.985807     -2421.4269
   5   2.0000     -88.977415     -2421.1986
   6   2.0000     -88.974623     -2421.1226
   7   2.0000     -88.974442     -2421.1176
   8   2.0000     -88.973883     -2421.1025
   9   2.0000     -24.811237      -675.1481
  10   2.0000     -24.811020      -675.1422
  11   2.0000     -19.218725      -522.9681
  12   2.0000     -19.218591      -522.9644
  13   2.0000     -14.416043      -392.2805
  14   2.0000     -14.415874      -392.2759
  15   2.0000     -14.414780      -392.2461
  16   2.0000     -14.412617      -392.1873
  17   2.0000     -10.383023      -282.5364
  18   2.0000     -10.382238      -282.5150
  19   2.0000     -10.369726      -282.1746
  20   2.0000     -10.369380      -282.1652
  21   2.0000     -10.345782      -281.5231
  22   2.0000     -10.345587      -281.5177
  23   2.0000     -10.343454      -281.4597
  24   2.0000     -10.343026      -281.4480
  25   2.0000     -10.342254      -281.4270
  26   2.0000     -10.342032      -281.4210
  27   2.0000     -10.340508      -281.3795
  28   2.0000     -10.338922      -281.3364
  29   2.0000     -10.335318      -281.2383
  30   2.0000     -10.334547      -281.2173
  31   2.0000     -10.334329      -281.2114
  32   2.0000     -10.333383      -281.1856
  33   2.0000     -10.330533      -281.1081
  34   2.0000     -10.329225      -281.0725
  35   2.0000     -10.327826      -281.0344
  36   2.0000     -10.327142      -281.0158
  37   2.0000     -10.320657      -280.8393
  38   2.0000     -10.320539      -280.8361
  39   2.0000     -10.318538      -280.7817
  40   2.0000     -10.318148      -280.7711
  41   2.0000     -10.317805      -280.7617
  42   2.0000     -10.316378      -280.7229
  43   2.0000     -10.315898      -280.7098
  44   2.0000     -10.314594      -280.6744
  45   2.0000     -10.310395      -280.5601
  46   2.0000     -10.310313      -280.5579
  47   2.0000     -10.301076      -280.3065
  48   2.0000     -10.299123      -280.2534
  49   2.0000     -10.298639      -280.2402
  50   2.0000     -10.298525      -280.2371
  51   2.0000     -10.297570      -280.2111
  52   2.0000     -10.297322      -280.2044
  53   2.0000     -10.296733      -280.1884
  54   2.0000     -10.296533      -280.1829
  55   2.0000     -10.296348      -280.1779
  56   2.0000     -10.296281      -280.1760
  57   2.0000     -10.296033      -280.1693
  58   2.0000     -10.295882      -280.1652
  59   2.0000     -10.295784      -280.1625
  60   2.0000     -10.294573      -280.1296
  61   2.0000     -10.292422      -280.0710
  62   2.0000     -10.292205      -280.0651
  63   2.0000     -10.284595      -279.8581
  64   2.0000     -10.284406      -279.8529
  65   2.0000     -10.284055      -279.8434
  66   2.0000     -10.283891      -279.8389
  67   2.0000     -10.282198      -279.7928
  68   2.0000     -10.282037      -279.7884
  69   2.0000     -10.278332      -279.6876
  70   2.0000     -10.278023      -279.6792
  71   2.0000      -9.561178      -260.1729
  72   2.0000      -9.560354      -260.1504
  73   2.0000      -9.560241      -260.1474
  74   2.0000      -9.557671      -260.0775
  75   2.0000      -8.081043      -219.8964
  76   2.0000      -8.072290      -219.6582
  77   2.0000      -8.069102      -219.5714
  78   2.0000      -8.068821      -219.5638
  79   2.0000      -8.068781      -219.5627
  80   2.0000      -7.331301      -199.4948
  81   2.0000      -7.330451      -199.4717
  82   2.0000      -7.330359      -199.4692
  83   2.0000      -7.327776      -199.3989
  84   2.0000      -7.321245      -199.2212
  85   2.0000      -7.321175      -199.2193
  86   2.0000      -7.320426      -199.1989
  87   2.0000      -7.320367      -199.1973
  88   2.0000      -7.320319      -199.1960
  89   2.0000      -7.320236      -199.1938
  90   2.0000      -7.317739      -199.1258
  91   2.0000      -7.317670      -199.1239
  92   2.0000      -6.050599      -164.6452
  93   2.0000      -6.046713      -164.5394
  94   2.0000      -6.042306      -164.4195
  95   2.0000      -6.041914      -164.4088
  96   2.0000      -6.038752      -164.3228
  97   2.0000      -6.038391      -164.3130
  98   2.0000      -6.038252      -164.3092
  99   2.0000      -6.037502      -164.2888
 100   2.0000      -6.034201      -164.1990
 101   2.0000      -6.033990      -164.1932
 102   2.0000      -6.033904      -164.1909
 103   2.0000      -6.033876      -164.1901
 104   2.0000      -6.030730      -164.1045
 105   2.0000      -6.030649      -164.1023
 106   2.0000      -6.030544      -164.0994
 107   2.0000      -1.330440       -36.2031
 108   2.0000      -1.318970       -35.8910
 109   2.0000      -1.133926       -30.8557
 110   2.0000      -1.133786       -30.8519
 111   2.0000      -1.036066       -28.1928
 112   2.0000      -1.033339       -28.1186
 113   2.0000      -1.022339       -27.8193
 114   2.0000      -1.019821       -27.7507
 115   2.0000      -1.017754       -27.6945
 116   2.0000      -1.009418       -27.4677
 117   2.0000      -1.004063       -27.3220
 118   2.0000      -0.999706       -27.2034
 119   2.0000      -0.999167       -27.1887
 120   2.0000      -0.993395       -27.0316
 121   2.0000      -0.992521       -27.0079
 122   2.0000      -0.971903       -26.4468
 123   2.0000      -0.971042       -26.4234
 124   2.0000      -0.967655       -26.3312
 125   2.0000      -0.963967       -26.2309
 126   2.0000      -0.958139       -26.0723
 127   2.0000      -0.954891       -25.9839
 128   2.0000      -0.923922       -25.1412
 129   2.0000      -0.923461       -25.1287
 130   2.0000      -0.909715       -24.7546
 131   2.0000      -0.907173       -24.6854
 132   2.0000      -0.901279       -24.5251
 133   2.0000      -0.896317       -24.3900
 134   2.0000      -0.886168       -24.1139
 135   2.0000      -0.875305       -23.8183
 136   2.0000      -0.862763       -23.4770
 137   2.0000      -0.859356       -23.3843
 138   2.0000      -0.855229       -23.2720
 139   2.0000      -0.850734       -23.1497
 140   2.0000      -0.840507       -22.8714
 141   2.0000      -0.839505       -22.8441
 142   2.0000      -0.834323       -22.7031
 143   2.0000      -0.832584       -22.6558
 144   2.0000      -0.826820       -22.4989
 145   2.0000      -0.818052       -22.2603
 146   2.0000      -0.807522       -21.9738
 147   2.0000      -0.792545       -21.5662
 148   2.0000      -0.778305       -21.1788
 149   2.0000      -0.774701       -21.0807
 150   2.0000      -0.766245       -20.8506
 151   2.0000      -0.760137       -20.6844
 152   2.0000      -0.737390       -20.0654
 153   2.0000      -0.718981       -19.5645
 154   2.0000      -0.714863       -19.4524
 155   2.0000      -0.714192       -19.4342
 156   2.0000      -0.713576       -19.4174
 157   2.0000      -0.710776       -19.3412
 158   2.0000      -0.702695       -19.1213
 159   2.0000      -0.702152       -19.1065
 160   2.0000      -0.690255       -18.7828
 161   2.0000      -0.677877       -18.4460
 162   2.0000      -0.677003       -18.4222
 163   2.0000      -0.671972       -18.2853
 164   2.0000      -0.667116       -18.1532
 165   2.0000      -0.661484       -17.9999
 166   2.0000      -0.656091       -17.8531
 167   2.0000      -0.643814       -17.5191
 168   2.0000      -0.642142       -17.4736
 169   2.0000      -0.632450       -17.2098
 170   2.0000      -0.630533       -17.1577
 171   2.0000      -0.629679       -17.1345
 172   2.0000      -0.626032       -17.0352
 173   2.0000      -0.617331       -16.7984
 174   2.0000      -0.611985       -16.6529
 175   2.0000      -0.608753       -16.5650
 176   2.0000      -0.600227       -16.3330
 177   2.0000      -0.595954       -16.2167
 178   2.0000      -0.594490       -16.1769
 179   2.0000      -0.589885       -16.0516
 180   2.0000      -0.589357       -16.0372
 181   2.0000      -0.588512       -16.0142
 182   2.0000      -0.585849       -15.9418
 183   2.0000      -0.577210       -15.7067
 184   2.0000      -0.570338       -15.5197
 185   2.0000      -0.565192       -15.3797
 186   2.0000      -0.560046       -15.2396
 187   2.0000      -0.559512       -15.2251
 188   2.0000      -0.554114       -15.0782
 189   2.0000      -0.549538       -14.9537
 190   2.0000      -0.546102       -14.8602
 191   2.0000      -0.538275       -14.6472
 192   2.0000      -0.537900       -14.6370
 193   2.0000      -0.534349       -14.5404
 194   2.0000      -0.532724       -14.4962
 195   2.0000      -0.531493       -14.4627
 196   2.0000      -0.530675       -14.4404
 197   2.0000      -0.528178       -14.3724
 198   2.0000      -0.526722       -14.3328
 199   2.0000      -0.524354       -14.2684
 200   2.0000      -0.521239       -14.1836
 201   2.0000      -0.518303       -14.1038
 202   2.0000      -0.514921       -14.0117
 203   2.0000      -0.514453       -13.9990
 204   2.0000      -0.511383       -13.9154
 205   2.0000      -0.508558       -13.8386
 206   2.0000      -0.507698       -13.8152
 207   2.0000      -0.507398       -13.8070
 208   2.0000      -0.505299       -13.7499
 209   2.0000      -0.504670       -13.7328
 210   2.0000      -0.502205       -13.6657
 211   2.0000      -0.500185       -13.6107
 212   2.0000      -0.498481       -13.5644
 213   2.0000      -0.494018       -13.4429
 214   2.0000      -0.492913       -13.4129
 215   2.0000      -0.490573       -13.3492
 216   2.0000      -0.486038       -13.2258
 217   2.0000      -0.482039       -13.1169
 218   2.0000      -0.479547       -13.0491
 219   2.0000      -0.478136       -13.0107
 220   2.0000      -0.475692       -12.9442
 221   2.0000      -0.474655       -12.9160
 222   2.0000      -0.469982       -12.7889
 223   2.0000      -0.468092       -12.7374
 224   2.0000      -0.464764       -12.6469
 225   2.0000      -0.459355       -12.4997
 226   2.0000      -0.456410       -12.4196
 227   2.0000      -0.453584       -12.3427
 228   2.0000      -0.450816       -12.2673
 229   2.0000      -0.450374       -12.2553
 230   2.0000      -0.445973       -12.1355
 231   2.0000      -0.444625       -12.0989
 232   2.0000      -0.444100       -12.0846
 233   2.0000      -0.441697       -12.0192
 234   2.0000      -0.441035       -12.0012
 235   2.0000      -0.440098       -11.9757
 236   2.0000      -0.438004       -11.9187
 237   2.0000      -0.436540       -11.8789
 238   2.0000      -0.434206       -11.8153
 239   2.0000      -0.433847       -11.8056
 240   2.0000      -0.432873       -11.7791
 241   2.0000      -0.430630       -11.7180
 242   2.0000      -0.430459       -11.7134
 243   2.0000      -0.426839       -11.6149
 244   2.0000      -0.425608       -11.5814
 245   2.0000      -0.421427       -11.4676
 246   2.0000      -0.419441       -11.4136
 247   2.0000      -0.418439       -11.3863
 248   2.0000      -0.410823       -11.1791
 249   2.0000      -0.408641       -11.1197
 250   2.0000      -0.402745       -10.9593
 251   2.0000      -0.399413       -10.8686
 252   2.0000      -0.390253       -10.6193
 253   2.0000      -0.388949       -10.5839
 254   2.0000      -0.388367       -10.5680
 255   2.0000      -0.381099       -10.3702
 256   2.0000      -0.376174       -10.2362
 257   2.0000      -0.373813       -10.1720
 258   2.0000      -0.372425       -10.1342
 259   2.0000      -0.365879        -9.9561
 260   2.0000      -0.355522        -9.6742
 261   2.0000      -0.343245        -9.3402
 262   2.0000      -0.337646        -9.1878
 263   2.0000      -0.336500        -9.1566
 264   2.0000      -0.334276        -9.0961
 265   2.0000      -0.330679        -8.9982
 266   2.0000      -0.329128        -8.9560
 267   2.0000      -0.324298        -8.8246
 268   2.0000      -0.322435        -8.7739
 269   2.0000      -0.319435        -8.6923
 270   2.0000      -0.314789        -8.5659
 271   2.0000      -0.303141        -8.2489
 272   2.0000      -0.294687        -8.0189
 273   2.0000      -0.294148        -8.0042
 274   2.0000      -0.270678        -7.3655
 275   2.0000      -0.245568        -6.6823
 276   0.0000      -0.095332        -2.5941
 277   0.0000      -0.088601        -2.4110
 278   0.0000      -0.074670        -2.0319
 279   0.0000      -0.070616        -1.9216
 280   0.0000      -0.053979        -1.4688

MULLIKEN ATOMIC CHARGES
-----------------------
   0 C :   -0.125508
   1 C :    0.119486
   2 O :   -0.150187
   3 C :    0.011320
   4 C :   -0.008643
   5 C :    0.254215
   6 C :   -0.337115
   7 C :   -0.203499
   8 N :    0.180556
   9 C :   -0.175394
  10 N :    0.160916
  11 C :   -0.021700
  12 C :    0.003566
  13 C :    0.080189
  14 C :    0.034962
  15 C :   -0.024791
  16 C :    0.038002
  17 C :    0.037797
  18 C :   -0.021171
  19 C :    0.092408
  20 C :   -0.108110
  21 C :    0.051243
  22 C :    0.044429
  23 Cl:   -0.054002
  24 C :   -0.073591
  25 S :    0.178909
  26 C :   -0.095491
  27 C :    0.073982
  28 Cl:   -0.056365
  29 C :   -0.028187
  30 C :   -0.016003
  31 S :    0.182036
  32 C :   -0.124454
  33 C :    0.193988
  34 F :   -0.165944
  35 C :    0.190823
  36 F :   -0.167992
  37 C :   -0.099716
  38 S :    0.169628
  39 C :   -0.026432
  40 C :   -0.022519
  41 C :    0.074466
  42 Cl:   -0.052935
  43 C :   -0.087571
  44 S :    0.151767
  45 C :   -0.076567
  46 C :    0.069124
  47 Cl:   -0.061251
  48 C :    0.052683
  49 C :   -0.088399
  50 S :    0.164525
  51 C :    0.059784
  52 C :   -0.122899
  53 C :    0.121361
  54 O :   -0.148042
  55 C :    0.007279
  56 C :   -0.006219
  57 C :    0.238547
  58 C :   -0.315783
  59 C :   -0.204914
  60 N :    0.179412
  61 C :   -0.178573
  62 N :    0.159237
  63 C :   -0.017609
  64 C :    0.004516
  65 C :    0.079592
  66 C :    0.035644
  67 C :   -0.025997
  68 C :    0.038792
  69 C :    0.038213
  70 C :   -0.021220
  71 H :    0.001112
  72 H :   -0.011310
  73 H :    0.000905
  74 H :   -0.006522
  75 H :   -0.005282
  76 H :   -0.020201
  77 H :    0.022573
  78 H :   -0.003492
  79 H :   -0.009058
  80 H :   -0.003144
  81 H :   -0.005142
  82 H :    0.024655
  83 H :    0.001205
  84 H :   -0.011650
  85 H :    0.000678
  86 H :   -0.006753
  87 H :   -0.006344
  88 H :   -0.020838
Sum of atomic charges:   -0.0000000

LOEWDIN ATOMIC CHARGES
----------------------
   0 C :   -0.086303
   1 C :    0.087427
   2 O :   -0.141409
   3 C :   -0.033423
   4 C :   -0.004517
   5 C :    0.065185
   6 C :   -0.135314
   7 C :   -0.019478
   8 N :   -0.038173
   9 C :   -0.021750
  10 N :   -0.047717
  11 C :   -0.017871
  12 C :    0.019398
  13 C :   -0.009409
  14 C :   -0.002867
  15 C :   -0.002094
  16 C :   -0.011855
  17 C :   -0.012482
  18 C :   -0.012245
  19 C :    0.043549
  20 C :   -0.189245
  21 C :   -0.035840
  22 C :   -0.169802
  23 Cl:    0.167061
  24 C :   -0.189151
  25 S :    0.475429
  26 C :   -0.214054
  27 C :   -0.162599
  28 Cl:    0.166395
  29 C :   -0.074907
  30 C :   -0.183954
  31 S :    0.472718
  32 C :   -0.210896
  33 C :    0.022504
  34 F :   -0.043564
  35 C :    0.030416
  36 F :   -0.040858
  37 C :   -0.213884
  38 S :    0.458963
  39 C :   -0.182404
  40 C :   -0.064181
  41 C :   -0.160718
  42 Cl:    0.169892
  43 C :   -0.211115
  44 S :    0.448325
  45 C :   -0.185911
  46 C :   -0.174564
  47 Cl:    0.163097
  48 C :   -0.029343
  49 C :   -0.184972
  50 S :    0.481405
  51 C :    0.045791
  52 C :   -0.089591
  53 C :    0.087579
  54 O :   -0.141573
  55 C :   -0.033631
  56 C :   -0.003147
  57 C :    0.059617
  58 C :   -0.135758
  59 C :   -0.035692
  60 N :   -0.043590
  61 C :   -0.020795
  62 N :   -0.047156
  63 C :   -0.017462
  64 C :    0.019749
  65 C :   -0.009532
  66 C :   -0.002814
  67 C :   -0.002385
  68 C :   -0.011778
  69 C :   -0.012440
  70 C :   -0.012227
  71 H :    0.039639
  72 H :    0.035976
  73 H :    0.035634
  74 H :    0.032753
  75 H :    0.032337
  76 H :    0.030565
  77 H :    0.046149
  78 H :    0.035914
  79 H :    0.031159
  80 H :    0.036099
  81 H :    0.039873
  82 H :    0.051485
  83 H :    0.039634
  84 H :    0.035921
  85 H :    0.035559
  86 H :    0.032663
  87 H :    0.032103
  88 H :    0.030474

  Mayer bond orders larger than 0.100000
B(  0-C ,  1-C ) :   0.9549 B(  0-C ,  5-C ) :   1.0247 B(  0-C , 19-C ) :   1.6986
B(  1-C ,  2-O ) :   2.1959 B(  1-C ,  3-C ) :   0.9388 B(  3-C ,  4-C ) :   1.4150
B(  3-C , 14-C ) :   1.2368 B(  4-C ,  5-C ) :   1.0014 B(  4-C , 11-C ) :   1.2609
B(  5-C ,  6-C ) :   1.6563 B(  6-C ,  7-C ) :   1.1645 B(  6-C ,  9-C ) :   1.1252
B(  7-C ,  8-N ) :   3.0117 B(  9-C , 10-N ) :   2.9973 B( 11-C , 12-C ) :   1.4674
B( 11-C , 71-H ) :   0.9869 B( 12-C , 13-C ) :   1.2234 B( 12-C , 72-H ) :   0.9945
B( 13-C , 14-C ) :   1.2411 B( 13-C , 18-C ) :   1.2403 B( 14-C , 15-C ) :   1.2749
B( 15-C , 16-C ) :   1.4752 B( 15-C , 73-H ) :   0.9870 B( 16-C , 17-C ) :   1.2544
B( 16-C , 74-H ) :   0.9875 B( 17-C , 18-C ) :   1.4957 B( 17-C , 75-H ) :   0.9892
B( 18-C , 76-H ) :   0.9978 B( 19-C , 20-C ) :   1.1055 B( 19-C , 77-H ) :   0.9292
B( 20-C , 21-C ) :   1.4368 B( 20-C , 25-S ) :   1.0958 B( 21-C , 22-C ) :   1.3233
B( 21-C , 78-H ) :   0.9969 B( 22-C , 23-Cl) :   1.0384 B( 22-C , 24-C ) :   1.4448
B( 24-C , 25-S ) :   1.1540 B( 24-C , 26-C ) :   1.1831 B( 26-C , 27-C ) :   1.4659
B( 26-C , 31-S ) :   1.1102 B( 27-C , 28-Cl) :   1.0356 B( 27-C , 29-C ) :   1.2848
B( 29-C , 30-C ) :   1.4560 B( 29-C , 79-H ) :   1.0039 B( 30-C , 31-S ) :   1.1180
B( 30-C , 32-C ) :   1.1695 B( 32-C , 33-C ) :   1.4583 B( 32-C , 37-C ) :   0.1351
B( 32-C , 38-S ) :   1.1065 B( 33-C , 34-F ) :   1.1548 B( 33-C , 35-C ) :   1.2163
B( 35-C , 36-F ) :   1.1450 B( 35-C , 37-C ) :   1.4824 B( 37-C , 38-S ) :   1.0989
B( 37-C , 39-C ) :   1.1268 B( 39-C , 40-C ) :   1.4932 B( 39-C , 43-C ) :   0.1045
B( 39-C , 44-S ) :   1.1036 B( 40-C , 41-C ) :   1.2572 B( 40-C , 80-H ) :   1.0089
B( 41-C , 42-Cl) :   1.0362 B( 41-C , 43-C ) :   1.4716 B( 43-C , 44-S ) :   1.1196
B( 43-C , 45-C ) :   1.1878 B( 45-C , 46-C ) :   1.4442 B( 45-C , 50-S ) :   1.1502
B( 46-C , 47-Cl) :   1.0264 B( 46-C , 48-C ) :   1.2850 B( 48-C , 49-C ) :   1.4350
B( 48-C , 81-H ) :   1.0086 B( 49-C , 50-S ) :   1.0948 B( 49-C , 51-C ) :   1.1132
B( 51-C , 52-C ) :   1.6798 B( 51-C , 82-H ) :   0.9465 B( 52-C , 53-C ) :   0.9521
B( 52-C , 57-C ) :   1.0161 B( 53-C , 54-O ) :   2.2002 B( 53-C , 55-C ) :   0.9417
B( 55-C , 56-C ) :   1.4119 B( 55-C , 66-C ) :   1.2386 B( 56-C , 57-C ) :   1.0084
B( 56-C , 63-C ) :   1.2646 B( 57-C , 58-C ) :   1.6651 B( 58-C , 59-C ) :   1.1482
B( 58-C , 61-C ) :   1.1329 B( 59-C , 60-N ) :   3.0321 B( 61-C , 62-N ) :   2.9976
B( 63-C , 64-C ) :   1.4662 B( 63-C , 83-H ) :   0.9863 B( 64-C , 65-C ) :   1.2227
B( 64-C , 84-H ) :   0.9946 B( 65-C , 66-C ) :   1.2425 B( 65-C , 70-C ) :   1.2404
B( 66-C , 67-C ) :   1.2745 B( 67-C , 68-C ) :   1.4734 B( 67-C , 85-H ) :   0.9871
B( 68-C , 69-C ) :   1.2564 B( 68-C , 86-H ) :   0.9876 B( 69-C , 70-C ) :   1.4946
B( 69-C , 87-H ) :   0.9895 B( 70-C , 88-H ) :   0.9978

-----------------------------------------------------------------------------
         ABSORPTION SPECTRUM VIA TRANSITION ELECTRIC DIPOLE MOMENTS
-----------------------------------------------------------------------------
State   Energy  Wavelength   fosc         T2         TX        TY        TZ
        (cm-1)    (nm)                  (au**2)     (au)      (au)      (au)
-----------------------------------------------------------------------------
   0   17892.3    558.9   2.206154171  40.59238  -0.30273   0.84855   6.30719
   1   19777.7    505.6   0.040919089   0.68112   0.22893  -0.60357  -0.51422
   2   23186.1    431.3   0.508267918   7.21673  -0.15452   0.37433   2.65570
   3   24706.4    404.8   0.006710636   0.08942  -0.23539  -0.17030   0.07077
   4   26209.0    381.5   0.002860292   0.03593  -0.11635   0.14841  -0.01913
   5   27123.8    368.7   0.188612659   2.28927   0.56827  -0.40295  -1.34312
   6   27561.7    362.8   0.102356941   1.22261   0.39975  -0.92239   0.46043
   7   27715.7    360.8   0.149331962   1.77379   0.17935   0.19660  -1.30498
   8   28688.4    348.6   0.040923685   0.46962  -0.11841  -0.26716  -0.61986
   9   29937.2    334.0   0.025573124   0.28122   0.48182   0.16258  -0.15045
  10   30369.6    329.3   0.055101489   0.59731   0.17310   0.19646   0.72715
  11   30708.1    325.6   0.046243449   0.49576   0.07479  -0.66731   0.21183
  12   31338.8    319.1   0.063060014   0.66244  -0.02248  -0.31434  -0.75042
  13   31591.2    316.5   0.104182224   1.08568   0.05896  -0.70592  -0.76412
  14   31819.3    314.3   0.294778595   3.04986  -0.15444  -1.72540  -0.22134
  15   31963.7    312.9   0.102901949   1.05985   0.44883  -0.06642  -0.92411
  16   32516.0    307.5   0.041769055   0.42290  -0.33302   0.55536   0.05977
  17   32621.9    306.5   0.475283102   4.79644   0.97774   1.24905  -1.51008
  18   32826.2    304.6   0.141978568   1.42389   0.53673  -0.82245  -0.67779
  19   33014.7    302.9   0.215514140   2.14904  -0.63587   0.01642  -1.32077
  20   33590.0    297.7   0.023522423   0.23054   0.28727   0.23757  -0.30261
  21   33821.1    295.7   0.314018197   3.05663  -0.20101   0.00560   1.73672
  22   34105.4    293.2   0.108228276   1.04470  -0.67081  -0.23181   0.73552
  23   34535.2    289.6   0.111970705   1.06738   0.80819  -0.63916  -0.07536
  24   34970.4    286.0   0.126628977   1.19209   0.09256   0.83675  -0.69525
  25   35239.4    283.8   0.151073767   1.41135  -0.36862   0.21145   1.10940
  26   35631.2    280.7   0.055333562   0.51125  -0.03585  -0.63665  -0.32349
  27   35990.2    277.9   0.042732220   0.39088   0.41347   0.46838   0.02343
  28   36791.5    271.8   0.062604721   0.56019  -0.47978  -0.57126   0.06053
  29   37811.7    264.5   0.002369718   0.02063   0.09224   0.08640   0.06826
  30   37889.0    263.9   0.000240397   0.00209   0.04565  -0.00096   0.00193
  31   38211.5    261.7   0.018410929   0.15862   0.35673   0.17110  -0.04567
  32   38352.2    260.7   0.116329226   0.99856   0.46907  -0.49179  -0.73258
  33   38434.6    260.2   0.067260954   0.57612   0.20360  -0.35252   0.64063
  34   38557.4    259.4   0.013006741   0.11105  -0.02564  -0.17320  -0.28355
  35   38918.7    256.9   0.347944069   2.94325  -1.42109  -0.83962   0.46773
  36   38998.0    256.4   0.009037547   0.07629  -0.27132   0.03444  -0.03861
  37   39275.7    254.6   0.013015051   0.10909   0.24641  -0.21139  -0.06073
  38   39934.0    250.4   0.088795736   0.73202   0.47003   0.70524   0.11720

FINAL SINGLE POINT ENERGY     -6464.933639554186

DIPOLE MOMENT
-------------
                                X             Y             Z
Electronic contribution:     -6.67154       9.06510      -5.24488
Nuclear contribution   :      8.53695     -11.75477       5.75883
                        -----------------------------------------
Total Dipole Moment    :      1.86541      -2.68968       0.51396
                        -----------------------------------------
Magnitude (a.u.)       :      3.31335
Magnitude (Debye)      :      8.42185

Rotational constants in cm-1:     0.003596     0.000160     0.000157
Rotational constants in MHz :   107.805892     4.804725     4.704526

                             ****ORCA TERMINATED NORMALLY****
TOTAL RUN TIME: 0 days 0 hours 10 minutes 46 seconds 142 msec
