                         Program Version 4.2.0 -  RELEASE  -
|  1> # ORCA input file
|  2> # SCF done       -183.732824355852          0.000883418183
|  3> ! CAM-B3LYP def2-SVP def2/J RIJCOSX Grid4 TightSCF
|  4> %maxcore 5000
|  5> %tddft
|  6>     Mode sTDDFT
|  7>     Ethresh 5.0
|  8>     maxcore 5000
|  9> end
| 10>
| 11> %pal
| 12>   nprocs 6
| 13>   end
| 14> * xyz 0 1
| 15>    C        5.73999         2.37537         0.60257
| 16>    C        5.76797         3.20183        -0.64230
| 17>    O        6.31939         2.89998        -1.67786
| 18>    C        4.95687         4.38888        -0.33017
| 19>    C        4.60488         4.36946         1.02137
| 20>    C        5.21458         3.21124         1.66346
| 21>    C        5.46176         3.07420         3.00150
| 22>    C        6.24561         2.03163         3.53237
| 23>    N        6.89615         1.20230         3.98879
| 24>    C        5.02853         3.98369         3.98826
| 25>    N        4.70267         4.68410         4.83671
| 26>    C        3.79497         5.37523         1.56342
| 27>    C        3.36057         6.38307         0.74242
| 28>    C        3.71271         6.44302        -0.62436
| 29>    C        4.53248         5.42237        -1.18860
| 30>    C        4.87860         5.48509        -2.55354
| 31>    C        4.43200         6.51976        -3.32888
| 32>    C        3.62380         7.52742        -2.77881
| 33>    C        3.27113         7.49087        -1.45737
| 34>    C        6.08611         1.06677         0.53836
| 35>    C        5.80652         0.03538         1.47570
| 36>    C        6.42883        -1.16182         1.67163
| 37>    C        5.75700        -1.89625         2.74801
| 38>    N        4.71493        -1.15317         3.17321
| 39>    C        4.65686         0.03678         2.43289
| 40>    O        3.77333         0.84764         2.54942
| 41>    C        3.79461        -1.41931         4.24820
| 42>    C        6.42337        -3.07084         2.95171
| 43>    C        7.56121        -3.07648         1.99371
| 44>    O        8.41848        -3.89962         1.80994
| 45>    N        7.48783        -1.88030         1.25008
| 46>    C        8.42729        -1.53617         0.21758
| 47>    C        6.13320        -4.17782         3.83237
| 48>    N        7.05458        -5.12092         3.99253
| 49>    C        6.70526        -6.15366         4.75808
| 50>    N        5.54152        -6.23680         5.41152
| 51>    C        4.71026        -5.24173         5.20513
| 52>    N        4.92412        -4.20842         4.41218
| 53>    C        7.61069        -7.26737         4.89900
| 54>    C        8.95458        -7.37965         4.70197
| 55>    C        9.35473        -8.75925         4.99231
| 56>    N        8.26290        -9.46702         5.33449
| 57>    C        7.12739        -8.62075         5.29441
| 58>    O        6.01907        -9.01853         5.52191
| 59>    C        8.18532       -10.86910         5.64101
| 60>    C       10.69394        -8.89934         4.77305
| 61>    C       11.17175        -7.53425         4.38978
| 62>    O       12.29904        -7.16306         4.17966
| 63>    N       10.05870        -6.68077         4.37371
| 64>    C       10.16104        -5.27821         4.07221
| 65>    C       11.52256       -10.04009         4.94869
| 66>    C       12.72900       -10.30425         4.38976
| 67>    C       13.61037       -11.34042         5.00439
| 68>    O       13.26781       -12.16403         5.82505
| 69>    C       14.94443       -11.09568         4.43352
| 70>    C       14.85628       -10.10570         3.45256
| 71>    C       13.46288        -9.70614         3.29345
| 72>    C       12.91776        -9.11052         2.18960
| 73>    C       11.52641        -8.98608         2.00607
| 74>    N       10.39485        -8.91441         1.82498
| 75>    C       13.66251        -8.64121         1.08869
| 76>    N       14.22044        -8.24184         0.16877
| 77>    C       16.00153        -9.66556         2.77719
| 78>    C       17.20906       -10.23234         3.09181
| 79>    C       17.33088       -11.24877         4.06527
| 80>    C       16.17363       -11.69954         4.76454
| 81>    C       16.30069       -12.71125         5.73775
| 82>    C       17.52568       -13.25782         6.00514
| 83>    C       18.66887       -12.81881         5.31844
| 84>    C       18.57519       -11.83645         4.37097
| 85>    H        3.50481         5.34819         2.60109
| 86>    H        2.72800         7.16309         1.14100
| 87>    H        5.49885         4.70487        -2.96561
| 88>    H        4.69906         6.56837        -4.37395
| 89>    H        3.28111         8.33414        -3.40968
| 90>    H        2.64956         8.26545        -1.03203
| 91>    H        6.57898         0.76546        -0.38086
| 92>    H        3.76653        -2.49329         4.42573
| 93>    H        2.81361        -1.03847         3.96583
| 94>    H        4.12326        -0.90565         5.15455
| 95>    H        9.22333        -2.27985         0.24106
| 96>    H        8.84170        -0.54411         0.40116
| 97>    H        7.95026        -1.55384        -0.76405
| 98>    H        3.75999        -5.27471         5.72439
| 99>    H        8.68589       -11.45239         4.86719
|100>    H        7.12918       -11.13484         5.68039
|101>    H        8.64352       -11.08182         6.60887
|102>    H       11.16561        -5.09755         3.69290
|103>    H       10.00155        -4.68377         4.97377
|104>    H        9.41758        -5.00158         3.32545
|105>    H       11.18757       -10.76851         5.68097
|106>    H       15.93687        -8.88601         2.03568
|107>    H       18.10429        -9.90061         2.58580
|108>    H       15.41572       -13.04006         6.25926
|109>    H       17.62217       -14.03402         6.74957
|110>    H       19.62622       -13.26398         5.54581
|111>    H       19.45365       -11.49705         3.84139
|112> *
|113>
|114>                          ****END OF INPUT****

CARTESIAN COORDINATES (ANGSTROEM)
---------------------------------
  C      5.739990    2.375370    0.602570
  C      5.767970    3.201830   -0.642300
  O      6.319390    2.899980   -1.677860
  C      4.956870    4.388880   -0.330170
  C      4.604880    4.369460    1.021370
  C      5.214580    3.211240    1.663460
  C      5.461760    3.074200    3.001500
  C      6.245610    2.031630    3.532370
  N      6.896150    1.202300    3.988790
  C      5.028530    3.983690    3.988260
  N      4.702670    4.684100    4.836710
  C      3.794970    5.375230    1.563420
  C      3.360570    6.383070    0.742420
  C      3.712710    6.443020   -0.624360
  C      4.532480    5.422370   -1.188600
  C      4.878600    5.485090   -2.553540
  C      4.432000    6.519760   -3.328880
  C      3.623800    7.527420   -2.778810
  C      3.271130    7.490870   -1.457370
  C      6.086110    1.066770    0.538360
  C      5.806520    0.035380    1.475700
  C      6.428830   -1.161820    1.671630
  C      5.757000   -1.896250    2.748010
  N      4.714930   -1.153170    3.173210
  C      4.656860    0.036780    2.432890
  O      3.773330    0.847640    2.549420
  C      3.794610   -1.419310    4.248200
  C      6.423370   -3.070840    2.951710
  C      7.561210   -3.076480    1.993710
  O      8.418480   -3.899620    1.809940
  N      7.487830   -1.880300    1.250080
  C      8.427290   -1.536170    0.217580
  C      6.133200   -4.177820    3.832370
  N      7.054580   -5.120920    3.992530
  C      6.705260   -6.153660    4.758080
  N      5.541520   -6.236800    5.411520
  C      4.710260   -5.241730    5.205130
  N      4.924120   -4.208420    4.412180
  C      7.610690   -7.267370    4.899000
  C      8.954580   -7.379650    4.701970
  C      9.354730   -8.759250    4.992310
  N      8.262900   -9.467020    5.334490
  C      7.127390   -8.620750    5.294410
  O      6.019070   -9.018530    5.521910
  C      8.185320  -10.869100    5.641010
  C     10.693940   -8.899340    4.773050
  C     11.171750   -7.534250    4.389780
  O     12.299040   -7.163060    4.179660
  N     10.058700   -6.680770    4.373710
  C     10.161040   -5.278210    4.072210
  C     11.522560  -10.040090    4.948690
  C     12.729000  -10.304250    4.389760
  C     13.610370  -11.340420    5.004390
  O     13.267810  -12.164030    5.825050
  C     14.944430  -11.095680    4.433520
  C     14.856280  -10.105700    3.452560
  C     13.462880   -9.706140    3.293450
  C     12.917760   -9.110520    2.189600
  C     11.526410   -8.986080    2.006070
  N     10.394850   -8.914410    1.824980
  C     13.662510   -8.641210    1.088690
  N     14.220440   -8.241840    0.168770
  C     16.001530   -9.665560    2.777190
  C     17.209060  -10.232340    3.091810
  C     17.330880  -11.248770    4.065270
  C     16.173630  -11.699540    4.764540
  C     16.300690  -12.711250    5.737750
  C     17.525680  -13.257820    6.005140
  C     18.668870  -12.818810    5.318440
  C     18.575190  -11.836450    4.370970
  H      3.504810    5.348190    2.601090
  H      2.728000    7.163090    1.141000
  H      5.498850    4.704870   -2.965610
  H      4.699060    6.568370   -4.373950
  H      3.281110    8.334140   -3.409680
  H      2.649560    8.265450   -1.032030
  H      6.578980    0.765460   -0.380860
  H      3.766530   -2.493290    4.425730
  H      2.813610   -1.038470    3.965830
  H      4.123260   -0.905650    5.154550
  H      9.223330   -2.279850    0.241060
  H      8.841700   -0.544110    0.401160
  H      7.950260   -1.553840   -0.764050
  H      3.759990   -5.274710    5.724390
  H      8.685890  -11.452390    4.867190
  H      7.129180  -11.134840    5.680390
  H      8.643520  -11.081820    6.608870
  H     11.165610   -5.097550    3.692900
  H     10.001550   -4.683770    4.973770
  H      9.417580   -5.001580    3.325450
  H     11.187570  -10.768510    5.680970
  H     15.936870   -8.886010    2.035680
  H     18.104290   -9.900610    2.585800
  H     15.415720  -13.040060    6.259260
  H     17.622170  -14.034020    6.749570
  H     19.626220  -13.263980    5.545810
  H     19.453650  -11.497050    3.841390

 Total Charge           Charge          ....    0
 Multiplicity           Mult            ....    1
 Number of Electrons    NEL             ....  470
 Basis Dimension        Dim             .... 1115

ORBITAL ENERGIES
----------------

  NO   OCC          E(Eh)            E(eV)
   0   2.0000     -19.226261      -523.1732
   1   2.0000     -19.225733      -523.1588
   2   2.0000     -19.220254      -523.0097
   3   2.0000     -19.218749      -522.9687
   4   2.0000     -19.215906      -522.8914
   5   2.0000     -19.214967      -522.8658
   6   2.0000     -14.482589      -394.0913
   7   2.0000     -14.478820      -393.9887
   8   2.0000     -14.475492      -393.8982
   9   2.0000     -14.470968      -393.7750
  10   2.0000     -14.423066      -392.4716
  11   2.0000     -14.421418      -392.4267
  12   2.0000     -14.419787      -392.3824
  13   2.0000     -14.414106      -392.2278
  14   2.0000     -14.413507      -392.2115
  15   2.0000     -14.412240      -392.1770
  16   2.0000     -14.408594      -392.0778
  17   2.0000     -10.406003      -283.1617
  18   2.0000     -10.403765      -283.1008
  19   2.0000     -10.397179      -282.9216
  20   2.0000     -10.396503      -282.9032
  21   2.0000     -10.373849      -282.2868
  22   2.0000     -10.370159      -282.1864
  23   2.0000     -10.370152      -282.1862
  24   2.0000     -10.365155      -282.0502
  25   2.0000     -10.364961      -282.0449
  26   2.0000     -10.362122      -281.9677
  27   2.0000     -10.356624      -281.8181
  28   2.0000     -10.355461      -281.7864
  29   2.0000     -10.355328      -281.7828
  30   2.0000     -10.342244      -281.4268
  31   2.0000     -10.339762      -281.3592
  32   2.0000     -10.336495      -281.2703
  33   2.0000     -10.333624      -281.1922
  34   2.0000     -10.323881      -280.9271
  35   2.0000     -10.322137      -280.8796
  36   2.0000     -10.320551      -280.8365
  37   2.0000     -10.318362      -280.7769
  38   2.0000     -10.316154      -280.7168
  39   2.0000     -10.314742      -280.6784
  40   2.0000     -10.314297      -280.6663
  41   2.0000     -10.311368      -280.5866
  42   2.0000     -10.309096      -280.5248
  43   2.0000     -10.308399      -280.5058
  44   2.0000     -10.304329      -280.3951
  45   2.0000     -10.303292      -280.3668
  46   2.0000     -10.300896      -280.3016
  47   2.0000     -10.299729      -280.2699
  48   2.0000     -10.298798      -280.2446
  49   2.0000     -10.296884      -280.1925
  50   2.0000     -10.296314      -280.1770
  51   2.0000     -10.295837      -280.1640
  52   2.0000     -10.295454      -280.1536
  53   2.0000     -10.295144      -280.1451
  54   2.0000     -10.292907      -280.0843
  55   2.0000     -10.292789      -280.0810
  56   2.0000     -10.291681      -280.0509
  57   2.0000     -10.291129      -280.0359
  58   2.0000     -10.290823      -280.0275
  59   2.0000     -10.290612      -280.0218
  60   2.0000     -10.289597      -279.9942
  61   2.0000     -10.286609      -279.9129
  62   2.0000     -10.283937      -279.8401
  63   2.0000     -10.283383      -279.8251
  64   2.0000     -10.281751      -279.7807
  65   2.0000     -10.280352      -279.7426
  66   2.0000     -10.279810      -279.7279
  67   2.0000     -10.278230      -279.6849
  68   2.0000     -10.277876      -279.6752
  69   2.0000     -10.274117      -279.5729
  70   2.0000      -1.169800       -31.8319
  71   2.0000      -1.162438       -31.6315
  72   2.0000      -1.161434       -31.6042
  73   2.0000      -1.153956       -31.4007
  74   2.0000      -1.134755       -30.8783
  75   2.0000      -1.129362       -30.7315
  76   2.0000      -1.126226       -30.6462
  77   2.0000      -1.104628       -30.0585
  78   2.0000      -1.097021       -29.8514
  79   2.0000      -1.070631       -29.1333
  80   2.0000      -1.063104       -28.9285
  81   2.0000      -1.019560       -27.7436
  82   2.0000      -1.013553       -27.5802
  83   2.0000      -1.003550       -27.3080
  84   2.0000      -1.000843       -27.2343
  85   2.0000      -0.998235       -27.1633
  86   2.0000      -0.994942       -27.0737
  87   2.0000      -0.994388       -27.0587
  88   2.0000      -0.988981       -26.9115
  89   2.0000      -0.969369       -26.3779
  90   2.0000      -0.964697       -26.2507
  91   2.0000      -0.940171       -25.5833
  92   2.0000      -0.933402       -25.3992
  93   2.0000      -0.928254       -25.2591
  94   2.0000      -0.922132       -25.0925
  95   2.0000      -0.919024       -25.0079
  96   2.0000      -0.914063       -24.8729
  97   2.0000      -0.901019       -24.5180
  98   2.0000      -0.895733       -24.3741
  99   2.0000      -0.877428       -23.8760
 100   2.0000      -0.872151       -23.7324
 101   2.0000      -0.855268       -23.2730
 102   2.0000      -0.850741       -23.1499
 103   2.0000      -0.838813       -22.8253
 104   2.0000      -0.834895       -22.7187
 105   2.0000      -0.831740       -22.6328
 106   2.0000      -0.824908       -22.4469
 107   2.0000      -0.808616       -22.0036
 108   2.0000      -0.803684       -21.8694
 109   2.0000      -0.781808       -21.2741
 110   2.0000      -0.779587       -21.2137
 111   2.0000      -0.777739       -21.1634
 112   2.0000      -0.772167       -21.0117
 113   2.0000      -0.767982       -20.8979
 114   2.0000      -0.763506       -20.7761
 115   2.0000      -0.752121       -20.4663
 116   2.0000      -0.744259       -20.2523
 117   2.0000      -0.715934       -19.4816
 118   2.0000      -0.711833       -19.3700
 119   2.0000      -0.710518       -19.3342
 120   2.0000      -0.708221       -19.2717
 121   2.0000      -0.705766       -19.2049
 122   2.0000      -0.702181       -19.1073
 123   2.0000      -0.697047       -18.9676
 124   2.0000      -0.685959       -18.6659
 125   2.0000      -0.677865       -18.4456
 126   2.0000      -0.673633       -18.3305
 127   2.0000      -0.670710       -18.2509
 128   2.0000      -0.664087       -18.0707
 129   2.0000      -0.651453       -17.7269
 130   2.0000      -0.641292       -17.4504
 131   2.0000      -0.637037       -17.3347
 132   2.0000      -0.630163       -17.1476
 133   2.0000      -0.629173       -17.1207
 134   2.0000      -0.624486       -16.9931
 135   2.0000      -0.619431       -16.8556
 136   2.0000      -0.611823       -16.6486
 137   2.0000      -0.604407       -16.4468
 138   2.0000      -0.603429       -16.4201
 139   2.0000      -0.596321       -16.2267
 140   2.0000      -0.595217       -16.1967
 141   2.0000      -0.592471       -16.1219
 142   2.0000      -0.589331       -16.0365
 143   2.0000      -0.588020       -16.0008
 144   2.0000      -0.585890       -15.9429
 145   2.0000      -0.583702       -15.8833
 146   2.0000      -0.578447       -15.7403
 147   2.0000      -0.568970       -15.4825
 148   2.0000      -0.566504       -15.4154
 149   2.0000      -0.563100       -15.3227
 150   2.0000      -0.561141       -15.2694
 151   2.0000      -0.560851       -15.2615
 152   2.0000      -0.558780       -15.2052
 153   2.0000      -0.553141       -15.0517
 154   2.0000      -0.545050       -14.8316
 155   2.0000      -0.542339       -14.7578
 156   2.0000      -0.539362       -14.6768
 157   2.0000      -0.537208       -14.6182
 158   2.0000      -0.536074       -14.5873
 159   2.0000      -0.532000       -14.4765
 160   2.0000      -0.528427       -14.3792
 161   2.0000      -0.526449       -14.3254
 162   2.0000      -0.524834       -14.2815
 163   2.0000      -0.522524       -14.2186
 164   2.0000      -0.520693       -14.1688
 165   2.0000      -0.515058       -14.0155
 166   2.0000      -0.512878       -13.9561
 167   2.0000      -0.510442       -13.8898
 168   2.0000      -0.509054       -13.8521
 169   2.0000      -0.507168       -13.8008
 170   2.0000      -0.506734       -13.7889
 171   2.0000      -0.506153       -13.7731
 172   2.0000      -0.504795       -13.7362
 173   2.0000      -0.502509       -13.6740
 174   2.0000      -0.501046       -13.6341
 175   2.0000      -0.498970       -13.5777
 176   2.0000      -0.497664       -13.5421
 177   2.0000      -0.492817       -13.4102
 178   2.0000      -0.489504       -13.3201
 179   2.0000      -0.488521       -13.2933
 180   2.0000      -0.485226       -13.2037
 181   2.0000      -0.483108       -13.1460
 182   2.0000      -0.480478       -13.0745
 183   2.0000      -0.478428       -13.0187
 184   2.0000      -0.477534       -12.9944
 185   2.0000      -0.475312       -12.9339
 186   2.0000      -0.472443       -12.8558
 187   2.0000      -0.468326       -12.7438
 188   2.0000      -0.466016       -12.6809
 189   2.0000      -0.462333       -12.5807
 190   2.0000      -0.457632       -12.4528
 191   2.0000      -0.450951       -12.2710
 192   2.0000      -0.449805       -12.2398
 193   2.0000      -0.445832       -12.1317
 194   2.0000      -0.444023       -12.0825
 195   2.0000      -0.441865       -12.0238
 196   2.0000      -0.439451       -11.9581
 197   2.0000      -0.438391       -11.9292
 198   2.0000      -0.434820       -11.8321
 199   2.0000      -0.434100       -11.8125
 200   2.0000      -0.433922       -11.8076
 201   2.0000      -0.430211       -11.7066
 202   2.0000      -0.429149       -11.6777
 203   2.0000      -0.426982       -11.6188
 204   2.0000      -0.425650       -11.5825
 205   2.0000      -0.425206       -11.5704
 206   2.0000      -0.422277       -11.4907
 207   2.0000      -0.419945       -11.4273
 208   2.0000      -0.417126       -11.3506
 209   2.0000      -0.413761       -11.2590
 210   2.0000      -0.409615       -11.1462
 211   2.0000      -0.402994       -10.9660
 212   2.0000      -0.398844       -10.8531
 213   2.0000      -0.396403       -10.7867
 214   2.0000      -0.390293       -10.6204
 215   2.0000      -0.381687       -10.3862
 216   2.0000      -0.376364       -10.2414
 217   2.0000      -0.374718       -10.1966
 218   2.0000      -0.370959       -10.0943
 219   2.0000      -0.365599        -9.9484
 220   2.0000      -0.360793        -9.8177
 221   2.0000      -0.352357        -9.5881
 222   2.0000      -0.347579        -9.4581
 223   2.0000      -0.342177        -9.3111
 224   2.0000      -0.337161        -9.1746
 225   2.0000      -0.332662        -9.0522
 226   2.0000      -0.331820        -9.0293
 227   2.0000      -0.316732        -8.6187
 228   2.0000      -0.313847        -8.5402
 229   2.0000      -0.312018        -8.4904
 230   2.0000      -0.306921        -8.3517
 231   2.0000      -0.294348        -8.0096
 232   2.0000      -0.289424        -7.8756
 233   2.0000      -0.288865        -7.8604
 234   2.0000      -0.282963        -7.6998
 235   0.0000      -0.100714        -2.7406
 236   0.0000      -0.092408        -2.5145
 237   0.0000      -0.073894        -2.0108
 238   0.0000      -0.068832        -1.8730
 239   0.0000      -0.050175        -1.3653

MULLIKEN ATOMIC CHARGES
-----------------------
   0 C :   -0.114014
   1 C :    0.111574
   2 O :   -0.153406
   3 C :    0.013451
   4 C :   -0.009150
   5 C :    0.302656
   6 C :   -0.302392
   7 C :   -0.191821
   8 N :    0.139450
   9 C :   -0.187528
  10 N :    0.160041
  11 C :   -0.015331
  12 C :    0.004596
  13 C :    0.078718
  14 C :    0.033962
  15 C :   -0.027119
  16 C :    0.039015
  17 C :    0.038372
  18 C :   -0.020025
  19 C :   -0.028381
  20 C :   -0.134550
  21 C :    0.191358
  22 C :    0.205741
  23 N :   -0.209362
  24 C :    0.147912
  25 O :   -0.148686
  26 C :    0.135719
  27 C :   -0.109512
  28 C :    0.191404
  29 O :   -0.135314
  30 N :   -0.228327
  31 C :    0.115227
  32 C :   -0.096977
  33 N :   -0.027123
  34 C :   -0.129099
  35 N :   -0.057255
  36 C :    0.129963
  37 N :   -0.134330
  38 C :   -0.095590
  39 C :    0.209661
  40 C :    0.197644
  41 N :   -0.232005
  42 C :    0.168243
  43 O :   -0.116705
  44 C :    0.116576
  45 C :   -0.141784
  46 C :    0.155343
  47 O :   -0.152138
  48 N :   -0.216415
  49 C :    0.123788
  50 C :   -0.033836
  51 C :   -0.115888
  52 C :    0.116850
  53 O :   -0.157095
  54 C :    0.009173
  55 C :   -0.009570
  56 C :    0.301861
  57 C :   -0.301652
  58 C :   -0.195373
  59 N :    0.143580
  60 C :   -0.187378
  61 N :    0.159892
  62 C :   -0.021109
  63 C :    0.008993
  64 C :    0.074947
  65 C :    0.035193
  66 C :   -0.024307
  67 C :    0.034493
  68 C :    0.037861
  69 C :   -0.017827
  70 H :    0.004453
  71 H :   -0.012036
  72 H :   -0.000756
  73 H :   -0.006509
  74 H :   -0.006331
  75 H :   -0.020846
  76 H :    0.006835
  77 H :    0.050100
  78 H :    0.040426
  79 H :    0.038949
  80 H :    0.065273
  81 H :    0.050478
  82 H :    0.051501
  83 H :    0.016871
  84 H :    0.050451
  85 H :    0.062090
  86 H :    0.048070
  87 H :    0.042683
  88 H :    0.023036
  89 H :    0.082313
  90 H :    0.006521
  91 H :    0.004839
  92 H :   -0.013928
  93 H :   -0.002164
  94 H :   -0.006805
  95 H :   -0.008292
  96 H :   -0.022109
Sum of atomic charges:   -0.0000000

LOEWDIN ATOMIC CHARGES
----------------------
   0 C :   -0.073464
   1 C :    0.088873
   2 O :   -0.143989
   3 C :   -0.034700
   4 C :    0.001527
   5 C :    0.079718
   6 C :   -0.128075
   7 C :   -0.009264
   8 N :   -0.065843
   9 C :   -0.019018
  10 N :   -0.049406
  11 C :   -0.014456
  12 C :    0.020786
  13 C :   -0.009621
  14 C :   -0.002543
  15 C :   -0.003062
  16 C :   -0.011968
  17 C :   -0.013035
  18 C :   -0.011751
  19 C :    0.052044
  20 C :   -0.122918
  21 C :    0.084021
  22 C :    0.098274
  23 N :    0.008602
  24 C :    0.104707
  25 O :   -0.142482
  26 C :    0.029582
  27 C :   -0.139533
  28 C :    0.115373
  29 O :   -0.128026
  30 N :   -0.007139
  31 C :    0.037462
  32 C :    0.058146
  33 N :   -0.087356
  34 C :    0.059431
  35 N :   -0.089486
  36 C :    0.077446
  37 N :   -0.108988
  38 C :   -0.136615
  39 C :    0.096424
  40 C :    0.086216
  41 N :   -0.008732
  42 C :    0.108223
  43 O :   -0.123762
  44 C :    0.036511
  45 C :   -0.127129
  46 C :    0.105027
  47 O :   -0.146505
  48 N :    0.009297
  49 C :    0.029014
  50 C :    0.053745
  51 C :   -0.077685
  52 C :    0.088843
  53 O :   -0.147155
  54 C :   -0.035501
  55 C :    0.001651
  56 C :    0.078727
  57 C :   -0.127044
  58 C :   -0.011369
  59 N :   -0.061670
  60 C :   -0.018305
  61 N :   -0.052070
  62 C :   -0.014781
  63 C :    0.019542
  64 C :   -0.010344
  65 C :   -0.002653
  66 C :   -0.003180
  67 C :   -0.013395
  68 C :   -0.014302
  69 C :   -0.012292
  70 H :    0.041011
  71 H :    0.035921
  72 H :    0.035088
  73 H :    0.032669
  74 H :    0.032089
  75 H :    0.030537
  76 H :    0.044460
  77 H :    0.027106
  78 H :    0.033464
  79 H :    0.031033
  80 H :    0.044986
  81 H :    0.035751
  82 H :    0.032417
  83 H :    0.023400
  84 H :    0.035618
  85 H :    0.043644
  86 H :    0.031041
  87 H :    0.035056
  88 H :    0.024938
  89 H :    0.032994
  90 H :    0.044051
  91 H :    0.040765
  92 H :    0.035216
  93 H :    0.034707
  94 H :    0.032137
  95 H :    0.031326
  96 H :    0.029979

  Mayer bond orders larger than 0.100000
B(  0-C ,  1-C ) :   0.9520 B(  0-C ,  5-C ) :   1.0090 B(  0-C , 19-C ) :   1.7155
B(  1-C ,  2-O ) :   2.1869 B(  1-C ,  3-C ) :   0.9456 B(  3-C ,  4-C ) :   1.4081
B(  3-C , 14-C ) :   1.2323 B(  4-C ,  5-C ) :   1.0070 B(  4-C , 11-C ) :   1.2630
B(  5-C ,  6-C ) :   1.6616 B(  6-C ,  7-C ) :   1.1668 B(  6-C ,  9-C ) :   1.1344
B(  7-C ,  8-N ) :   2.9835 B(  9-C , 10-N ) :   2.9986 B( 11-C , 12-C ) :   1.4673
B( 11-C , 70-H ) :   0.9859 B( 12-C , 13-C ) :   1.2227 B( 12-C , 71-H ) :   0.9943
B( 13-C , 14-C ) :   1.2430 B( 13-C , 18-C ) :   1.2405 B( 14-C , 15-C ) :   1.2763
B( 15-C , 16-C ) :   1.4743 B( 15-C , 72-H ) :   0.9866 B( 16-C , 17-C ) :   1.2567
B( 16-C , 73-H ) :   0.9871 B( 17-C , 18-C ) :   1.4941 B( 17-C , 74-H ) :   0.9888
B( 18-C , 75-H ) :   0.9977 B( 19-C , 20-C ) :   1.0890 B( 19-C , 76-H ) :   0.9483
B( 20-C , 21-C ) :   1.5199 B( 20-C , 24-C ) :   0.9021 B( 21-C , 22-C ) :   1.0310
B( 21-C , 30-N ) :   1.2215 B( 22-C , 23-N ) :   1.2336 B( 22-C , 27-C ) :   1.5488
B( 23-N , 24-C ) :   1.0202 B( 23-N , 26-C ) :   0.9326 B( 24-C , 25-O ) :   2.1754
B( 26-C , 77-H ) :   0.9390 B( 26-C , 78-H ) :   0.9600 B( 26-C , 79-H ) :   0.9727
B( 27-C , 28-C ) :   0.9356 B( 27-C , 32-C ) :   0.9841 B( 28-C , 29-O ) :   2.1309
B( 28-C , 30-N ) :   1.0012 B( 30-N , 31-C ) :   0.9453 B( 31-C , 80-H ) :   0.9554
B( 31-C , 81-H ) :   0.9714 B( 31-C , 82-H ) :   0.9741 B( 32-C , 33-N ) :   1.6055
B( 32-C , 37-N ) :   1.5590 B( 33-N , 34-C ) :   1.5593 B( 34-C , 35-N ) :   1.6155
B( 34-C , 38-C ) :   0.9774 B( 35-N , 36-C ) :   1.5305 B( 36-C , 37-N ) :   1.4595
B( 36-C , 83-H ) :   0.9743 B( 38-C , 39-C ) :   1.5720 B( 38-C , 42-C ) :   0.9302
B( 39-C , 40-C ) :   1.0285 B( 39-C , 48-N ) :   1.2278 B( 40-C , 41-N ) :   1.2326
B( 40-C , 45-C ) :   1.5098 B( 41-N , 42-C ) :   0.9778 B( 41-N , 44-C ) :   0.9491
B( 42-C , 43-O ) :   2.2360 B( 44-C , 84-H ) :   0.9713 B( 44-C , 85-H ) :   0.9552
B( 44-C , 86-H ) :   0.9740 B( 45-C , 46-C ) :   0.9016 B( 45-C , 50-C ) :   1.0935
B( 46-C , 47-O ) :   2.1671 B( 46-C , 48-N ) :   1.0265 B( 48-N , 49-C ) :   0.9262
B( 49-C , 87-H ) :   0.9525 B( 49-C , 88-H ) :   0.9711 B( 49-C , 89-H ) :   0.9482
B( 50-C , 51-C ) :   1.7052 B( 50-C , 90-H ) :   0.9496 B( 51-C , 52-C ) :   0.9551
B( 51-C , 56-C ) :   1.0147 B( 52-C , 53-O ) :   2.1826 B( 52-C , 54-C ) :   0.9446
B( 54-C , 55-C ) :   1.4131 B( 54-C , 65-C ) :   1.2350 B( 55-C , 56-C ) :   1.0051
B( 55-C , 62-C ) :   1.2619 B( 56-C , 57-C ) :   1.6627 B( 57-C , 58-C ) :   1.1635
B( 57-C , 60-C ) :   1.1357 B( 58-C , 59-N ) :   2.9921 B( 60-C , 61-N ) :   2.9986
B( 62-C , 63-C ) :   1.4664 B( 62-C , 91-H ) :   0.9873 B( 63-C , 64-C ) :   1.2231
B( 63-C , 92-H ) :   0.9939 B( 64-C , 65-C ) :   1.2426 B( 64-C , 69-C ) :   1.2409
B( 65-C , 66-C ) :   1.2759 B( 66-C , 67-C ) :   1.4743 B( 66-C , 93-H ) :   0.9866
B( 67-C , 68-C ) :   1.2548 B( 67-C , 94-H ) :   0.9883 B( 68-C , 69-C ) :   1.4956
B( 68-C , 95-H ) :   0.9894 B( 69-C , 96-H ) :   0.9971

-----------------------------------------------------------------------------
         ABSORPTION SPECTRUM VIA TRANSITION ELECTRIC DIPOLE MOMENTS
-----------------------------------------------------------------------------
State   Energy  Wavelength   fosc         T2         TX        TY        TZ
        (cm-1)    (nm)                  (au**2)     (au)      (au)      (au)
-----------------------------------------------------------------------------
   0   21438.3    466.5   0.131681383   2.02213   0.90736  -1.01522  -0.41007
   1   21500.1    465.1   0.061935984   0.94837  -0.74337  -0.49342   0.39026
   2   25322.4    394.9   0.346418197   4.50371   0.97400  -1.69221   0.83155
   3   25671.4    389.5   0.234284304   3.00448  -1.60126   0.66212   0.04540
   4   26967.3    370.8   0.195991346   2.39262   0.75118  -1.31933  -0.29615
   5   27145.7    368.4   0.027066536   0.32825   0.15121  -0.43251   0.34398
   6   27851.0    359.1   0.244351921   2.88836  -1.00045   1.30654  -0.42476
   7   28040.6    356.6   0.695167613   8.16165  -2.12610   1.87837  -0.33627
   8   28554.5    350.2   0.268799017   3.09905  -1.65416  -0.26580   0.54051
   9   29230.9    342.1   0.175259855   1.97386  -1.20380   0.72121   0.06759
  10   29583.2    338.0   0.331152909   3.68519  -0.59189   1.80519   0.27593
  11   29717.5    336.5   0.127197859   1.40910  -0.93203  -0.17740   0.71341
  12   29932.2    334.1   0.031244495   0.34365  -0.40527  -0.30000   0.29901
  13   30232.4    330.8   0.135556973   1.47613  -0.63652   0.93604  -0.44135
  14   30475.3    328.1   0.071926245   0.77699  -0.70758  -0.44475   0.28021
  15   30760.2    325.1   0.037948671   0.40615  -0.37882  -0.50601   0.08121
  16   31063.6    321.9   0.141827742   1.50309  -0.14638   0.08144   1.21451
  17   31306.7    319.4   0.092880016   0.97670  -0.00612  -0.31693   0.93606
  18   31571.1    316.7   0.039424469   0.41110   0.11913  -0.57598  -0.25526
  19   31736.9    315.1   0.117833058   1.22230   0.25644  -0.30017   1.03268
  20   31953.6    313.0   0.029411929   0.30303   0.30774   0.13145  -0.43708
  21   32251.2    310.1   0.021541785   0.21989  -0.29422  -0.11221   0.34748
  22   32718.3    305.6   0.135274934   1.36114   0.63034  -0.87368   0.44775
  23   32864.8    304.3   0.651642741   6.52762   1.78537  -1.50859   1.03162
  24   33029.7    302.8   0.139154450   1.38697  -0.29749  -0.88279   0.72052
  25   33041.0    302.7   0.037591712   0.37455  -0.36025   0.49080  -0.06237
  26   33168.4    301.5   0.281360732   2.79264   0.01954  -0.98631   1.34887
  27   33635.4    297.3   0.084187321   0.82400   0.57131  -0.44304   0.54893
  28   33699.1    296.7   0.075567904   0.73823  -0.21667   0.78516  -0.27353
  29   33749.9    296.3   0.006791524   0.06625  -0.21939  -0.02057   0.13301
  30   34771.2    287.6   0.045524623   0.43102   0.64934  -0.08147   0.05245
  31   35768.2    279.6   0.240171088   2.21055  -0.57592   0.61131  -1.22685
  32   35945.0    278.2   0.024817558   0.22730  -0.09168   0.34637  -0.31452
  33   36177.3    276.4   0.120927584   1.10044   0.35379  -0.68028   0.71588
  34   36493.1    274.0   0.291926234   2.63353   1.29960  -0.59147   0.77119
  35   36665.1    272.7   0.002035120   0.01827   0.08925   0.10103   0.00999
  36   36992.6    270.3   0.082027268   0.72999  -0.37309   0.23522  -0.73175
  37   37770.3    264.8   0.003245318   0.02829  -0.11423   0.03566  -0.11818
  38   37800.5    264.5   0.018114072   0.15776  -0.10646  -0.07910  -0.37439
  39   37973.4    263.3   0.005314508   0.04607  -0.16104   0.10110  -0.09960
  40   38680.5    258.5   0.021358539   0.18178  -0.24777   0.09888  -0.33259
  41   38890.0    257.1   0.006174368   0.05227   0.08944  -0.15911  -0.13766
  42   39669.0    252.1   0.001231572   0.01022  -0.04948   0.07023  -0.05330
  43   40145.0    249.1   0.178591556   1.46455  -0.95405   0.71688  -0.20108
  44   40178.4    248.9   0.090601217   0.74236  -0.79742   0.29212  -0.14544
  45   40275.2    248.3   0.201163783   1.64432   0.44413  -1.06278   0.56353

FINAL SINGLE POINT ENERGY     -3085.680782199909

DIPOLE MOMENT
-------------
                                X             Y             Z
Electronic contribution:     -6.15129      -1.94787       3.63953
Nuclear contribution   :      6.14310       2.34788      -3.94443
                        -----------------------------------------
Total Dipole Moment    :     -0.00819       0.40001      -0.30490
                        -----------------------------------------
Magnitude (a.u.)       :      0.50303
Magnitude (Debye)      :      1.27861

Rotational constants in cm-1:     0.002485     0.000324     0.000300
Rotational constants in MHz :    74.501022     9.706936     8.988004

                             ****ORCA TERMINATED NORMALLY****
TOTAL RUN TIME: 0 days 0 hours 9 minutes 8 seconds 459 msec
