                         Program Version 4.2.0 -  RELEASE  -
|  1> # ORCA input file
|  2> # SCF done       -181.487697871756          0.000745512450
|  3> ! CAM-B3LYP def2-SVP def2/J RIJCOSX Grid4 TightSCF
|  4> %maxcore 5000
|  5> %tddft
|  6>     Mode sTDDFT
|  7>     Ethresh 5.0
|  8>     maxcore 5000
|  9> end
| 10>
| 11> %pal
| 12>   nprocs 6
| 13>   end
| 14> * xyz 0 1
| 15>    C        2.31008        -3.74440        -3.54450
| 16>    C        1.43128        -4.66892        -4.33158
| 17>    O        0.43079        -4.35135        -4.93072
| 18>    C        2.10307        -5.97416        -4.24868
| 19>    C        3.16326        -5.90313        -3.33899
| 20>    C        3.20361        -4.57251        -2.75352
| 21>    C        3.73124        -4.23841        -1.53381
| 22>    C        3.55457        -2.97674        -0.93327
| 23>    N        3.41594        -1.97389        -0.39045
| 24>    C        4.43411        -5.12673        -0.69833
| 25>    N        5.01003        -5.78962         0.04180
| 26>    C        3.99784        -7.00373        -3.11306
| 27>    C        3.74768        -8.16340        -3.79871
| 28>    C        2.67316        -8.27979        -4.70962
| 29>    C        1.82237        -7.16122        -4.95360
| 30>    C        0.76084        -7.28218        -5.87245
| 31>    C        0.54554        -8.46755        -6.52121
| 32>    C        1.37730        -9.57287        -6.28313
| 33>    C        2.41784        -9.48224        -5.39850
| 34>    C        2.27700        -2.40774        -3.73543
| 35>    C        3.30874        -1.49244        -3.36843
| 36>    C        3.13188        -0.10249        -2.91460
| 37>    N        4.23965         0.50868        -2.62616
| 38>    C        5.23772        -0.38270        -2.89177
| 39>    C        4.67102        -1.65561        -3.38773
| 40>    C        5.72812        -2.58333        -3.69868
| 41>    S        5.57499        -4.08060        -4.36308
| 42>    C        6.92906        -1.89276        -3.30266
| 43>    C        6.59268        -0.53760        -2.81256
| 44>    N        7.70965         0.08825        -2.33337
| 45>    C        8.66970        -0.77658        -2.43962
| 46>    C        8.26682        -2.05877        -3.03948
| 47>    C        9.09314        -3.20870        -3.16547
| 48>    S       10.40993        -3.44080        -2.04808
| 49>    C       10.66552        -5.06182        -2.58537
| 50>    C        9.80674        -5.35399        -3.64811
| 51>    C        8.91882        -4.31768        -3.96082
| 52>    N        9.67980        -6.63369        -4.26338
| 53>    O       10.17696        -7.58933        -3.69863
| 54>    O        9.07688        -6.68528        -5.31060
| 55>    C       11.49093        -5.93866        -1.82349
| 56>    C       12.28006        -7.10893        -2.24312
| 57>    N       12.69017        -7.83991        -1.25301
| 58>    C       12.20016        -7.26580        -0.12249
| 59>    C       11.56702        -5.96364        -0.45010
| 60>    C       10.93422        -5.39709         0.71061
| 61>    S       10.36167        -3.87177         0.94707
| 62>    C       10.95847        -6.49246         1.64268
| 63>    C       11.85326        -7.57490         1.16378
| 64>    N       11.84440        -8.60702         2.04764
| 65>    C       10.96190        -8.30247         2.95126
| 66>    C       10.29162        -7.01571         2.72163
| 67>    C        9.17837        -6.46405         3.43503
| 68>    C        8.18139        -5.75282         2.86736
| 69>    C        7.30367        -4.84110         3.66970
| 70>    O        7.09576        -4.91757         4.85654
| 71>    C        6.86021        -3.82174         2.70208
| 72>    C        7.25580        -4.18992         1.41225
| 73>    C        7.89263        -5.49368         1.46504
| 74>    C        8.00632        -6.38788         0.43864
| 75>    C        8.44877        -7.71507         0.62053
| 76>    N        8.78590        -8.80505         0.74061
| 77>    C        7.67977        -6.09837        -0.89810
| 78>    N        7.49934        -5.90362        -2.01564
| 79>    C        7.02030        -3.34669         0.31804
| 80>    C        6.38650        -2.15335         0.53473
| 81>    C        5.93210        -1.76910         1.81616
| 82>    C        6.17351        -2.61476         2.93929
| 83>    C        5.72227        -2.21806         4.21408
| 84>    C        5.04613        -1.03791         4.36560
| 85>    C        4.79780        -0.20852         3.26065
| 86>    C        5.23404        -0.56225         2.01209
| 87>    H        4.83806        -6.92705        -2.44113
| 88>    H        4.38794        -9.02067        -3.65085
| 89>    H        0.12943        -6.42582        -6.04978
| 90>    H       -0.26853        -8.56003        -7.22432
| 91>    H        1.19001       -10.49843        -6.80684
| 92>    H        3.05956       -10.33147        -5.21482
| 93>    H        1.42398        -2.00602        -4.27223
| 94>    H        2.18200         0.38913        -2.80036
| 95>    H        9.66880        -0.54073        -2.11624
| 96>    H        8.15411        -4.41575        -4.71005
| 97>    H       12.56108        -7.34497        -3.25285
| 98>    H       10.76229        -8.96287         3.77621
| 99>    H        9.15848        -6.58619         4.51213
|100>    H        7.35129        -3.62862        -0.66985
|101>    H        6.21224        -1.47156        -0.28530
|102>    H        5.91759        -2.86305         5.05633
|103>    H        4.69601        -0.73751         5.34192
|104>    H        4.25777         0.71539         3.40368
|105>    H        5.03953         0.06751         1.15718
|106> *
|107>
|108>                          ****END OF INPUT****

CARTESIAN COORDINATES (ANGSTROEM)
---------------------------------
  C      2.310080   -3.744400   -3.544500
  C      1.431280   -4.668920   -4.331580
  O      0.430790   -4.351350   -4.930720
  C      2.103070   -5.974160   -4.248680
  C      3.163260   -5.903130   -3.338990
  C      3.203610   -4.572510   -2.753520
  C      3.731240   -4.238410   -1.533810
  C      3.554570   -2.976740   -0.933270
  N      3.415940   -1.973890   -0.390450
  C      4.434110   -5.126730   -0.698330
  N      5.010030   -5.789620    0.041800
  C      3.997840   -7.003730   -3.113060
  C      3.747680   -8.163400   -3.798710
  C      2.673160   -8.279790   -4.709620
  C      1.822370   -7.161220   -4.953600
  C      0.760840   -7.282180   -5.872450
  C      0.545540   -8.467550   -6.521210
  C      1.377300   -9.572870   -6.283130
  C      2.417840   -9.482240   -5.398500
  C      2.277000   -2.407740   -3.735430
  C      3.308740   -1.492440   -3.368430
  C      3.131880   -0.102490   -2.914600
  N      4.239650    0.508680   -2.626160
  C      5.237720   -0.382700   -2.891770
  C      4.671020   -1.655610   -3.387730
  C      5.728120   -2.583330   -3.698680
  S      5.574990   -4.080600   -4.363080
  C      6.929060   -1.892760   -3.302660
  C      6.592680   -0.537600   -2.812560
  N      7.709650    0.088250   -2.333370
  C      8.669700   -0.776580   -2.439620
  C      8.266820   -2.058770   -3.039480
  C      9.093140   -3.208700   -3.165470
  S     10.409930   -3.440800   -2.048080
  C     10.665520   -5.061820   -2.585370
  C      9.806740   -5.353990   -3.648110
  C      8.918820   -4.317680   -3.960820
  N      9.679800   -6.633690   -4.263380
  O     10.176960   -7.589330   -3.698630
  O      9.076880   -6.685280   -5.310600
  C     11.490930   -5.938660   -1.823490
  C     12.280060   -7.108930   -2.243120
  N     12.690170   -7.839910   -1.253010
  C     12.200160   -7.265800   -0.122490
  C     11.567020   -5.963640   -0.450100
  C     10.934220   -5.397090    0.710610
  S     10.361670   -3.871770    0.947070
  C     10.958470   -6.492460    1.642680
  C     11.853260   -7.574900    1.163780
  N     11.844400   -8.607020    2.047640
  C     10.961900   -8.302470    2.951260
  C     10.291620   -7.015710    2.721630
  C      9.178370   -6.464050    3.435030
  C      8.181390   -5.752820    2.867360
  C      7.303670   -4.841100    3.669700
  O      7.095760   -4.917570    4.856540
  C      6.860210   -3.821740    2.702080
  C      7.255800   -4.189920    1.412250
  C      7.892630   -5.493680    1.465040
  C      8.006320   -6.387880    0.438640
  C      8.448770   -7.715070    0.620530
  N      8.785900   -8.805050    0.740610
  C      7.679770   -6.098370   -0.898100
  N      7.499340   -5.903620   -2.015640
  C      7.020300   -3.346690    0.318040
  C      6.386500   -2.153350    0.534730
  C      5.932100   -1.769100    1.816160
  C      6.173510   -2.614760    2.939290
  C      5.722270   -2.218060    4.214080
  C      5.046130   -1.037910    4.365600
  C      4.797800   -0.208520    3.260650
  C      5.234040   -0.562250    2.012090
  H      4.838060   -6.927050   -2.441130
  H      4.387940   -9.020670   -3.650850
  H      0.129430   -6.425820   -6.049780
  H     -0.268530   -8.560030   -7.224320
  H      1.190010  -10.498430   -6.806840
  H      3.059560  -10.331470   -5.214820
  H      1.423980   -2.006020   -4.272230
  H      2.182000    0.389130   -2.800360
  H      9.668800   -0.540730   -2.116240
  H      8.154110   -4.415750   -4.710050
  H     12.561080   -7.344970   -3.252850
  H     10.762290   -8.962870    3.776210
  H      9.158480   -6.586190    4.512130
  H      7.351290   -3.628620   -0.669850
  H      6.212240   -1.471560   -0.285300
  H      5.917590   -2.863050    5.056330
  H      4.696010   -0.737510    5.341920
  H      4.257770    0.715390    3.403680
  H      5.039530    0.067510    1.157180

 Total Charge           Charge          ....    0
 Multiplicity           Mult            ....    1
 Number of Electrons    NEL             ....  498
 Basis Dimension        Dim             .... 1115

ORBITAL ENERGIES
----------------

  NO   OCC          E(Eh)            E(eV)
   0   2.0000     -88.994106     -2421.6527
   1   2.0000     -88.923443     -2419.7299
   2   2.0000     -88.919795     -2419.6306
   3   2.0000     -19.249338      -523.8011
   4   2.0000     -19.248735      -523.7847
   5   2.0000     -19.226804      -523.1879
   6   2.0000     -19.219600      -522.9919
   7   2.0000     -14.656871      -398.8337
   8   2.0000     -14.435885      -392.8204
   9   2.0000     -14.431016      -392.6879
  10   2.0000     -14.427343      -392.5880
  11   2.0000     -14.425188      -392.5293
  12   2.0000     -14.423523      -392.4840
  13   2.0000     -14.422437      -392.4545
  14   2.0000     -14.420908      -392.4129
  15   2.0000     -14.415534      -392.2666
  16   2.0000     -10.378212      -282.4055
  17   2.0000     -10.371398      -282.2201
  18   2.0000     -10.359869      -281.9064
  19   2.0000     -10.359183      -281.8877
  20   2.0000     -10.354519      -281.7608
  21   2.0000     -10.353945      -281.7452
  22   2.0000     -10.352168      -281.6968
  23   2.0000     -10.350547      -281.6527
  24   2.0000     -10.350228      -281.6440
  25   2.0000     -10.349866      -281.6342
  26   2.0000     -10.348059      -281.5850
  27   2.0000     -10.347025      -281.5569
  28   2.0000     -10.345233      -281.5081
  29   2.0000     -10.343704      -281.4665
  30   2.0000     -10.343067      -281.4492
  31   2.0000     -10.340313      -281.3742
  32   2.0000     -10.339890      -281.3627
  33   2.0000     -10.339284      -281.3462
  34   2.0000     -10.331380      -281.1311
  35   2.0000     -10.331070      -281.1227
  36   2.0000     -10.330945      -281.1193
  37   2.0000     -10.329593      -281.0825
  38   2.0000     -10.329002      -281.0664
  39   2.0000     -10.328341      -281.0484
  40   2.0000     -10.325543      -280.9723
  41   2.0000     -10.325085      -280.9599
  42   2.0000     -10.318769      -280.7880
  43   2.0000     -10.318697      -280.7860
  44   2.0000     -10.318493      -280.7805
  45   2.0000     -10.317578      -280.7556
  46   2.0000     -10.316138      -280.7164
  47   2.0000     -10.315405      -280.6964
  48   2.0000     -10.315227      -280.6916
  49   2.0000     -10.314604      -280.6746
  50   2.0000     -10.312348      -280.6132
  51   2.0000     -10.310155      -280.5536
  52   2.0000     -10.306916      -280.4655
  53   2.0000     -10.302944      -280.3574
  54   2.0000     -10.301117      -280.3076
  55   2.0000     -10.299940      -280.2756
  56   2.0000     -10.298169      -280.2274
  57   2.0000     -10.297788      -280.2171
  58   2.0000     -10.295601      -280.1575
  59   2.0000     -10.293304      -280.0950
  60   2.0000     -10.293053      -280.0882
  61   2.0000     -10.292919      -280.0846
  62   2.0000     -10.290720      -280.0247
  63   2.0000     -10.289890      -280.0021
  64   2.0000     -10.285614      -279.8858
  65   2.0000     -10.285108      -279.8720
  66   2.0000     -10.284074      -279.8439
  67   2.0000     -10.280680      -279.7515
  68   2.0000     -10.277227      -279.6576
  69   2.0000     -10.276907      -279.6489
  70   2.0000     -10.275542      -279.6117
  71   2.0000     -10.273332      -279.5516
  72   2.0000      -8.088542      -220.1004
  73   2.0000      -8.018472      -218.1937
  74   2.0000      -8.015078      -218.1014
  75   2.0000      -6.057595      -164.8355
  76   2.0000      -6.053352      -164.7201
  77   2.0000      -6.051129      -164.6596
  78   2.0000      -5.987101      -162.9173
  79   2.0000      -5.987056      -162.9161
  80   2.0000      -5.983809      -162.8277
  81   2.0000      -5.983650      -162.8234
  82   2.0000      -5.977857      -162.6658
  83   2.0000      -5.974352      -162.5704
  84   2.0000      -1.330651       -36.2089
  85   2.0000      -1.149605       -31.2823
  86   2.0000      -1.142308       -31.0838
  87   2.0000      -1.135537       -30.8995
  88   2.0000      -1.102059       -29.9885
  89   2.0000      -1.095560       -29.8117
  90   2.0000      -1.082577       -29.4584
  91   2.0000      -1.074002       -29.2251
  92   2.0000      -1.030212       -28.0335
  93   2.0000      -1.025724       -27.9114
  94   2.0000      -1.021650       -27.8005
  95   2.0000      -1.008028       -27.4298
  96   2.0000      -1.005266       -27.3547
  97   2.0000      -1.002227       -27.2720
  98   2.0000      -0.997343       -27.1391
  99   2.0000      -0.982674       -26.7399
 100   2.0000      -0.979313       -26.6485
 101   2.0000      -0.974124       -26.5073
 102   2.0000      -0.966751       -26.3066
 103   2.0000      -0.934014       -25.4158
 104   2.0000      -0.931216       -25.3397
 105   2.0000      -0.926532       -25.2122
 106   2.0000      -0.921428       -25.0733
 107   2.0000      -0.914205       -24.8768
 108   2.0000      -0.910708       -24.7816
 109   2.0000      -0.904118       -24.6023
 110   2.0000      -0.898131       -24.4394
 111   2.0000      -0.886817       -24.1315
 112   2.0000      -0.875186       -23.8150
 113   2.0000      -0.871631       -23.7183
 114   2.0000      -0.867549       -23.6072
 115   2.0000      -0.861650       -23.4467
 116   2.0000      -0.851140       -23.1607
 117   2.0000      -0.844322       -22.9752
 118   2.0000      -0.834757       -22.7149
 119   2.0000      -0.832762       -22.6606
 120   2.0000      -0.827413       -22.5150
 121   2.0000      -0.805567       -21.9206
 122   2.0000      -0.794933       -21.6312
 123   2.0000      -0.785731       -21.3808
 124   2.0000      -0.779829       -21.2202
 125   2.0000      -0.776155       -21.1203
 126   2.0000      -0.771845       -21.0030
 127   2.0000      -0.763524       -20.7765
 128   2.0000      -0.754638       -20.5347
 129   2.0000      -0.746691       -20.3185
 130   2.0000      -0.723634       -19.6911
 131   2.0000      -0.718728       -19.5576
 132   2.0000      -0.717428       -19.5222
 133   2.0000      -0.712767       -19.3954
 134   2.0000      -0.711114       -19.3504
 135   2.0000      -0.710650       -19.3378
 136   2.0000      -0.705785       -19.2054
 137   2.0000      -0.696770       -18.9601
 138   2.0000      -0.690304       -18.7841
 139   2.0000      -0.684688       -18.6313
 140   2.0000      -0.677705       -18.4413
 141   2.0000      -0.677176       -18.4269
 142   2.0000      -0.663583       -18.0570
 143   2.0000      -0.658464       -17.9177
 144   2.0000      -0.648913       -17.6578
 145   2.0000      -0.643466       -17.5096
 146   2.0000      -0.638641       -17.3783
 147   2.0000      -0.636492       -17.3198
 148   2.0000      -0.635971       -17.3057
 149   2.0000      -0.629267       -17.1232
 150   2.0000      -0.614945       -16.7335
 151   2.0000      -0.611950       -16.6520
 152   2.0000      -0.608363       -16.5544
 153   2.0000      -0.605161       -16.4673
 154   2.0000      -0.595170       -16.1954
 155   2.0000      -0.593499       -16.1499
 156   2.0000      -0.592003       -16.1092
 157   2.0000      -0.588172       -16.0050
 158   2.0000      -0.586679       -15.9643
 159   2.0000      -0.586073       -15.9479
 160   2.0000      -0.582097       -15.8397
 161   2.0000      -0.580970       -15.8090
 162   2.0000      -0.572813       -15.5870
 163   2.0000      -0.566098       -15.4043
 164   2.0000      -0.563304       -15.3283
 165   2.0000      -0.562168       -15.2974
 166   2.0000      -0.558565       -15.1993
 167   2.0000      -0.555316       -15.1109
 168   2.0000      -0.550550       -14.9812
 169   2.0000      -0.546884       -14.8815
 170   2.0000      -0.544845       -14.8260
 171   2.0000      -0.540170       -14.6988
 172   2.0000      -0.535698       -14.5771
 173   2.0000      -0.531601       -14.4656
 174   2.0000      -0.529350       -14.4043
 175   2.0000      -0.526995       -14.3403
 176   2.0000      -0.524069       -14.2606
 177   2.0000      -0.518624       -14.1125
 178   2.0000      -0.517415       -14.0796
 179   2.0000      -0.514991       -14.0136
 180   2.0000      -0.511883       -13.9290
 181   2.0000      -0.510902       -13.9023
 182   2.0000      -0.510045       -13.8790
 183   2.0000      -0.508916       -13.8483
 184   2.0000      -0.507072       -13.7981
 185   2.0000      -0.504616       -13.7313
 186   2.0000      -0.504070       -13.7164
 187   2.0000      -0.502737       -13.6802
 188   2.0000      -0.500285       -13.6134
 189   2.0000      -0.497401       -13.5350
 190   2.0000      -0.493735       -13.4352
 191   2.0000      -0.492194       -13.3933
 192   2.0000      -0.485460       -13.2100
 193   2.0000      -0.484076       -13.1724
 194   2.0000      -0.481745       -13.1090
 195   2.0000      -0.479573       -13.0498
 196   2.0000      -0.477761       -13.0005
 197   2.0000      -0.472158       -12.8481
 198   2.0000      -0.467297       -12.7158
 199   2.0000      -0.464292       -12.6340
 200   2.0000      -0.462648       -12.5893
 201   2.0000      -0.461331       -12.5535
 202   2.0000      -0.457734       -12.4556
 203   2.0000      -0.456413       -12.4196
 204   2.0000      -0.453994       -12.3538
 205   2.0000      -0.450118       -12.2483
 206   2.0000      -0.445934       -12.1345
 207   2.0000      -0.445244       -12.1157
 208   2.0000      -0.442010       -12.0277
 209   2.0000      -0.440791       -11.9945
 210   2.0000      -0.438161       -11.9230
 211   2.0000      -0.437504       -11.9051
 212   2.0000      -0.433767       -11.8034
 213   2.0000      -0.432396       -11.7661
 214   2.0000      -0.429736       -11.6937
 215   2.0000      -0.425786       -11.5862
 216   2.0000      -0.424445       -11.5497
 217   2.0000      -0.422849       -11.5063
 218   2.0000      -0.420763       -11.4495
 219   2.0000      -0.417680       -11.3657
 220   2.0000      -0.409103       -11.1323
 221   2.0000      -0.401791       -10.9333
 222   2.0000      -0.398951       -10.8560
 223   2.0000      -0.391495       -10.6531
 224   2.0000      -0.387798       -10.5525
 225   2.0000      -0.382372       -10.4049
 226   2.0000      -0.380038       -10.3414
 227   2.0000      -0.374766       -10.1979
 228   2.0000      -0.372109       -10.1256
 229   2.0000      -0.368385       -10.0243
 230   2.0000      -0.367574       -10.0022
 231   2.0000      -0.363400        -9.8886
 232   2.0000      -0.361469        -9.8361
 233   2.0000      -0.355929        -9.6853
 234   2.0000      -0.354812        -9.6549
 235   2.0000      -0.345310        -9.3964
 236   2.0000      -0.343836        -9.3563
 237   2.0000      -0.335093        -9.1184
 238   2.0000      -0.329924        -8.9777
 239   2.0000      -0.326031        -8.8718
 240   2.0000      -0.322373        -8.7722
 241   2.0000      -0.318794        -8.6748
 242   2.0000      -0.313930        -8.5425
 243   2.0000      -0.306342        -8.3360
 244   2.0000      -0.303424        -8.2566
 245   2.0000      -0.296208        -8.0602
 246   2.0000      -0.294116        -8.0033
 247   2.0000      -0.288713        -7.8563
 248   2.0000      -0.286469        -7.7952
 249   0.0000      -0.129288        -3.5181
 250   0.0000      -0.115593        -3.1454
 251   0.0000      -0.107719        -2.9312
 252   0.0000      -0.100909        -2.7459
 253   0.0000      -0.076327        -2.0770

MULLIKEN ATOMIC CHARGES
-----------------------
   0 C :   -0.078617
   1 C :    0.117217
   2 O :   -0.140714
   3 C :    0.015822
   4 C :    0.013630
   5 C :    0.216606
   6 C :   -0.328895
   7 C :   -0.172113
   8 N :    0.161213
   9 C :   -0.143949
  10 N :    0.147422
  11 C :   -0.010311
  12 C :    0.014392
  13 C :    0.077241
  14 C :    0.031454
  15 C :   -0.024824
  16 C :    0.037088
  17 C :    0.040525
  18 C :   -0.018196
  19 C :    0.020286
  20 C :   -0.043798
  21 C :    0.092241
  22 N :   -0.023446
  23 C :    0.026662
  24 C :    0.006862
  25 C :    0.000918
  26 S :   -0.071298
  27 C :   -0.027487
  28 C :   -0.006269
  29 N :   -0.023262
  30 C :    0.045391
  31 C :    0.043756
  32 C :   -0.135978
  33 S :    0.228395
  34 C :   -0.169115
  35 C :    0.185660
  36 C :    0.048578
  37 N :    0.266185
  38 O :   -0.248492
  39 O :   -0.222761
  40 C :   -0.024331
  41 C :    0.120519
  42 N :   -0.032735
  43 C :    0.014665
  44 C :   -0.034875
  45 C :   -0.000198
  46 S :   -0.093916
  47 C :   -0.019438
  48 C :    0.048936
  49 N :   -0.019235
  50 C :    0.095376
  51 C :   -0.051262
  52 C :    0.038713
  53 C :   -0.084319
  54 C :    0.126964
  55 O :   -0.139889
  56 C :    0.007788
  57 C :    0.051423
  58 C :    0.208621
  59 C :   -0.298389
  60 C :   -0.193054
  61 N :    0.176685
  62 C :   -0.141246
  63 N :    0.122748
  64 C :   -0.035264
  65 C :    0.026684
  66 C :    0.079215
  67 C :    0.026244
  68 C :   -0.030886
  69 C :    0.041776
  70 C :    0.035487
  71 C :   -0.001343
  72 H :    0.000567
  73 H :   -0.004564
  74 H :   -0.000208
  75 H :   -0.004241
  76 H :   -0.004493
  77 H :   -0.015866
  78 H :    0.026511
  79 H :    0.014991
  80 H :    0.020308
  81 H :    0.004971
  82 H :    0.018605
  83 H :    0.015049
  84 H :    0.024531
  85 H :   -0.017100
  86 H :   -0.022129
  87 H :   -0.001872
  88 H :   -0.008648
  89 H :   -0.006900
  90 H :   -0.008996
Sum of atomic charges:   -0.0000000

LOEWDIN ATOMIC CHARGES
----------------------
   0 C :   -0.045415
   1 C :    0.088739
   2 O :   -0.134566
   3 C :   -0.031903
   4 C :   -0.001960
   5 C :    0.066236
   6 C :   -0.139051
   7 C :   -0.008281
   8 N :   -0.055516
   9 C :   -0.002476
  10 N :   -0.051848
  11 C :   -0.014554
  12 C :    0.027992
  13 C :   -0.007626
  14 C :   -0.002775
  15 C :   -0.002960
  16 C :   -0.010239
  17 C :   -0.010378
  18 C :   -0.009027
  19 C :    0.041136
  20 C :   -0.042708
  21 C :    0.103871
  22 N :   -0.070826
  23 C :    0.038513
  24 C :   -0.020513
  25 C :   -0.146865
  26 S :    0.147987
  27 C :   -0.039719
  28 C :    0.035765
  29 N :   -0.069900
  30 C :    0.083649
  31 C :   -0.048243
  32 C :   -0.186972
  33 S :    0.526324
  34 C :   -0.152304
  35 C :   -0.064970
  36 C :    0.000605
  37 N :    0.291724
  38 O :   -0.196338
  39 O :   -0.186130
  40 C :   -0.061779
  41 C :    0.107925
  42 N :   -0.070168
  43 C :    0.048996
  44 C :   -0.021939
  45 C :   -0.147019
  46 S :    0.091057
  47 C :   -0.016985
  48 C :    0.039152
  49 N :   -0.063409
  50 C :    0.100597
  51 C :   -0.047214
  52 C :    0.044608
  53 C :   -0.044381
  54 C :    0.091235
  55 O :   -0.133865
  56 C :   -0.024934
  57 C :    0.002095
  58 C :    0.072798
  59 C :   -0.134954
  60 C :   -0.019505
  61 N :   -0.047763
  62 C :   -0.000069
  63 N :   -0.073327
  64 C :   -0.032763
  65 C :    0.021184
  66 C :   -0.004265
  67 C :   -0.003079
  68 C :   -0.004941
  69 C :   -0.010411
  70 C :   -0.010257
  71 C :    0.001981
  72 H :    0.040347
  73 H :    0.039522
  74 H :    0.035386
  75 H :    0.033371
  76 H :    0.033014
  77 H :    0.032500
  78 H :    0.050302
  79 H :    0.030618
  80 H :    0.027279
  81 H :    0.028643
  82 H :    0.028812
  83 H :    0.030104
  84 H :    0.049436
  85 H :    0.028543
  86 H :    0.031026
  87 H :    0.034728
  88 H :    0.031930
  89 H :    0.032291
  90 H :    0.035071

  Mayer bond orders larger than 0.100000
B(  0-C ,  1-C ) :   0.9360 B(  0-C ,  5-C ) :   1.0011 B(  0-C , 19-C ) :   1.7659
B(  1-C ,  2-O ) :   2.2168 B(  1-C ,  3-C ) :   0.9446 B(  3-C ,  4-C ) :   1.4028
B(  3-C , 14-C ) :   1.2339 B(  4-C ,  5-C ) :   0.9992 B(  4-C , 11-C ) :   1.2591
B(  5-C ,  6-C ) :   1.6498 B(  6-C ,  7-C ) :   1.1772 B(  6-C ,  9-C ) :   1.1544
B(  7-C ,  8-N ) :   2.9465 B(  9-C , 10-N ) :   2.9177 B( 11-C , 12-C ) :   1.4675
B( 11-C , 72-H ) :   0.9894 B( 12-C , 13-C ) :   1.2168 B( 12-C , 73-H ) :   0.9952
B( 13-C , 14-C ) :   1.2392 B( 13-C , 18-C ) :   1.2464 B( 14-C , 15-C ) :   1.2774
B( 15-C , 16-C ) :   1.4728 B( 15-C , 74-H ) :   0.9866 B( 16-C , 17-C ) :   1.2590
B( 16-C , 75-H ) :   0.9876 B( 17-C , 18-C ) :   1.4913 B( 17-C , 76-H ) :   0.9888
B( 18-C , 77-H ) :   0.9973 B( 19-C , 20-C ) :   1.0213 B( 19-C , 78-H ) :   0.9437
B( 20-C , 21-C ) :   1.0067 B( 20-C , 24-C ) :   1.5557 B( 21-C , 22-N ) :   1.7252
B( 21-C , 79-H ) :   0.9953 B( 22-N , 23-C ) :   1.2645 B( 23-C , 24-C ) :   1.0629
B( 23-C , 28-C ) :   1.5195 B( 24-C , 25-C ) :   1.0238 B( 25-C , 26-S ) :   1.6908
B( 25-C , 27-C ) :   1.0309 B( 27-C , 28-C ) :   1.0545 B( 27-C , 31-C ) :   1.5615
B( 28-C , 29-N ) :   1.2496 B( 29-N , 30-C ) :   1.7324 B( 30-C , 31-C ) :   1.0160
B( 30-C , 80-H ) :   0.9928 B( 31-C , 32-C ) :   1.0786 B( 32-C , 33-S ) :   1.1062
B( 32-C , 36-C ) :   1.4539 B( 33-S , 34-C ) :   1.2123 B( 34-C , 35-C ) :   1.4330
B( 34-C , 40-C ) :   1.0498 B( 35-C , 36-C ) :   1.2842 B( 35-C , 37-N ) :   0.9129
B( 36-C , 81-H ) :   0.9881 B( 37-N , 38-O ) :   1.4960 B( 37-N , 39-O ) :   1.5634
B( 38-O , 39-O ) :   0.2617 B( 40-C , 41-C ) :   1.0346 B( 40-C , 44-C ) :   1.5969
B( 41-C , 42-N ) :   1.7347 B( 41-C , 82-H ) :   0.9896 B( 42-N , 43-C ) :   1.3054
B( 43-C , 44-C ) :   1.0277 B( 43-C , 48-C ) :   1.5026 B( 44-C , 45-C ) :   1.0151
B( 45-C , 46-S ) :   1.6781 B( 45-C , 47-C ) :   1.0193 B( 47-C , 48-C ) :   1.0297
B( 47-C , 51-C ) :   1.5902 B( 48-C , 49-N ) :   1.2996 B( 49-N , 50-C ) :   1.7236
B( 50-C , 51-C ) :   1.0306 B( 50-C , 83-H ) :   0.9964 B( 51-C , 52-C ) :   1.0211
B( 52-C , 53-C ) :   1.7859 B( 52-C , 84-H ) :   0.9460 B( 53-C , 54-C ) :   0.9362
B( 53-C , 58-C ) :   0.9975 B( 54-C , 55-O ) :   2.2199 B( 54-C , 56-C ) :   0.9402
B( 56-C , 57-C ) :   1.4080 B( 56-C , 67-C ) :   1.2330 B( 57-C , 58-C ) :   1.0087
B( 57-C , 64-C ) :   1.2429 B( 58-C , 59-C ) :   1.6725 B( 59-C , 60-C ) :   1.1637
B( 59-C , 62-C ) :   1.1508 B( 60-C , 61-N ) :   2.9877 B( 62-C , 63-N ) :   2.8685
B( 64-C , 65-C ) :   1.4533 B( 64-C , 85-H ) :   0.9924 B( 65-C , 66-C ) :   1.2351
B( 65-C , 86-H ) :   0.9870 B( 66-C , 67-C ) :   1.2358 B( 66-C , 71-C ) :   1.2547
B( 67-C , 68-C ) :   1.2777 B( 68-C , 69-C ) :   1.4715 B( 68-C , 87-H ) :   0.9864
B( 69-C , 70-C ) :   1.2586 B( 69-C , 88-H ) :   0.9868 B( 70-C , 71-C ) :   1.4853
B( 70-C , 89-H ) :   0.9890 B( 71-C , 90-H ) :   0.9949

-----------------------------------------------------------------------------
         ABSORPTION SPECTRUM VIA TRANSITION ELECTRIC DIPOLE MOMENTS
-----------------------------------------------------------------------------
State   Energy  Wavelength   fosc         T2         TX        TY        TZ
        (cm-1)    (nm)                  (au**2)     (au)      (au)      (au)
-----------------------------------------------------------------------------
   0   15187.2    658.5   0.008194916   0.17764  -0.22674   0.30219  -0.18685
   1   16239.7    615.8   0.002129499   0.04317  -0.03204  -0.02203   0.20410
   2   16805.2    595.1   0.010836636   0.21229   0.38854  -0.20320   0.14156
   3   17335.8    576.8   0.069563004   1.32102  -1.06851   0.13219  -0.40229
   4   17621.2    567.5   0.009286034   0.17349   0.34169  -0.16306   0.17364
   5   18644.9    536.3   0.003371196   0.05953   0.05794  -0.00600   0.23692
   6   20189.4    495.3   0.074516979   1.21509   0.53474  -0.36142   0.89360
   7   20519.2    487.3   0.011084941   0.17785  -0.34893  -0.15119  -0.18231
   8   20868.1    479.2   0.029869965   0.47122  -0.21732  -0.61360  -0.21792
   9   21317.0    469.1   0.021919525   0.33852  -0.54576  -0.07397   0.18761
  10   21430.2    466.6   0.008200929   0.12598   0.02620   0.33157   0.12394
  11   21881.1    457.0   0.165609776   2.49168   0.98400  -0.39364   1.16982
  12   22307.3    448.3   0.096203306   1.41977   0.98526  -0.65114   0.15828
  13   22844.9    437.7   0.087976771   1.26781   0.60361   0.70795   0.63426
  14   23100.9    432.9   0.096570823   1.37624   1.02871  -0.53144  -0.18859
  15   23127.7    432.4   0.022598172   0.32167  -0.40789  -0.37665  -0.11590
  16   23509.2    425.4   0.010538131   0.14757  -0.36843  -0.04480   0.09909
  17   23671.8    422.4   0.052684708   0.73271  -0.72774  -0.24253   0.37984
  18   24135.8    414.3   0.072409676   0.98767  -0.46093   0.29428   0.82983
  19   24333.4    411.0   0.003723845   0.05038  -0.00124   0.19659  -0.10832
  20   24728.0    404.4   0.006802624   0.09057  -0.15166   0.20303   0.16230
  21   25157.8    397.5   0.057844309   0.75694  -0.45832  -0.03131  -0.73886
  22   25499.2    392.2   0.005696078   0.07354  -0.18625  -0.11042  -0.16327
  23   25865.9    386.6   0.017979460   0.22884  -0.32820  -0.07098   0.34071
  24   26239.3    381.1   0.006843034   0.08586   0.23563  -0.14462   0.09706
  25   26786.4    373.3   0.032537281   0.39989  -0.34157  -0.16985   0.50436
  26   26962.3    370.9   0.019920349   0.24323  -0.26099   0.38559  -0.16259
  27   27113.7    368.8   0.005112935   0.06208  -0.02604   0.11115   0.22147
  28   27222.9    367.3   0.031711373   0.38349  -0.48641   0.36078  -0.12937
  29   27462.0    364.1   0.027217610   0.32628  -0.56090   0.03871   0.10087
  30   27521.1    363.4   0.083864769   1.00320   0.43820   0.89074   0.13331
  31   27694.6    361.1   0.092998963   1.10550  -1.04870  -0.05243   0.05455
  32   28019.3    356.9   0.016222752   0.19061  -0.23570  -0.11008   0.35062
  33   28055.6    356.4   0.099059090   1.16238  -0.74937   0.60910   0.47941
  34   28101.1    355.9   0.037208929   0.43591  -0.58181   0.22838  -0.21271
  35   28253.5    353.9   0.047668740   0.55544  -0.70168  -0.11466   0.22347
  36   28705.3    348.4   0.009298510   0.10664   0.00757   0.19079  -0.26492
  37   28755.0    347.8   0.053596271   0.61362  -0.52439  -0.52493   0.25115
  38   29017.4    344.6   0.112252570   1.27354   0.99556  -0.53135  -0.00822
  39   29097.7    343.7   0.023116956   0.26155  -0.16250   0.33662  -0.34904
  40   29234.3    342.1   0.006905933   0.07777   0.27777   0.02217   0.01098
  41   29481.5    339.2   0.095231440   1.06342  -0.48208  -0.91158  -0.00638
  42   29549.6    338.4   0.029183906   0.32514  -0.05244  -0.56761   0.01439
  43   30159.3    331.6   0.052027371   0.56792  -0.37652   0.63071   0.16839
  44   30344.7    329.5   0.011990954   0.13009   0.25271   0.19149   0.17193
  45   30374.1    329.2   0.045910413   0.49760  -0.42077  -0.25557  -0.50522
  46   30437.8    328.5   0.024693089   0.26708   0.43749   0.27414   0.02300
  47   30778.7    324.9   0.007147561   0.07645   0.27158   0.01700  -0.04908
  48   30990.0    322.7   0.024486097   0.26012   0.40430   0.22100  -0.21867
  49   31123.1    321.3   0.023603435   0.24967  -0.10566   0.31946  -0.36940
  50   31185.2    320.7   0.051866708   0.54754   0.30984   0.15004  -0.65500
  51   31315.4    319.3   0.020474317   0.21524   0.39371  -0.21623   0.11612
  52   31495.2    317.5   0.009304005   0.09725   0.04464  -0.25044   0.18039
  53   31536.9    317.1   0.032768235   0.34207   0.17012  -0.15350  -0.53811
  54   31673.5    315.7   0.016836253   0.17499  -0.08491  -0.39879   0.09353
  55   31811.1    314.4   0.044573597   0.46129   0.57664   0.13762   0.33141
  56   31894.9    313.5   0.020548315   0.21210  -0.10223   0.23825  -0.38063
  57   32001.3    312.5   0.047870380   0.49246   0.63215   0.17547   0.24913
  58   32101.2    311.5   0.010058879   0.10316   0.12585   0.10668   0.27557
  59   32431.9    308.3   0.037207131   0.37768   0.10865   0.28520   0.53342
  60   32499.2    307.7   0.007955002   0.08058   0.02907   0.25332  -0.12477
  61   32633.7    306.4   0.016770345   0.16918  -0.00810  -0.28125   0.30002
  62   32671.3    306.1   0.049665997   0.50046   0.41786  -0.46035   0.33753
  63   32954.9    303.4   0.015651158   0.15635  -0.00708   0.01238  -0.39516
  64   32988.7    303.1   0.051287577   0.51183   0.22561   0.30602   0.60603
  65   33056.8    302.5   0.077888768   0.77569  -0.03930   0.08319  -0.87592
  66   33413.3    299.3   0.116458616   1.14743  -0.46477  -0.64915  -0.71416
  67   33438.9    299.1   0.057096920   0.56213   0.53931  -0.48867  -0.18022
  68   33644.9    297.2   0.053755166   0.52599  -0.59822   0.25353   0.32225
  69   33752.5    296.3   0.148833494   1.45168  -0.42757  -0.84541  -0.74441
  70   33849.0    295.4   0.115578402   1.12410  -0.14147  -0.35834  -0.98777
  71   33946.7    294.6   0.078007768   0.75651   0.29088  -0.14072   0.80753
  72   34170.8    292.6   0.293158229   2.82438   1.34034   0.79854   0.62466
  73   34316.5    291.4   0.033188316   0.31839  -0.42125   0.13666   0.34966
  74   34439.5    290.4   0.296267669   2.83206  -0.31658   1.24080   1.09191
  75   34702.6    288.2   0.071070095   0.67422   0.24198  -0.68612  -0.38067
  76   34849.6    286.9   0.042504754   0.40153   0.11167  -0.35506  -0.51283
  77   34928.2    286.3   0.193190552   1.82090   1.03349  -0.82189  -0.27800
  78   35076.0    285.1   0.007863688   0.07381  -0.26072  -0.07128   0.02741
  79   35123.7    284.7   0.091734780   0.85982  -0.07449   0.52007   0.76407
  80   35196.8    284.1   0.052748187   0.49338  -0.50628  -0.43429   0.22011
  81   35278.8    283.5   0.030474236   0.28438  -0.15450   0.39502  -0.32322
  82   35344.9    282.9   0.157994498   1.47160  -0.29249   0.96438   0.67529
  83   35528.4    281.5   0.023223288   0.21519   0.36346  -0.07957  -0.27705
  84   35548.3    281.3   0.071204596   0.65942   0.17454   0.58475   0.53575
  85   35695.6    280.1   0.116627022   1.07562   0.96251  -0.23605   0.30573
  86   35803.2    279.3   0.094525734   0.86917  -0.47369  -0.29259   0.74778
  87   36030.2    277.5   0.029176387   0.26659   0.48171   0.18319   0.03139
  88   36092.5    277.1   0.059195142   0.53994   0.33776  -0.51799  -0.39691
  89   36340.8    275.2   0.077805217   0.70484   0.28309  -0.76160  -0.21136
  90   36414.9    274.6   0.004490555   0.04060  -0.12142  -0.05390   0.15149
  91   36456.4    274.3   0.069305115   0.62585  -0.19217   0.74740  -0.17411
  92   36648.9    272.9   0.053711411   0.48248   0.14909  -0.63239  -0.24564
  93   36830.6    271.5   0.057938799   0.51789  -0.12518   0.66875   0.23452
  94   37003.7    270.2   0.007792951   0.06933  -0.26084   0.02201  -0.02847
  95   37032.8    270.0   0.010858394   0.09653   0.14039   0.27252  -0.05054
  96   37239.6    268.5   0.003401475   0.03007  -0.00852  -0.06439  -0.16079
  97   37440.0    267.1   0.014221466   0.12505  -0.06550  -0.02129  -0.34685
  98   37645.9    265.6   0.144672371   1.26515  -0.30317   0.71683  -0.81203
  99   37714.7    265.1   0.145084862   1.26645  -0.77618   0.79071   0.19690
 100   38072.9    262.7   0.011505100   0.09948  -0.30359   0.02253  -0.08252
 101   38086.3    262.6   0.004495535   0.03886   0.07701  -0.18094   0.01369
 102   38253.7    261.4   0.038259522   0.32926   0.56486   0.02145  -0.09866
 103   38377.7    260.6   0.029786717   0.25552  -0.30491   0.35223  -0.19617
 104   38390.4    260.5   0.032561679   0.27923   0.16867   0.20144   0.45848
 105   38487.5    259.8   0.021153941   0.18095  -0.18142  -0.37926  -0.06475
 106   38584.4    259.2   0.030570404   0.26083  -0.12144  -0.29301  -0.40029
 107   38710.3    258.3   0.013858884   0.11786  -0.02108  -0.26792  -0.21363
 108   38866.1    257.3   0.006864992   0.05815  -0.11059   0.08921   0.19484
 109   39042.8    256.1   0.152101333   1.28253   0.15313   0.08353   1.11897
 110   39054.9    256.0   0.022276200   0.18778   0.00331  -0.43295   0.01789
 111   39126.0    255.6   0.018097495   0.15227   0.35753   0.08095  -0.13378
 112   39151.1    255.4   0.016705343   0.14047  -0.14819  -0.31967   0.12775
 113   39357.2    254.1   0.038324191   0.32057  -0.04503   0.39406   0.40406
 114   39506.3    253.1   0.010385732   0.08655   0.03789  -0.29002  -0.03162
 115   39633.0    252.3   0.012315073   0.10230   0.19843  -0.24457  -0.05572
 116   39675.6    252.0   0.015816957   0.13124  -0.11560   0.01229  -0.34312
 117   39777.4    251.4   0.080451602   0.66585   0.04191   0.06723   0.81214
 118   39941.1    250.4   0.005449612   0.04492   0.19868   0.01647  -0.07191
 119   39994.2    250.0   0.027377603   0.22536   0.18405   0.06231   0.43313
 120   40107.9    249.3   0.001813731   0.01489   0.00422  -0.07832   0.09347
 121   40231.1    248.6   0.096263659   0.78773  -0.14176   0.87495   0.04572
 122   40267.2    248.3   0.011822132   0.09665  -0.25362  -0.14177  -0.11059

FINAL SINGLE POINT ENERGY     -4129.204247906899

DIPOLE MOMENT
-------------
                                X             Y             Z
Electronic contribution:     25.41736       1.49657       0.19145
Nuclear contribution   :    -26.32432      -0.20465      -1.01285
                        -----------------------------------------
Total Dipole Moment    :     -0.90696       1.29192      -0.82140
                        -----------------------------------------
Magnitude (a.u.)       :      1.77942
Magnitude (Debye)      :      4.52292

Rotational constants in cm-1:     0.001411     0.000938     0.000785
Rotational constants in MHz :    42.309952    28.122667    23.542718

                             ****ORCA TERMINATED NORMALLY****
TOTAL RUN TIME: 0 days 0 hours 28 minutes 59 seconds 624 msec
