                         Program Version 4.2.0 -  RELEASE  -
|  1> # ORCA input file
|  2> # SCF done       -180.738108506545          0.000546803778
|  3> ! CAM-B3LYP def2-SVP def2/J RIJCOSX Grid4 TightSCF
|  4> %maxcore 5000
|  5> %tddft
|  6>     Mode sTDDFT
|  7>     Ethresh 5.0
|  8>     maxcore 5000
|  9> end
| 10>
| 11> %pal
| 12>   nprocs 6
| 13>   end
| 14> * xyz 0 1
| 15>    C        0.31052        -4.42604        -7.34864
| 16>    C       -0.87093        -5.34032        -7.32268
| 17>    O       -1.12807        -6.14300        -6.45521
| 18>    C       -1.64376        -4.99312        -8.52735
| 19>    C       -0.92966        -4.06854        -9.29356
| 20>    C        0.35802        -3.81026        -8.65989
| 21>    C        1.47496        -3.29732        -9.26175
| 22>    C        2.75764        -3.33957        -8.67215
| 23>    N        3.82662        -3.41764        -8.26210
| 24>    C        1.49725        -2.76936       -10.56959
| 25>    N        1.56173        -2.31749       -11.62219
| 26>    C       -1.46646        -3.56295       -10.48477
| 27>    C       -2.70283        -3.99814       -10.88550
| 28>    C       -3.44604        -4.94039       -10.14051
| 29>    C       -2.91294        -5.45790        -8.92376
| 30>    C       -3.65958        -6.39452        -8.18051
| 31>    C       -4.88538        -6.80509        -8.62753
| 32>    C       -5.41439        -6.30088        -9.82642
| 33>    C       -4.71236        -5.38927       -10.56677
| 34>    C        1.04422        -4.22275        -6.22916
| 35>    C        1.94082        -3.15450        -5.95423
| 36>    C        1.86935        -1.77244        -6.45915
| 37>    N        2.76006        -0.97418        -5.95494
| 38>    C        3.50684        -1.73949        -5.10628
| 39>    C        2.99938        -3.11726        -5.08010
| 40>    C        3.77916        -3.91856        -4.16798
| 41>    S        3.57599        -5.52654        -3.85417
| 42>    C        4.73012        -2.99880        -3.61667
| 43>    C        4.54801        -1.66837        -4.21641
| 44>    N        5.43270        -0.77350        -3.67961
| 45>    C        6.11550        -1.43878        -2.79971
| 46>    C        5.73866        -2.85364        -2.68138
| 47>    C        6.28515        -3.79249        -1.78338
| 48>    N        5.90371        -5.09903        -1.79193
| 49>    C        6.53061        -5.76600        -0.79190
| 50>    C        7.36032        -4.85200        -0.11618
| 51>    C        7.21495        -3.62915        -0.73917
| 52>    C        6.33215        -7.11645        -0.56095
| 53>    C        6.13329        -8.30317        -0.37825
| 54>    C        5.88388        -9.65095        -0.18757
| 55>    C        6.02412       -10.27067         1.01287
| 56>    C        5.72857       -11.63709         1.23585
| 57>    C        5.50581       -12.68877         0.23030
| 58>    N        5.20796       -13.85179         0.72430
| 59>    C        5.18764       -13.68238         2.08045
| 60>    C        5.55877       -12.30183         2.43250
| 61>    C        5.45626       -12.10620         3.85085
| 62>    S        5.76158       -10.74643         4.72093
| 63>    C        4.98781       -13.38054         4.34555
| 64>    C        4.84835       -14.33781         3.23352
| 65>    N        4.33178       -15.51713         3.68249
| 66>    C        4.06975       -15.32904         4.94001
| 67>    C        4.43057       -13.99281         5.43911
| 68>    C        4.22946       -13.50544         6.76308
| 69>    C        3.17924       -13.79426         7.56542
| 70>    C        3.23258       -13.52995         9.03516
| 71>    O        4.05181       -12.84530         9.60326
| 72>    C        2.12900       -14.32337         9.60317
| 73>    C        1.39310       -14.91234         8.57177
| 74>    C        1.92662       -14.47236         7.28817
| 75>    C        1.26346       -14.48169         6.09077
| 76>    C        1.68614       -13.75814         4.95434
| 77>    N        1.93775       -13.12272         4.03216
| 78>    C        0.01763       -15.11121         5.88209
| 79>    N       -0.98517       -15.62097         5.65654
| 80>    C        0.30410       -15.74632         8.85764
| 81>    C       -0.03440       -15.95988        10.16833
| 82>    C        0.67259       -15.36041        11.23405
| 83>    C        1.79071       -14.52049        10.95643
| 84>    C        2.49429       -13.92562        12.02328
| 85>    C        2.10140       -14.14940        13.31424
| 86>    C        0.99964       -14.97378        13.59344
| 87>    C        0.30138       -15.56776        12.57785
| 88>    H       -0.92414        -2.83858       -11.07062
| 89>    H       -3.13330        -3.61607       -11.79982
| 90>    H       -3.24383        -6.77510        -7.26098
| 91>    H       -5.45662        -7.52304        -8.05844
| 92>    H       -6.38394        -6.63939       -10.16036
| 93>    H       -5.11746        -5.00046       -11.48973
| 94>    H        0.87882        -4.92806        -5.41930
| 95>    H        1.12613        -1.39997        -7.14279
| 96>    H        6.89075        -0.95743        -2.23000
| 97>    H        5.20170        -5.48537        -2.43000
| 98>    H        7.98861        -5.08758         0.71965
| 99>    H        7.70673        -2.71365        -0.47706
|100>    H        5.52349       -10.19215        -1.05334
|101>    H        6.32798        -9.69439         1.87708
|102>    H        5.59835       -12.56459        -0.83483
|103>    H        3.67126       -16.12566         5.54502
|104>    H        5.00555       -12.87359         7.18296
|105>    H       -0.25191       -16.21923         8.06453
|106>    H       -0.86964       -16.60237        10.40666
|107>    H        3.33897       -13.29413        11.79766
|108>    H        2.63824       -13.69050        14.13083
|109>    H        0.70670       -15.13567        14.62012
|110>    H       -0.54710       -16.20191        12.79008
|111> *
|112>
|113>                          ****END OF INPUT****

CARTESIAN COORDINATES (ANGSTROEM)
---------------------------------
  C      0.310520   -4.426040   -7.348640
  C     -0.870930   -5.340320   -7.322680
  O     -1.128070   -6.143000   -6.455210
  C     -1.643760   -4.993120   -8.527350
  C     -0.929660   -4.068540   -9.293560
  C      0.358020   -3.810260   -8.659890
  C      1.474960   -3.297320   -9.261750
  C      2.757640   -3.339570   -8.672150
  N      3.826620   -3.417640   -8.262100
  C      1.497250   -2.769360  -10.569590
  N      1.561730   -2.317490  -11.622190
  C     -1.466460   -3.562950  -10.484770
  C     -2.702830   -3.998140  -10.885500
  C     -3.446040   -4.940390  -10.140510
  C     -2.912940   -5.457900   -8.923760
  C     -3.659580   -6.394520   -8.180510
  C     -4.885380   -6.805090   -8.627530
  C     -5.414390   -6.300880   -9.826420
  C     -4.712360   -5.389270  -10.566770
  C      1.044220   -4.222750   -6.229160
  C      1.940820   -3.154500   -5.954230
  C      1.869350   -1.772440   -6.459150
  N      2.760060   -0.974180   -5.954940
  C      3.506840   -1.739490   -5.106280
  C      2.999380   -3.117260   -5.080100
  C      3.779160   -3.918560   -4.167980
  S      3.575990   -5.526540   -3.854170
  C      4.730120   -2.998800   -3.616670
  C      4.548010   -1.668370   -4.216410
  N      5.432700   -0.773500   -3.679610
  C      6.115500   -1.438780   -2.799710
  C      5.738660   -2.853640   -2.681380
  C      6.285150   -3.792490   -1.783380
  N      5.903710   -5.099030   -1.791930
  C      6.530610   -5.766000   -0.791900
  C      7.360320   -4.852000   -0.116180
  C      7.214950   -3.629150   -0.739170
  C      6.332150   -7.116450   -0.560950
  C      6.133290   -8.303170   -0.378250
  C      5.883880   -9.650950   -0.187570
  C      6.024120  -10.270670    1.012870
  C      5.728570  -11.637090    1.235850
  C      5.505810  -12.688770    0.230300
  N      5.207960  -13.851790    0.724300
  C      5.187640  -13.682380    2.080450
  C      5.558770  -12.301830    2.432500
  C      5.456260  -12.106200    3.850850
  S      5.761580  -10.746430    4.720930
  C      4.987810  -13.380540    4.345550
  C      4.848350  -14.337810    3.233520
  N      4.331780  -15.517130    3.682490
  C      4.069750  -15.329040    4.940010
  C      4.430570  -13.992810    5.439110
  C      4.229460  -13.505440    6.763080
  C      3.179240  -13.794260    7.565420
  C      3.232580  -13.529950    9.035160
  O      4.051810  -12.845300    9.603260
  C      2.129000  -14.323370    9.603170
  C      1.393100  -14.912340    8.571770
  C      1.926620  -14.472360    7.288170
  C      1.263460  -14.481690    6.090770
  C      1.686140  -13.758140    4.954340
  N      1.937750  -13.122720    4.032160
  C      0.017630  -15.111210    5.882090
  N     -0.985170  -15.620970    5.656540
  C      0.304100  -15.746320    8.857640
  C     -0.034400  -15.959880   10.168330
  C      0.672590  -15.360410   11.234050
  C      1.790710  -14.520490   10.956430
  C      2.494290  -13.925620   12.023280
  C      2.101400  -14.149400   13.314240
  C      0.999640  -14.973780   13.593440
  C      0.301380  -15.567760   12.577850
  H     -0.924140   -2.838580  -11.070620
  H     -3.133300   -3.616070  -11.799820
  H     -3.243830   -6.775100   -7.260980
  H     -5.456620   -7.523040   -8.058440
  H     -6.383940   -6.639390  -10.160360
  H     -5.117460   -5.000460  -11.489730
  H      0.878820   -4.928060   -5.419300
  H      1.126130   -1.399970   -7.142790
  H      6.890750   -0.957430   -2.230000
  H      5.201700   -5.485370   -2.430000
  H      7.988610   -5.087580    0.719650
  H      7.706730   -2.713650   -0.477060
  H      5.523490  -10.192150   -1.053340
  H      6.327980   -9.694390    1.877080
  H      5.598350  -12.564590   -0.834830
  H      3.671260  -16.125660    5.545020
  H      5.005550  -12.873590    7.182960
  H     -0.251910  -16.219230    8.064530
  H     -0.869640  -16.602370   10.406660
  H      3.338970  -13.294130   11.797660
  H      2.638240  -13.690500   14.130830
  H      0.706700  -15.135670   14.620120
  H     -0.547100  -16.201910   12.790080

 Total Charge           Charge          ....    0
 Multiplicity           Mult            ....    1
 Number of Electrons    NEL             ....  494
 Basis Dimension        Dim             .... 1145

ORBITAL ENERGIES
----------------

  NO   OCC          E(Eh)            E(eV)
   0   2.0000     -88.914439     -2419.4849
   1   2.0000     -88.905318     -2419.2367
   2   2.0000     -19.225501      -523.1525
   3   2.0000     -19.225369      -523.1489
   4   2.0000     -14.464803      -393.6073
   5   2.0000     -14.426297      -392.5595
   6   2.0000     -14.422744      -392.4628
   7   2.0000     -14.422467      -392.4553
   8   2.0000     -14.421683      -392.4340
   9   2.0000     -14.421037      -392.4164
  10   2.0000     -14.420230      -392.3944
  11   2.0000     -14.418542      -392.3485
  12   2.0000     -14.418490      -392.3471
  13   2.0000     -10.375656      -282.3360
  14   2.0000     -10.375541      -282.3328
  15   2.0000     -10.355198      -281.7793
  16   2.0000     -10.355009      -281.7741
  17   2.0000     -10.353369      -281.7295
  18   2.0000     -10.349940      -281.6362
  19   2.0000     -10.349653      -281.6284
  20   2.0000     -10.346327      -281.5379
  21   2.0000     -10.344252      -281.4814
  22   2.0000     -10.340355      -281.3754
  23   2.0000     -10.339452      -281.3508
  24   2.0000     -10.338043      -281.3125
  25   2.0000     -10.336417      -281.2682
  26   2.0000     -10.336233      -281.2632
  27   2.0000     -10.332634      -281.1653
  28   2.0000     -10.330580      -281.1094
  29   2.0000     -10.330340      -281.1028
  30   2.0000     -10.324551      -280.9453
  31   2.0000     -10.324340      -280.9396
  32   2.0000     -10.322971      -280.9023
  33   2.0000     -10.322842      -280.8988
  34   2.0000     -10.321669      -280.8669
  35   2.0000     -10.321435      -280.8605
  36   2.0000     -10.321351      -280.8582
  37   2.0000     -10.319413      -280.8055
  38   2.0000     -10.316639      -280.7300
  39   2.0000     -10.316451      -280.7249
  40   2.0000     -10.313123      -280.6343
  41   2.0000     -10.310276      -280.5569
  42   2.0000     -10.310173      -280.5541
  43   2.0000     -10.308541      -280.5097
  44   2.0000     -10.308425      -280.5065
  45   2.0000     -10.308008      -280.4951
  46   2.0000     -10.305414      -280.4246
  47   2.0000     -10.305122      -280.4166
  48   2.0000     -10.302612      -280.3483
  49   2.0000     -10.302375      -280.3419
  50   2.0000     -10.302249      -280.3385
  51   2.0000     -10.301980      -280.3311
  52   2.0000     -10.301714      -280.3239
  53   2.0000     -10.301537      -280.3191
  54   2.0000     -10.300824      -280.2997
  55   2.0000     -10.300575      -280.2929
  56   2.0000     -10.297472      -280.2084
  57   2.0000     -10.297296      -280.2037
  58   2.0000     -10.297258      -280.2026
  59   2.0000     -10.296579      -280.1842
  60   2.0000     -10.295623      -280.1581
  61   2.0000     -10.288775      -279.9718
  62   2.0000     -10.288666      -279.9688
  63   2.0000     -10.288301      -279.9589
  64   2.0000     -10.288164      -279.9552
  65   2.0000     -10.287793      -279.9451
  66   2.0000     -10.286606      -279.9128
  67   2.0000     -10.286230      -279.9025
  68   2.0000     -10.285786      -279.8905
  69   2.0000     -10.282490      -279.8008
  70   2.0000     -10.282098      -279.7901
  71   2.0000     -10.281439      -279.7722
  72   2.0000     -10.277454      -279.6637
  73   2.0000      -8.010182      -217.9681
  74   2.0000      -8.000830      -217.7137
  75   2.0000      -5.978971      -162.6961
  76   2.0000      -5.977833      -162.6651
  77   2.0000      -5.970338      -162.4611
  78   2.0000      -5.969581      -162.4406
  79   2.0000      -5.969469      -162.4375
  80   2.0000      -5.960091      -162.1823
  81   2.0000      -1.140430       -31.0327
  82   2.0000      -1.140374       -31.0312
  83   2.0000      -1.095631       -29.8136
  84   2.0000      -1.087948       -29.6046
  85   2.0000      -1.087940       -29.6044
  86   2.0000      -1.070279       -29.1238
  87   2.0000      -1.068933       -29.0871
  88   2.0000      -1.026227       -27.9251
  89   2.0000      -1.026091       -27.9214
  90   2.0000      -1.005723       -27.3671
  91   2.0000      -1.005723       -27.3671
  92   2.0000      -1.000419       -27.2228
  93   2.0000      -0.999938       -27.2097
  94   2.0000      -0.975432       -26.5428
  95   2.0000      -0.975293       -26.5391
  96   2.0000      -0.971383       -26.4327
  97   2.0000      -0.967420       -26.3248
  98   2.0000      -0.932112       -25.3641
  99   2.0000      -0.931878       -25.3577
 100   2.0000      -0.929373       -25.2895
 101   2.0000      -0.917632       -24.9700
 102   2.0000      -0.916966       -24.9519
 103   2.0000      -0.909293       -24.7431
 104   2.0000      -0.903251       -24.5787
 105   2.0000      -0.903216       -24.5777
 106   2.0000      -0.885201       -24.0875
 107   2.0000      -0.879800       -23.9406
 108   2.0000      -0.871823       -23.7235
 109   2.0000      -0.870941       -23.6995
 110   2.0000      -0.863260       -23.4905
 111   2.0000      -0.858529       -23.3618
 112   2.0000      -0.852858       -23.2074
 113   2.0000      -0.850804       -23.1515
 114   2.0000      -0.844510       -22.9803
 115   2.0000      -0.833395       -22.6778
 116   2.0000      -0.831887       -22.6368
 117   2.0000      -0.805999       -21.9323
 118   2.0000      -0.791037       -21.5252
 119   2.0000      -0.787813       -21.4375
 120   2.0000      -0.781971       -21.2785
 121   2.0000      -0.778803       -21.1923
 122   2.0000      -0.770449       -20.9650
 123   2.0000      -0.766560       -20.8592
 124   2.0000      -0.750834       -20.4312
 125   2.0000      -0.745133       -20.2761
 126   2.0000      -0.724161       -19.7054
 127   2.0000      -0.720806       -19.6141
 128   2.0000      -0.720353       -19.6018
 129   2.0000      -0.714912       -19.4538
 130   2.0000      -0.713773       -19.4228
 131   2.0000      -0.710223       -19.3262
 132   2.0000      -0.706853       -19.2345
 133   2.0000      -0.698817       -19.0158
 134   2.0000      -0.695907       -18.9366
 135   2.0000      -0.694428       -18.8964
 136   2.0000      -0.684245       -18.6193
 137   2.0000      -0.682998       -18.5853
 138   2.0000      -0.682534       -18.5727
 139   2.0000      -0.679291       -18.4844
 140   2.0000      -0.654771       -17.8172
 141   2.0000      -0.652687       -17.7605
 142   2.0000      -0.645734       -17.5713
 143   2.0000      -0.645267       -17.5586
 144   2.0000      -0.635603       -17.2956
 145   2.0000      -0.635386       -17.2897
 146   2.0000      -0.618096       -16.8192
 147   2.0000      -0.613954       -16.7065
 148   2.0000      -0.603407       -16.4195
 149   2.0000      -0.602219       -16.3872
 150   2.0000      -0.596189       -16.2231
 151   2.0000      -0.594457       -16.1760
 152   2.0000      -0.594278       -16.1711
 153   2.0000      -0.592699       -16.1282
 154   2.0000      -0.589833       -16.0502
 155   2.0000      -0.581580       -15.8256
 156   2.0000      -0.581209       -15.8155
 157   2.0000      -0.574954       -15.6453
 158   2.0000      -0.568728       -15.4759
 159   2.0000      -0.566367       -15.4116
 160   2.0000      -0.563476       -15.3330
 161   2.0000      -0.556633       -15.1467
 162   2.0000      -0.552457       -15.0331
 163   2.0000      -0.551216       -14.9993
 164   2.0000      -0.545708       -14.8495
 165   2.0000      -0.544500       -14.8166
 166   2.0000      -0.542789       -14.7700
 167   2.0000      -0.542001       -14.7486
 168   2.0000      -0.538610       -14.6563
 169   2.0000      -0.537382       -14.6229
 170   2.0000      -0.531757       -14.4698
 171   2.0000      -0.529498       -14.4084
 172   2.0000      -0.524618       -14.2756
 173   2.0000      -0.524326       -14.2676
 174   2.0000      -0.520517       -14.1640
 175   2.0000      -0.517546       -14.0831
 176   2.0000      -0.515940       -14.0394
 177   2.0000      -0.511511       -13.9189
 178   2.0000      -0.511423       -13.9165
 179   2.0000      -0.510795       -13.8995
 180   2.0000      -0.509147       -13.8546
 181   2.0000      -0.508266       -13.8306
 182   2.0000      -0.503962       -13.7135
 183   2.0000      -0.500247       -13.6124
 184   2.0000      -0.499354       -13.5881
 185   2.0000      -0.498592       -13.5674
 186   2.0000      -0.495713       -13.4890
 187   2.0000      -0.491815       -13.3830
 188   2.0000      -0.491258       -13.3678
 189   2.0000      -0.486699       -13.2438
 190   2.0000      -0.485274       -13.2050
 191   2.0000      -0.482899       -13.1404
 192   2.0000      -0.482334       -13.1250
 193   2.0000      -0.481835       -13.1114
 194   2.0000      -0.475383       -12.9358
 195   2.0000      -0.472821       -12.8661
 196   2.0000      -0.472372       -12.8539
 197   2.0000      -0.471441       -12.8286
 198   2.0000      -0.455983       -12.4079
 199   2.0000      -0.455613       -12.3978
 200   2.0000      -0.451035       -12.2733
 201   2.0000      -0.449367       -12.2279
 202   2.0000      -0.448812       -12.2128
 203   2.0000      -0.446166       -12.1408
 204   2.0000      -0.444951       -12.1077
 205   2.0000      -0.442801       -12.0492
 206   2.0000      -0.442267       -12.0347
 207   2.0000      -0.440405       -11.9840
 208   2.0000      -0.439821       -11.9681
 209   2.0000      -0.436883       -11.8882
 210   2.0000      -0.435856       -11.8602
 211   2.0000      -0.435119       -11.8402
 212   2.0000      -0.434474       -11.8226
 213   2.0000      -0.429978       -11.7003
 214   2.0000      -0.429359       -11.6834
 215   2.0000      -0.427462       -11.6318
 216   2.0000      -0.425210       -11.5705
 217   2.0000      -0.420872       -11.4525
 218   2.0000      -0.419436       -11.4134
 219   2.0000      -0.406302       -11.0560
 220   2.0000      -0.405529       -11.0350
 221   2.0000      -0.392887       -10.6910
 222   2.0000      -0.382596       -10.4110
 223   2.0000      -0.382159       -10.3991
 224   2.0000      -0.367157        -9.9908
 225   2.0000      -0.366725        -9.9791
 226   2.0000      -0.365904        -9.9568
 227   2.0000      -0.361371        -9.8334
 228   2.0000      -0.358415        -9.7530
 229   2.0000      -0.355491        -9.6734
 230   2.0000      -0.354368        -9.6428
 231   2.0000      -0.353044        -9.6068
 232   2.0000      -0.343895        -9.3579
 233   2.0000      -0.341727        -9.2989
 234   2.0000      -0.341455        -9.2915
 235   2.0000      -0.327995        -8.9252
 236   2.0000      -0.327341        -8.9074
 237   2.0000      -0.323195        -8.7946
 238   2.0000      -0.318784        -8.6745
 239   2.0000      -0.309333        -8.4174
 240   2.0000      -0.307913        -8.3787
 241   2.0000      -0.305548        -8.3144
 242   2.0000      -0.299285        -8.1440
 243   2.0000      -0.297913        -8.1066
 244   2.0000      -0.295278        -8.0349
 245   2.0000      -0.292084        -7.9480
 246   2.0000      -0.251287        -6.8379
 247   0.0000      -0.122673        -3.3381
 248   0.0000      -0.116284        -3.1643
 249   0.0000      -0.101956        -2.7744
 250   0.0000      -0.094545        -2.5727
 251   0.0000      -0.083447        -2.2707

MULLIKEN ATOMIC CHARGES
-----------------------
   0 C :   -0.112640
   1 C :    0.123529
   2 O :   -0.138307
   3 C :    0.007461
   4 C :   -0.002218
   5 C :    0.257330
   6 C :   -0.327869
   7 C :   -0.197216
   8 N :    0.177456
   9 C :   -0.179857
  10 N :    0.169161
  11 C :   -0.025401
  12 C :    0.010394
  13 C :    0.076891
  14 C :    0.036528
  15 C :   -0.022971
  16 C :    0.035025
  17 C :    0.041476
  18 C :   -0.017749
  19 C :    0.016244
  20 C :   -0.058196
  21 C :    0.061747
  22 N :   -0.013729
  23 C :    0.021033
  24 C :    0.038072
  25 C :    0.010006
  26 S :   -0.128447
  27 C :   -0.060841
  28 C :    0.013236
  29 N :   -0.021119
  30 C :    0.067980
  31 C :    0.066559
  32 C :    0.005813
  33 N :   -0.020118
  34 C :    0.025262
  35 C :    0.010336
  36 C :   -0.028248
  37 C :    0.100503
  38 C :   -0.038766
  39 C :   -0.098042
  40 C :    0.004138
  41 C :   -0.008263
  42 C :    0.065891
  43 N :   -0.027227
  44 C :    0.030433
  45 C :    0.011517
  46 C :   -0.001766
  47 S :   -0.111735
  48 C :    0.057322
  49 C :    0.010906
  50 N :   -0.014130
  51 C :    0.061252
  52 C :   -0.085929
  53 C :    0.033242
  54 C :   -0.113708
  55 C :    0.123389
  56 O :   -0.136422
  57 C :    0.004435
  58 C :   -0.000302
  59 C :    0.258930
  60 C :   -0.340436
  61 C :   -0.175935
  62 N :    0.171014
  63 C :   -0.180326
  64 N :    0.167161
  65 C :   -0.022126
  66 C :    0.007386
  67 C :    0.077491
  68 C :    0.034768
  69 C :   -0.026384
  70 C :    0.039258
  71 C :    0.038803
  72 C :   -0.018551
  73 H :    0.003249
  74 H :   -0.010395
  75 H :    0.002664
  76 H :   -0.002463
  77 H :   -0.004205
  78 H :   -0.019609
  79 H :    0.032567
  80 H :    0.017660
  81 H :    0.012053
  82 H :    0.106540
  83 H :   -0.016632
  84 H :   -0.021655
  85 H :    0.033885
  86 H :    0.015212
  87 H :    0.015703
  88 H :    0.016136
  89 H :    0.035697
  90 H :    0.002807
  91 H :   -0.010036
  92 H :    0.003346
  93 H :   -0.004033
  94 H :   -0.004329
  95 H :   -0.018567
Sum of atomic charges:   -0.0000000

LOEWDIN ATOMIC CHARGES
----------------------
   0 C :   -0.068832
   1 C :    0.087573
   2 O :   -0.130120
   3 C :   -0.032176
   4 C :   -0.005190
   5 C :    0.064845
   6 C :   -0.127686
   7 C :   -0.020816
   8 N :   -0.034297
   9 C :   -0.020992
  10 N :   -0.039364
  11 C :   -0.017830
  12 C :    0.022529
  13 C :   -0.008497
  14 C :   -0.002616
  15 C :   -0.000732
  16 C :   -0.009934
  17 C :   -0.009646
  18 C :   -0.011297
  19 C :    0.065265
  20 C :   -0.050345
  21 C :    0.078543
  22 N :   -0.068654
  23 C :    0.026878
  24 C :   -0.004521
  25 C :   -0.125131
  26 S :    0.080581
  27 C :   -0.074680
  28 C :    0.056282
  29 N :   -0.067318
  30 C :    0.099265
  31 C :   -0.025554
  32 C :   -0.016338
  33 N :    0.117039
  34 C :   -0.010455
  35 C :   -0.036292
  36 C :   -0.042100
  37 C :   -0.031525
  38 C :   -0.018412
  39 C :   -0.021808
  40 C :    0.006652
  41 C :   -0.035275
  42 C :    0.095837
  43 N :   -0.073752
  44 C :    0.053363
  45 C :   -0.034425
  46 C :   -0.141476
  47 S :    0.064176
  48 C :    0.000807
  49 C :    0.036185
  50 N :   -0.070915
  51 C :    0.081777
  52 C :   -0.061015
  53 C :    0.069728
  54 C :   -0.070116
  55 C :    0.087277
  56 O :   -0.129873
  57 C :   -0.032708
  58 C :   -0.005224
  59 C :    0.065786
  60 C :   -0.126405
  61 C :   -0.018170
  62 N :   -0.039514
  63 C :   -0.020034
  64 N :   -0.039843
  65 C :   -0.017466
  66 C :    0.021973
  67 C :   -0.008499
  68 C :   -0.002654
  69 C :   -0.001447
  70 C :   -0.009797
  71 C :   -0.010120
  72 C :   -0.011462
  73 H :    0.040315
  74 H :    0.036791
  75 H :    0.036365
  76 H :    0.034101
  77 H :    0.033074
  78 H :    0.031112
  79 H :    0.051426
  80 H :    0.025001
  81 H :    0.028434
  82 H :    0.032904
  83 H :    0.033102
  84 H :    0.027867
  85 H :    0.044470
  86 H :    0.039618
  87 H :    0.026419
  88 H :    0.025452
  89 H :    0.053152
  90 H :    0.040347
  91 H :    0.036796
  92 H :    0.036333
  93 H :    0.033715
  94 H :    0.032937
  95 H :    0.031257

  Mayer bond orders larger than 0.100000
B(  0-C ,  1-C ) :   0.9403 B(  0-C ,  5-C ) :   1.0129 B(  0-C , 19-C ) :   1.7171
B(  1-C ,  2-O ) :   2.2093 B(  1-C ,  3-C ) :   0.9407 B(  3-C ,  4-C ) :   1.4078
B(  3-C , 14-C ) :   1.2379 B(  4-C ,  5-C ) :   1.0084 B(  4-C , 11-C ) :   1.2606
B(  5-C ,  6-C ) :   1.6605 B(  6-C ,  7-C ) :   1.1523 B(  6-C ,  9-C ) :   1.1292
B(  7-C ,  8-N ) :   3.0092 B(  9-C , 10-N ) :   2.9963 B( 11-C , 12-C ) :   1.4674
B( 11-C , 73-H ) :   0.9873 B( 12-C , 13-C ) :   1.2226 B( 12-C , 74-H ) :   0.9943
B( 13-C , 14-C ) :   1.2424 B( 13-C , 18-C ) :   1.2406 B( 14-C , 15-C ) :   1.2741
B( 15-C , 16-C ) :   1.4744 B( 15-C , 75-H ) :   0.9875 B( 16-C , 17-C ) :   1.2563
B( 16-C , 76-H ) :   0.9877 B( 17-C , 18-C ) :   1.4942 B( 17-C , 77-H ) :   0.9891
B( 18-C , 78-H ) :   0.9980 B( 19-C , 20-C ) :   1.0366 B( 19-C , 79-H ) :   0.9459
B( 20-C , 21-C ) :   1.0040 B( 20-C , 24-C ) :   1.5485 B( 21-C , 22-N ) :   1.7454
B( 21-C , 80-H ) :   0.9874 B( 22-N , 23-C ) :   1.2615 B( 23-C , 24-C ) :   1.0848
B( 23-C , 28-C ) :   1.5144 B( 24-C , 25-C ) :   1.0335 B( 25-C , 26-S ) :   1.6232
B( 25-C , 27-C ) :   1.0786 B( 26-S , 82-H ) :   0.1841 B( 27-C , 28-C ) :   1.0724
B( 27-C , 31-C ) :   1.4517 B( 28-C , 29-N ) :   1.2536 B( 29-N , 30-C ) :   1.7415
B( 30-C , 31-C ) :   1.0313 B( 30-C , 81-H ) :   0.9899 B( 31-C , 32-C ) :   1.0731
B( 32-C , 33-N ) :   1.2770 B( 32-C , 34-C ) :   0.1176 B( 32-C , 36-C ) :   1.3418
B( 33-N , 34-C ) :   1.2900 B( 33-N , 82-H ) :   0.8513 B( 34-C , 35-C ) :   1.3548
B( 34-C , 37-C ) :   0.8286 B( 35-C , 36-C ) :   1.3879 B( 35-C , 83-H ) :   1.0128
B( 36-C , 84-H ) :   1.0016 B( 37-C , 38-C ) :   2.1868 B( 38-C , 39-C ) :   1.0151
B( 39-C , 40-C ) :   1.6562 B( 39-C , 85-H ) :   0.9546 B( 40-C , 41-C ) :   1.1304
B( 40-C , 86-H ) :   0.9738 B( 41-C , 42-C ) :   1.0082 B( 41-C , 45-C ) :   1.5120
B( 42-C , 43-N ) :   1.7414 B( 42-C , 87-H ) :   0.9874 B( 43-N , 44-C ) :   1.2583
B( 44-C , 45-C ) :   1.0620 B( 44-C , 49-C ) :   1.5114 B( 45-C , 46-C ) :   1.0421
B( 46-C , 47-S ) :   1.6905 B( 46-C , 48-C ) :   1.0148 B( 48-C , 49-C ) :   1.0641
B( 48-C , 52-C ) :   1.5730 B( 49-C , 50-N ) :   1.2675 B( 50-N , 51-C ) :   1.7399
B( 51-C , 52-C ) :   1.0185 B( 51-C , 88-H ) :   0.9909 B( 52-C , 53-C ) :   1.0172
B( 53-C , 54-C ) :   1.7240 B( 53-C , 89-H ) :   0.9531 B( 54-C , 55-C ) :   0.9412
B( 54-C , 59-C ) :   1.0109 B( 55-C , 56-O ) :   2.2145 B( 55-C , 57-C ) :   0.9402
B( 57-C , 58-C ) :   1.4090 B( 57-C , 68-C ) :   1.2392 B( 58-C , 59-C ) :   1.0135
B( 58-C , 65-C ) :   1.2577 B( 59-C , 60-C ) :   1.6564 B( 60-C , 61-C ) :   1.1536
B( 60-C , 63-C ) :   1.1320 B( 61-C , 62-N ) :   2.9986 B( 63-C , 64-N ) :   2.9957
B( 65-C , 66-C ) :   1.4699 B( 65-C , 90-H ) :   0.9870 B( 66-C , 67-C ) :   1.2220
B( 66-C , 91-H ) :   0.9941 B( 67-C , 68-C ) :   1.2408 B( 67-C , 72-C ) :   1.2424
B( 68-C , 69-C ) :   1.2756 B( 69-C , 70-C ) :   1.4750 B( 69-C , 92-H ) :   0.9865
B( 70-C , 71-C ) :   1.2563 B( 70-C , 93-H ) :   0.9877 B( 71-C , 72-C ) :   1.4925
B( 71-C , 94-H ) :   0.9899 B( 72-C , 95-H ) :   0.9981

-----------------------------------------------------------------------------
         ABSORPTION SPECTRUM VIA TRANSITION ELECTRIC DIPOLE MOMENTS
-----------------------------------------------------------------------------
State   Energy  Wavelength   fosc         T2         TX        TY        TZ
        (cm-1)    (nm)                  (au**2)     (au)      (au)      (au)
-----------------------------------------------------------------------------
   0   12188.5    820.4   0.260310360   7.03100   0.97072  -1.45241   1.99479
   1   14590.5    685.4   0.370076658   8.35022  -0.13309  -2.04564   2.03663
   2   16353.9    611.5   0.032764159   0.65956   0.08431  -0.51740   0.62028
   3   17295.7    578.2   0.595934503  11.34321  -1.23899   1.94444  -2.45505
   4   17938.0    557.5   0.011724565   0.21518   0.30222  -0.20485   0.28614
   5   18826.3    531.2   0.000501856   0.00878   0.02312   0.01251   0.08992
   6   20663.2    484.0   0.149019342   2.37422   0.71065   1.20321  -0.64922
   7   20712.4    482.8   0.029744858   0.47278  -0.47226  -0.19206   0.46137
   8   20990.9    476.4   0.016915749   0.26530  -0.31104  -0.31862  -0.25890
   9   21379.7    467.7   0.027493417   0.42335  -0.40365  -0.32407  -0.39421
  10   23477.5    425.9   0.055497035   0.77820   0.26191   0.43230  -0.72299
  11   23747.1    421.1   0.100315581   1.39070   0.15369  -0.48804   1.06249
  12   23983.2    417.0   0.224935412   3.08764   1.18350  -0.05769   1.29755
  13   24548.2    407.4   0.016323802   0.21892  -0.38666  -0.06645   0.25494
  14   24637.0    405.9   0.047514577   0.63491  -0.08852  -0.46608   0.64019
  15   25185.9    397.0   0.242319361   3.16743  -1.38100  -0.69399   0.88241
  16   25352.3    394.4   0.054933646   0.71334   0.40580   0.50664   0.54035
  17   25665.6    389.6   0.018342476   0.23528  -0.11747   0.02313   0.47005
  18   25792.9    387.7   0.057476724   0.73361   0.26226   0.24386  -0.77805
  19   26118.4    382.9   0.140409767   1.76981  -0.76766  -0.22797  -1.06232
  20   26679.2    374.8   0.007083683   0.08741  -0.15649  -0.19254  -0.16078
  21   26917.6    371.5   0.088701608   1.08485  -0.83604   0.08286   0.61564
  22   27181.4    367.9   0.149528370   1.81104   1.06837   0.38087   0.72426
  23   27325.7    366.0   0.099032239   1.19311  -0.06102   0.37587  -1.02377
  24   27576.1    362.6   0.140105660   1.67262  -0.32299   0.29133  -1.21796
  25   27793.9    359.8   0.270607526   3.20528  -1.15709  -0.90495   1.02347
  26   28290.4    353.5   0.167421325   1.94826  -0.79858   0.01774  -1.14465
  27   28528.0    350.5   0.020475772   0.23629  -0.45989  -0.15730  -0.00725
  28   28741.2    347.9   0.020529242   0.23515   0.28175   0.18617   0.34801
  29   28994.7    344.9   0.000764383   0.00868   0.09082   0.01778   0.01071
  30   29164.6    342.9   0.211977064   2.39281   1.21732   0.82362  -0.48228
  31   29277.5    341.6   0.069142259   0.77747  -0.65949  -0.51934   0.26986
  32   29553.0    338.4   0.079719079   0.88805  -0.22631  -0.24457   0.88149
  33   30053.8    332.7   0.032246411   0.35323  -0.49414   0.12413  -0.30602
  34   30225.1    330.9   0.105883491   1.15329   0.54853   0.55371  -0.73878
  35   30315.7    329.9   0.115202248   1.25104  -1.02479  -0.19337  -0.40430
  36   30532.6    327.5   0.050743641   0.54713   0.69619   0.15303   0.19756
  37   30680.2    325.9   0.013698789   0.14699   0.34063   0.17378   0.02772
  38   31044.4    322.1   0.026663052   0.28275   0.43509   0.29447   0.08206
  39   31095.9    321.6   0.019044817   0.20163  -0.13066  -0.24851   0.35043
  40   31304.3    319.4   0.028360331   0.29825  -0.21082  -0.40504  -0.29958
  41   31372.0    318.8   0.269142064   2.82432   0.68994   0.91626  -1.22832
  42   31520.4    317.3   0.058767325   0.61379   0.21890   0.17005  -0.73277
  43   31862.2    313.9   0.135904155   1.40421   0.44886  -0.29830   1.05535
  44   32352.6    309.1   0.022309989   0.22702  -0.23486   0.03383  -0.41318
  45   32462.9    308.0   0.218235775   2.21317   1.19992   0.57766   0.66308
  46   32632.9    306.4   0.497883352   5.02282  -0.50075   0.15637  -2.17890
  47   32649.2    306.3   0.003021636   0.03047  -0.05270   0.09569  -0.13614
  48   32720.2    305.6   0.338427015   3.40506   1.54613   0.52507  -0.85956
  49   32876.1    304.2   0.023699062   0.23732   0.22088   0.09196   0.42435
  50   32997.4    303.1   0.021408349   0.21359   0.22393   0.24482   0.32173
  51   33320.7    300.1   0.033035485   0.32639  -0.26350  -0.50670   0.01478
  52   33501.2    298.5   0.043054128   0.42309   0.52217   0.10149   0.37433
  53   33700.2    296.7   0.031166666   0.30446   0.41476  -0.27002   0.24397
  54   33769.0    296.1   0.118508141   1.15533   0.96023  -0.10054   0.47243
  55   33906.1    294.9   0.028403943   0.27579   0.07557   0.02566  -0.51906
  56   33994.9    294.2   0.113385227   1.09804   0.10123   0.14839  -1.03236
  57   34127.5    293.0   0.027665977   0.26688  -0.49038  -0.04679   0.15562
  58   34575.1    289.2   0.088709343   0.84466   0.69235   0.02019   0.60407
  59   34639.3    288.7   0.098245377   0.93373   0.49346   0.51177  -0.65446
  60   34832.2    287.1   0.072009624   0.68059  -0.45224  -0.68974   0.01808
  61   35025.0    285.5   0.054517010   0.51242  -0.15829  -0.57261   0.39935
  62   35066.1    285.2   0.016744082   0.15720  -0.09716   0.25747  -0.28542
  63   35154.8    284.5   0.141481039   1.32492   0.32869   1.02788  -0.40042
  64   35391.9    282.6   0.007796245   0.07252  -0.04382   0.26235  -0.04208
  65   35583.2    281.0   0.029625088   0.27409   0.18902  -0.48140  -0.08132
  66   35662.6    280.4   0.005284414   0.04878   0.13552  -0.05027  -0.16700
  67   35854.8    278.9   0.016705604   0.15339  -0.14807  -0.19128  -0.30802
  68   36042.6    277.4   0.032888377   0.30040  -0.34572  -0.40488  -0.13020
  69   36195.4    276.3   0.065489048   0.59565   0.61273   0.46556   0.05883
  70   36333.0    275.2   0.226581614   2.05305   0.14014  -0.16849   1.41599
  71   36561.4    273.5   0.132349162   1.19172  -0.35324   0.42085   0.94331
  72   36603.8    273.2   0.100769856   0.90632   0.80228   0.36735   0.35737
  73   36717.2    272.4   0.035707838   0.32016  -0.39407  -0.36729  -0.17313
  74   36772.6    271.9   0.073145724   0.65485  -0.43284  -0.56596   0.38366
  75   36953.0    270.6   0.025633200   0.22836  -0.08679   0.39722   0.25110
  76   37095.8    269.6   0.189797486   1.68439   1.02656   0.53700   0.58497
  77   37118.8    269.4   0.053065303   0.47064   0.31762   0.60716  -0.03345
  78   37195.6    268.8   0.105001441   0.92935  -0.57149  -0.43280   0.64453
  79   37612.3    265.9   0.027607053   0.24164  -0.18412  -0.45573   0.00668
  80   37873.6    264.0   0.079573110   0.69168   0.05971  -0.15323  -0.81525
  81   38015.2    263.1   0.131669048   1.14025  -0.07908   0.89963   0.56980
  82   38134.8    262.2   0.184585142   1.59349   0.48852   1.07926   0.43594
  83   38285.5    261.2   0.029631598   0.25480   0.06282   0.06250   0.49694
  84   38371.3    260.6   0.003509678   0.03011   0.11292   0.10315   0.08197
  85   38534.9    259.5   0.000816868   0.00698   0.01385   0.02160   0.07950
  86   38717.0    258.3   0.017407297   0.14801   0.01522   0.35322  -0.15171
  87   38800.9    257.7   0.076769552   0.65136   0.12609   0.78616  -0.13195
  88   38860.3    257.3   0.006412201   0.05432   0.19306  -0.08850   0.09602
  89   38942.6    256.8   0.164232483   1.38838  -0.08564  -1.15799   0.20029
  90   39058.4    256.0   0.020448179   0.17235  -0.08240  -0.40181   0.06413
  91   39457.0    253.4   0.025766673   0.21499   0.03330  -0.46075  -0.03978
  92   39733.4    251.7   0.029698238   0.24607  -0.40063   0.02926   0.29104
  93   39785.5    251.3   0.052840865   0.43724   0.19206   0.01404   0.63258

FINAL SINGLE POINT ENERGY     -3735.552873812733

DIPOLE MOMENT
-------------
                                X             Y             Z
Electronic contribution:     18.46332       6.82121     -11.38177
Nuclear contribution   :    -19.93036      -7.44410      13.54961
                        -----------------------------------------
Total Dipole Moment    :     -1.46704      -0.62289       2.16784
                        -----------------------------------------
Magnitude (a.u.)       :      2.69068
Magnitude (Debye)      :      6.83916

Rotational constants in cm-1:     0.001284     0.000231     0.000210
Rotational constants in MHz :    38.506494     6.936621     6.289568

                             ****ORCA TERMINATED NORMALLY****
TOTAL RUN TIME: 0 days 0 hours 11 minutes 10 seconds 421 msec
