                         Program Version 4.2.0 -  RELEASE  -
|  1> # ORCA input file
|  2> # SCF done       -191.506765781443          0.000671926697
|  3> ! CAM-B3LYP def2-SVP def2/J RIJCOSX Grid4 TightSCF
|  4> %maxcore 5000
|  5> %tddft
|  6>     Mode sTDDFT
|  7>     Ethresh 5.0
|  8>     maxcore 5000
|  9> end
| 10>
| 11> %pal
| 12>   nprocs 6
| 13>   end
| 14> * xyz 0 1
| 15>    C        4.71218        -2.32485        -0.60614
| 16>    C        5.18191        -3.41915        -1.50661
| 17>    O        6.24811        -3.45418        -2.08151
| 18>    C        4.10440        -4.42138        -1.48308
| 19>    C        3.01523        -3.91669        -0.76964
| 20>    C        3.30587        -2.55289        -0.34382
| 21>    C        2.38266        -1.60389        -0.00138
| 22>    C        2.71113        -0.24577         0.17833
| 23>    N        2.94580         0.87166         0.29993
| 24>    C        1.00202        -1.84968         0.14253
| 25>    N       -0.12926        -1.98921         0.27509
| 26>    C        1.86688        -4.69422        -0.57434
| 27>    C        1.83139        -5.95867        -1.10165
| 28>    C        2.90988        -6.49508        -1.83958
| 29>    C        4.08550        -5.71482        -2.04142
| 30>    C        5.16096        -6.25675        -2.77383
| 31>    C        5.07447        -7.52130        -3.28795
| 32>    C        3.91859        -8.29406        -3.09315
| 33>    C        2.86016        -7.79377        -2.38543
| 34>    C        5.60482        -1.42263        -0.12999
| 35>    C        5.46568        -0.55732         0.98862
| 36>    C        6.12646         0.59903         1.28564
| 37>    C        5.64885         1.11766         2.56502
| 38>    N        4.75660         0.22797         3.07076
| 39>    C        4.58761        -0.82419         2.16939
| 40>    O        3.89137        -1.78574         2.39007
| 41>    C        4.07355         0.28552         4.33366
| 42>    C        6.30255         2.27437         2.84089
| 43>    C        7.22075         2.52016         1.68615
| 44>    O        7.96214         3.44211         1.48366
| 45>    N        7.04402         1.45289         0.78427
| 46>    C        7.73438         1.36052        -0.47357
| 47>    C        6.23904         3.20983         3.94009
| 48>    N        7.38070         3.67579         4.40913
| 49>    N        7.45402         4.58874         5.32889
| 50>    C        6.39446         5.12224         5.91525
| 51>    C        5.10187         4.66483         5.53998
| 52>    C        5.01945         3.68370         4.49689
| 53>    N        3.75828         3.36198         4.21501
| 54>    S        2.78649         4.19702         5.19202
| 55>    N        3.90465         4.99216         6.01373
| 56>    C        6.60458         6.15373         6.89206
| 57>    C        7.66160         6.35775         7.72813
| 58>    C        7.40723         7.55204         8.52761
| 59>    N        6.21966         8.07605         8.15625
| 60>    C        5.66063         7.28237         7.13248
| 61>    O        4.63278         7.56366         6.57662
| 62>    C        5.59090         9.26598         8.66088
| 63>    C        8.40933         7.70487         9.44093
| 64>    C        9.37272         6.59295         9.15700
| 65>    O       10.44866         6.38400         9.66055
| 66>    N        8.83823         5.82215         8.11953
| 67>    C        9.46385         4.62218         7.63151
| 68>    C        8.58815         8.70156        10.43747
| 69>    C        9.30188         8.61792        11.58690
| 70>    C        9.67984         9.86905        12.30891
| 71>    O        9.20823        10.96795        12.11247
| 72>    C       10.74691         9.46750        13.23915
| 73>    C       10.90451         8.08064        13.19483
| 74>    C        9.90909         7.50934        12.29518
| 75>    C        9.46610         6.21538        12.31375
| 76>    C        8.34107         5.77437        11.59069
| 77>    N        7.41116         5.38931        11.03725
| 78>    C       10.02771         5.19240        13.10535
| 79>    N       10.43941         4.31975        13.72659
| 80>    C       11.88991         7.44889        13.96385
| 81>    C       12.68701         8.21739        14.77146
| 82>    C       12.53813         9.61940        14.85864
| 83>    C       11.54649        10.27490        14.07208
| 84>    C       11.40470        11.67457        14.15940
| 85>    C       12.21010        12.39601        14.99709
| 86>    C       13.18734        11.75548        15.77550
| 87>    C       13.34963        10.39880        15.70769
| 88>    H        1.03419        -4.31203        -0.00671
| 89>    H        0.95670        -6.57577        -0.95471
| 90>    H        6.04415        -5.65434        -2.91646
| 91>    H        5.89854        -7.93576        -3.84921
| 92>    H        3.87207        -9.29038        -3.50733
| 93>    H        1.96958        -8.38653        -2.23433
| 94>    H        6.57020        -1.42130        -0.62657
| 95>    H        4.79333         0.32796         5.15338
| 96>    H        3.47242        -0.61878         4.41926
| 97>    H        3.43079         1.16589         4.36687
| 98>    H        8.26256         2.30151        -0.62478
| 99>    H        7.02181         1.20163        -1.28389
|100>    H        8.45772         0.54287        -0.46089
|101>    H        5.51283         9.21795         9.74785
|102>    H        4.59552         9.31969         8.22087
|103>    H        6.15628        10.15603         8.37747
|104>    H       10.53330         4.69634         7.82387
|105>    H        9.25977         4.52019         6.56473
|106>    H        9.06795         3.75039         8.15767
|107>    H        8.15183         9.67512        10.23568
|108>    H       12.02953         6.38157        13.91008
|109>    H       13.45659         7.74784        15.36705
|110>    H       10.65123        12.15590        13.55620
|111>    H       12.09911        13.46785        15.06575
|112>    H       13.81237        12.34470        16.43006
|113>    H       14.10101         9.90370        16.30569
|114> *
|115>
|116>                          ****END OF INPUT****

CARTESIAN COORDINATES (ANGSTROEM)
---------------------------------
  C      4.712180   -2.324850   -0.606140
  C      5.181910   -3.419150   -1.506610
  O      6.248110   -3.454180   -2.081510
  C      4.104400   -4.421380   -1.483080
  C      3.015230   -3.916690   -0.769640
  C      3.305870   -2.552890   -0.343820
  C      2.382660   -1.603890   -0.001380
  C      2.711130   -0.245770    0.178330
  N      2.945800    0.871660    0.299930
  C      1.002020   -1.849680    0.142530
  N     -0.129260   -1.989210    0.275090
  C      1.866880   -4.694220   -0.574340
  C      1.831390   -5.958670   -1.101650
  C      2.909880   -6.495080   -1.839580
  C      4.085500   -5.714820   -2.041420
  C      5.160960   -6.256750   -2.773830
  C      5.074470   -7.521300   -3.287950
  C      3.918590   -8.294060   -3.093150
  C      2.860160   -7.793770   -2.385430
  C      5.604820   -1.422630   -0.129990
  C      5.465680   -0.557320    0.988620
  C      6.126460    0.599030    1.285640
  C      5.648850    1.117660    2.565020
  N      4.756600    0.227970    3.070760
  C      4.587610   -0.824190    2.169390
  O      3.891370   -1.785740    2.390070
  C      4.073550    0.285520    4.333660
  C      6.302550    2.274370    2.840890
  C      7.220750    2.520160    1.686150
  O      7.962140    3.442110    1.483660
  N      7.044020    1.452890    0.784270
  C      7.734380    1.360520   -0.473570
  C      6.239040    3.209830    3.940090
  N      7.380700    3.675790    4.409130
  N      7.454020    4.588740    5.328890
  C      6.394460    5.122240    5.915250
  C      5.101870    4.664830    5.539980
  C      5.019450    3.683700    4.496890
  N      3.758280    3.361980    4.215010
  S      2.786490    4.197020    5.192020
  N      3.904650    4.992160    6.013730
  C      6.604580    6.153730    6.892060
  C      7.661600    6.357750    7.728130
  C      7.407230    7.552040    8.527610
  N      6.219660    8.076050    8.156250
  C      5.660630    7.282370    7.132480
  O      4.632780    7.563660    6.576620
  C      5.590900    9.265980    8.660880
  C      8.409330    7.704870    9.440930
  C      9.372720    6.592950    9.157000
  O     10.448660    6.384000    9.660550
  N      8.838230    5.822150    8.119530
  C      9.463850    4.622180    7.631510
  C      8.588150    8.701560   10.437470
  C      9.301880    8.617920   11.586900
  C      9.679840    9.869050   12.308910
  O      9.208230   10.967950   12.112470
  C     10.746910    9.467500   13.239150
  C     10.904510    8.080640   13.194830
  C      9.909090    7.509340   12.295180
  C      9.466100    6.215380   12.313750
  C      8.341070    5.774370   11.590690
  N      7.411160    5.389310   11.037250
  C     10.027710    5.192400   13.105350
  N     10.439410    4.319750   13.726590
  C     11.889910    7.448890   13.963850
  C     12.687010    8.217390   14.771460
  C     12.538130    9.619400   14.858640
  C     11.546490   10.274900   14.072080
  C     11.404700   11.674570   14.159400
  C     12.210100   12.396010   14.997090
  C     13.187340   11.755480   15.775500
  C     13.349630   10.398800   15.707690
  H      1.034190   -4.312030   -0.006710
  H      0.956700   -6.575770   -0.954710
  H      6.044150   -5.654340   -2.916460
  H      5.898540   -7.935760   -3.849210
  H      3.872070   -9.290380   -3.507330
  H      1.969580   -8.386530   -2.234330
  H      6.570200   -1.421300   -0.626570
  H      4.793330    0.327960    5.153380
  H      3.472420   -0.618780    4.419260
  H      3.430790    1.165890    4.366870
  H      8.262560    2.301510   -0.624780
  H      7.021810    1.201630   -1.283890
  H      8.457720    0.542870   -0.460890
  H      5.512830    9.217950    9.747850
  H      4.595520    9.319690    8.220870
  H      6.156280   10.156030    8.377470
  H     10.533300    4.696340    7.823870
  H      9.259770    4.520190    6.564730
  H      9.067950    3.750390    8.157670
  H      8.151830    9.675120   10.235680
  H     12.029530    6.381570   13.910080
  H     13.456590    7.747840   15.367050
  H     10.651230   12.155900   13.556200
  H     12.099110   13.467850   15.065750
  H     13.812370   12.344700   16.430060
  H     14.101010    9.903700   16.305690

 Total Charge           Charge          ....    0
 Multiplicity           Mult            ....    1
 Number of Electrons    NEL             ....  498
 Basis Dimension        Dim             .... 1156

ORBITAL ENERGIES
----------------

  NO   OCC          E(Eh)            E(eV)
   0   2.0000     -89.047015     -2423.0925
   1   2.0000     -19.221282      -523.0377
   2   2.0000     -19.220105      -523.0057
   3   2.0000     -19.219324      -522.9844
   4   2.0000     -19.217758      -522.9418
   5   2.0000     -19.217656      -522.9390
   6   2.0000     -19.216387      -522.9045
   7   2.0000     -14.478619      -393.9832
   8   2.0000     -14.476970      -393.9384
   9   2.0000     -14.472755      -393.8237
  10   2.0000     -14.472018      -393.8036
  11   2.0000     -14.459914      -393.4743
  12   2.0000     -14.458449      -393.4344
  13   2.0000     -14.447921      -393.1479
  14   2.0000     -14.446210      -393.1013
  15   2.0000     -14.417238      -392.3130
  16   2.0000     -14.414377      -392.2351
  17   2.0000     -14.411284      -392.1510
  18   2.0000     -14.410147      -392.1200
  19   2.0000     -10.401988      -283.0525
  20   2.0000     -10.398950      -282.9698
  21   2.0000     -10.398830      -282.9665
  22   2.0000     -10.397832      -282.9394
  23   2.0000     -10.367559      -282.1156
  24   2.0000     -10.366405      -282.0842
  25   2.0000     -10.357555      -281.8434
  26   2.0000     -10.356663      -281.8191
  27   2.0000     -10.356035      -281.8020
  28   2.0000     -10.354274      -281.7541
  29   2.0000     -10.346839      -281.5518
  30   2.0000     -10.345290      -281.5097
  31   2.0000     -10.343484      -281.4605
  32   2.0000     -10.342825      -281.4426
  33   2.0000     -10.339753      -281.3590
  34   2.0000     -10.337961      -281.3102
  35   2.0000     -10.337192      -281.2893
  36   2.0000     -10.335210      -281.2354
  37   2.0000     -10.321558      -280.8639
  38   2.0000     -10.320015      -280.8219
  39   2.0000     -10.319670      -280.8125
  40   2.0000     -10.317696      -280.7588
  41   2.0000     -10.316426      -280.7242
  42   2.0000     -10.316137      -280.7164
  43   2.0000     -10.314035      -280.6592
  44   2.0000     -10.312919      -280.6288
  45   2.0000     -10.307624      -280.4847
  46   2.0000     -10.306754      -280.4610
  47   2.0000     -10.305511      -280.4272
  48   2.0000     -10.304336      -280.3953
  49   2.0000     -10.303847      -280.3819
  50   2.0000     -10.303332      -280.3679
  51   2.0000     -10.302778      -280.3528
  52   2.0000     -10.296392      -280.1791
  53   2.0000     -10.296109      -280.1714
  54   2.0000     -10.294788      -280.1354
  55   2.0000     -10.294734      -280.1340
  56   2.0000     -10.293936      -280.1122
  57   2.0000     -10.293665      -280.1049
  58   2.0000     -10.293089      -280.0892
  59   2.0000     -10.292996      -280.0867
  60   2.0000     -10.292909      -280.0843
  61   2.0000     -10.292261      -280.0666
  62   2.0000     -10.291952      -280.0582
  63   2.0000     -10.288595      -279.9669
  64   2.0000     -10.287718      -279.9430
  65   2.0000     -10.282173      -279.7921
  66   2.0000     -10.281648      -279.7779
  67   2.0000     -10.281415      -279.7715
  68   2.0000     -10.280821      -279.7554
  69   2.0000     -10.279956      -279.7318
  70   2.0000     -10.279212      -279.7116
  71   2.0000     -10.275996      -279.6241
  72   2.0000     -10.275256      -279.6039
  73   2.0000      -8.138456      -221.4586
  74   2.0000      -6.109502      -166.2480
  75   2.0000      -6.101693      -166.0355
  76   2.0000      -6.101267      -166.0239
  77   2.0000      -1.164721       -31.6937
  78   2.0000      -1.162722       -31.6393
  79   2.0000      -1.156915       -31.4813
  80   2.0000      -1.155087       -31.4315
  81   2.0000      -1.150105       -31.2959
  82   2.0000      -1.132071       -30.8052
  83   2.0000      -1.130812       -30.7710
  84   2.0000      -1.124741       -30.6058
  85   2.0000      -1.099590       -29.9214
  86   2.0000      -1.097860       -29.8743
  87   2.0000      -1.065769       -29.0011
  88   2.0000      -1.064678       -28.9714
  89   2.0000      -1.017122       -27.6773
  90   2.0000      -1.015262       -27.6267
  91   2.0000      -1.002736       -27.2858
  92   2.0000      -0.998476       -27.1699
  93   2.0000      -0.996664       -27.1206
  94   2.0000      -0.992085       -26.9960
  95   2.0000      -0.990686       -26.9579
  96   2.0000      -0.967175       -26.3182
  97   2.0000      -0.966065       -26.2880
  98   2.0000      -0.958496       -26.0820
  99   2.0000      -0.938879       -25.5482
 100   2.0000      -0.936375       -25.4801
 101   2.0000      -0.935606       -25.4591
 102   2.0000      -0.918211       -24.9858
 103   2.0000      -0.917386       -24.9634
 104   2.0000      -0.911593       -24.8057
 105   2.0000      -0.906883       -24.6775
 106   2.0000      -0.898060       -24.4374
 107   2.0000      -0.896440       -24.3934
 108   2.0000      -0.874681       -23.8013
 109   2.0000      -0.871919       -23.7261
 110   2.0000      -0.852971       -23.2105
 111   2.0000      -0.851618       -23.1737
 112   2.0000      -0.836784       -22.7700
 113   2.0000      -0.835348       -22.7310
 114   2.0000      -0.830230       -22.5917
 115   2.0000      -0.818265       -22.2661
 116   2.0000      -0.807716       -21.9791
 117   2.0000      -0.796341       -21.6696
 118   2.0000      -0.785681       -21.3795
 119   2.0000      -0.777736       -21.1633
 120   2.0000      -0.776137       -21.1198
 121   2.0000      -0.770896       -20.9771
 122   2.0000      -0.767675       -20.8895
 123   2.0000      -0.758658       -20.6441
 124   2.0000      -0.753025       -20.4909
 125   2.0000      -0.744853       -20.2685
 126   2.0000      -0.725650       -19.7459
 127   2.0000      -0.713197       -19.4071
 128   2.0000      -0.711681       -19.3658
 129   2.0000      -0.708390       -19.2763
 130   2.0000      -0.707238       -19.2449
 131   2.0000      -0.705493       -19.1974
 132   2.0000      -0.701930       -19.1005
 133   2.0000      -0.692693       -18.8491
 134   2.0000      -0.684431       -18.6243
 135   2.0000      -0.674771       -18.3615
 136   2.0000      -0.673268       -18.3205
 137   2.0000      -0.664914       -18.0932
 138   2.0000      -0.662920       -18.0390
 139   2.0000      -0.648740       -17.6531
 140   2.0000      -0.638889       -17.3851
 141   2.0000      -0.636522       -17.3206
 142   2.0000      -0.629543       -17.1307
 143   2.0000      -0.626959       -17.0604
 144   2.0000      -0.625915       -17.0320
 145   2.0000      -0.620759       -16.8917
 146   2.0000      -0.614750       -16.7282
 147   2.0000      -0.608777       -16.5657
 148   2.0000      -0.603854       -16.4317
 149   2.0000      -0.598603       -16.2888
 150   2.0000      -0.595651       -16.2085
 151   2.0000      -0.592733       -16.1291
 152   2.0000      -0.590484       -16.0679
 153   2.0000      -0.587408       -15.9842
 154   2.0000      -0.586627       -15.9629
 155   2.0000      -0.585470       -15.9314
 156   2.0000      -0.584627       -15.9085
 157   2.0000      -0.575595       -15.6627
 158   2.0000      -0.565870       -15.3981
 159   2.0000      -0.564394       -15.3579
 160   2.0000      -0.564158       -15.3515
 161   2.0000      -0.563382       -15.3304
 162   2.0000      -0.563302       -15.3282
 163   2.0000      -0.560766       -15.2592
 164   2.0000      -0.559545       -15.2260
 165   2.0000      -0.555057       -15.1039
 166   2.0000      -0.539492       -14.6803
 167   2.0000      -0.538327       -14.6486
 168   2.0000      -0.534742       -14.5511
 169   2.0000      -0.533855       -14.5269
 170   2.0000      -0.529677       -14.4133
 171   2.0000      -0.527720       -14.3600
 172   2.0000      -0.524725       -14.2785
 173   2.0000      -0.523778       -14.2527
 174   2.0000      -0.522805       -14.2262
 175   2.0000      -0.519764       -14.1435
 176   2.0000      -0.514821       -14.0090
 177   2.0000      -0.511430       -13.9167
 178   2.0000      -0.510448       -13.8900
 179   2.0000      -0.509340       -13.8598
 180   2.0000      -0.507557       -13.8113
 181   2.0000      -0.506237       -13.7754
 182   2.0000      -0.505294       -13.7498
 183   2.0000      -0.504628       -13.7316
 184   2.0000      -0.503982       -13.7140
 185   2.0000      -0.502667       -13.6783
 186   2.0000      -0.499786       -13.5999
 187   2.0000      -0.498708       -13.5705
 188   2.0000      -0.495953       -13.4956
 189   2.0000      -0.494679       -13.4609
 190   2.0000      -0.489120       -13.3096
 191   2.0000      -0.486467       -13.2374
 192   2.0000      -0.486088       -13.2271
 193   2.0000      -0.484037       -13.1713
 194   2.0000      -0.480612       -13.0781
 195   2.0000      -0.480312       -13.0699
 196   2.0000      -0.475960       -12.9515
 197   2.0000      -0.474848       -12.9213
 198   2.0000      -0.472442       -12.8558
 199   2.0000      -0.469694       -12.7810
 200   2.0000      -0.465099       -12.6560
 201   2.0000      -0.464174       -12.6308
 202   2.0000      -0.454892       -12.3782
 203   2.0000      -0.451743       -12.2926
 204   2.0000      -0.448285       -12.1985
 205   2.0000      -0.445704       -12.1282
 206   2.0000      -0.444304       -12.0901
 207   2.0000      -0.441307       -12.0086
 208   2.0000      -0.438014       -11.9190
 209   2.0000      -0.436941       -11.8898
 210   2.0000      -0.435812       -11.8590
 211   2.0000      -0.435011       -11.8373
 212   2.0000      -0.431777       -11.7492
 213   2.0000      -0.430609       -11.7175
 214   2.0000      -0.428785       -11.6678
 215   2.0000      -0.427799       -11.6410
 216   2.0000      -0.424886       -11.5617
 217   2.0000      -0.423146       -11.5144
 218   2.0000      -0.422984       -11.5100
 219   2.0000      -0.421732       -11.4759
 220   2.0000      -0.413857       -11.2616
 221   2.0000      -0.412291       -11.2190
 222   2.0000      -0.404993       -11.0204
 223   2.0000      -0.402402       -10.9499
 224   2.0000      -0.398646       -10.8477
 225   2.0000      -0.397573       -10.8185
 226   2.0000      -0.393608       -10.7106
 227   2.0000      -0.390088       -10.6148
 228   2.0000      -0.379202       -10.3186
 229   2.0000      -0.375925       -10.2294
 230   2.0000      -0.373677       -10.1683
 231   2.0000      -0.373184       -10.1549
 232   2.0000      -0.370771       -10.0892
 233   2.0000      -0.368561       -10.0291
 234   2.0000      -0.359234        -9.7752
 235   2.0000      -0.352351        -9.5880
 236   2.0000      -0.348176        -9.4744
 237   2.0000      -0.347388        -9.4529
 238   2.0000      -0.334746        -9.1089
 239   2.0000      -0.333447        -9.0736
 240   2.0000      -0.322096        -8.7647
 241   2.0000      -0.314375        -8.5546
 242   2.0000      -0.313278        -8.5247
 243   2.0000      -0.306721        -8.3463
 244   2.0000      -0.294708        -8.0194
 245   2.0000      -0.291488        -7.9318
 246   2.0000      -0.286892        -7.8067
 247   2.0000      -0.285435        -7.7671
 248   2.0000      -0.283186        -7.7059
 249   0.0000      -0.103607        -2.8193
 250   0.0000      -0.089916        -2.4467
 251   0.0000      -0.077740        -2.1154
 252   0.0000      -0.070112        -1.9079
 253   0.0000      -0.068519        -1.8645

MULLIKEN ATOMIC CHARGES
-----------------------
   0 C :   -0.117741
   1 C :    0.115155
   2 O :   -0.155442
   3 C :    0.009879
   4 C :   -0.004393
   5 C :    0.305779
   6 C :   -0.307037
   7 C :   -0.196921
   8 N :    0.146170
   9 C :   -0.185436
  10 N :    0.156475
  11 C :   -0.019143
  12 C :    0.005083
  13 C :    0.076614
  14 C :    0.035247
  15 C :   -0.028861
  16 C :    0.038897
  17 C :    0.039522
  18 C :   -0.020182
  19 C :   -0.026846
  20 C :   -0.141074
  21 C :    0.194614
  22 C :    0.214899
  23 N :   -0.221300
  24 C :    0.152627
  25 O :   -0.162969
  26 C :    0.124495
  27 C :   -0.175361
  28 C :    0.172002
  29 O :   -0.118743
  30 N :   -0.232650
  31 C :    0.116556
  32 C :   -0.114184
  33 N :   -0.024950
  34 N :   -0.082118
  35 C :   -0.032971
  36 C :    0.023013
  37 C :    0.064160
  38 N :   -0.261111
  39 S :    0.544331
  40 N :   -0.208753
  41 C :   -0.187025
  42 C :    0.196390
  43 C :    0.198191
  44 N :   -0.234407
  45 C :    0.174571
  46 O :   -0.130092
  47 C :    0.119070
  48 C :   -0.142420
  49 C :    0.146076
  50 O :   -0.152305
  51 N :   -0.203647
  52 C :    0.119384
  53 C :   -0.026467
  54 C :   -0.114595
  55 C :    0.112880
  56 O :   -0.154819
  57 C :    0.010708
  58 C :   -0.013180
  59 C :    0.307352
  60 C :   -0.307639
  61 C :   -0.193392
  62 N :    0.142036
  63 C :   -0.187851
  64 N :    0.159256
  65 C :   -0.018031
  66 C :    0.006787
  67 C :    0.076837
  68 C :    0.038268
  69 C :   -0.026369
  70 C :    0.035844
  71 C :    0.037541
  72 C :   -0.020097
  73 H :    0.003034
  74 H :   -0.013056
  75 H :   -0.001415
  76 H :   -0.008054
  77 H :   -0.007994
  78 H :   -0.021664
  79 H :    0.005861
  80 H :    0.032236
  81 H :    0.054865
  82 H :    0.046287
  83 H :    0.062158
  84 H :    0.049723
  85 H :    0.050526
  86 H :    0.049958
  87 H :    0.061624
  88 H :    0.047886
  89 H :    0.046345
  90 H :    0.074634
  91 H :    0.036491
  92 H :    0.006815
  93 H :    0.004962
  94 H :   -0.012263
  95 H :   -0.001277
  96 H :   -0.006023
  97 H :   -0.006838
  98 H :   -0.021005
Sum of atomic charges:   -0.0000000

LOEWDIN ATOMIC CHARGES
----------------------
   0 C :   -0.075906
   1 C :    0.088767
   2 O :   -0.146074
   3 C :   -0.035225
   4 C :    0.001895
   5 C :    0.079481
   6 C :   -0.127962
   7 C :   -0.012063
   8 N :   -0.062119
   9 C :   -0.018147
  10 N :   -0.052695
  11 C :   -0.014750
  12 C :    0.019712
  13 C :   -0.010045
  14 C :   -0.002582
  15 C :   -0.003290
  16 C :   -0.012901
  17 C :   -0.013790
  18 C :   -0.012314
  19 C :    0.053802
  20 C :   -0.124992
  21 C :    0.087935
  22 C :    0.076567
  23 N :   -0.001977
  24 C :    0.101696
  25 O :   -0.157152
  26 C :    0.029987
  27 C :   -0.111550
  28 C :    0.110113
  29 O :   -0.126808
  30 N :   -0.010061
  31 C :    0.037310
  32 C :   -0.012501
  33 N :   -0.033929
  34 N :   -0.047149
  35 C :    0.006678
  36 C :   -0.059734
  37 C :   -0.055499
  38 N :   -0.269226
  39 S :    0.681248
  40 N :   -0.245034
  41 C :   -0.122620
  42 C :    0.091104
  43 C :    0.084808
  44 N :   -0.009332
  45 C :    0.106182
  46 O :   -0.133385
  47 C :    0.036908
  48 C :   -0.124313
  49 C :    0.102430
  50 O :   -0.148437
  51 N :    0.008529
  52 C :    0.030899
  53 C :    0.054081
  54 C :   -0.075685
  55 C :    0.088598
  56 O :   -0.145586
  57 C :   -0.035011
  58 C :    0.001764
  59 C :    0.080197
  60 C :   -0.128159
  61 C :   -0.009603
  62 N :   -0.065819
  63 C :   -0.018503
  64 N :   -0.050869
  65 C :   -0.014673
  66 C :    0.020194
  67 C :   -0.009816
  68 C :   -0.002505
  69 C :   -0.003045
  70 C :   -0.012968
  71 C :   -0.013573
  72 C :   -0.012190
  73 H :    0.040586
  74 H :    0.035416
  75 H :    0.034824
  76 H :    0.032069
  77 H :    0.031578
  78 H :    0.030118
  79 H :    0.044019
  80 H :    0.027326
  81 H :    0.039788
  82 H :    0.022966
  83 H :    0.044153
  84 H :    0.035350
  85 H :    0.031529
  86 H :    0.035320
  87 H :    0.043902
  88 H :    0.031178
  89 H :    0.035608
  90 H :    0.035041
  91 H :    0.029611
  92 H :    0.044202
  93 H :    0.040968
  94 H :    0.035711
  95 H :    0.034857
  96 H :    0.032499
  97 H :    0.031755
  98 H :    0.030313

  Mayer bond orders larger than 0.100000
B(  0-C ,  1-C ) :   0.9522 B(  0-C ,  5-C ) :   1.0127 B(  0-C , 19-C ) :   1.7101
B(  1-C ,  2-O ) :   2.1859 B(  1-C ,  3-C ) :   0.9439 B(  3-C ,  4-C ) :   1.4095
B(  3-C , 14-C ) :   1.2349 B(  4-C ,  5-C ) :   1.0077 B(  4-C , 11-C ) :   1.2625
B(  5-C ,  6-C ) :   1.6626 B(  6-C ,  7-C ) :   1.1640 B(  6-C ,  9-C ) :   1.1349
B(  7-C ,  8-N ) :   2.9949 B(  9-C , 10-N ) :   2.9968 B( 11-C , 12-C ) :   1.4664
B( 11-C , 73-H ) :   0.9862 B( 12-C , 13-C ) :   1.2243 B( 12-C , 74-H ) :   0.9937
B( 13-C , 14-C ) :   1.2420 B( 13-C , 18-C ) :   1.2408 B( 14-C , 15-C ) :   1.2770
B( 15-C , 16-C ) :   1.4750 B( 15-C , 75-H ) :   0.9862 B( 16-C , 17-C ) :   1.2554
B( 16-C , 76-H ) :   0.9872 B( 17-C , 18-C ) :   1.4954 B( 17-C , 77-H ) :   0.9887
B( 18-C , 78-H ) :   0.9971 B( 19-C , 20-C ) :   1.0902 B( 19-C , 79-H ) :   0.9505
B( 20-C , 21-C ) :   1.5165 B( 20-C , 24-C ) :   0.9050 B( 21-C , 22-C ) :   1.0341
B( 21-C , 30-N ) :   1.2204 B( 22-C , 23-N ) :   1.1855 B( 22-C , 27-C ) :   1.6509
B( 23-N , 24-C ) :   1.0425 B( 23-N , 26-C ) :   0.9469 B( 24-C , 25-O ) :   2.1518
B( 26-C , 80-H ) :   0.9733 B( 26-C , 81-H ) :   0.9539 B( 26-C , 82-H ) :   0.9555
B( 27-C , 28-C ) :   0.9310 B( 27-C , 32-C ) :   0.9920 B( 28-C , 29-O ) :   2.2385
B( 28-C , 30-N ) :   0.9872 B( 30-N , 31-C ) :   0.9477 B( 31-C , 83-H ) :   0.9563
B( 31-C , 84-H ) :   0.9719 B( 31-C , 85-H ) :   0.9738 B( 32-C , 33-N ) :   1.7519
B( 32-C , 35-C ) :   0.1134 B( 32-C , 37-C ) :   1.1540 B( 33-N , 34-N ) :   1.2018
B( 34-N , 35-C ) :   1.6785 B( 35-C , 36-C ) :   1.1222 B( 35-C , 41-C ) :   1.0823
B( 36-C , 37-C ) :   1.1947 B( 36-C , 40-N ) :   1.5568 B( 37-C , 38-N ) :   1.5214
B( 38-N , 39-S ) :   1.2619 B( 38-N , 40-N ) :   0.1450 B( 39-S , 40-N ) :   1.3041
B( 41-C , 42-C ) :   1.5746 B( 41-C , 45-C ) :   0.9363 B( 42-C , 43-C ) :   1.0282
B( 42-C , 51-N ) :   1.2220 B( 43-C , 44-N ) :   1.2182 B( 43-C , 48-C ) :   1.5160
B( 44-N , 45-C ) :   0.9900 B( 44-N , 47-C ) :   0.9489 B( 45-C , 46-O ) :   2.2163
B( 47-C , 86-H ) :   0.9708 B( 47-C , 87-H ) :   0.9560 B( 47-C , 88-H ) :   0.9745
B( 48-C , 49-C ) :   0.9020 B( 48-C , 53-C ) :   1.0870 B( 49-C , 50-O ) :   2.1700
B( 49-C , 51-N ) :   1.0310 B( 51-N , 52-C ) :   0.9336 B( 52-C , 89-H ) :   0.9588
B( 52-C , 90-H ) :   0.9478 B( 52-C , 91-H ) :   0.9740 B( 53-C , 54-C ) :   1.7137
B( 53-C , 92-H ) :   0.9487 B( 54-C , 55-C ) :   0.9535 B( 54-C , 59-C ) :   1.0111
B( 55-C , 56-O ) :   2.1866 B( 55-C , 57-C ) :   0.9439 B( 57-C , 58-C ) :   1.4117
B( 57-C , 68-C ) :   1.2355 B( 58-C , 59-C ) :   1.0086 B( 58-C , 65-C ) :   1.2632
B( 59-C , 60-C ) :   1.6574 B( 60-C , 61-C ) :   1.1694 B( 60-C , 63-C ) :   1.1350
B( 61-C , 62-N ) :   2.9856 B( 63-C , 64-N ) :   2.9980 B( 65-C , 66-C ) :   1.4685
B( 65-C , 93-H ) :   0.9853 B( 66-C , 67-C ) :   1.2231 B( 66-C , 94-H ) :   0.9938
B( 67-C , 68-C ) :   1.2429 B( 67-C , 72-C ) :   1.2405 B( 68-C , 69-C ) :   1.2760
B( 69-C , 70-C ) :   1.4754 B( 69-C , 95-H ) :   0.9865 B( 70-C , 71-C ) :   1.2563
B( 70-C , 96-H ) :   0.9867 B( 71-C , 72-C ) :   1.4968 B( 71-C , 97-H ) :   0.9888
B( 72-C , 98-H ) :   0.9973

-----------------------------------------------------------------------------
         ABSORPTION SPECTRUM VIA TRANSITION ELECTRIC DIPOLE MOMENTS
-----------------------------------------------------------------------------
State   Energy  Wavelength   fosc         T2         TX        TY        TZ
        (cm-1)    (nm)                  (au**2)     (au)      (au)      (au)
-----------------------------------------------------------------------------
   0   19615.2    509.8   0.059754620   1.00289  -0.31537  -0.77957  -0.54379
   1   21011.5    475.9   0.036163348   0.56661  -0.06723   0.72891   0.17546
   2   21794.2    458.8   0.044401374   0.67071   0.04156  -0.01954  -0.81768
   3   23499.7    425.5   1.755113383  24.58770  -2.40820  -2.80464  -3.30489
   4   25580.8    390.9   0.046352484   0.59653  -0.41064   0.57473  -0.31240
   5   25846.2    386.9   0.081017232   1.03194   0.11877   1.00778   0.04707
   6   26316.3    380.0   0.024452450   0.30590   0.18886   0.51914   0.02682
   7   26677.8    374.8   0.038096108   0.47012  -0.52483  -0.30965  -0.31432
   8   27039.9    369.8   0.036677309   0.44655   0.40290   0.52985   0.05897
   9   27313.4    366.1   0.076252603   0.91908  -0.04936  -0.87770  -0.38248
  10   28236.4    354.2   0.017199556   0.20053  -0.23843  -0.37367  -0.06367
  11   29067.4    344.0   0.091788426   1.03958   0.00721  -0.99653   0.21555
  12   29323.7    341.0   0.095000535   1.06655  -0.81761   0.01615  -0.63073
  13   29455.8    339.5   0.106841208   1.19411   0.06084  -1.07730   0.17269
  14   29617.1    337.6   0.290188318   3.22561  -1.04245  -0.08875  -1.45981
  15   29862.9    334.9   0.083888286   0.92479   0.86051   0.41079  -0.12477
  16   30135.8    331.8   0.036208861   0.39556   0.15065  -0.61002   0.02718
  17   30246.4    330.6   0.010045852   0.10934   0.29682   0.05389   0.13542
  18   30414.1    328.8   0.079334351   0.85874   0.52671   0.71847   0.25518
  19   31132.6    321.2   0.081330379   0.86003   0.46450  -0.71366   0.36737
  20   31558.2    316.9   0.187479905   1.95577  -0.80304   1.03389   0.49191
  21   31692.0    315.5   0.130050246   1.35095  -0.66608  -0.93929  -0.15814
  22   32039.7    312.1   0.110851776   1.13902  -0.98373   0.39907  -0.10968
  23   32073.7    311.8   0.021828002   0.22405   0.04963   0.02333   0.47015
  24   32624.1    306.5   0.019192438   0.19367  -0.43915  -0.02837  -0.00344
  25   33053.0    302.5   0.063245458   0.62993  -0.00942  -0.78439  -0.12074
  26   33272.3    300.6   0.009497824   0.09398   0.08019   0.22178  -0.19585
  27   33325.2    300.1   0.013508120   0.13344  -0.16188  -0.25040  -0.21105
  28   33408.5    299.3   0.599956405   5.91206   1.10069   1.69187   1.35578
  29   33565.9    297.9   0.559080891   5.48342   0.07378  -2.03786  -1.15113
  30   33813.1    295.7   0.132609827   1.29112   0.24053  -1.07727  -0.26972
  31   34028.1    293.9   0.139598401   1.35057   1.05628   0.35644   0.32831
  32   34101.4    293.2   0.037117658   0.35833   0.12515  -0.57852  -0.08934
  33   34279.9    291.7   0.135813834   1.30431  -0.46630  -0.93657  -0.45793
  34   34626.7    288.8   0.030800152   0.29283   0.52143  -0.10249  -0.10217
  35   34955.5    286.1   0.018801796   0.17708  -0.12228  -0.27563   0.29351
  36   35672.7    280.3   0.020923078   0.19309  -0.34845  -0.25874  -0.06879
  37   35912.9    278.5   0.051023589   0.46773  -0.52073  -0.36001  -0.25876
  38   36178.6    276.4   0.048259035   0.43914  -0.11105   0.64893   0.07550
  39   36367.8    275.0   0.011696135   0.10588  -0.24414   0.03005  -0.21300
  40   36821.1    271.6   0.014893221   0.13316  -0.07512  -0.27782   0.22435
  41   37125.2    269.4   0.088190824   0.78204   0.02304   0.85006   0.24272
  42   37358.4    267.7   0.033205587   0.29262   0.48041   0.24269  -0.05412
  43   37636.0    265.7   0.063385007   0.55444   0.23000  -0.69112  -0.15459
  44   37788.4    264.6   0.015920755   0.13870   0.32068   0.11603  -0.14968
  45   38376.8    260.6   0.055456498   0.47573   0.04174   0.64704   0.23522
  46   38508.5    259.7   0.088882413   0.75986  -0.68229  -0.17828  -0.51241
  47   38668.9    258.6   0.045441332   0.38687  -0.35336  -0.49777  -0.11927
  48   38919.7    256.9   0.007297656   0.06173   0.00762  -0.24797   0.01341
  49   39182.8    255.2   0.001888710   0.01587  -0.08570  -0.06478   0.06580
  50   39289.3    254.5   0.004579415   0.03837  -0.12296   0.15089  -0.02198
  51   39711.8    251.8   0.015811072   0.13107   0.03484   0.31806   0.16941
  52   39798.3    251.3   0.001132959   0.00937  -0.08649   0.03760  -0.02186
  53   40094.3    249.4   0.029432448   0.24167   0.09056   0.45478   0.16323
  54   40167.9    249.0   0.023705454   0.19429   0.19065   0.11051   0.38174

FINAL SINGLE POINT ENERGY     -3575.823391382981

DIPOLE MOMENT
-------------
                                X             Y             Z
Electronic contribution:    -16.58453       5.94487      -2.16106
Nuclear contribution   :     17.38537      -5.78562       2.33509
                        -----------------------------------------
Total Dipole Moment    :      0.80084       0.15925       0.17403
                        -----------------------------------------
Magnitude (a.u.)       :      0.83486
Magnitude (Debye)      :      2.12205

Rotational constants in cm-1:     0.002995     0.000259     0.000252
Rotational constants in MHz :    89.783144     7.755136     7.540470

                             ****ORCA TERMINATED NORMALLY****
TOTAL RUN TIME: 0 days 0 hours 10 minutes 13 seconds 436 msec
