                         Program Version 4.2.0 -  RELEASE  -
|  1> # ORCA input file
|  2> # SCF done       -184.248409625780          0.000486834153
|  3> ! CAM-B3LYP def2-SVP def2/J RIJCOSX Grid4 TightSCF
|  4> %maxcore 5000
|  5> %tddft
|  6>     Mode sTDDFT
|  7>     Ethresh 5.0
|  8>     maxcore 5000
|  9> end
| 10>
| 11> %pal
| 12>   nprocs 6
| 13>   end
| 14> * xyz 0 1
| 15>    C        2.40755         2.26061         1.09829
| 16>    C        0.94491         2.57398         1.09924
| 17>    O        0.35288         3.18113         1.96250
| 18>    C        0.44275         2.03791        -0.17552
| 19>    C        1.46062         1.33020        -0.81849
| 20>    C        2.64556         1.30788         0.03137
| 21>    C        3.65622         0.38620        -0.03096
| 22>    C        4.65743         0.24662         0.95051
| 23>    N        5.48036         0.05929         1.72899
| 24>    C        3.81367        -0.55075        -1.07294
| 25>    N        4.01826        -1.31199        -1.90725
| 26>    C        1.24675         0.75362        -2.07650
| 27>    C        0.01240         0.88325        -2.65695
| 28>    C       -1.04753         1.56895        -2.02305
| 29>    C       -0.83740         2.17220        -0.74885
| 30>    C       -1.89681         2.85947        -0.12302
| 31>    C       -3.11882         2.94005        -0.73261
| 32>    C       -3.33248         2.34506        -1.98607
| 33>    C       -2.32045         1.67611        -2.61863
| 34>    C        3.24413         2.94007         1.91669
| 35>    C        4.66161         3.03263         1.84025
| 36>    C        5.54578         3.22520         2.99976
| 37>    N        6.81136         3.22518         2.70957
| 38>    C        6.88110         3.06206         1.35996
| 39>    C        5.52981         2.99002         0.77417
| 40>    C        5.62391         2.86602        -0.66171
| 41>    S        4.37678         2.95594        -1.73748
| 42>    C        7.02809         2.70977        -0.91475
| 43>    C        7.77500         2.85020         0.34457
| 44>    N        9.11075         2.64609         0.14102
| 45>    C        9.22934         2.34389        -1.11380
| 46>    C        7.96605         2.34792        -1.86602
| 47>    C        7.83701         2.03812        -3.23714
| 48>    N        8.84252         1.41114        -3.94664
| 49>    C        8.41843         1.23789        -5.22489
| 50>    C        8.77017         0.72120        -6.45988
| 51>    C        7.68978         1.00163        -7.31976
| 52>    N        6.71189         1.67659        -6.61966
| 53>    C        7.11766         1.81552        -5.33196
| 54>    C        6.75091         2.30370        -4.08992
| 55>    C        7.53812         0.71198        -8.69321
| 56>    C        8.37136        -0.09537        -9.40600
| 57>    C        8.22527        -0.38431       -10.77943
| 58>    C        7.36216         0.28657       -11.76625
| 59>    N        7.43049        -0.20491       -12.96436
| 60>    C        8.31395        -1.24896       -12.88522
| 61>    C        8.85740        -1.35794       -11.52861
| 62>    C        9.74487        -2.48060       -11.43785
| 63>    S       10.66325        -2.91865       -10.14035
| 64>    C        9.66166        -3.10669       -12.73623
| 65>    C        8.82274        -2.27889       -13.62999
| 66>    N        8.75680        -2.82736       -14.87359
| 67>    C        9.45014        -3.92224       -14.81112
| 68>    C       10.01723        -4.20932       -13.48325
| 69>    C       10.75470        -5.39164       -13.22001
| 70>    C       10.96454        -6.08355       -12.07152
| 71>    C       12.05092        -7.11718       -12.05689
| 72>    O       12.60399        -7.56663       -13.03518
| 73>    C       12.29415        -7.40277       -10.63606
| 74>    C       11.35867        -6.71632        -9.86030
| 75>    C       10.42574        -6.01034       -10.73407
| 76>    C        9.19451        -5.53887       -10.36183
| 77>    C        8.21617        -5.08158       -11.26578
| 78>    N        7.36901        -4.72472       -11.95368
| 79>    C        8.70365        -5.52940        -9.03794
| 80>    N        8.24223        -5.47393        -7.98892
| 81>    C       11.40103        -6.78861        -8.46263
| 82>    C       12.36765        -7.56168        -7.87326
| 83>    C       13.31223        -8.28989        -8.62920
| 84>    C       13.28854        -8.21210       -10.05239
| 85>    C       14.23735        -8.93503       -10.80324
| 86>    C       15.16959        -9.70930       -10.16893
| 87>    C       15.19581        -9.79225        -8.76747
| 88>    C       14.28957        -9.09810        -8.01367
| 89>    H        2.04158         0.23248        -2.58450
| 90>    H       -0.17012         0.44853        -3.62923
| 91>    H       -1.72169         3.31316         0.83968
| 92>    H       -3.93099         3.46384        -0.25116
| 93>    H       -4.30540         2.42027        -2.44876
| 94>    H       -2.48253         1.21701        -3.58318
| 95>    H        2.76804         3.51602         2.70513
| 96>    H        5.20849         3.33814         4.01494
| 97>    H       10.20363         2.15288        -1.53079
| 98>    H        9.69385         1.05723        -3.54600
| 99>    H        9.67471         0.21971        -6.73658
|100>    H        5.82258         1.95389        -6.99922
|101>    H        5.84439         2.79344        -3.79902
|102>    H        6.67825         1.15012        -9.18349
|103>    H        9.18611        -0.59654        -8.90254
|104>    H        6.73718         1.14034       -11.56966
|105>    H        9.56370        -4.55736       -15.67230
|106>    H       11.26396        -5.80975       -14.08629
|107>    H       10.69870        -6.23683        -7.85993
|108>    H       12.41695        -7.62593        -6.79579
|109>    H       14.20819        -8.86441       -11.87908
|110>    H       15.89471       -10.26492       -10.74451
|111>    H       15.94027       -10.41039        -8.28795
|112>    H       14.30754        -9.16032        -6.93521
|113> *
|114>
|115>                          ****END OF INPUT****

CARTESIAN COORDINATES (ANGSTROEM)
---------------------------------
  C      2.407550    2.260610    1.098290
  C      0.944910    2.573980    1.099240
  O      0.352880    3.181130    1.962500
  C      0.442750    2.037910   -0.175520
  C      1.460620    1.330200   -0.818490
  C      2.645560    1.307880    0.031370
  C      3.656220    0.386200   -0.030960
  C      4.657430    0.246620    0.950510
  N      5.480360    0.059290    1.728990
  C      3.813670   -0.550750   -1.072940
  N      4.018260   -1.311990   -1.907250
  C      1.246750    0.753620   -2.076500
  C      0.012400    0.883250   -2.656950
  C     -1.047530    1.568950   -2.023050
  C     -0.837400    2.172200   -0.748850
  C     -1.896810    2.859470   -0.123020
  C     -3.118820    2.940050   -0.732610
  C     -3.332480    2.345060   -1.986070
  C     -2.320450    1.676110   -2.618630
  C      3.244130    2.940070    1.916690
  C      4.661610    3.032630    1.840250
  C      5.545780    3.225200    2.999760
  N      6.811360    3.225180    2.709570
  C      6.881100    3.062060    1.359960
  C      5.529810    2.990020    0.774170
  C      5.623910    2.866020   -0.661710
  S      4.376780    2.955940   -1.737480
  C      7.028090    2.709770   -0.914750
  C      7.775000    2.850200    0.344570
  N      9.110750    2.646090    0.141020
  C      9.229340    2.343890   -1.113800
  C      7.966050    2.347920   -1.866020
  C      7.837010    2.038120   -3.237140
  N      8.842520    1.411140   -3.946640
  C      8.418430    1.237890   -5.224890
  C      8.770170    0.721200   -6.459880
  C      7.689780    1.001630   -7.319760
  N      6.711890    1.676590   -6.619660
  C      7.117660    1.815520   -5.331960
  C      6.750910    2.303700   -4.089920
  C      7.538120    0.711980   -8.693210
  C      8.371360   -0.095370   -9.406000
  C      8.225270   -0.384310  -10.779430
  C      7.362160    0.286570  -11.766250
  N      7.430490   -0.204910  -12.964360
  C      8.313950   -1.248960  -12.885220
  C      8.857400   -1.357940  -11.528610
  C      9.744870   -2.480600  -11.437850
  S     10.663250   -2.918650  -10.140350
  C      9.661660   -3.106690  -12.736230
  C      8.822740   -2.278890  -13.629990
  N      8.756800   -2.827360  -14.873590
  C      9.450140   -3.922240  -14.811120
  C     10.017230   -4.209320  -13.483250
  C     10.754700   -5.391640  -13.220010
  C     10.964540   -6.083550  -12.071520
  C     12.050920   -7.117180  -12.056890
  O     12.603990   -7.566630  -13.035180
  C     12.294150   -7.402770  -10.636060
  C     11.358670   -6.716320   -9.860300
  C     10.425740   -6.010340  -10.734070
  C      9.194510   -5.538870  -10.361830
  C      8.216170   -5.081580  -11.265780
  N      7.369010   -4.724720  -11.953680
  C      8.703650   -5.529400   -9.037940
  N      8.242230   -5.473930   -7.988920
  C     11.401030   -6.788610   -8.462630
  C     12.367650   -7.561680   -7.873260
  C     13.312230   -8.289890   -8.629200
  C     13.288540   -8.212100  -10.052390
  C     14.237350   -8.935030  -10.803240
  C     15.169590   -9.709300  -10.168930
  C     15.195810   -9.792250   -8.767470
  C     14.289570   -9.098100   -8.013670
  H      2.041580    0.232480   -2.584500
  H     -0.170120    0.448530   -3.629230
  H     -1.721690    3.313160    0.839680
  H     -3.930990    3.463840   -0.251160
  H     -4.305400    2.420270   -2.448760
  H     -2.482530    1.217010   -3.583180
  H      2.768040    3.516020    2.705130
  H      5.208490    3.338140    4.014940
  H     10.203630    2.152880   -1.530790
  H      9.693850    1.057230   -3.546000
  H      9.674710    0.219710   -6.736580
  H      5.822580    1.953890   -6.999220
  H      5.844390    2.793440   -3.799020
  H      6.678250    1.150120   -9.183490
  H      9.186110   -0.596540   -8.902540
  H      6.737180    1.140340  -11.569660
  H      9.563700   -4.557360  -15.672300
  H     11.263960   -5.809750  -14.086290
  H     10.698700   -6.236830   -7.859930
  H     12.416950   -7.625930   -6.795790
  H     14.208190   -8.864410  -11.879080
  H     15.894710  -10.264920  -10.744510
  H     15.940270  -10.410390   -8.287950
  H     14.307540   -9.160320   -6.935210

 Total Charge           Charge          ....    0
 Multiplicity           Mult            ....    1
 Number of Electrons    NEL             ....  502
 Basis Dimension        Dim             .... 1164

ORBITAL ENERGIES
----------------

  NO   OCC          E(Eh)            E(eV)
   0   2.0000     -88.907914     -2419.3073
   1   2.0000     -88.907491     -2419.2958
   2   2.0000     -19.222841      -523.0801
   3   2.0000     -19.220401      -523.0137
   4   2.0000     -14.474129      -393.8611
   5   2.0000     -14.474076      -393.8596
   6   2.0000     -14.423112      -392.4728
   7   2.0000     -14.419417      -392.3723
   8   2.0000     -14.419345      -392.3703
   9   2.0000     -14.415460      -392.2646
  10   2.0000     -14.415357      -392.2618
  11   2.0000     -14.414392      -392.2356
  12   2.0000     -14.413721      -392.2173
  13   2.0000     -14.413409      -392.2088
  14   2.0000     -10.371500      -282.2229
  15   2.0000     -10.370503      -282.1957
  16   2.0000     -10.348001      -281.5834
  17   2.0000     -10.345093      -281.5043
  18   2.0000     -10.344222      -281.4806
  19   2.0000     -10.343474      -281.4602
  20   2.0000     -10.343302      -281.4556
  21   2.0000     -10.341975      -281.4195
  22   2.0000     -10.340817      -281.3879
  23   2.0000     -10.338728      -281.3311
  24   2.0000     -10.332381      -281.1584
  25   2.0000     -10.331996      -281.1479
  26   2.0000     -10.331252      -281.1277
  27   2.0000     -10.330767      -281.1145
  28   2.0000     -10.327970      -281.0384
  29   2.0000     -10.326256      -280.9917
  30   2.0000     -10.325507      -280.9713
  31   2.0000     -10.325405      -280.9685
  32   2.0000     -10.320433      -280.8333
  33   2.0000     -10.318227      -280.7732
  34   2.0000     -10.317641      -280.7573
  35   2.0000     -10.317373      -280.7500
  36   2.0000     -10.316332      -280.7217
  37   2.0000     -10.315637      -280.7028
  38   2.0000     -10.315024      -280.6861
  39   2.0000     -10.313220      -280.6370
  40   2.0000     -10.310040      -280.5504
  41   2.0000     -10.309975      -280.5487
  42   2.0000     -10.309274      -280.5296
  43   2.0000     -10.309201      -280.5276
  44   2.0000     -10.308457      -280.5074
  45   2.0000     -10.307602      -280.4841
  46   2.0000     -10.307298      -280.4758
  47   2.0000     -10.305136      -280.4170
  48   2.0000     -10.305131      -280.4169
  49   2.0000     -10.303561      -280.3741
  50   2.0000     -10.303210      -280.3646
  51   2.0000     -10.297489      -280.2089
  52   2.0000     -10.296922      -280.1935
  53   2.0000     -10.296605      -280.1849
  54   2.0000     -10.296316      -280.1770
  55   2.0000     -10.295773      -280.1622
  56   2.0000     -10.295558      -280.1564
  57   2.0000     -10.295515      -280.1552
  58   2.0000     -10.295343      -280.1505
  59   2.0000     -10.291953      -280.0583
  60   2.0000     -10.291474      -280.0452
  61   2.0000     -10.291327      -280.0412
  62   2.0000     -10.290988      -280.0320
  63   2.0000     -10.289317      -279.9865
  64   2.0000     -10.284292      -279.8498
  65   2.0000     -10.284135      -279.8455
  66   2.0000     -10.283681      -279.8332
  67   2.0000     -10.283560      -279.8299
  68   2.0000     -10.282180      -279.7923
  69   2.0000     -10.281797      -279.7819
  70   2.0000     -10.280774      -279.7541
  71   2.0000     -10.278180      -279.6835
  72   2.0000     -10.277907      -279.6761
  73   2.0000     -10.276580      -279.6400
  74   2.0000      -8.003119      -217.7759
  75   2.0000      -8.002555      -217.7606
  76   2.0000      -5.971834      -162.5019
  77   2.0000      -5.971814      -162.5013
  78   2.0000      -5.971297      -162.4872
  79   2.0000      -5.970887      -162.4761
  80   2.0000      -5.962396      -162.2450
  81   2.0000      -5.962234      -162.2406
  82   2.0000      -1.137508       -30.9532
  83   2.0000      -1.135286       -30.8927
  84   2.0000      -1.106886       -30.1199
  85   2.0000      -1.086430       -29.5633
  86   2.0000      -1.084635       -29.5144
  87   2.0000      -1.071091       -29.1459
  88   2.0000      -1.065588       -28.9961
  89   2.0000      -1.065081       -28.9823
  90   2.0000      -1.020697       -27.7746
  91   2.0000      -1.018754       -27.7217
  92   2.0000      -1.001226       -27.2448
  93   2.0000      -0.999495       -27.1976
  94   2.0000      -0.995340       -27.0846
  95   2.0000      -0.992755       -27.0142
  96   2.0000      -0.970045       -26.3963
  97   2.0000      -0.970012       -26.3954
  98   2.0000      -0.965030       -26.2598
  99   2.0000      -0.964687       -26.2505
 100   2.0000      -0.926354       -25.2074
 101   2.0000      -0.926069       -25.1996
 102   2.0000      -0.925680       -25.1890
 103   2.0000      -0.912772       -24.8378
 104   2.0000      -0.910732       -24.7823
 105   2.0000      -0.904750       -24.6195
 106   2.0000      -0.898465       -24.4485
 107   2.0000      -0.897661       -24.4266
 108   2.0000      -0.885094       -24.0846
 109   2.0000      -0.876666       -23.8553
 110   2.0000      -0.867571       -23.6078
 111   2.0000      -0.866437       -23.5769
 112   2.0000      -0.859358       -23.3843
 113   2.0000      -0.855752       -23.2862
 114   2.0000      -0.849724       -23.1222
 115   2.0000      -0.845814       -23.0158
 116   2.0000      -0.844687       -22.9851
 117   2.0000      -0.828545       -22.5459
 118   2.0000      -0.827754       -22.5243
 119   2.0000      -0.801516       -21.8104
 120   2.0000      -0.791789       -21.5457
 121   2.0000      -0.784507       -21.3475
 122   2.0000      -0.776671       -21.1343
 123   2.0000      -0.774114       -21.0647
 124   2.0000      -0.766789       -20.8654
 125   2.0000      -0.759586       -20.6694
 126   2.0000      -0.750247       -20.4152
 127   2.0000      -0.738008       -20.0822
 128   2.0000      -0.727893       -19.8070
 129   2.0000      -0.715082       -19.4584
 130   2.0000      -0.714282       -19.4366
 131   2.0000      -0.712706       -19.3937
 132   2.0000      -0.711807       -19.3693
 133   2.0000      -0.707405       -19.2495
 134   2.0000      -0.704030       -19.1576
 135   2.0000      -0.703944       -19.1553
 136   2.0000      -0.694957       -18.9107
 137   2.0000      -0.688743       -18.7416
 138   2.0000      -0.688216       -18.7273
 139   2.0000      -0.677012       -18.4224
 140   2.0000      -0.675710       -18.3870
 141   2.0000      -0.670665       -18.2497
 142   2.0000      -0.657598       -17.8941
 143   2.0000      -0.651676       -17.7330
 144   2.0000      -0.648410       -17.6441
 145   2.0000      -0.638559       -17.3761
 146   2.0000      -0.635597       -17.2955
 147   2.0000      -0.630430       -17.1549
 148   2.0000      -0.629207       -17.1216
 149   2.0000      -0.612586       -16.6693
 150   2.0000      -0.605601       -16.4792
 151   2.0000      -0.604909       -16.4604
 152   2.0000      -0.599973       -16.3261
 153   2.0000      -0.591780       -16.1031
 154   2.0000      -0.588784       -16.0216
 155   2.0000      -0.588601       -16.0167
 156   2.0000      -0.585610       -15.9353
 157   2.0000      -0.580902       -15.8071
 158   2.0000      -0.579016       -15.7558
 159   2.0000      -0.576077       -15.6759
 160   2.0000      -0.572672       -15.5832
 161   2.0000      -0.566008       -15.4018
 162   2.0000      -0.559384       -15.2216
 163   2.0000      -0.557090       -15.1592
 164   2.0000      -0.554844       -15.0981
 165   2.0000      -0.552249       -15.0275
 166   2.0000      -0.551058       -14.9950
 167   2.0000      -0.547055       -14.8861
 168   2.0000      -0.544158       -14.8073
 169   2.0000      -0.539565       -14.6823
 170   2.0000      -0.539358       -14.6767
 171   2.0000      -0.537460       -14.6250
 172   2.0000      -0.534711       -14.5502
 173   2.0000      -0.530817       -14.4443
 174   2.0000      -0.526818       -14.3355
 175   2.0000      -0.525710       -14.3053
 176   2.0000      -0.523506       -14.2453
 177   2.0000      -0.520168       -14.1545
 178   2.0000      -0.515019       -14.0144
 179   2.0000      -0.512291       -13.9401
 180   2.0000      -0.511946       -13.9307
 181   2.0000      -0.509500       -13.8642
 182   2.0000      -0.507328       -13.8051
 183   2.0000      -0.506788       -13.7904
 184   2.0000      -0.505711       -13.7611
 185   2.0000      -0.502398       -13.6710
 186   2.0000      -0.497386       -13.5346
 187   2.0000      -0.496414       -13.5081
 188   2.0000      -0.493828       -13.4377
 189   2.0000      -0.492589       -13.4040
 190   2.0000      -0.491130       -13.3643
 191   2.0000      -0.488318       -13.2878
 192   2.0000      -0.487176       -13.2567
 193   2.0000      -0.483377       -13.1534
 194   2.0000      -0.480537       -13.0761
 195   2.0000      -0.479419       -13.0456
 196   2.0000      -0.477392       -12.9905
 197   2.0000      -0.475158       -12.9297
 198   2.0000      -0.473955       -12.8970
 199   2.0000      -0.466985       -12.7073
 200   2.0000      -0.465794       -12.6749
 201   2.0000      -0.463775       -12.6200
 202   2.0000      -0.455623       -12.3981
 203   2.0000      -0.452213       -12.3053
 204   2.0000      -0.449600       -12.2342
 205   2.0000      -0.445690       -12.1278
 206   2.0000      -0.444831       -12.1045
 207   2.0000      -0.443354       -12.0643
 208   2.0000      -0.442071       -12.0294
 209   2.0000      -0.439706       -11.9650
 210   2.0000      -0.439043       -11.9470
 211   2.0000      -0.438493       -11.9320
 212   2.0000      -0.433457       -11.7950
 213   2.0000      -0.431691       -11.7469
 214   2.0000      -0.430970       -11.7273
 215   2.0000      -0.430571       -11.7164
 216   2.0000      -0.429129       -11.6772
 217   2.0000      -0.426578       -11.6078
 218   2.0000      -0.423940       -11.5360
 219   2.0000      -0.421636       -11.4733
 220   2.0000      -0.419445       -11.4137
 221   2.0000      -0.413980       -11.2650
 222   2.0000      -0.412761       -11.2318
 223   2.0000      -0.409401       -11.1404
 224   2.0000      -0.403911       -10.9910
 225   2.0000      -0.402164       -10.9434
 226   2.0000      -0.380109       -10.3433
 227   2.0000      -0.378361       -10.2957
 228   2.0000      -0.377365       -10.2686
 229   2.0000      -0.362809        -9.8725
 230   2.0000      -0.362652        -9.8683
 231   2.0000      -0.360137        -9.7998
 232   2.0000      -0.356172        -9.6919
 233   2.0000      -0.354275        -9.6403
 234   2.0000      -0.352561        -9.5937
 235   2.0000      -0.347258        -9.4494
 236   2.0000      -0.339033        -9.2255
 237   2.0000      -0.336912        -9.1678
 238   2.0000      -0.326026        -8.8716
 239   2.0000      -0.323885        -8.8133
 240   2.0000      -0.315254        -8.5785
 241   2.0000      -0.313799        -8.5389
 242   2.0000      -0.306608        -8.3432
 243   2.0000      -0.305441        -8.3115
 244   2.0000      -0.303466        -8.2577
 245   2.0000      -0.301268        -8.1979
 246   2.0000      -0.294501        -8.0138
 247   2.0000      -0.292812        -7.9678
 248   2.0000      -0.287563        -7.8250
 249   2.0000      -0.284069        -7.7299
 250   2.0000      -0.236074        -6.4239
 251   0.0000      -0.120887        -3.2895
 252   0.0000      -0.112847        -3.0707
 253   0.0000      -0.098423        -2.6782
 254   0.0000      -0.085381        -2.3233
 255   0.0000      -0.078195        -2.1278

MULLIKEN ATOMIC CHARGES
-----------------------
   0 C :   -0.085922
   1 C :    0.113643
   2 O :   -0.146277
   3 C :    0.014604
   4 C :    0.005633
   5 C :    0.264790
   6 C :   -0.337544
   7 C :   -0.191313
   8 N :    0.177559
   9 C :   -0.177992
  10 N :    0.164627
  11 C :   -0.023618
  12 C :    0.006319
  13 C :    0.080460
  14 C :    0.032609
  15 C :   -0.025269
  16 C :    0.038169
  17 C :    0.038415
  18 C :   -0.019808
  19 C :    0.011898
  20 C :   -0.017773
  21 C :    0.072827
  22 N :   -0.015010
  23 C :    0.025540
  24 C :   -0.010441
  25 C :   -0.014101
  26 S :   -0.128923
  27 C :   -0.013394
  28 C :    0.004721
  29 N :   -0.019308
  30 C :    0.028948
  31 C :    0.048706
  32 C :    0.026579
  33 N :   -0.041158
  34 C :    0.130918
  35 C :   -0.160530
  36 C :    0.107776
  37 N :   -0.025887
  38 C :    0.116947
  39 C :   -0.114959
  40 C :    0.011051
  41 C :   -0.035971
  42 C :    0.008058
  43 C :    0.060926
  44 N :   -0.022315
  45 C :    0.041192
  46 C :    0.005898
  47 C :   -0.022431
  48 S :   -0.117295
  49 C :   -0.005110
  50 C :   -0.000244
  51 N :   -0.023154
  52 C :    0.068881
  53 C :    0.004756
  54 C :   -0.010516
  55 C :   -0.085884
  56 C :    0.105540
  57 O :   -0.145929
  58 C :    0.017014
  59 C :   -0.007710
  60 C :    0.325181
  61 C :   -0.376346
  62 C :   -0.201863
  63 N :    0.185224
  64 C :   -0.169587
  65 N :    0.167071
  66 C :   -0.022866
  67 C :    0.004541
  68 C :    0.078389
  69 C :    0.036374
  70 C :   -0.027230
  71 C :    0.037944
  72 C :    0.038458
  73 C :   -0.020999
  74 H :    0.000935
  75 H :   -0.014773
  76 H :   -0.000849
  77 H :   -0.006475
  78 H :   -0.006781
  79 H :   -0.021969
  80 H :    0.021009
  81 H :    0.007680
  82 H :   -0.001638
  83 H :    0.128081
  84 H :   -0.018472
  85 H :    0.128324
  86 H :   -0.035542
  87 H :   -0.022702
  88 H :    0.000703
  89 H :    0.007788
  90 H :    0.009356
  91 H :    0.022386
  92 H :    0.001038
  93 H :   -0.010851
  94 H :    0.000842
  95 H :   -0.006178
  96 H :   -0.006184
  97 H :   -0.019236
Sum of atomic charges:   -0.0000000

LOEWDIN ATOMIC CHARGES
----------------------
   0 C :   -0.055172
   1 C :    0.088939
   2 O :   -0.137883
   3 C :   -0.033334
   4 C :    0.002832
   5 C :    0.062525
   6 C :   -0.133895
   7 C :   -0.017191
   8 N :   -0.045689
   9 C :   -0.021779
  10 N :   -0.048299
  11 C :   -0.017053
  12 C :    0.019951
  13 C :   -0.009936
  14 C :   -0.002627
  15 C :   -0.002246
  16 C :   -0.011800
  17 C :   -0.012908
  18 C :   -0.012205
  19 C :    0.047875
  20 C :   -0.050100
  21 C :    0.087783
  22 N :   -0.067934
  23 C :    0.030416
  24 C :   -0.012907
  25 C :   -0.139402
  26 S :    0.081856
  27 C :   -0.059144
  28 C :    0.047916
  29 N :   -0.064967
  30 C :    0.077885
  31 C :   -0.034407
  32 C :    0.001223
  33 N :    0.068250
  34 C :   -0.001467
  35 C :   -0.076679
  36 C :    0.008850
  37 N :    0.076001
  38 C :   -0.013350
  39 C :   -0.055803
  40 C :   -0.011183
  41 C :   -0.016799
  42 C :   -0.030759
  43 C :    0.090027
  44 N :   -0.072118
  45 C :    0.050113
  46 C :   -0.050682
  47 C :   -0.143728
  48 S :    0.068562
  49 C :   -0.003572
  50 C :    0.031655
  51 N :   -0.070371
  52 C :    0.086780
  53 C :   -0.055274
  54 C :    0.048165
  55 C :   -0.058421
  56 C :    0.089982
  57 O :   -0.135663
  58 C :   -0.036607
  59 C :    0.002660
  60 C :    0.064460
  61 C :   -0.131812
  62 C :   -0.012409
  63 N :   -0.042371
  64 C :   -0.023275
  65 N :   -0.045849
  66 C :   -0.016652
  67 C :    0.021306
  68 C :   -0.010075
  69 C :   -0.001482
  70 C :   -0.003389
  71 C :   -0.011299
  72 C :   -0.013124
  73 C :   -0.011791
  74 H :    0.039358
  75 H :    0.035088
  76 H :    0.035370
  77 H :    0.032695
  78 H :    0.031987
  79 H :    0.030130
  80 H :    0.048461
  81 H :    0.026852
  82 H :    0.020443
  83 H :    0.090624
  84 H :    0.030433
  85 H :    0.093649
  86 H :    0.010376
  87 H :    0.028054
  88 H :    0.031783
  89 H :    0.022906
  90 H :    0.026923
  91 H :    0.048482
  92 H :    0.039967
  93 H :    0.036142
  94 H :    0.035457
  95 H :    0.032781
  96 H :    0.032129
  97 H :    0.030782

  Mayer bond orders larger than 0.100000
B(  0-C ,  1-C ) :   0.9452 B(  0-C ,  5-C ) :   1.0076 B(  0-C , 19-C ) :   1.7440
B(  1-C ,  2-O ) :   2.2031 B(  1-C ,  3-C ) :   0.9427 B(  3-C ,  4-C ) :   1.4154
B(  3-C , 14-C ) :   1.2299 B(  4-C ,  5-C ) :   1.0069 B(  4-C , 11-C ) :   1.2627
B(  5-C ,  6-C ) :   1.6555 B(  6-C ,  7-C ) :   1.1700 B(  6-C ,  9-C ) :   1.1275
B(  7-C ,  8-N ) :   3.0045 B(  9-C , 10-N ) :   3.0004 B( 11-C , 12-C ) :   1.4654
B( 11-C , 74-H ) :   0.9871 B( 12-C , 13-C ) :   1.2208 B( 12-C , 75-H ) :   0.9937
B( 13-C , 14-C ) :   1.2440 B( 13-C , 18-C ) :   1.2415 B( 14-C , 15-C ) :   1.2765
B( 15-C , 16-C ) :   1.4738 B( 15-C , 76-H ) :   0.9867 B( 16-C , 17-C ) :   1.2572
B( 16-C , 77-H ) :   0.9875 B( 17-C , 18-C ) :   1.4938 B( 17-C , 78-H ) :   0.9890
B( 18-C , 79-H ) :   0.9972 B( 19-C , 20-C ) :   1.0458 B( 19-C , 80-H ) :   0.9389
B( 20-C , 21-C ) :   1.0140 B( 20-C , 24-C ) :   1.5329 B( 21-C , 22-N ) :   1.7310
B( 21-C , 81-H ) :   0.9949 B( 22-N , 23-C ) :   1.2760 B( 23-C , 24-C ) :   1.0666
B( 23-C , 28-C ) :   1.5066 B( 24-C , 25-C ) :   1.0254 B( 25-C , 26-S ) :   1.6366
B( 25-C , 27-C ) :   1.0695 B( 27-C , 28-C ) :   1.0743 B( 27-C , 31-C ) :   1.4975
B( 28-C , 29-N ) :   1.2550 B( 29-N , 30-C ) :   1.7560 B( 30-C , 31-C ) :   0.9919
B( 30-C , 82-H ) :   0.9964 B( 31-C , 32-C ) :   1.0795 B( 32-C , 33-N ) :   1.1866
B( 32-C , 39-C ) :   1.3786 B( 33-N , 34-C ) :   1.1716 B( 33-N , 83-H ) :   0.9325
B( 34-C , 35-C ) :   1.2798 B( 34-C , 38-C ) :   1.2703 B( 35-C , 36-C ) :   1.3715
B( 35-C , 84-H ) :   1.0330 B( 36-C , 37-N ) :   1.1772 B( 36-C , 40-C ) :   1.1301
B( 37-N , 38-C ) :   1.1681 B( 37-N , 85-H ) :   0.9338 B( 38-C , 39-C ) :   1.2779
B( 39-C , 86-H ) :   1.0091 B( 40-C , 41-C ) :   1.5999 B( 40-C , 87-H ) :   0.9667
B( 41-C , 42-C ) :   1.1500 B( 41-C , 88-H ) :   0.9723 B( 42-C , 43-C ) :   0.9945
B( 42-C , 46-C ) :   1.4792 B( 43-C , 44-N ) :   1.7577 B( 43-C , 89-H ) :   0.9872
B( 44-N , 45-C ) :   1.2455 B( 45-C , 46-C ) :   1.0726 B( 45-C , 50-C ) :   1.5132
B( 46-C , 47-C ) :   1.0432 B( 47-C , 48-S ) :   1.6611 B( 47-C , 49-C ) :   1.0314
B( 49-C , 50-C ) :   1.0659 B( 49-C , 53-C ) :   1.4998 B( 50-C , 51-N ) :   1.2789
B( 51-N , 52-C ) :   1.7255 B( 52-C , 53-C ) :   1.0221 B( 52-C , 90-H ) :   0.9934
B( 53-C , 54-C ) :   1.0701 B( 54-C , 55-C ) :   1.7092 B( 54-C , 91-H ) :   0.9313
B( 55-C , 56-C ) :   0.9399 B( 55-C , 60-C ) :   1.0323 B( 56-C , 57-O ) :   2.1942
B( 56-C , 58-C ) :   0.9444 B( 58-C , 59-C ) :   1.4126 B( 58-C , 69-C ) :   1.2337
B( 59-C , 60-C ) :   1.0050 B( 59-C , 66-C ) :   1.2648 B( 60-C , 61-C ) :   1.6190
B( 61-C , 62-C ) :   1.1886 B( 61-C , 64-C ) :   1.1187 B( 62-C , 63-N ) :   3.0009
B( 64-C , 65-N ) :   2.9982 B( 66-C , 67-C ) :   1.4673 B( 66-C , 92-H ) :   0.9848
B( 67-C , 68-C ) :   1.2244 B( 67-C , 93-H ) :   0.9931 B( 68-C , 69-C ) :   1.2418
B( 68-C , 73-C ) :   1.2405 B( 69-C , 70-C ) :   1.2763 B( 70-C , 71-C ) :   1.4762
B( 70-C , 94-H ) :   0.9860 B( 71-C , 72-C ) :   1.2566 B( 71-C , 95-H ) :   0.9870
B( 72-C , 73-C ) :   1.4961 B( 72-C , 96-H ) :   0.9887 B( 73-C , 97-H ) :   0.9970

-----------------------------------------------------------------------------
         ABSORPTION SPECTRUM VIA TRANSITION ELECTRIC DIPOLE MOMENTS
-----------------------------------------------------------------------------
State   Energy  Wavelength   fosc         T2         TX        TY        TZ
        (cm-1)    (nm)                  (au**2)     (au)      (au)      (au)
-----------------------------------------------------------------------------
   0   10230.4    977.5   0.342276207  11.01441  -1.05524   1.28005   2.87443
   1   11686.5    855.7   0.245242251   6.90856  -0.78872   1.38768   2.08826
   2   14649.9    682.6   0.718932319  16.15584   1.49372  -1.47101  -3.42940
   3   15602.2    640.9   0.013977272   0.29492   0.28445   0.15551  -0.43569
   4   15853.9    630.8   0.038270131   0.79469   0.19369  -0.54194  -0.68079
   5   17944.3    557.3   0.048612732   0.89187  -0.14244   0.78113   0.51128
   6   18328.1    545.6   0.077307647   1.38861   0.33768  -0.59208  -0.96127
   7   18990.4    526.6   0.010180467   0.17649   0.04280   0.40879   0.08684
   8   20583.8    485.8   0.009865642   0.15779  -0.31376  -0.04841  -0.23874
   9   20880.6    478.9   0.027389480   0.43183   0.08195  -0.01088   0.65192
  10   21725.7    460.3   0.117087064   1.77423  -1.04260   0.48330   0.67353
  11   21985.8    454.8   0.055645541   0.83323  -0.42485  -0.70964   0.38619
  12   22355.7    447.3   0.014014897   0.20638  -0.19631   0.22856   0.34002
  13   22628.2    441.9   0.065633103   0.95488  -0.13341   0.96794  -0.01280
  14   23860.7    419.1   0.052656430   0.72651   0.02868  -0.42697  -0.73715
  15   24032.8    416.1   0.084164641   1.15293   1.02238  -0.31026  -0.10677
  16   24354.8    410.6   0.063825944   0.86276   0.91848  -0.13606  -0.02516
  17   24834.6    402.7   0.070544245   0.93515   0.12846   0.88801   0.36067
  18   25066.9    398.9   0.058365657   0.76654  -0.74531   0.40402  -0.21868
  19   25316.6    395.0   0.016604991   0.21593   0.39404   0.19660  -0.14834
  20   25673.8    389.5   0.018706239   0.23987  -0.11673  -0.29396   0.37394
  21   26061.4    383.7   0.061254763   0.77378   0.63688  -0.60559  -0.03780
  22   26101.8    383.1   0.017458111   0.22019  -0.40473  -0.00475   0.23741
  23   26199.5    381.7   0.044740314   0.56219   0.25382  -0.70374  -0.05011
  24   26588.3    376.1   0.078599040   0.97320   0.49417   0.84298  -0.13559
  25   26774.3    373.5   0.266197756   3.27312   0.24176  -1.63957   0.72560
  26   26816.9    372.9   0.011856644   0.14556  -0.03316  -0.34182  -0.16617
  27   26927.3    371.4   0.070022989   0.85610  -0.88602  -0.25692   0.07119
  28   27285.7    366.5   0.019302874   0.23290   0.11815   0.45388  -0.11370
  29   27327.5    365.9   0.026974376   0.32496   0.42467   0.29505   0.23992
  30   27454.8    364.2   0.013910174   0.16680  -0.08576   0.01698   0.39894
  31   27622.9    362.0   0.008090656   0.09643  -0.27622   0.04844  -0.13334
  32   28271.1    353.7   0.023316562   0.27152   0.05955  -0.49703  -0.14467
  33   28471.8    351.2   0.043878466   0.50736   0.53583   0.16673  -0.43869
  34   28676.3    348.7   0.007061230   0.08106  -0.06744  -0.25863   0.09811
  35   28878.5    346.3   0.015922243   0.18151   0.28063   0.30047  -0.11169
  36   28954.1    345.4   0.025466404   0.28956  -0.05178   0.42889   0.32082
  37   29050.3    344.2   0.010208322   0.11569  -0.00133  -0.33968   0.01744
  38   29274.1    341.6   0.000431747   0.00486  -0.02691  -0.05472   0.03372
  39   29732.5    336.3   0.016970079   0.18790   0.42316  -0.06571  -0.06722
  40   29814.6    335.4   0.054106175   0.59744  -0.58650  -0.50215  -0.03616
  41   30020.8    333.1   0.019388799   0.21262  -0.04541  -0.43443  -0.14775
  42   30095.5    332.3   0.019763865   0.21620   0.06887  -0.23380   0.39596
  43   30709.3    325.6   0.037968563   0.40703   0.38610  -0.37199   0.34581
  44   30988.4    322.7   0.211397991   2.24583  -1.10134   0.82187   0.59785
  45   31257.9    319.9   0.069065859   0.72741   0.50574  -0.38848  -0.56632
  46   31444.7    318.0   0.014343679   0.15017  -0.00907   0.33369  -0.19682
  47   31595.1    316.5   0.069130291   0.72032  -0.75807   0.38121   0.01778
  48   31656.3    315.9   0.007102836   0.07387   0.26033   0.05858   0.05161
  49   31885.6    313.6   0.058606460   0.60510  -0.60340   0.40315   0.28014
  50   32222.3    310.3   0.016290847   0.16644  -0.31573   0.09213   0.24139
  51   32505.6    307.6   0.025278261   0.25601   0.30577  -0.32235  -0.24210
  52   32553.3    307.2   0.518073006   5.23927  -1.62892   1.60234   0.13563
  53   32740.7    305.4   0.033799311   0.33986   0.46672  -0.31047  -0.16013
  54   32796.7    304.9   0.050949479   0.51143  -0.34304  -0.27123   0.56585
  55   32872.7    304.2   0.032473085   0.32521   0.40778  -0.15266   0.36827
  56   33248.0    300.8   0.124701853   1.23476  -0.11365   0.37616   1.03940
  57   33320.7    300.1   0.128348300   1.26809  -0.32152   0.41938   0.99440
  58   33417.4    299.2   0.043826734   0.43176   0.65063   0.05368  -0.07452
  59   33553.0    298.0   0.180778159   1.77374  -1.16698   0.51307   0.38558
  60   33706.5    296.7   0.045497091   0.44437   0.59706  -0.23845  -0.17616
  61   33805.0    295.8   0.046497075   0.45281   0.08972   0.63114  -0.21546
  62   33877.6    295.2   0.004863123   0.04726   0.09750  -0.19344  -0.01826
  63   34174.4    292.6   0.031285065   0.30138  -0.40085   0.32865  -0.18080
  64   34368.8    291.0   0.139293533   1.33426  -0.68903   0.25480  -0.89139
  65   34507.6    289.8   0.003113606   0.02970  -0.02217   0.00719   0.17077
  66   34785.1    287.5   0.066352441   0.62797   0.46643  -0.36355   0.52749
  67   35044.2    285.4   0.197227467   1.85279   1.26842  -0.49327  -0.02403
  68   35246.5    283.7   0.204177115   1.90707  -0.94620   0.36155  -0.93865
  69   35312.9    283.2   0.109280456   1.01879   0.52532  -0.65817  -0.55645
  70   35562.6    281.2   0.146535996   1.35652   1.13759   0.15639  -0.19480
  71   35644.1    280.6   0.366779955   3.38761   1.33173  -0.25135   1.24537
  72   35895.3    278.6   0.039734279   0.36442  -0.42406   0.10714  -0.41607
  73   35957.1    278.1   0.045542406   0.41697  -0.54541   0.31406  -0.14445
  74   36149.8    276.6   0.381820418   3.47719  -1.54680   0.21066  -1.01992
  75   36202.6    276.2   0.164865596   1.49922   0.93573  -0.47358   0.63195
  76   36372.9    274.9   0.021057327   0.19059   0.20773   0.08295   0.37491
  77   36636.7    273.0   0.050949979   0.45783   0.53135  -0.27922   0.31230
  78   36731.4    272.2   0.195157706   1.74914   1.19019  -0.28633   0.50061
  79   36930.5    270.8   0.220046662   1.96158  -0.74175   0.74309  -0.92694
  80   37211.3    268.7   0.001702470   0.01506  -0.05222  -0.04019  -0.10354
  81   37312.2    268.0   0.092069042   0.81234   0.80266   0.07810   0.40246
  82   37498.0    266.7   0.190496013   1.67245  -0.99368   0.44231  -0.69958
  83   37926.7    263.7   0.006941415   0.06025  -0.12581   0.11085  -0.17927
  84   37976.7    263.3   0.008755031   0.07590  -0.08898  -0.01508   0.26029
  85   38217.4    261.7   0.008484745   0.07309   0.15191  -0.21065  -0.07509
  86   38403.3    260.4   0.001116279   0.00957  -0.09165  -0.03272   0.00992
  87   38476.2    259.9   0.013776555   0.11788   0.22221   0.04153   0.25841
  88   38638.1    258.8   0.029854478   0.25437   0.20258  -0.11857  -0.44640
  89   38710.0    258.3   0.151104563   1.28508  -0.31176  -0.15050  -1.07946
  90   38732.1    258.2   0.005613418   0.04771   0.19045  -0.05069   0.09419
  91   39073.7    255.9   0.059015765   0.49723   0.17179   0.35845   0.58244
  92   39210.9    255.0   0.007901407   0.06634   0.09663  -0.10853   0.21266
  93   39358.1    254.1   0.001719561   0.01438   0.02972   0.05970   0.09968
  94   39477.1    253.3   0.082518315   0.68815  -0.45174   0.34769   0.60265
  95   39725.2    251.7   0.088357401   0.73224   0.12995  -0.25850  -0.80531
  96   40215.4    248.7   0.005589084   0.04575   0.15120  -0.10647   0.10751
  97   40293.1    248.2   0.007356620   0.06011   0.11405  -0.07953   0.20192
  98   40309.7    248.1   0.003639415   0.02972   0.07569   0.06106  -0.14236

FINAL SINGLE POINT ENERGY     -3790.885541861204

DIPOLE MOMENT
-------------
                                X             Y             Z
Electronic contribution:      3.49704       7.80359       2.01996
Nuclear contribution   :     -3.11114      -7.03671      -2.59658
                        -----------------------------------------
Total Dipole Moment    :      0.38590       0.76688      -0.57662
                        -----------------------------------------
Magnitude (a.u.)       :      1.03418
Magnitude (Debye)      :      2.62866

Rotational constants in cm-1:     0.001444     0.000303     0.000283
Rotational constants in MHz :    43.284606     9.083158     8.492046

                             ****ORCA TERMINATED NORMALLY****
TOTAL RUN TIME: 0 days 0 hours 11 minutes 14 seconds 672 msec
