                         Program Version 4.2.0 -  RELEASE  -
|  1> # ORCA input file
|  2> # SCF done       -180.896315854137          0.000298671049
|  3> ! CAM-B3LYP def2-SVP def2/J RIJCOSX Grid4 TightSCF
|  4> %maxcore 5000
|  5> %tddft
|  6>     Mode sTDDFT
|  7>     Ethresh 5.0
|  8>     maxcore 5000
|  9> end
| 10>
| 11> %pal
| 12>   nprocs 6
| 13>   end
| 14> * xyz 0 1
| 15>    C        5.26334        -6.08370        -4.47421
| 16>    C        5.78065        -6.87851        -5.64451
| 17>    O        5.37093        -6.79481        -6.77967
| 18>    C        6.86545        -7.70587        -5.10060
| 19>    C        6.91456        -7.54334        -3.71508
| 20>    C        5.83307        -6.65833        -3.29388
| 21>    C        5.37916        -6.50267        -2.00244
| 22>    C        4.16784        -5.85356        -1.69040
| 23>    N        3.18355        -5.34165        -1.39701
| 24>    C        5.94365        -7.13410        -0.87096
| 25>    N        6.35563        -7.60002         0.09296
| 26>    C        7.90249        -8.17775        -2.95407
| 27>    C        8.80163        -8.99227        -3.59381
| 28>    C        8.75436        -9.21187        -4.98647
| 29>    C        7.77231        -8.54532        -5.77666
| 30>    C        7.74512        -8.75325        -7.17037
| 31>    C        8.64726        -9.59813        -7.75599
| 32>    C        9.60664       -10.26868        -6.98005
| 33>    C        9.66048       -10.08080        -5.62651
| 34>    C        4.47914        -4.99849        -4.73735
| 35>    C        4.09065        -3.87645        -3.97414
| 36>    C        2.95138        -3.04335        -4.39095
| 37>    N        2.68865        -2.04653        -3.60082
| 38>    C        3.63137        -2.09721        -2.62297
| 39>    C        4.56539        -3.21800        -2.84746
| 40>    C        5.54901        -3.22911        -1.80337
| 41>    S        6.82958        -4.25559        -1.59833
| 42>    C        5.15656        -2.17088        -0.91523
| 43>    C        3.98737        -1.47943        -1.44880
| 44>    N        3.58778        -0.48675        -0.59661
| 45>    C        4.36190        -0.57533         0.43848
| 46>    C        5.37431        -1.64331         0.34848
| 47>    C        6.32161        -2.02038         1.32006
| 48>    C        6.27369        -1.86462         2.72378
| 49>    C        7.40339        -2.44328         3.37623
| 50>    N        7.57149        -2.43125         4.70300
| 51>    C        6.63793        -1.86844         5.42611
| 52>    C        5.46262        -1.31221         4.89535
| 53>    C        5.26793        -1.31571         3.53585
| 54>    C        8.31141        -3.04912         2.47093
| 55>    S        7.75926        -2.86559         0.84790
| 56>    C        9.44850        -3.81171         2.78128
| 57>    C        9.95757        -4.06517         4.14479
| 58>    N       10.94741        -4.89842         4.19530
| 59>    C       11.18917        -5.27425         2.90292
| 60>    C       10.28409        -4.56888         1.97804
| 61>    C       10.55209        -4.97747         0.62998
| 62>    S        9.92148        -4.43388        -0.79025
| 63>    C       11.56639        -5.99475         0.76563
| 64>    C       11.95697        -6.14391         2.17195
| 65>    N       12.90220        -7.12145         2.29910
| 66>    C       13.13232        -7.55043         1.09583
| 67>    C       12.32260        -6.89339         0.05462
| 68>    C       12.26742        -7.18383        -1.33576
| 69>    C       13.24677        -7.67877        -2.12922
| 70>    C       12.92093        -8.25242        -3.46820
| 71>    O       11.85681        -8.15899        -4.04007
| 72>    C       14.12498        -8.99833        -3.86972
| 73>    C       15.12528        -8.82652        -2.90972
| 74>    C       14.66542        -7.87665        -1.90259
| 75>    C       15.45935        -7.13032        -1.07558
| 76>    C       14.99372        -6.00600        -0.35811
| 77>    N       14.68506        -5.04011         0.17884
| 78>    C       16.85039        -7.31994        -0.93368
| 79>    N       17.97870        -7.44982        -0.77161
| 80>    C       16.35283        -9.49044        -3.03004
| 81>    C       16.55883       -10.29994        -4.11669
| 82>    C       15.58432       -10.46452        -5.12581
| 83>    C       14.32948        -9.79776        -5.01198
| 84>    C       13.36916        -9.94591        -6.03321
| 85>    C       13.63980       -10.73101        -7.12010
| 86>    C       14.86806       -11.40168        -7.23108
| 87>    C       15.81999       -11.27159        -6.25715
| 88>    H        7.96525        -8.01864        -1.88977
| 89>    H        9.57776        -9.48571        -3.02777
| 90>    H        7.00075        -8.23779        -7.75659
| 91>    H        8.62482        -9.75842        -8.82376
| 92>    H       10.30187       -10.93992        -7.46265
| 93>    H       10.39591       -10.59470        -5.02527
| 94>    H        4.12202        -4.97214        -5.76597
| 95>    H        2.35419        -3.22515        -5.26765
| 96>    H        4.28524         0.14416         1.23377
| 97>    H        6.81227        -1.86718         6.49361
| 98>    H        4.71949        -0.89886         5.55824
| 99>    H        4.35938        -0.92564         3.10527
|100>    H        9.54853        -3.60841         5.02781
|101>    H       13.82649        -8.35565         0.92756
|102>    H       11.30358        -7.02801        -1.81341
|103>    H       17.11679        -9.37879        -2.27788
|104>    H       17.49586       -10.82747        -4.22037
|105>    H       12.43073        -9.42186        -5.94293
|106>    H       12.90910       -10.83580        -7.90805
|107>    H       15.05828       -12.01857        -8.09671
|108>    H       16.76937       -11.77958        -6.34390
|109> *
|110>
|111>                          ****END OF INPUT****

CARTESIAN COORDINATES (ANGSTROEM)
---------------------------------
  C      5.263340   -6.083700   -4.474210
  C      5.780650   -6.878510   -5.644510
  O      5.370930   -6.794810   -6.779670
  C      6.865450   -7.705870   -5.100600
  C      6.914560   -7.543340   -3.715080
  C      5.833070   -6.658330   -3.293880
  C      5.379160   -6.502670   -2.002440
  C      4.167840   -5.853560   -1.690400
  N      3.183550   -5.341650   -1.397010
  C      5.943650   -7.134100   -0.870960
  N      6.355630   -7.600020    0.092960
  C      7.902490   -8.177750   -2.954070
  C      8.801630   -8.992270   -3.593810
  C      8.754360   -9.211870   -4.986470
  C      7.772310   -8.545320   -5.776660
  C      7.745120   -8.753250   -7.170370
  C      8.647260   -9.598130   -7.755990
  C      9.606640  -10.268680   -6.980050
  C      9.660480  -10.080800   -5.626510
  C      4.479140   -4.998490   -4.737350
  C      4.090650   -3.876450   -3.974140
  C      2.951380   -3.043350   -4.390950
  N      2.688650   -2.046530   -3.600820
  C      3.631370   -2.097210   -2.622970
  C      4.565390   -3.218000   -2.847460
  C      5.549010   -3.229110   -1.803370
  S      6.829580   -4.255590   -1.598330
  C      5.156560   -2.170880   -0.915230
  C      3.987370   -1.479430   -1.448800
  N      3.587780   -0.486750   -0.596610
  C      4.361900   -0.575330    0.438480
  C      5.374310   -1.643310    0.348480
  C      6.321610   -2.020380    1.320060
  C      6.273690   -1.864620    2.723780
  C      7.403390   -2.443280    3.376230
  N      7.571490   -2.431250    4.703000
  C      6.637930   -1.868440    5.426110
  C      5.462620   -1.312210    4.895350
  C      5.267930   -1.315710    3.535850
  C      8.311410   -3.049120    2.470930
  S      7.759260   -2.865590    0.847900
  C      9.448500   -3.811710    2.781280
  C      9.957570   -4.065170    4.144790
  N     10.947410   -4.898420    4.195300
  C     11.189170   -5.274250    2.902920
  C     10.284090   -4.568880    1.978040
  C     10.552090   -4.977470    0.629980
  S      9.921480   -4.433880   -0.790250
  C     11.566390   -5.994750    0.765630
  C     11.956970   -6.143910    2.171950
  N     12.902200   -7.121450    2.299100
  C     13.132320   -7.550430    1.095830
  C     12.322600   -6.893390    0.054620
  C     12.267420   -7.183830   -1.335760
  C     13.246770   -7.678770   -2.129220
  C     12.920930   -8.252420   -3.468200
  O     11.856810   -8.158990   -4.040070
  C     14.124980   -8.998330   -3.869720
  C     15.125280   -8.826520   -2.909720
  C     14.665420   -7.876650   -1.902590
  C     15.459350   -7.130320   -1.075580
  C     14.993720   -6.006000   -0.358110
  N     14.685060   -5.040110    0.178840
  C     16.850390   -7.319940   -0.933680
  N     17.978700   -7.449820   -0.771610
  C     16.352830   -9.490440   -3.030040
  C     16.558830  -10.299940   -4.116690
  C     15.584320  -10.464520   -5.125810
  C     14.329480   -9.797760   -5.011980
  C     13.369160   -9.945910   -6.033210
  C     13.639800  -10.731010   -7.120100
  C     14.868060  -11.401680   -7.231080
  C     15.819990  -11.271590   -6.257150
  H      7.965250   -8.018640   -1.889770
  H      9.577760   -9.485710   -3.027770
  H      7.000750   -8.237790   -7.756590
  H      8.624820   -9.758420   -8.823760
  H     10.301870  -10.939920   -7.462650
  H     10.395910  -10.594700   -5.025270
  H      4.122020   -4.972140   -5.765970
  H      2.354190   -3.225150   -5.267650
  H      4.285240    0.144160    1.233770
  H      6.812270   -1.867180    6.493610
  H      4.719490   -0.898860    5.558240
  H      4.359380   -0.925640    3.105270
  H      9.548530   -3.608410    5.027810
  H     13.826490   -8.355650    0.927560
  H     11.303580   -7.028010   -1.813410
  H     17.116790   -9.378790   -2.277880
  H     17.495860  -10.827470   -4.220370
  H     12.430730   -9.421860   -5.942930
  H     12.909100  -10.835800   -7.908050
  H     15.058280  -12.018570   -8.096710
  H     16.769370  -11.779580   -6.343900

 Total Charge           Charge          ....    0
 Multiplicity           Mult            ....    1
 Number of Electrons    NEL             ....  502
 Basis Dimension        Dim             .... 1139

ORBITAL ENERGIES
----------------

  NO   OCC          E(Eh)            E(eV)
   0   2.0000     -88.986745     -2421.4524
   1   2.0000     -88.915676     -2419.5185
   2   2.0000     -88.908145     -2419.3136
   3   2.0000     -19.229433      -523.2595
   4   2.0000     -19.225690      -523.1576
   5   2.0000     -14.426569      -392.5669
   6   2.0000     -14.423595      -392.4860
   7   2.0000     -14.423320      -392.4785
   8   2.0000     -14.422115      -392.4457
   9   2.0000     -14.421765      -392.4362
  10   2.0000     -14.421197      -392.4207
  11   2.0000     -14.419264      -392.3681
  12   2.0000     -14.416982      -392.3060
  13   2.0000     -14.415261      -392.2592
  14   2.0000     -10.379161      -282.4313
  15   2.0000     -10.373409      -282.2748
  16   2.0000     -10.355961      -281.8000
  17   2.0000     -10.355759      -281.7945
  18   2.0000     -10.350568      -281.6533
  19   2.0000     -10.348566      -281.5988
  20   2.0000     -10.346522      -281.5432
  21   2.0000     -10.345807      -281.5237
  22   2.0000     -10.339079      -281.3407
  23   2.0000     -10.338165      -281.3158
  24   2.0000     -10.336981      -281.2836
  25   2.0000     -10.336846      -281.2799
  26   2.0000     -10.336000      -281.2569
  27   2.0000     -10.334897      -281.2268
  28   2.0000     -10.333130      -281.1788
  29   2.0000     -10.330430      -281.1053
  30   2.0000     -10.328561      -281.0544
  31   2.0000     -10.327728      -281.0318
  32   2.0000     -10.325386      -280.9680
  33   2.0000     -10.324711      -280.9497
  34   2.0000     -10.324118      -280.9335
  35   2.0000     -10.323444      -280.9152
  36   2.0000     -10.323146      -280.9071
  37   2.0000     -10.322879      -280.8998
  38   2.0000     -10.322507      -280.8897
  39   2.0000     -10.322402      -280.8868
  40   2.0000     -10.320310      -280.8299
  41   2.0000     -10.319333      -280.8033
  42   2.0000     -10.317704      -280.7590
  43   2.0000     -10.317422      -280.7513
  44   2.0000     -10.313912      -280.6558
  45   2.0000     -10.312229      -280.6100
  46   2.0000     -10.309525      -280.5364
  47   2.0000     -10.308998      -280.5221
  48   2.0000     -10.308743      -280.5151
  49   2.0000     -10.308175      -280.4997
  50   2.0000     -10.308016      -280.4954
  51   2.0000     -10.305953      -280.4392
  52   2.0000     -10.305009      -280.4135
  53   2.0000     -10.304650      -280.4038
  54   2.0000     -10.304027      -280.3868
  55   2.0000     -10.303292      -280.3668
  56   2.0000     -10.300985      -280.3040
  57   2.0000     -10.300107      -280.2802
  58   2.0000     -10.298066      -280.2246
  59   2.0000     -10.296981      -280.1951
  60   2.0000     -10.295839      -280.1640
  61   2.0000     -10.293930      -280.1121
  62   2.0000     -10.293089      -280.0892
  63   2.0000     -10.292276      -280.0671
  64   2.0000     -10.291768      -280.0532
  65   2.0000     -10.291768      -280.0532
  66   2.0000     -10.291004      -280.0325
  67   2.0000     -10.289052      -279.9793
  68   2.0000     -10.286256      -279.9033
  69   2.0000     -10.282597      -279.8037
  70   2.0000     -10.281768      -279.7811
  71   2.0000     -10.281378      -279.7705
  72   2.0000     -10.276640      -279.6416
  73   2.0000      -8.079506      -219.8545
  74   2.0000      -8.010752      -217.9837
  75   2.0000      -8.003179      -217.7776
  76   2.0000      -6.048272      -164.5818
  77   2.0000      -6.044039      -164.4667
  78   2.0000      -6.042759      -164.4318
  79   2.0000      -5.979749      -162.7173
  80   2.0000      -5.979097      -162.6995
  81   2.0000      -5.971867      -162.5028
  82   2.0000      -5.971756      -162.4997
  83   2.0000      -5.969885      -162.4488
  84   2.0000      -5.962618      -162.2511
  85   2.0000      -1.143784       -31.1239
  86   2.0000      -1.139966       -31.0201
  87   2.0000      -1.092690       -29.7336
  88   2.0000      -1.085685       -29.5430
  89   2.0000      -1.073541       -29.2125
  90   2.0000      -1.067215       -29.0404
  91   2.0000      -1.061928       -28.8965
  92   2.0000      -1.027330       -27.9551
  93   2.0000      -1.023642       -27.8547
  94   2.0000      -1.007580       -27.4177
  95   2.0000      -1.001822       -27.2610
  96   2.0000      -1.000872       -27.2351
  97   2.0000      -0.999039       -27.1852
  98   2.0000      -0.995411       -27.0865
  99   2.0000      -0.977979       -26.6122
 100   2.0000      -0.972826       -26.4720
 101   2.0000      -0.968923       -26.3657
 102   2.0000      -0.967376       -26.3237
 103   2.0000      -0.934022       -25.4160
 104   2.0000      -0.929761       -25.3001
 105   2.0000      -0.926984       -25.2245
 106   2.0000      -0.917623       -24.9698
 107   2.0000      -0.916578       -24.9414
 108   2.0000      -0.905168       -24.6309
 109   2.0000      -0.899781       -24.4843
 110   2.0000      -0.899197       -24.4684
 111   2.0000      -0.879662       -23.9368
 112   2.0000      -0.873216       -23.7614
 113   2.0000      -0.870225       -23.6800
 114   2.0000      -0.859747       -23.3949
 115   2.0000      -0.859200       -23.3800
 116   2.0000      -0.855837       -23.2885
 117   2.0000      -0.852279       -23.1917
 118   2.0000      -0.847138       -23.0518
 119   2.0000      -0.834785       -22.7157
 120   2.0000      -0.829882       -22.5822
 121   2.0000      -0.813010       -22.1231
 122   2.0000      -0.795945       -21.6588
 123   2.0000      -0.788781       -21.4638
 124   2.0000      -0.781415       -21.2634
 125   2.0000      -0.777018       -21.1437
 126   2.0000      -0.769441       -20.9376
 127   2.0000      -0.762640       -20.7525
 128   2.0000      -0.749648       -20.3990
 129   2.0000      -0.743882       -20.2421
 130   2.0000      -0.743049       -20.2194
 131   2.0000      -0.723466       -19.6865
 132   2.0000      -0.719841       -19.5879
 133   2.0000      -0.717182       -19.5155
 134   2.0000      -0.715159       -19.4605
 135   2.0000      -0.713807       -19.4237
 136   2.0000      -0.708242       -19.2722
 137   2.0000      -0.703588       -19.1456
 138   2.0000      -0.698186       -18.9986
 139   2.0000      -0.696267       -18.9464
 140   2.0000      -0.690744       -18.7961
 141   2.0000      -0.684220       -18.6186
 142   2.0000      -0.679563       -18.4918
 143   2.0000      -0.658405       -17.9161
 144   2.0000      -0.650901       -17.7119
 145   2.0000      -0.647899       -17.6302
 146   2.0000      -0.644254       -17.5310
 147   2.0000      -0.639691       -17.4069
 148   2.0000      -0.637726       -17.3534
 149   2.0000      -0.630482       -17.1563
 150   2.0000      -0.614279       -16.7154
 151   2.0000      -0.608238       -16.5510
 152   2.0000      -0.607546       -16.5322
 153   2.0000      -0.598441       -16.2844
 154   2.0000      -0.597211       -16.2509
 155   2.0000      -0.596446       -16.2301
 156   2.0000      -0.595467       -16.2035
 157   2.0000      -0.587785       -15.9944
 158   2.0000      -0.585100       -15.9214
 159   2.0000      -0.582742       -15.8572
 160   2.0000      -0.580128       -15.7861
 161   2.0000      -0.575954       -15.6725
 162   2.0000      -0.571362       -15.5475
 163   2.0000      -0.562745       -15.3131
 164   2.0000      -0.560046       -15.2396
 165   2.0000      -0.556065       -15.1313
 166   2.0000      -0.552040       -15.0218
 167   2.0000      -0.549103       -14.9419
 168   2.0000      -0.547278       -14.8922
 169   2.0000      -0.545651       -14.8479
 170   2.0000      -0.543415       -14.7871
 171   2.0000      -0.541358       -14.7311
 172   2.0000      -0.536973       -14.6118
 173   2.0000      -0.535720       -14.5777
 174   2.0000      -0.532101       -14.4792
 175   2.0000      -0.527592       -14.3565
 176   2.0000      -0.526288       -14.3210
 177   2.0000      -0.522524       -14.2186
 178   2.0000      -0.519233       -14.1291
 179   2.0000      -0.518644       -14.1130
 180   2.0000      -0.516075       -14.0431
 181   2.0000      -0.515047       -14.0152
 182   2.0000      -0.511125       -13.9084
 183   2.0000      -0.510779       -13.8990
 184   2.0000      -0.506764       -13.7898
 185   2.0000      -0.505464       -13.7544
 186   2.0000      -0.504090       -13.7170
 187   2.0000      -0.499453       -13.5908
 188   2.0000      -0.498264       -13.5585
 189   2.0000      -0.496007       -13.4970
 190   2.0000      -0.493783       -13.4365
 191   2.0000      -0.491894       -13.3851
 192   2.0000      -0.490230       -13.3398
 193   2.0000      -0.487288       -13.2598
 194   2.0000      -0.485487       -13.2108
 195   2.0000      -0.482824       -13.1383
 196   2.0000      -0.478881       -13.0310
 197   2.0000      -0.476588       -12.9686
 198   2.0000      -0.474891       -12.9224
 199   2.0000      -0.470121       -12.7926
 200   2.0000      -0.466963       -12.7067
 201   2.0000      -0.461503       -12.5581
 202   2.0000      -0.456865       -12.4319
 203   2.0000      -0.455692       -12.4000
 204   2.0000      -0.454784       -12.3753
 205   2.0000      -0.449246       -12.2246
 206   2.0000      -0.448650       -12.2084
 207   2.0000      -0.447438       -12.1754
 208   2.0000      -0.445632       -12.1263
 209   2.0000      -0.442759       -12.0481
 210   2.0000      -0.441796       -12.0219
 211   2.0000      -0.439811       -11.9679
 212   2.0000      -0.438489       -11.9319
 213   2.0000      -0.435746       -11.8572
 214   2.0000      -0.435315       -11.8455
 215   2.0000      -0.432371       -11.7654
 216   2.0000      -0.430370       -11.7110
 217   2.0000      -0.429194       -11.6790
 218   2.0000      -0.428282       -11.6542
 219   2.0000      -0.426472       -11.6049
 220   2.0000      -0.422153       -11.4874
 221   2.0000      -0.419797       -11.4233
 222   2.0000      -0.415348       -11.3022
 223   2.0000      -0.412269       -11.2184
 224   2.0000      -0.407433       -11.0868
 225   2.0000      -0.405973       -11.0471
 226   2.0000      -0.385016       -10.4768
 227   2.0000      -0.378574       -10.3015
 228   2.0000      -0.368694       -10.0327
 229   2.0000      -0.368151       -10.0179
 230   2.0000      -0.365185        -9.9372
 231   2.0000      -0.363010        -9.8780
 232   2.0000      -0.360970        -9.8225
 233   2.0000      -0.358216        -9.7476
 234   2.0000      -0.353814        -9.6278
 235   2.0000      -0.346145        -9.4191
 236   2.0000      -0.344594        -9.3769
 237   2.0000      -0.342401        -9.3172
 238   2.0000      -0.341552        -9.2941
 239   2.0000      -0.337212        -9.1760
 240   2.0000      -0.329905        -8.9772
 241   2.0000      -0.327970        -8.9245
 242   2.0000      -0.319235        -8.6868
 243   2.0000      -0.315435        -8.5834
 244   2.0000      -0.311027        -8.4635
 245   2.0000      -0.305191        -8.3047
 246   2.0000      -0.299827        -8.1587
 247   2.0000      -0.292875        -7.9695
 248   2.0000      -0.289649        -7.8817
 249   2.0000      -0.272195        -7.4068
 250   2.0000      -0.257659        -7.0113
 251   0.0000      -0.131164        -3.5692
 252   0.0000      -0.115571        -3.1448
 253   0.0000      -0.100276        -2.7287
 254   0.0000      -0.089547        -2.4367
 255   0.0000      -0.083203        -2.2641

MULLIKEN ATOMIC CHARGES
-----------------------
   0 C :   -0.079906
   1 C :    0.109741
   2 O :   -0.143979
   3 C :    0.011644
   4 C :    0.000973
   5 C :    0.339801
   6 C :   -0.398969
   7 C :   -0.206205
   8 N :    0.180119
   9 C :   -0.169183
  10 N :    0.170157
  11 C :   -0.034658
  12 C :    0.034283
  13 C :    0.076825
  14 C :    0.045163
  15 C :   -0.031372
  16 C :    0.040062
  17 C :    0.020452
  18 C :    0.008767
  19 C :   -0.031213
  20 C :    0.025043
  21 C :    0.067543
  22 N :   -0.015905
  23 C :   -0.004441
  24 C :    0.005492
  25 C :   -0.026854
  26 S :   -0.075593
  27 C :   -0.025306
  28 C :    0.028747
  29 N :   -0.015781
  30 C :    0.042184
  31 C :    0.009177
  32 C :   -0.139493
  33 C :    0.103103
  34 C :    0.008495
  35 N :   -0.044975
  36 C :    0.037619
  37 C :    0.003812
  38 C :    0.008022
  39 C :   -0.130249
  40 S :    0.286303
  41 C :   -0.013870
  42 C :    0.084955
  43 N :   -0.012925
  44 C :    0.003259
  45 C :   -0.030726
  46 C :   -0.005230
  47 S :   -0.110116
  48 C :    0.044625
  49 C :    0.027465
  50 N :   -0.011965
  51 C :    0.057846
  52 C :   -0.058040
  53 C :    0.010049
  54 C :   -0.105945
  55 C :    0.123864
  56 O :   -0.147737
  57 C :    0.005528
  58 C :   -0.008051
  59 C :    0.257993
  60 C :   -0.322647
  61 C :   -0.198900
  62 N :    0.182347
  63 C :   -0.178581
  64 N :    0.165237
  65 C :   -0.021866
  66 C :    0.009853
  67 C :    0.075429
  68 C :    0.042574
  69 C :   -0.033893
  70 C :    0.033819
  71 C :    0.040515
  72 C :   -0.016511
  73 H :   -0.003603
  74 H :   -0.018435
  75 H :   -0.002713
  76 H :   -0.008715
  77 H :   -0.015472
  78 H :   -0.021971
  79 H :    0.021580
  80 H :    0.013823
  81 H :    0.017744
  82 H :    0.012575
  83 H :    0.005514
  84 H :   -0.008204
  85 H :    0.022612
  86 H :    0.015376
  87 H :    0.026213
  88 H :    0.004806
  89 H :   -0.009676
  90 H :    0.000414
  91 H :   -0.006797
  92 H :   -0.004608
  93 H :   -0.018265
Sum of atomic charges:   -0.0000000

LOEWDIN ATOMIC CHARGES
----------------------
   0 C :   -0.049356
   1 C :    0.092378
   2 O :   -0.132002
   3 C :   -0.042743
   4 C :    0.003694
   5 C :    0.054576
   6 C :   -0.136382
   7 C :   -0.017228
   8 N :   -0.044872
   9 C :   -0.029068
  10 N :   -0.045609
  11 C :   -0.021802
  12 C :    0.034499
  13 C :   -0.005454
  14 C :    0.001682
  15 C :   -0.005852
  16 C :   -0.011865
  17 C :   -0.022057
  18 C :   -0.001764
  19 C :    0.037554
  20 C :   -0.046602
  21 C :    0.092788
  22 N :   -0.070182
  23 C :    0.036877
  24 C :   -0.004994
  25 C :   -0.151990
  26 S :    0.138883
  27 C :   -0.048541
  28 C :    0.040830
  29 N :   -0.067191
  30 C :    0.082271
  31 C :   -0.050726
  32 C :   -0.177356
  33 C :   -0.055758
  34 C :   -0.019059
  35 N :   -0.063420
  36 C :    0.034384
  37 C :   -0.042270
  38 C :    0.018337
  39 C :   -0.186089
  40 S :    0.587605
  41 C :   -0.040792
  42 C :    0.110011
  43 N :   -0.073936
  44 C :    0.059418
  45 C :   -0.051138
  46 C :   -0.145490
  47 S :    0.065851
  48 C :    0.004072
  49 C :    0.027483
  50 N :   -0.070788
  51 C :    0.079008
  52 C :   -0.060829
  53 C :    0.069374
  54 C :   -0.077329
  55 C :    0.089660
  56 O :   -0.136984
  57 C :   -0.035180
  58 C :   -0.002563
  59 C :    0.065042
  60 C :   -0.126117
  61 C :   -0.021334
  62 N :   -0.030745
  63 C :   -0.020632
  64 N :   -0.039519
  65 C :   -0.016556
  66 C :    0.023017
  67 C :   -0.008946
  68 C :   -0.002377
  69 C :   -0.004946
  70 C :   -0.012400
  71 C :   -0.011113
  72 C :   -0.009642
  73 H :    0.037500
  74 H :    0.033253
  75 H :    0.034492
  76 H :    0.031815
  77 H :    0.027497
  78 H :    0.028769
  79 H :    0.048407
  80 H :    0.028693
  81 H :    0.025596
  82 H :    0.026606
  83 H :    0.037315
  84 H :    0.033615
  85 H :    0.026053
  86 H :    0.024138
  87 H :    0.048140
  88 H :    0.040875
  89 H :    0.037195
  90 H :    0.035132
  91 H :    0.030250
  92 H :    0.033194
  93 H :    0.031761

  Mayer bond orders larger than 0.100000
B(  0-C ,  1-C ) :   0.9271 B(  0-C ,  5-C ) :   1.0953 B(  0-C , 19-C ) :   1.6396
B(  1-C ,  2-O ) :   2.1915 B(  1-C ,  3-C ) :   0.9473 B(  3-C ,  4-C ) :   1.4072
B(  3-C , 14-C ) :   1.2330 B(  4-C ,  5-C ) :   1.0050 B(  4-C , 11-C ) :   1.2710
B(  5-C ,  6-C ) :   1.5408 B(  6-C ,  7-C ) :   1.1825 B(  6-C ,  9-C ) :   1.1109
B(  6-C , 26-S ) :   0.1746 B(  7-C ,  8-N ) :   3.0037 B(  9-C , 10-N ) :   3.0038
B( 11-C , 12-C ) :   1.4541 B( 11-C , 73-H ) :   0.9837 B( 12-C , 13-C ) :   1.2362
B( 12-C , 74-H ) :   0.9881 B( 13-C , 14-C ) :   1.2415 B( 13-C , 18-C ) :   1.2503
B( 14-C , 15-C ) :   1.2715 B( 15-C , 16-C ) :   1.4792 B( 15-C , 75-H ) :   0.9872
B( 16-C , 17-C ) :   1.2524 B( 16-C , 76-H ) :   0.9867 B( 17-C , 18-C ) :   1.4872
B( 17-C , 77-H ) :   0.9880 B( 18-C , 78-H ) :   0.9901 B( 19-C , 20-C ) :   1.1228
B( 19-C , 79-H ) :   0.9299 B( 20-C , 21-C ) :   1.0155 B( 20-C , 24-C ) :   1.4433
B( 21-C , 22-N ) :   1.7241 B( 21-C , 80-H ) :   0.9930 B( 22-N , 23-C ) :   1.2763
B( 23-C , 24-C ) :   1.0720 B( 23-C , 28-C ) :   1.5140 B( 24-C , 25-C ) :   1.0683
B( 25-C , 26-S ) :   1.6227 B( 25-C , 27-C ) :   1.0384 B( 27-C , 28-C ) :   1.0810
B( 27-C , 31-C ) :   1.5027 B( 28-C , 29-N ) :   1.2443 B( 29-N , 30-C ) :   1.7641
B( 30-C , 31-C ) :   1.0029 B( 30-C , 81-H ) :   0.9884 B( 31-C , 32-C ) :   1.1581
B( 32-C , 33-C ) :   1.2614 B( 32-C , 39-C ) :   0.1072 B( 32-C , 40-S ) :   1.1773
B( 33-C , 34-C ) :   1.2269 B( 33-C , 38-C ) :   1.2525 B( 34-C , 35-N ) :   1.4337
B( 34-C , 39-C ) :   1.2554 B( 35-N , 36-C ) :   1.6428 B( 36-C , 37-C ) :   1.2375
B( 36-C , 82-H ) :   0.9786 B( 37-C , 38-C ) :   1.5410 B( 37-C , 83-H ) :   0.9714
B( 38-C , 84-H ) :   0.9792 B( 39-C , 40-S ) :   1.1958 B( 39-C , 41-C ) :   1.1919
B( 41-C , 42-C ) :   1.0288 B( 41-C , 45-C ) :   1.4677 B( 42-C , 43-N ) :   1.7179
B( 42-C , 85-H ) :   0.9715 B( 43-N , 44-C ) :   1.2611 B( 44-C , 45-C ) :   1.0750
B( 44-C , 49-C ) :   1.5099 B( 45-C , 46-C ) :   1.0546 B( 46-C , 47-S ) :   1.6665
B( 46-C , 48-C ) :   1.0169 B( 48-C , 49-C ) :   1.0802 B( 48-C , 52-C ) :   1.5530
B( 49-C , 50-N ) :   1.2610 B( 50-N , 51-C ) :   1.7474 B( 51-C , 52-C ) :   1.0006
B( 51-C , 86-H ) :   0.9884 B( 52-C , 53-C ) :   1.0363 B( 53-C , 54-C ) :   1.7044
B( 53-C , 87-H ) :   0.9456 B( 54-C , 55-C ) :   0.9521 B( 54-C , 59-C ) :   1.0109
B( 55-C , 56-O ) :   2.1772 B( 55-C , 57-C ) :   0.9440 B( 57-C , 58-C ) :   1.4123
B( 57-C , 68-C ) :   1.2325 B( 58-C , 59-C ) :   1.0054 B( 58-C , 65-C ) :   1.2632
B( 59-C , 60-C ) :   1.6646 B( 60-C , 61-C ) :   1.1504 B( 60-C , 63-C ) :   1.1266
B( 61-C , 62-N ) :   3.0112 B( 63-C , 64-N ) :   2.9973 B( 65-C , 66-C ) :   1.4673
B( 65-C , 88-H ) :   0.9862 B( 66-C , 67-C ) :   1.2226 B( 66-C , 89-H ) :   0.9934
B( 67-C , 68-C ) :   1.2421 B( 67-C , 72-C ) :   1.2411 B( 68-C , 69-C ) :   1.2766
B( 69-C , 70-C ) :   1.4721 B( 69-C , 90-H ) :   0.9851 B( 70-C , 71-C ) :   1.2573
B( 70-C , 91-H ) :   0.9845 B( 71-C , 72-C ) :   1.4945 B( 71-C , 92-H ) :   0.9888
B( 72-C , 93-H ) :   0.9971

-----------------------------------------------------------------------------
         ABSORPTION SPECTRUM VIA TRANSITION ELECTRIC DIPOLE MOMENTS
-----------------------------------------------------------------------------
State   Energy  Wavelength   fosc         T2         TX        TY        TZ
        (cm-1)    (nm)                  (au**2)     (au)      (au)      (au)
-----------------------------------------------------------------------------
   0   10370.1    964.3   0.051567081   1.63706   0.99120  -0.37327   0.71782
   1   11890.7    841.0   0.151179460   4.18565  -1.73796   0.27173  -1.04466
   2   13598.3    735.4   0.040699784   0.98533  -0.80486   0.51637   0.26627
   3   14236.7    702.4   0.034368631   0.79475  -0.55120   0.63141   0.30372
   4   15031.1    665.3   0.000755045   0.01654  -0.08688   0.00559  -0.09465
   5   16484.7    606.6   0.004082085   0.08152  -0.26707   0.03623  -0.09424
   6   17553.5    569.7   0.217039689   4.07054  -1.75683   0.45874  -0.87957
   7   19157.6    522.0   0.007781724   0.13372  -0.16845   0.29571   0.13381
   8   19502.3    512.8   0.012325455   0.20806   0.28640  -0.34656  -0.07703
   9   20285.0    493.0   0.037205336   0.60382  -0.53463   0.37496   0.42118
  10   20591.6    485.6   0.102619819   1.64065   0.46508  -0.55144  -1.05843
  11   21209.0    471.5   0.129989914   2.01774   0.02602   1.02490   0.98318
  12   21400.6    467.3   0.032226804   0.49575   0.29045  -0.42756  -0.47811
  13   21787.9    459.0   0.047360607   0.71561  -0.44435   0.54899   0.46559
  14   22256.7    449.3   0.022601615   0.33431  -0.37878   0.21657   0.37939
  15   23001.8    434.7   0.045816539   0.65575  -0.58792   0.37856   0.40840
  16   23735.6    421.3   0.034688265   0.48112   0.48278  -0.39675  -0.30107
  17   23898.2    418.4   0.006737742   0.09282  -0.06665   0.04895  -0.29322
  18   24357.4    410.6   0.252652229   3.41482  -1.39361   0.76161   0.94478
  19   24602.2    406.5   0.008042633   0.10762   0.12639  -0.29550  -0.06576
  20   24804.1    403.2   0.017459636   0.23173  -0.29954  -0.00393  -0.37682
  21   24956.2    400.7   0.025697505   0.33899  -0.20091  -0.42652  -0.34162
  22   25045.6    399.3   0.013819306   0.18165   0.08630  -0.25580  -0.32980
  23   25300.4    395.3   0.013416242   0.17457  -0.41531   0.00445   0.04551
  24   25354.3    394.4   0.002478132   0.03218   0.08827   0.02328   0.15442
  25   25581.8    390.9   0.056029151   0.72104  -0.18664   0.42960   0.70827
  26   25672.3    389.5   0.092337990   1.18411   0.63686  -0.84338  -0.25927
  27   25987.5    384.8   0.028324034   0.35881  -0.16816   0.40279   0.41024
  28   26376.1    379.1   0.126994323   1.58508   0.83550  -0.57266  -0.74771
  29   26506.1    377.3   0.036363013   0.45164   0.26396  -0.42048  -0.45295
  30   26880.2    372.0   0.027631648   0.33841   0.52044  -0.25927  -0.01842
  31   27406.8    364.9   0.009103561   0.10935  -0.10331   0.24755   0.19338
  32   27650.2    361.7   0.169462050   2.01767  -0.92734   0.79885   0.72079
  33   27814.4    359.5   0.025334911   0.29986   0.12721  -0.52619  -0.08250
  34   27979.9    357.4   0.071568548   0.84208  -0.02979   0.57675   0.71312
  35   28125.4    355.6   0.058081408   0.67985  -0.05113   0.73403   0.37207
  36   28476.6    351.2   0.003176038   0.03672   0.00577   0.18628  -0.04453
  37   28579.2    349.9   0.060171317   0.69313   0.18640  -0.62269  -0.52023
  38   28627.0    349.3   0.185165344   2.12941  -0.06464   1.06764   0.99266
  39   28882.4    346.2   0.139271349   1.58746  -0.76782   0.89217   0.44938
  40   29053.7    344.2   0.018562646   0.21034   0.44959   0.02464   0.08716
  41   29118.2    343.4   0.265894314   3.00622  -0.88599   1.18552   0.90321
  42   29253.8    341.8   0.042486362   0.47813  -0.60597   0.28974   0.16424
  43   29594.9    337.9   0.007869025   0.08753   0.00989   0.14613  -0.25706
  44   29824.6    335.3   0.095609023   1.05536   0.16492  -0.74871  -0.68381
  45   29954.1    333.8   0.027592734   0.30326  -0.16459  -0.19227  -0.48908
  46   30034.0    333.0   0.044553416   0.48836  -0.48805   0.38729   0.31650
  47   30303.8    330.0   0.156052443   1.69531   1.00712  -0.60219  -0.56425
  48   30410.9    328.8   0.035667825   0.38612   0.46384  -0.40597   0.07853
  49   30542.8    327.4   0.026939575   0.29037  -0.01785  -0.31121  -0.43955
  50   30881.3    323.8   0.010980365   0.11706   0.28246   0.16008  -0.10792
  51   30909.8    323.5   0.239592475   2.55183  -0.93573   1.25965   0.29922
  52   30986.4    322.7   0.016240204   0.17254  -0.26902  -0.13485   0.28634
  53   31142.6    321.1   0.011193011   0.11832   0.04104   0.11800   0.32049
  54   31242.8    320.1   0.018731102   0.19737   0.11443   0.27380   0.33062
  55   31451.8    317.9   0.046792945   0.48979  -0.26126  -0.15206  -0.63120
  56   31529.8    317.2   0.047733529   0.49840  -0.08915   0.27842  -0.64260
  57   31754.9    314.9   0.020367381   0.21115   0.29850  -0.14715  -0.31686
  58   31907.7    313.4   0.262361345   2.70695   0.10469   1.02988   1.27880
  59   32158.0    311.0   0.039691188   0.40633   0.32970   0.28602  -0.46456
  60   32227.3    310.3   0.096762542   0.98846   0.87124  -0.44706  -0.17187
  61   32335.0    309.3   0.046109008   0.46945   0.60179   0.07328  -0.31927
  62   32391.3    308.7   0.123588206   1.25610  -0.21467  -0.51216  -0.97350
  63   32536.6    307.3   0.331979171   3.35904   0.10487   1.03052   1.51198
  64   32800.1    304.9   0.267082228   2.68068   0.59031  -0.92179  -1.21759
  65   33081.9    302.3   0.054016788   0.53754   0.36787  -0.59357  -0.22337
  66   33129.1    301.8   0.315623052   3.13642  -0.22559   1.26581   1.21789
  67   33229.3    300.9   0.024388024   0.24162  -0.12456   0.29824   0.37035
  68   33334.8    300.0   0.001317483   0.01301  -0.05365   0.02143   0.09835
  69   33509.3    298.4   0.016665483   0.16373   0.23442  -0.02306  -0.32900
  70   33813.8    295.7   0.110458922   1.07543   0.31898   0.03602   0.98609
  71   34088.6    293.4   0.132799471   1.28251   0.36498  -0.99534  -0.39825
  72   34147.9    292.8   0.106331582   1.02512   0.15767  -0.77559  -0.63144
  73   34202.0    292.4   0.056210634   0.54106  -0.37475   0.63136   0.04474
  74   34469.1    290.1   0.345224452   3.29722   0.90888  -1.16074  -1.06011
  75   34534.5    289.6   0.021225652   0.20234   0.36413  -0.25995  -0.04666
  76   34585.8    289.1   0.082934316   0.78943  -0.32853   0.36160   0.74212
  77   34680.1    288.4   0.005125604   0.04866   0.06731   0.01691  -0.20938
  78   34853.2    286.9   0.002929778   0.02767  -0.02669  -0.05627   0.15426
  79   34989.6    285.8   0.020628888   0.19409  -0.06439   0.40830  -0.15246
  80   35096.9    284.9   0.034763361   0.32608   0.04411  -0.10181  -0.56015
  81   35230.3    283.8   0.000753855   0.00704   0.06373  -0.03733   0.03987
  82   35560.8    281.2   0.025719303   0.23810   0.13199  -0.06466  -0.46530
  83   35622.9    280.7   0.027903235   0.25787   0.22209  -0.36355  -0.27636
  84   35808.4    279.3   0.465100521   4.27600   0.08675   0.19258   2.05703
  85   35865.2    278.8   0.012774484   0.11726  -0.02087  -0.02811  -0.34064
  86   36053.6    277.4   0.021631741   0.19752  -0.23123  -0.21225   0.31465
  87   36231.4    276.0   0.027751821   0.25216  -0.45041   0.12567  -0.18304
  88   36330.3    275.3   0.091556417   0.82965  -0.58816   0.13541  -0.68219
  89   36440.4    274.4   0.049740740   0.44937  -0.14916  -0.11999   0.64243
  90   36644.1    272.9   0.013357585   0.12000  -0.17936   0.21264   0.20645
  91   36803.3    271.7   0.007642312   0.06836  -0.06641   0.25288   0.00155
  92   36913.3    270.9   0.051569663   0.45992  -0.67359   0.06704   0.04127
  93   37159.6    269.1   0.027830289   0.24656  -0.23338  -0.22835  -0.37410
  94   37179.6    269.0   0.158204337   1.40084   0.45002   0.24536   1.06683
  95   37273.9    268.3   0.093857367   0.82897  -0.45525   0.76257   0.20054
  96   37657.1    265.6   0.108080366   0.94488   0.74471  -0.36736   0.50530
  97   37751.2    264.9   0.014584775   0.12719   0.19247  -0.04648  -0.29662
  98   37864.1    264.1   0.070864843   0.61614  -0.18712  -0.02381  -0.76194
  99   38065.1    262.7   0.012924089   0.11178   0.21875  -0.21152   0.13850
 100   38327.9    260.9   0.012293488   0.10559  -0.28329   0.12384   0.10002
 101   38338.6    260.8   0.015577264   0.13376   0.14166   0.00429   0.33716
 102   38442.4    260.1   0.038337751   0.32832   0.31631  -0.40849  -0.24780
 103   38685.9    258.5   0.059041596   0.50244   0.34489  -0.61623  -0.06123
 104   38730.8    258.2   0.019911666   0.16925   0.27739  -0.09497   0.28859
 105   38775.9    257.9   0.025548364   0.21691   0.07436   0.30540   0.34367
 106   38985.3    256.5   0.106310245   0.89774   0.81890  -0.36407  -0.30756
 107   39031.7    256.2   0.055230970   0.46584   0.39792  -0.50560   0.22777
 108   39163.7    255.3   0.011449756   0.09625  -0.02182  -0.02192   0.30869
 109   39382.7    253.9   0.025203552   0.21068   0.05013  -0.42001  -0.17823
 110   39647.4    252.2   0.002306271   0.01915   0.09989  -0.07908   0.05403
 111   39876.8    250.8   0.079512573   0.65643   0.73361  -0.34357  -0.01438
 112   39932.4    250.4   0.051549881   0.42499  -0.17386   0.22427  -0.58691
 113   40089.3    249.4   0.014634879   0.12018  -0.23597   0.24505   0.06671
 114   40217.3    248.6   0.006515481   0.05333  -0.09242  -0.09064   0.19126

FINAL SINGLE POINT ENERGY     -4094.406197042096

DIPOLE MOMENT
-------------
                                X             Y             Z
Electronic contribution:    -12.85233      25.48575      22.15651
Nuclear contribution   :     12.83385     -26.62071     -23.78360
                        -----------------------------------------
Total Dipole Moment    :     -0.01848      -1.13495      -1.62709
                        -----------------------------------------
Magnitude (a.u.)       :      1.98390
Magnitude (Debye)      :      5.04269

Rotational constants in cm-1:     0.001305     0.000707     0.000489
Rotational constants in MHz :    39.125868    21.182472    14.656222

                             ****ORCA TERMINATED NORMALLY****
TOTAL RUN TIME: 0 days 0 hours 13 minutes 58 seconds 623 msec
