                         Program Version 4.2.0 -  RELEASE  -
|  1> # ORCA input file
|  2> # SCF done       -199.806657360660          0.000761114412
|  3> ! CAM-B3LYP def2-SVP def2/J RIJCOSX Grid4 TightSCF
|  4> %maxcore 5000
|  5> %tddft
|  6>     Mode sTDDFT
|  7>     Ethresh 5.0
|  8>     maxcore 5000
|  9> end
| 10>
| 11> %pal
| 12>   nprocs 6
| 13>   end
| 14> * xyz 0 1
| 15>    C        4.47530        -1.96203         0.60413
| 16>    C        4.41300        -3.38001         1.08086
| 17>    O        5.33734        -4.00884         1.54786
| 18>    C        3.01470        -3.79784         0.89611
| 19>    C        2.31433        -2.78165         0.24708
| 20>    C        3.22848        -1.68772        -0.07420
| 21>    C        2.98753        -0.70707        -0.99804
| 22>    C        3.94584         0.21662        -1.45709
| 23>    N        4.66698         1.00090        -1.88558
| 24>    C        1.75514        -0.51059        -1.65552
| 25>    N        0.77858        -0.26964        -2.20926
| 26>    C        0.94453        -2.92010        -0.01456
| 27>    C        0.31235        -4.07419         0.36864
| 28>    C        0.99808        -5.12922         1.00942
| 29>    C        2.38924        -4.99742         1.28866
| 30>    C        3.07090        -6.05080         1.93137
| 31>    C        2.40112        -7.19109         2.27969
| 32>    C        1.03051        -7.32674         2.00595
| 33>    C        0.34331        -6.31944         1.38632
| 34>    C        5.57620        -1.24497         0.93758
| 35>    C        5.90260         0.15239         0.90725
| 36>    C        4.94001         1.18842         0.98712
| 37>    O        3.66315         0.78622         1.16086
| 38>    C        2.65279         1.68948         1.56558
| 39>    C        5.36318         2.52367         0.90934
| 40>    O        4.42661         3.53347         0.78651
| 41>    C        4.39923         4.12121        -0.50227
| 42>    C        6.72889         2.82824         0.89215
| 43>    C        7.67126         1.80128         0.85621
| 44>    C        7.26028         0.49373         0.85494
| 45>    C        7.16138         4.22343         0.96791
| 46>    C        8.13415         4.77222         0.12338
| 47>    C        8.52607         6.15446         0.21937
| 48>    N        9.52301         6.62501        -0.57218
| 49>    C       10.03896         5.83976        -1.44936
| 50>    C        9.59074         4.49103        -1.60403
| 51>    N        8.69280         3.98593        -0.83333
| 52>    F       10.11894         3.71150        -2.54391
| 53>    F       11.03182         6.30825        -2.20302
| 54>    C        7.93158         7.03256         1.13398
| 55>    C        6.99667         6.47617         2.01693
| 56>    C        6.61899         5.08206         1.93609
| 57>    N        5.73196         4.75776         2.88492
| 58>    S        5.39155         6.05960         3.74436
| 59>    N        6.34374         7.10787         3.00096
| 60>    C        8.28718         8.44975         1.17385
| 61>    C        8.31344         9.20002        -0.00965
| 62>    O        7.85660         8.63776        -1.18781
| 63>    C        6.44781         8.50551        -1.22923
| 64>    C        8.74248        10.53405         0.02273
| 65>    O        8.88187        11.36182        -1.03158
| 66>    C        8.83983        10.87475        -2.35864
| 67>    C        9.00462        11.13333         1.27385
| 68>    C        8.91781        10.37901         2.44334
| 69>    C        8.59358         9.04547         2.39473
| 70>    C        9.37023        12.53004         1.32429
| 71>    C        8.97521        13.41417         2.26398
| 72>    C        9.70341        14.69895         2.47660
| 73>    O       10.49016        15.20979         1.71224
| 74>    C        9.29569        15.14844         3.82115
| 75>    C        8.29254        14.31007         4.31116
| 76>    C        7.96108        13.31269         3.30061
| 77>    C        6.79903        12.59411         3.22970
| 78>    C        6.39824        11.83216         2.11092
| 79>    N        5.96492        11.25227         1.21997
| 80>    C        5.80562        12.59802         4.23132
| 81>    N        4.97506        12.55061         5.02231
| 82>    C        7.75580        14.51156         5.59031
| 83>    C        8.23317        15.54742         6.34910
| 84>    C        9.24131        16.41873         5.88041
| 85>    C        9.79583        16.22350         4.58186
| 86>    C       10.80523        17.09291         4.12061
| 87>    C       11.24705        18.11522         4.91443
| 88>    C       10.70408        18.31219         6.19424
| 89>    C        9.72349        17.48403         6.66737
| 90>    H        0.39117        -2.13175        -0.49804
| 91>    H       -0.74460        -4.19342         0.17801
| 92>    H        4.12331        -5.93500         2.13678
| 93>    H        2.92410        -7.99873         2.76979
| 94>    H        0.52174        -8.23611         2.28996
| 95>    H       -0.71132        -6.42147         1.17454
| 96>    H        6.36835        -1.86716         1.35009
| 97>    H        1.84711         1.06080         1.94767
| 98>    H        2.28313         2.27954         0.72437
| 99>    H        3.00673         2.36034         2.34895
|100>    H        4.27910         3.35660        -1.27662
|101>    H        5.31213         4.68987        -0.70754
|102>    H        3.54347         4.79457        -0.50592
|103>    H        8.71939         2.04950         0.83542
|104>    H        7.98922        -0.30020         0.79941
|105>    H        6.20599         8.16968        -2.23655
|106>    H        5.95670         9.46166        -1.02330
|107>    H        6.09089         7.76685        -0.50301
|108>    H        7.81488        10.68034        -2.68077
|109>    H        9.43504         9.96776        -2.47259
|110>    H        9.26191        11.67525        -2.96668
|111>    H        9.15349        10.84595         3.38823
|112>    H        8.56859         8.45085         3.29316
|113>    H       10.06211        12.88708         0.57028
|114>    H        6.99192        13.85650         5.97663
|115>    H        7.83525        15.71289         7.33994
|116>    H       11.21536        16.93157         3.13625
|117>    H       12.02055        18.78041         4.56088
|118>    H       11.06876        19.12513         6.80454
|119>    H        9.30375        17.63372         7.65166
|120> *
|121>
|122>                          ****END OF INPUT****

CARTESIAN COORDINATES (ANGSTROEM)
---------------------------------
  C      4.475300   -1.962030    0.604130
  C      4.413000   -3.380010    1.080860
  O      5.337340   -4.008840    1.547860
  C      3.014700   -3.797840    0.896110
  C      2.314330   -2.781650    0.247080
  C      3.228480   -1.687720   -0.074200
  C      2.987530   -0.707070   -0.998040
  C      3.945840    0.216620   -1.457090
  N      4.666980    1.000900   -1.885580
  C      1.755140   -0.510590   -1.655520
  N      0.778580   -0.269640   -2.209260
  C      0.944530   -2.920100   -0.014560
  C      0.312350   -4.074190    0.368640
  C      0.998080   -5.129220    1.009420
  C      2.389240   -4.997420    1.288660
  C      3.070900   -6.050800    1.931370
  C      2.401120   -7.191090    2.279690
  C      1.030510   -7.326740    2.005950
  C      0.343310   -6.319440    1.386320
  C      5.576200   -1.244970    0.937580
  C      5.902600    0.152390    0.907250
  C      4.940010    1.188420    0.987120
  O      3.663150    0.786220    1.160860
  C      2.652790    1.689480    1.565580
  C      5.363180    2.523670    0.909340
  O      4.426610    3.533470    0.786510
  C      4.399230    4.121210   -0.502270
  C      6.728890    2.828240    0.892150
  C      7.671260    1.801280    0.856210
  C      7.260280    0.493730    0.854940
  C      7.161380    4.223430    0.967910
  C      8.134150    4.772220    0.123380
  C      8.526070    6.154460    0.219370
  N      9.523010    6.625010   -0.572180
  C     10.038960    5.839760   -1.449360
  C      9.590740    4.491030   -1.604030
  N      8.692800    3.985930   -0.833330
  F     10.118940    3.711500   -2.543910
  F     11.031820    6.308250   -2.203020
  C      7.931580    7.032560    1.133980
  C      6.996670    6.476170    2.016930
  C      6.618990    5.082060    1.936090
  N      5.731960    4.757760    2.884920
  S      5.391550    6.059600    3.744360
  N      6.343740    7.107870    3.000960
  C      8.287180    8.449750    1.173850
  C      8.313440    9.200020   -0.009650
  O      7.856600    8.637760   -1.187810
  C      6.447810    8.505510   -1.229230
  C      8.742480   10.534050    0.022730
  O      8.881870   11.361820   -1.031580
  C      8.839830   10.874750   -2.358640
  C      9.004620   11.133330    1.273850
  C      8.917810   10.379010    2.443340
  C      8.593580    9.045470    2.394730
  C      9.370230   12.530040    1.324290
  C      8.975210   13.414170    2.263980
  C      9.703410   14.698950    2.476600
  O     10.490160   15.209790    1.712240
  C      9.295690   15.148440    3.821150
  C      8.292540   14.310070    4.311160
  C      7.961080   13.312690    3.300610
  C      6.799030   12.594110    3.229700
  C      6.398240   11.832160    2.110920
  N      5.964920   11.252270    1.219970
  C      5.805620   12.598020    4.231320
  N      4.975060   12.550610    5.022310
  C      7.755800   14.511560    5.590310
  C      8.233170   15.547420    6.349100
  C      9.241310   16.418730    5.880410
  C      9.795830   16.223500    4.581860
  C     10.805230   17.092910    4.120610
  C     11.247050   18.115220    4.914430
  C     10.704080   18.312190    6.194240
  C      9.723490   17.484030    6.667370
  H      0.391170   -2.131750   -0.498040
  H     -0.744600   -4.193420    0.178010
  H      4.123310   -5.935000    2.136780
  H      2.924100   -7.998730    2.769790
  H      0.521740   -8.236110    2.289960
  H     -0.711320   -6.421470    1.174540
  H      6.368350   -1.867160    1.350090
  H      1.847110    1.060800    1.947670
  H      2.283130    2.279540    0.724370
  H      3.006730    2.360340    2.348950
  H      4.279100    3.356600   -1.276620
  H      5.312130    4.689870   -0.707540
  H      3.543470    4.794570   -0.505920
  H      8.719390    2.049500    0.835420
  H      7.989220   -0.300200    0.799410
  H      6.205990    8.169680   -2.236550
  H      5.956700    9.461660   -1.023300
  H      6.090890    7.766850   -0.503010
  H      7.814880   10.680340   -2.680770
  H      9.435040    9.967760   -2.472590
  H      9.261910   11.675250   -2.966680
  H      9.153490   10.845950    3.388230
  H      8.568590    8.450850    3.293160
  H     10.062110   12.887080    0.570280
  H      6.991920   13.856500    5.976630
  H      7.835250   15.712890    7.339940
  H     11.215360   16.931570    3.136250
  H     12.020550   18.780410    4.560880
  H     11.068760   19.125130    6.804540
  H      9.303750   17.633720    7.651660

 Total Charge           Charge          ....    0
 Multiplicity           Mult            ....    1
 Number of Electrons    NEL             ....  516
 Basis Dimension        Dim             .... 1204

ORBITAL ENERGIES
----------------

  NO   OCC          E(Eh)            E(eV)
   0   2.0000     -89.035228     -2422.7717
   1   2.0000     -24.807621      -675.0497
   2   2.0000     -24.806334      -675.0147
   3   2.0000     -19.256447      -523.9946
   4   2.0000     -19.249167      -523.7964
   5   2.0000     -19.233536      -523.3711
   6   2.0000     -19.232725      -523.3490
   7   2.0000     -19.214219      -522.8455
   8   2.0000     -19.212248      -522.7919
   9   2.0000     -14.444853      -393.0644
  10   2.0000     -14.443407      -393.0251
  11   2.0000     -14.440750      -392.9528
  12   2.0000     -14.440556      -392.9475
  13   2.0000     -14.413028      -392.1984
  14   2.0000     -14.411287      -392.1510
  15   2.0000     -14.411275      -392.1507
  16   2.0000     -14.411044      -392.1445
  17   2.0000     -10.423573      -283.6398
  18   2.0000     -10.420976      -283.5692
  19   2.0000     -10.364968      -282.0451
  20   2.0000     -10.360938      -281.9355
  21   2.0000     -10.345502      -281.5154
  22   2.0000     -10.341342      -281.4022
  23   2.0000     -10.340489      -281.3790
  24   2.0000     -10.338983      -281.3380
  25   2.0000     -10.338362      -281.3211
  26   2.0000     -10.336841      -281.2797
  27   2.0000     -10.336527      -281.2712
  28   2.0000     -10.331360      -281.1306
  29   2.0000     -10.331042      -281.1219
  30   2.0000     -10.330684      -281.1122
  31   2.0000     -10.329682      -281.0849
  32   2.0000     -10.329470      -281.0792
  33   2.0000     -10.318160      -280.7714
  34   2.0000     -10.315851      -280.7086
  35   2.0000     -10.314344      -280.6676
  36   2.0000     -10.314336      -280.6673
  37   2.0000     -10.313665      -280.6491
  38   2.0000     -10.313608      -280.6475
  39   2.0000     -10.312989      -280.6307
  40   2.0000     -10.310189      -280.5545
  41   2.0000     -10.307322      -280.4765
  42   2.0000     -10.306898      -280.4650
  43   2.0000     -10.306403      -280.4515
  44   2.0000     -10.305802      -280.4351
  45   2.0000     -10.303579      -280.3746
  46   2.0000     -10.303085      -280.3612
  47   2.0000     -10.295021      -280.1418
  48   2.0000     -10.294264      -280.1212
  49   2.0000     -10.293853      -280.1100
  50   2.0000     -10.293590      -280.1028
  51   2.0000     -10.291753      -280.0528
  52   2.0000     -10.291178      -280.0372
  53   2.0000     -10.291051      -280.0337
  54   2.0000     -10.290514      -280.0191
  55   2.0000     -10.290242      -280.0117
  56   2.0000     -10.289947      -280.0037
  57   2.0000     -10.289764      -279.9987
  58   2.0000     -10.288366      -279.9607
  59   2.0000     -10.287426      -279.9351
  60   2.0000     -10.286221      -279.9023
  61   2.0000     -10.286081      -279.8985
  62   2.0000     -10.283096      -279.8173
  63   2.0000     -10.282658      -279.8053
  64   2.0000     -10.282149      -279.7915
  65   2.0000     -10.280036      -279.7340
  66   2.0000     -10.279736      -279.7258
  67   2.0000     -10.279175      -279.7106
  68   2.0000     -10.277289      -279.6593
  69   2.0000     -10.276304      -279.6325
  70   2.0000     -10.276036      -279.6252
  71   2.0000     -10.275751      -279.6174
  72   2.0000     -10.272931      -279.5407
  73   2.0000     -10.270429      -279.4726
  74   2.0000     -10.270093      -279.4634
  75   2.0000      -8.126589      -221.1357
  76   2.0000      -6.097475      -165.9207
  77   2.0000      -6.089767      -165.7110
  78   2.0000      -6.089714      -165.7096
  79   2.0000      -1.335298       -36.3353
  80   2.0000      -1.320901       -35.9436
  81   2.0000      -1.164467       -31.6868
  82   2.0000      -1.158326       -31.5197
  83   2.0000      -1.134477       -30.8707
  84   2.0000      -1.132536       -30.8179
  85   2.0000      -1.129229       -30.7279
  86   2.0000      -1.129120       -30.7249
  87   2.0000      -1.126908       -30.6647
  88   2.0000      -1.103532       -30.0286
  89   2.0000      -1.029673       -28.0188
  90   2.0000      -1.016141       -27.6506
  91   2.0000      -1.012976       -27.5645
  92   2.0000      -0.996614       -27.1192
  93   2.0000      -0.993984       -27.0477
  94   2.0000      -0.990663       -26.9573
  95   2.0000      -0.990021       -26.9398
  96   2.0000      -0.985061       -26.8049
  97   2.0000      -0.974516       -26.5179
  98   2.0000      -0.967478       -26.3264
  99   2.0000      -0.963163       -26.2090
 100   2.0000      -0.956265       -26.0213
 101   2.0000      -0.949436       -25.8355
 102   2.0000      -0.920654       -25.0523
 103   2.0000      -0.916735       -24.9456
 104   2.0000      -0.905613       -24.6430
 105   2.0000      -0.899744       -24.4833
 106   2.0000      -0.894758       -24.3476
 107   2.0000      -0.886969       -24.1356
 108   2.0000      -0.874058       -23.7843
 109   2.0000      -0.871149       -23.7052
 110   2.0000      -0.859935       -23.4000
 111   2.0000      -0.852731       -23.2040
 112   2.0000      -0.848379       -23.0856
 113   2.0000      -0.846150       -23.0249
 114   2.0000      -0.841769       -22.9057
 115   2.0000      -0.837536       -22.7905
 116   2.0000      -0.825081       -22.4516
 117   2.0000      -0.817442       -22.2437
 118   2.0000      -0.803899       -21.8752
 119   2.0000      -0.795046       -21.6343
 120   2.0000      -0.789120       -21.4730
 121   2.0000      -0.778860       -21.1939
 122   2.0000      -0.772712       -21.0266
 123   2.0000      -0.766310       -20.8523
 124   2.0000      -0.764471       -20.8023
 125   2.0000      -0.758384       -20.6367
 126   2.0000      -0.757011       -20.5993
 127   2.0000      -0.750000       -20.4086
 128   2.0000      -0.741122       -20.1669
 129   2.0000      -0.723510       -19.6877
 130   2.0000      -0.712001       -19.3745
 131   2.0000      -0.710396       -19.3309
 132   2.0000      -0.707776       -19.2596
 133   2.0000      -0.703000       -19.1296
 134   2.0000      -0.699969       -19.0471
 135   2.0000      -0.686989       -18.6939
 136   2.0000      -0.685715       -18.6593
 137   2.0000      -0.673620       -18.3301
 138   2.0000      -0.672123       -18.2894
 139   2.0000      -0.671157       -18.2631
 140   2.0000      -0.669153       -18.2086
 141   2.0000      -0.665227       -18.1017
 142   2.0000      -0.662150       -18.0180
 143   2.0000      -0.654675       -17.8146
 144   2.0000      -0.648169       -17.6376
 145   2.0000      -0.628666       -17.1069
 146   2.0000      -0.627499       -17.0751
 147   2.0000      -0.624592       -16.9960
 148   2.0000      -0.621019       -16.8988
 149   2.0000      -0.620079       -16.8732
 150   2.0000      -0.612416       -16.6647
 151   2.0000      -0.610103       -16.6018
 152   2.0000      -0.604611       -16.4523
 153   2.0000      -0.602974       -16.4078
 154   2.0000      -0.595914       -16.2156
 155   2.0000      -0.594223       -16.1696
 156   2.0000      -0.587016       -15.9735
 157   2.0000      -0.584991       -15.9184
 158   2.0000      -0.582948       -15.8628
 159   2.0000      -0.582290       -15.8449
 160   2.0000      -0.581528       -15.8242
 161   2.0000      -0.578547       -15.7431
 162   2.0000      -0.568575       -15.4717
 163   2.0000      -0.563667       -15.3382
 164   2.0000      -0.562135       -15.2965
 165   2.0000      -0.559765       -15.2320
 166   2.0000      -0.557889       -15.1809
 167   2.0000      -0.556259       -15.1366
 168   2.0000      -0.553759       -15.0686
 169   2.0000      -0.550503       -14.9800
 170   2.0000      -0.548933       -14.9372
 171   2.0000      -0.543738       -14.7959
 172   2.0000      -0.540220       -14.7001
 173   2.0000      -0.534857       -14.5542
 174   2.0000      -0.533182       -14.5086
 175   2.0000      -0.531609       -14.4658
 176   2.0000      -0.529421       -14.4063
 177   2.0000      -0.529324       -14.4036
 178   2.0000      -0.527628       -14.3575
 179   2.0000      -0.524871       -14.2825
 180   2.0000      -0.520272       -14.1573
 181   2.0000      -0.518772       -14.1165
 182   2.0000      -0.517780       -14.0895
 183   2.0000      -0.513051       -13.9608
 184   2.0000      -0.510726       -13.8976
 185   2.0000      -0.508089       -13.8258
 186   2.0000      -0.507922       -13.8213
 187   2.0000      -0.505483       -13.7549
 188   2.0000      -0.504552       -13.7296
 189   2.0000      -0.503346       -13.6968
 190   2.0000      -0.502160       -13.6645
 191   2.0000      -0.501106       -13.6358
 192   2.0000      -0.499944       -13.6042
 193   2.0000      -0.498624       -13.5683
 194   2.0000      -0.496385       -13.5073
 195   2.0000      -0.488816       -13.3014
 196   2.0000      -0.485448       -13.2097
 197   2.0000      -0.478352       -13.0166
 198   2.0000      -0.477809       -13.0018
 199   2.0000      -0.476057       -12.9542
 200   2.0000      -0.473522       -12.8852
 201   2.0000      -0.471083       -12.8188
 202   2.0000      -0.469911       -12.7869
 203   2.0000      -0.468166       -12.7394
 204   2.0000      -0.465398       -12.6641
 205   2.0000      -0.460547       -12.5321
 206   2.0000      -0.458098       -12.4655
 207   2.0000      -0.453957       -12.3528
 208   2.0000      -0.451271       -12.2797
 209   2.0000      -0.448731       -12.2106
 210   2.0000      -0.447391       -12.1741
 211   2.0000      -0.442536       -12.0420
 212   2.0000      -0.440122       -11.9763
 213   2.0000      -0.439141       -11.9496
 214   2.0000      -0.436847       -11.8872
 215   2.0000      -0.434857       -11.8331
 216   2.0000      -0.432010       -11.7556
 217   2.0000      -0.431210       -11.7338
 218   2.0000      -0.428907       -11.6712
 219   2.0000      -0.428800       -11.6682
 220   2.0000      -0.425588       -11.5808
 221   2.0000      -0.424910       -11.5624
 222   2.0000      -0.424577       -11.5533
 223   2.0000      -0.422552       -11.4982
 224   2.0000      -0.420117       -11.4320
 225   2.0000      -0.418791       -11.3959
 226   2.0000      -0.418148       -11.3784
 227   2.0000      -0.414893       -11.2898
 228   2.0000      -0.412573       -11.2267
 229   2.0000      -0.409382       -11.1399
 230   2.0000      -0.407162       -11.0794
 231   2.0000      -0.404732       -11.0133
 232   2.0000      -0.402290       -10.9469
 233   2.0000      -0.399668       -10.8755
 234   2.0000      -0.397117       -10.8061
 235   2.0000      -0.394564       -10.7366
 236   2.0000      -0.390526       -10.6267
 237   2.0000      -0.384420       -10.4606
 238   2.0000      -0.372703       -10.1418
 239   2.0000      -0.371595       -10.1116
 240   2.0000      -0.368701       -10.0329
 241   2.0000      -0.363500        -9.8913
 242   2.0000      -0.357476        -9.7274
 243   2.0000      -0.353069        -9.6075
 244   2.0000      -0.347427        -9.4540
 245   2.0000      -0.345153        -9.3921
 246   2.0000      -0.331191        -9.0122
 247   2.0000      -0.330705        -8.9990
 248   2.0000      -0.330071        -8.9817
 249   2.0000      -0.319164        -8.6849
 250   2.0000      -0.314772        -8.5654
 251   2.0000      -0.305344        -8.3088
 252   2.0000      -0.294562        -8.0154
 253   2.0000      -0.293679        -7.9914
 254   2.0000      -0.292192        -7.9510
 255   2.0000      -0.284565        -7.7434
 256   2.0000      -0.280643        -7.6367
 257   2.0000      -0.267180        -7.2703
 258   0.0000      -0.096914        -2.6372
 259   0.0000      -0.078285        -2.1302
 260   0.0000      -0.072995        -1.9863
 261   0.0000      -0.059012        -1.6058
 262   0.0000      -0.058010        -1.5785

MULLIKEN ATOMIC CHARGES
-----------------------
   0 C :   -0.091333
   1 C :    0.107043
   2 O :   -0.154838
   3 C :    0.015266
   4 C :   -0.012300
   5 C :    0.319753
   6 C :   -0.341818
   7 C :   -0.167955
   8 N :    0.153212
   9 C :   -0.196821
  10 N :    0.153309
  11 C :   -0.026469
  12 C :    0.003300
  13 C :    0.080948
  14 C :    0.037352
  15 C :   -0.028328
  16 C :    0.037687
  17 C :    0.037524
  18 C :   -0.022132
  19 C :   -0.008038
  20 C :    0.068132
  21 C :    0.136040
  22 O :   -0.314032
  23 C :    0.205546
  24 C :    0.092328
  25 O :   -0.363699
  26 C :    0.193667
  27 C :   -0.012931
  28 C :    0.029680
  29 C :   -0.020254
  30 C :   -0.015869
  31 C :   -0.034871
  32 C :   -0.048592
  33 N :    0.054765
  34 C :    0.123564
  35 C :    0.126573
  36 N :    0.023834
  37 F :   -0.140258
  38 F :   -0.144023
  39 C :   -0.013485
  40 C :    0.019943
  41 C :    0.023154
  42 N :   -0.250696
  43 S :    0.538667
  44 N :   -0.272478
  45 C :    0.003167
  46 C :    0.070827
  47 O :   -0.361436
  48 C :    0.196757
  49 C :    0.203384
  50 O :   -0.301698
  51 C :    0.201067
  52 C :   -0.077276
  53 C :    0.007693
  54 C :    0.013457
  55 C :    0.064845
  56 C :   -0.104574
  57 C :    0.120390
  58 O :   -0.146172
  59 C :    0.007199
  60 C :   -0.006917
  61 C :    0.252077
  62 C :   -0.334219
  63 C :   -0.162796
  64 N :    0.165160
  65 C :   -0.189677
  66 N :    0.156798
  67 C :   -0.023178
  68 C :    0.006639
  69 C :    0.078033
  70 C :    0.032590
  71 C :   -0.022458
  72 C :    0.036126
  73 C :    0.037747
  74 C :   -0.018461
  75 H :   -0.001920
  76 H :   -0.014789
  77 H :   -0.000772
  78 H :   -0.008208
  79 H :   -0.008830
  80 H :   -0.022458
  81 H :    0.020982
  82 H :    0.026902
  83 H :    0.025013
  84 H :    0.040118
  85 H :    0.034222
  86 H :    0.017422
  87 H :    0.026689
  88 H :   -0.028392
  89 H :   -0.017459
  90 H :    0.026221
  91 H :    0.037943
  92 H :    0.019772
  93 H :    0.018181
  94 H :    0.037138
  95 H :    0.029878
  96 H :   -0.014592
  97 H :   -0.026808
  98 H :    0.029398
  99 H :   -0.000687
 100 H :   -0.014088
 101 H :    0.000107
 102 H :   -0.006809
 103 H :   -0.006844
 104 H :   -0.022489
Sum of atomic charges:    0.0000000

LOEWDIN ATOMIC CHARGES
----------------------
   0 C :   -0.085292
   1 C :    0.090102
   2 O :   -0.142913
   3 C :   -0.036489
   4 C :   -0.002003
   5 C :    0.072138
   6 C :   -0.132399
   7 C :   -0.006882
   8 N :   -0.054346
   9 C :   -0.020751
  10 N :   -0.057220
  11 C :   -0.020100
  12 C :    0.017239
  13 C :   -0.011056
  14 C :   -0.002260
  15 C :   -0.002985
  16 C :   -0.013570
  17 C :   -0.014888
  18 C :   -0.013345
  19 C :    0.071469
  20 C :   -0.057409
  21 C :    0.061318
  22 O :   -0.074458
  23 C :    0.082475
  24 C :    0.028668
  25 O :   -0.126616
  26 C :    0.074596
  27 C :   -0.013880
  28 C :   -0.012731
  29 C :   -0.000110
  30 C :   -0.018336
  31 C :   -0.010969
  32 C :   -0.007978
  33 N :   -0.022621
  34 C :    0.052987
  35 C :    0.056799
  36 N :   -0.037653
  37 F :   -0.029499
  38 F :   -0.032944
  39 C :   -0.017538
  40 C :   -0.047572
  41 C :   -0.045783
  42 N :   -0.276108
  43 S :    0.680895
  44 N :   -0.289825
  45 C :   -0.012823
  46 C :    0.025905
  47 O :   -0.129564
  48 C :    0.075652
  49 C :    0.065246
  50 O :   -0.088224
  51 C :    0.082804
  52 C :   -0.064770
  53 C :   -0.008018
  54 C :   -0.014543
  55 C :    0.090305
  56 C :   -0.086730
  57 C :    0.087561
  58 O :   -0.138746
  59 C :   -0.032289
  60 C :   -0.006135
  61 C :    0.069708
  62 C :   -0.131398
  63 C :   -0.004994
  64 N :   -0.052597
  65 C :   -0.019131
  66 N :   -0.053543
  67 C :   -0.017660
  68 C :    0.017639
  69 C :   -0.009243
  70 C :   -0.003564
  71 C :   -0.001385
  72 C :   -0.012877
  73 C :   -0.012643
  74 C :   -0.013049
  75 H :    0.038491
  76 H :    0.034723
  77 H :    0.035061
  78 H :    0.031917
  79 H :    0.031097
  80 H :    0.029700
  81 H :    0.045842
  82 H :    0.021773
  83 H :    0.018228
  84 H :    0.023951
  85 H :    0.017972
  86 H :    0.008761
  87 H :    0.021976
  88 H :    0.029604
  89 H :    0.033428
  90 H :    0.021582
  91 H :    0.020400
  92 H :    0.010461
  93 H :    0.016925
  94 H :    0.021851
  95 H :    0.023312
  96 H :    0.030441
  97 H :    0.029980
  98 H :    0.047284
  99 H :    0.039218
 100 H :    0.035153
 101 H :    0.035548
 102 H :    0.032519
 103 H :    0.031841
 104 H :    0.029910

  Mayer bond orders larger than 0.100000
B(  0-C ,  1-C ) :   0.9544 B(  0-C ,  5-C ) :   1.0210 B(  0-C , 19-C ) :   1.6901
B(  1-C ,  2-O ) :   2.1744 B(  1-C ,  3-C ) :   0.9458 B(  3-C ,  4-C ) :   1.4171
B(  3-C , 14-C ) :   1.2301 B(  4-C ,  5-C ) :   1.0020 B(  4-C , 11-C ) :   1.2578
B(  5-C ,  6-C ) :   1.6415 B(  6-C ,  7-C ) :   1.1812 B(  6-C ,  9-C ) :   1.1351
B(  7-C ,  8-N ) :   2.9215 B(  9-C , 10-N ) :   2.9875 B( 11-C , 12-C ) :   1.4689
B( 11-C , 75-H ) :   0.9845 B( 12-C , 13-C ) :   1.2243 B( 12-C , 76-H ) :   0.9938
B( 13-C , 14-C ) :   1.2429 B( 13-C , 18-C ) :   1.2371 B( 14-C , 15-C ) :   1.2756
B( 15-C , 16-C ) :   1.4751 B( 15-C , 77-H ) :   0.9868 B( 16-C , 17-C ) :   1.2552
B( 16-C , 78-H ) :   0.9869 B( 17-C , 18-C ) :   1.4978 B( 17-C , 79-H ) :   0.9883
B( 18-C , 80-H ) :   0.9974 B( 19-C , 20-C ) :   1.0789 B( 19-C , 81-H ) :   0.9282
B( 20-C , 21-C ) :   1.3130 B( 20-C , 29-C ) :   1.3062 B( 21-C , 22-O ) :   1.1997
B( 21-C , 24-C ) :   1.2885 B( 22-O , 23-C ) :   0.9140 B( 23-C , 82-H ) :   0.9757
B( 23-C , 83-H ) :   0.9764 B( 23-C , 84-H ) :   0.9743 B( 24-C , 25-O ) :   1.1082
B( 24-C , 27-C ) :   1.3983 B( 25-O , 26-C ) :   0.9350 B( 26-C , 85-H ) :   0.9544
B( 26-C , 86-H ) :   0.9643 B( 26-C , 87-H ) :   0.9781 B( 27-C , 28-C ) :   1.3360
B( 27-C , 30-C ) :   0.9509 B( 28-C , 29-C ) :   1.3781 B( 28-C , 88-H ) :   0.9935
B( 29-C , 89-H ) :   1.0024 B( 30-C , 31-C ) :   1.3738 B( 30-C , 39-C ) :   0.1541
B( 30-C , 41-C ) :   1.2495 B( 31-C , 32-C ) :   1.1028 B( 31-C , 36-N ) :   1.3980
B( 32-C , 33-N ) :   1.4031 B( 32-C , 39-C ) :   1.3838 B( 33-N , 34-C ) :   1.7211
B( 34-C , 35-C ) :   1.0706 B( 34-C , 38-F ) :   1.1708 B( 35-C , 36-N ) :   1.7216
B( 35-C , 37-F ) :   1.1746 B( 39-C , 40-C ) :   1.2507 B( 39-C , 45-C ) :   0.9569
B( 40-C , 41-C ) :   1.1182 B( 40-C , 44-N ) :   1.4920 B( 41-C , 42-N ) :   1.4998
B( 42-N , 43-S ) :   1.3060 B( 42-N , 44-N ) :   0.1624 B( 43-S , 44-N ) :   1.2928
B( 45-C , 46-C ) :   1.3769 B( 45-C , 52-C ) :   0.1081 B( 45-C , 54-C ) :   1.3580
B( 46-C , 47-O ) :   1.1008 B( 46-C , 49-C ) :   1.3053 B( 47-O , 48-C ) :   0.9369
B( 48-C , 90-H ) :   0.9794 B( 48-C , 91-H ) :   0.9605 B( 48-C , 92-H ) :   0.9643
B( 49-C , 50-O ) :   1.2529 B( 49-C , 52-C ) :   1.3393 B( 50-O , 51-C ) :   0.9278
B( 51-C , 93-H ) :   0.9766 B( 51-C , 94-H ) :   0.9733 B( 51-C , 95-H ) :   0.9770
B( 52-C , 53-C ) :   1.3563 B( 52-C , 55-C ) :   1.0172 B( 53-C , 54-C ) :   1.3561
B( 53-C , 96-H ) :   0.9989 B( 54-C , 97-H ) :   0.9961 B( 55-C , 56-C ) :   1.7334
B( 55-C , 98-H ) :   0.9422 B( 56-C , 57-C ) :   0.9486 B( 56-C , 61-C ) :   1.0096
B( 57-C , 58-O ) :   2.2097 B( 57-C , 59-C ) :   0.9324 B( 59-C , 60-C ) :   1.4146
B( 59-C , 70-C ) :   1.2366 B( 60-C , 61-C ) :   1.0078 B( 60-C , 67-C ) :   1.2550
B( 61-C , 62-C ) :   1.6705 B( 62-C , 63-C ) :   1.1538 B( 62-C , 65-C ) :   1.1322
B( 63-C , 64-N ) :   2.9910 B( 65-C , 66-N ) :   2.9972 B( 67-C , 68-C ) :   1.4720
B( 67-C , 99-H ) :   0.9877 B( 68-C , 69-C ) :   1.2207 B( 68-C ,100-H ) :   0.9936
B( 69-C , 70-C ) :   1.2406 B( 69-C , 74-C ) :   1.2433 B( 70-C , 71-C ) :   1.2755
B( 71-C , 72-C ) :   1.4749 B( 71-C ,101-H ) :   0.9862 B( 72-C , 73-C ) :   1.2541
B( 72-C ,102-H ) :   0.9883 B( 73-C , 74-C ) :   1.4949 B( 73-C ,103-H ) :   0.9895
B( 74-C ,104-H ) :   0.9967

-----------------------------------------------------------------------------
         ABSORPTION SPECTRUM VIA TRANSITION ELECTRIC DIPOLE MOMENTS
-----------------------------------------------------------------------------
State   Energy  Wavelength   fosc         T2         TX        TY        TZ
        (cm-1)    (nm)                  (au**2)     (au)      (au)      (au)
-----------------------------------------------------------------------------
   0   19931.5    501.7   0.797691384  13.17563   0.98883   3.43298   0.64226
   1   22680.8    440.9   0.041122029   0.59689  -0.42046  -0.40854   0.50318
   2   22885.0    437.0   0.008451267   0.12158   0.12256  -0.25434  -0.20462
   3   23872.2    418.9   0.060524669   0.83467   0.38531  -0.64901  -0.51478
   4   25047.5    399.2   0.141183523   1.85564  -0.85118  -1.02731  -0.27525
   5   25861.1    386.7   0.015681454   0.19962  -0.38801   0.21607   0.04884
   6   27366.1    365.4   0.025791161   0.31027  -0.23511  -0.26549  -0.42954
   7   28082.1    356.1   0.023883767   0.27999  -0.16716   0.17663  -0.46995
   8   28174.3    354.9   0.059265791   0.69251  -0.72592   0.39585   0.09409
   9   28564.0    350.1   0.113112890   1.30367  -0.56032  -0.99156  -0.08080
  10   28975.5    345.1   0.304293708   3.45731  -0.82890  -1.45751  -0.80368
  11   29147.5    343.1   0.063898605   0.72171   0.82343  -0.06390   0.19896
  12   29495.0    339.0   0.041614619   0.46449  -0.14083  -0.03144   0.66608
  13   30238.6    330.7   0.192194026   2.09244   0.59536   1.23162   0.47022
  14   30278.4    330.3   0.057603318   0.62631  -0.23056  -0.62669   0.42475
  15   31031.2    322.3   0.114102989   1.21052   0.60708   0.62964  -0.66748
  16   31432.5    318.1   0.018219436   0.19082   0.06223  -0.25995   0.34551
  17   31703.7    315.4   0.264303705   2.74454  -0.09769   1.61953   0.33482
  18   32125.1    311.3   0.354694778   3.63484   1.01527   1.40488  -0.79396
  19   32211.5    310.4   0.075782185   0.77452  -0.80342  -0.31668   0.16952
  20   32466.3    308.0   0.021619406   0.21922  -0.15482  -0.10185   0.42998
  21   32634.8    306.4   0.021214690   0.21401   0.10450  -0.43573  -0.11501
  22   33038.7    302.7   0.370203812   3.68887  -1.48399  -1.20844  -0.16219
  23   33055.3    302.5   0.138540407   1.37979   0.84468  -0.44413  -0.68487
  24   33287.5    300.4   0.082047283   0.81144   0.19109   0.19712  -0.85795
  25   33463.0    298.8   0.124260753   1.22249  -0.17024   1.09149  -0.04641
  26   33626.9    297.4   0.194470119   1.90389   0.17191  -1.07623   0.84621
  27   34026.7    293.9   0.109060131   1.05517   0.84577   0.29217   0.50445
  28   34428.0    290.5   0.622673734   5.95421   0.80448   1.78196   1.46002
  29   34511.5    289.8   0.513106817   4.89463  -1.00020  -1.67877   1.03728
  30   34885.9    286.6   0.000841910   0.00794   0.03344   0.07996   0.02080
  31   35047.0    285.3   0.065025172   0.61081   0.23106  -0.72193  -0.19035
  32   35186.6    284.2   0.004904900   0.04589  -0.20192  -0.05954  -0.03969
  33   36041.9    277.5   0.035498950   0.32425  -0.47041  -0.20409  -0.24763
  34   36086.9    277.1   0.020338065   0.18554   0.22260   0.24683   0.27398
  35   36418.3    274.6   0.079138641   0.71539  -0.27088  -0.70588   0.37914
  36   36889.5    271.1   0.045268457   0.40399   0.43487   0.40913   0.21793
  37   37175.9    269.0   0.007272791   0.06440   0.18423  -0.00028   0.17453
  38   37292.6    268.1   0.017770240   0.15687   0.03146   0.35215   0.17854
  39   38520.7    259.6   0.002317750   0.01981   0.11265   0.03070   0.07858
  40   38696.5    258.4   0.001906761   0.01622  -0.01735  -0.11498   0.05196
  41   38789.7    257.8   0.012647678   0.10734  -0.28396   0.07538   0.14500
  42   40249.0    248.5   0.000433646   0.00355   0.01961  -0.05595   0.00570
  43   40301.7    248.1   0.004461457   0.03644   0.17221   0.08168  -0.01081

FINAL SINGLE POINT ENERGY     -3711.114129150778

DIPOLE MOMENT
-------------
                                X             Y             Z
Electronic contribution:     20.47561      -4.29405      -8.50367
Nuclear contribution   :    -20.21598       4.45572      10.49219
                        -----------------------------------------
Total Dipole Moment    :      0.25963       0.16168       1.98852
                        -----------------------------------------
Magnitude (a.u.)       :      2.01191
Magnitude (Debye)      :      5.11386

Rotational constants in cm-1:     0.002478     0.000296     0.000281
Rotational constants in MHz :    74.275416     8.869584     8.412467

                             ****ORCA TERMINATED NORMALLY****
TOTAL RUN TIME: 0 days 0 hours 11 minutes 51 seconds 74 msec
