                         Program Version 4.2.0 -  RELEASE  -
|  1> # ORCA input file
|  2> # SCF done       -202.780438952896          0.000945778549
|  3> ! CAM-B3LYP def2-SVP def2/J RIJCOSX Grid4 TightSCF
|  4> %maxcore 5000
|  5> %tddft
|  6>     Mode sTDDFT
|  7>     Ethresh 5.0
|  8>     maxcore 5000
|  9> end
| 10>
| 11> %pal
| 12>   nprocs 6
| 13>   end
| 14> * xyz 0 1
| 15>    C        8.51710         2.75336         1.24282
| 16>    C        8.17625         4.14212         0.81391
| 17>    O        7.23646         4.45468         0.11498
| 18>    C        9.18427         5.00128         1.45401
| 19>    C       10.13386         4.20402         2.09626
| 20>    C        9.82937         2.79778         1.85524
| 21>    C       10.71448         1.76007         1.95552
| 22>    C       10.43752         0.46231         1.48297
| 23>    N       10.25070        -0.59633         1.07948
| 24>    C       12.02359         1.87552         2.46676
| 25>    N       13.09668         1.90905         2.87240
| 26>    C       11.18903         4.78719         2.80950
| 27>    C       11.27744         6.15408         2.85422
| 28>    C       10.34431         6.98911         2.20051
| 29>    C        9.26012         6.40799         1.48082
| 30>    C        8.32712         7.24510         0.83620
| 31>    C        8.46569         8.60445         0.89793
| 32>    C        9.53390         9.18234         1.60227
| 33>    C       10.45219         8.39403         2.24001
| 34>    C        7.59928         1.76911         1.08088
| 35>    C        7.55170         0.48704         1.69130
| 36>    C        6.93612        -0.65287         1.26495
| 37>    C        7.16463        -1.72002         2.23471
| 38>    N        7.87628        -1.20233         3.27031
| 39>    C        8.14960         0.14063         3.02064
| 40>    O        8.72757         0.86424         3.79590
| 41>    C        8.35342        -1.90140         4.43199
| 42>    C        6.64465        -2.87342         1.75049
| 43>    C        6.02280        -2.52672         0.43466
| 44>    O        5.37991        -3.22125        -0.30652
| 45>    N        6.25967        -1.15919         0.21074
| 46>    C        5.84030        -0.46782        -0.97795
| 47>    C        6.59248        -4.22674         2.26501
| 48>    C        6.90498        -5.31386         1.46717
| 49>    F        7.37140        -5.11592         0.22943
| 50>    C        6.81361        -6.64675         1.91367
| 51>    F        7.12853        -7.61045         1.03871
| 52>    C        6.36187        -6.99228         3.17458
| 53>    C        6.00928        -5.90402         3.99842
| 54>    C        6.15087        -4.55027         3.56497
| 55>    N        5.76416        -3.76596         4.58336
| 56>    N        5.43207        -4.60222         5.52946
| 57>    N        5.54927        -5.87147         5.25765
| 58>    C        4.96199        -4.15571         6.80470
| 59>    C        6.34972        -8.36979         3.62348
| 60>    C        5.42584        -9.12730         4.26105
| 61>    C        5.96807       -10.46762         4.46235
| 62>    N        7.22938       -10.50454         3.98141
| 63>    C        7.55548        -9.23983         3.45827
| 64>    O        8.63997        -8.95716         3.02541
| 65>    C        8.15177       -11.60704         4.01339
| 66>    C        5.04733       -11.23639         5.11308
| 67>    C        3.84245       -10.36142         5.27206
| 68>    O        2.75588       -10.64857         5.71463
| 69>    N        4.15344        -9.11239         4.73815
| 70>    C        3.23263        -8.00912         4.72237
| 71>    C        5.12720       -12.60280         5.49275
| 72>    C        4.41660       -13.26415         6.43893
| 73>    C        4.36401       -14.75569         6.40072
| 74>    O        5.09738       -15.47295         5.75551
| 75>    C        3.22666       -15.12074         7.26014
| 76>    C        2.73195       -13.97534         7.88717
| 77>    C        3.55022       -12.82712         7.51395
| 78>    C        3.65028       -11.65361         8.20909
| 79>    C        4.62101       -10.67133         7.93135
| 80>    N        5.41832        -9.86389         7.75344
| 81>    C        2.85132       -11.31456         9.32004
| 82>    N        2.23515       -10.98360        10.22988
| 83>    C        1.62240       -14.05105         8.73855
| 84>    C        1.03630       -15.27198         8.94845
| 85>    C        1.52006       -16.45200         8.34104
| 86>    C        2.64529       -16.38699         7.46863
| 87>    C        3.12114       -17.56619         6.86039
| 88>    C        2.50790       -18.76331         7.10871
| 89>    C        1.40004       -18.83357         7.96824
| 90>    C        0.91615       -17.70478         8.57086
| 91>    H       11.91043         4.17416         3.32448
| 92>    H       12.08286         6.62059         3.40302
| 93>    H        7.51056         6.79020         0.29815
| 94>    H        7.75126         9.24517         0.40295
| 95>    H        9.62456        10.25796         1.63706
| 96>    H       11.27504         8.83644         2.78271
| 97>    H        6.75751         2.03089         0.44636
| 98>    H        9.08065        -2.66301         4.14395
| 99>    H        7.51568        -2.37336         4.94649
|100>    H        8.83182        -1.16889         5.08072
|101>    H        5.04472         0.24593        -0.75469
|102>    H        5.46410        -1.21630        -1.67465
|103>    H        6.68527         0.05909        -1.42319
|104>    H        4.02894        -3.60381         6.68592
|105>    H        5.70103        -3.49799         7.26247
|106>    H        4.80381        -5.03191         7.42905
|107>    H        8.21000       -12.02035         5.02111
|108>    H        9.12712       -11.22454         3.71378
|109>    H        7.84607       -12.39002         3.31663
|110>    H        2.31217        -8.34545         5.19776
|111>    H        3.02386        -7.70027         3.69620
|112>    H        3.65657        -7.16982         5.27493
|113>    H        5.79384       -13.22552         4.90357
|114>    H        1.22712       -13.16452         9.20704
|115>    H        0.17514       -15.34805         9.59659
|116>    H        3.97227       -17.50018         6.20123
|117>    H        2.87304       -19.66637         6.64280
|118>    H        0.93085       -19.78923         8.14967
|119>    H        0.06382       -17.75655         9.23278
|120> *
|121>
|122>                          ****END OF INPUT****

CARTESIAN COORDINATES (ANGSTROEM)
---------------------------------
  C      8.517100    2.753360    1.242820
  C      8.176250    4.142120    0.813910
  O      7.236460    4.454680    0.114980
  C      9.184270    5.001280    1.454010
  C     10.133860    4.204020    2.096260
  C      9.829370    2.797780    1.855240
  C     10.714480    1.760070    1.955520
  C     10.437520    0.462310    1.482970
  N     10.250700   -0.596330    1.079480
  C     12.023590    1.875520    2.466760
  N     13.096680    1.909050    2.872400
  C     11.189030    4.787190    2.809500
  C     11.277440    6.154080    2.854220
  C     10.344310    6.989110    2.200510
  C      9.260120    6.407990    1.480820
  C      8.327120    7.245100    0.836200
  C      8.465690    8.604450    0.897930
  C      9.533900    9.182340    1.602270
  C     10.452190    8.394030    2.240010
  C      7.599280    1.769110    1.080880
  C      7.551700    0.487040    1.691300
  C      6.936120   -0.652870    1.264950
  C      7.164630   -1.720020    2.234710
  N      7.876280   -1.202330    3.270310
  C      8.149600    0.140630    3.020640
  O      8.727570    0.864240    3.795900
  C      8.353420   -1.901400    4.431990
  C      6.644650   -2.873420    1.750490
  C      6.022800   -2.526720    0.434660
  O      5.379910   -3.221250   -0.306520
  N      6.259670   -1.159190    0.210740
  C      5.840300   -0.467820   -0.977950
  C      6.592480   -4.226740    2.265010
  C      6.904980   -5.313860    1.467170
  F      7.371400   -5.115920    0.229430
  C      6.813610   -6.646750    1.913670
  F      7.128530   -7.610450    1.038710
  C      6.361870   -6.992280    3.174580
  C      6.009280   -5.904020    3.998420
  C      6.150870   -4.550270    3.564970
  N      5.764160   -3.765960    4.583360
  N      5.432070   -4.602220    5.529460
  N      5.549270   -5.871470    5.257650
  C      4.961990   -4.155710    6.804700
  C      6.349720   -8.369790    3.623480
  C      5.425840   -9.127300    4.261050
  C      5.968070  -10.467620    4.462350
  N      7.229380  -10.504540    3.981410
  C      7.555480   -9.239830    3.458270
  O      8.639970   -8.957160    3.025410
  C      8.151770  -11.607040    4.013390
  C      5.047330  -11.236390    5.113080
  C      3.842450  -10.361420    5.272060
  O      2.755880  -10.648570    5.714630
  N      4.153440   -9.112390    4.738150
  C      3.232630   -8.009120    4.722370
  C      5.127200  -12.602800    5.492750
  C      4.416600  -13.264150    6.438930
  C      4.364010  -14.755690    6.400720
  O      5.097380  -15.472950    5.755510
  C      3.226660  -15.120740    7.260140
  C      2.731950  -13.975340    7.887170
  C      3.550220  -12.827120    7.513950
  C      3.650280  -11.653610    8.209090
  C      4.621010  -10.671330    7.931350
  N      5.418320   -9.863890    7.753440
  C      2.851320  -11.314560    9.320040
  N      2.235150  -10.983600   10.229880
  C      1.622400  -14.051050    8.738550
  C      1.036300  -15.271980    8.948450
  C      1.520060  -16.452000    8.341040
  C      2.645290  -16.386990    7.468630
  C      3.121140  -17.566190    6.860390
  C      2.507900  -18.763310    7.108710
  C      1.400040  -18.833570    7.968240
  C      0.916150  -17.704780    8.570860
  H     11.910430    4.174160    3.324480
  H     12.082860    6.620590    3.403020
  H      7.510560    6.790200    0.298150
  H      7.751260    9.245170    0.402950
  H      9.624560   10.257960    1.637060
  H     11.275040    8.836440    2.782710
  H      6.757510    2.030890    0.446360
  H      9.080650   -2.663010    4.143950
  H      7.515680   -2.373360    4.946490
  H      8.831820   -1.168890    5.080720
  H      5.044720    0.245930   -0.754690
  H      5.464100   -1.216300   -1.674650
  H      6.685270    0.059090   -1.423190
  H      4.028940   -3.603810    6.685920
  H      5.701030   -3.497990    7.262470
  H      4.803810   -5.031910    7.429050
  H      8.210000  -12.020350    5.021110
  H      9.127120  -11.224540    3.713780
  H      7.846070  -12.390020    3.316630
  H      2.312170   -8.345450    5.197760
  H      3.023860   -7.700270    3.696200
  H      3.656570   -7.169820    5.274930
  H      5.793840  -13.225520    4.903570
  H      1.227120  -13.164520    9.207040
  H      0.175140  -15.348050    9.596590
  H      3.972270  -17.500180    6.201230
  H      2.873040  -19.666370    6.642800
  H      0.930850  -19.789230    8.149670
  H      0.063820  -17.756550    9.232780

 Total Charge           Charge          ....    0
 Multiplicity           Mult            ....    1
 Number of Electrons    NEL             ....  514
 Basis Dimension        Dim             .... 1209

ORBITAL ENERGIES
----------------

  NO   OCC          E(Eh)            E(eV)
   0   2.0000     -24.792392      -674.6353
   1   2.0000     -24.791333      -674.6065
   2   2.0000     -19.220806      -523.0247
   3   2.0000     -19.219700      -522.9946
   4   2.0000     -19.216306      -522.9023
   5   2.0000     -19.215765      -522.8875
   6   2.0000     -19.214821      -522.8619
   7   2.0000     -19.213822      -522.8347
   8   2.0000     -14.556176      -396.0937
   9   2.0000     -14.476286      -393.9198
  10   2.0000     -14.475116      -393.8879
  11   2.0000     -14.468989      -393.7212
  12   2.0000     -14.467538      -393.6817
  13   2.0000     -14.457889      -393.4192
  14   2.0000     -14.456951      -393.3936
  15   2.0000     -14.414273      -392.2323
  16   2.0000     -14.413547      -392.2125
  17   2.0000     -14.410602      -392.1324
  18   2.0000     -14.409508      -392.1026
  19   2.0000     -10.398792      -282.9655
  20   2.0000     -10.397932      -282.9421
  21   2.0000     -10.395914      -282.8872
  22   2.0000     -10.394743      -282.8553
  23   2.0000     -10.377333      -282.3816
  24   2.0000     -10.376912      -282.3701
  25   2.0000     -10.366052      -282.0746
  26   2.0000     -10.365522      -282.0602
  27   2.0000     -10.355394      -281.7846
  28   2.0000     -10.353986      -281.7463
  29   2.0000     -10.349737      -281.6307
  30   2.0000     -10.348623      -281.6003
  31   2.0000     -10.338033      -281.3122
  32   2.0000     -10.337629      -281.3012
  33   2.0000     -10.335246      -281.2363
  34   2.0000     -10.334722      -281.2221
  35   2.0000     -10.332990      -281.1750
  36   2.0000     -10.322214      -280.8817
  37   2.0000     -10.320981      -280.8482
  38   2.0000     -10.319387      -280.8048
  39   2.0000     -10.319212      -280.8000
  40   2.0000     -10.316761      -280.7333
  41   2.0000     -10.315928      -280.7107
  42   2.0000     -10.315914      -280.7103
  43   2.0000     -10.315350      -280.6949
  44   2.0000     -10.313763      -280.6518
  45   2.0000     -10.313594      -280.6472
  46   2.0000     -10.313491      -280.6444
  47   2.0000     -10.312219      -280.6097
  48   2.0000     -10.305910      -280.4381
  49   2.0000     -10.305805      -280.4352
  50   2.0000     -10.305620      -280.4302
  51   2.0000     -10.305172      -280.4180
  52   2.0000     -10.304766      -280.4070
  53   2.0000     -10.303309      -280.3673
  54   2.0000     -10.302033      -280.3326
  55   2.0000     -10.301100      -280.3072
  56   2.0000     -10.294214      -280.1198
  57   2.0000     -10.293982      -280.1135
  58   2.0000     -10.293910      -280.1115
  59   2.0000     -10.293517      -280.1008
  60   2.0000     -10.292966      -280.0858
  61   2.0000     -10.292381      -280.0699
  62   2.0000     -10.292355      -280.0692
  63   2.0000     -10.291883      -280.0564
  64   2.0000     -10.291836      -280.0551
  65   2.0000     -10.291383      -280.0428
  66   2.0000     -10.287917      -279.9485
  67   2.0000     -10.287197      -279.9289
  68   2.0000     -10.281504      -279.7739
  69   2.0000     -10.281092      -279.7627
  70   2.0000     -10.280927      -279.7582
  71   2.0000     -10.280559      -279.7482
  72   2.0000     -10.279287      -279.7136
  73   2.0000     -10.278946      -279.7044
  74   2.0000     -10.275272      -279.6044
  75   2.0000     -10.274896      -279.5941
  76   2.0000      -1.316450       -35.8224
  77   2.0000      -1.299213       -35.3534
  78   2.0000      -1.233913       -33.5765
  79   2.0000      -1.161912       -31.6172
  80   2.0000      -1.160776       -31.5863
  81   2.0000      -1.153335       -31.3838
  82   2.0000      -1.152132       -31.3511
  83   2.0000      -1.130735       -30.7689
  84   2.0000      -1.130128       -30.7524
  85   2.0000      -1.096685       -29.8423
  86   2.0000      -1.095494       -29.8099
  87   2.0000      -1.063138       -28.9295
  88   2.0000      -1.061921       -28.8963
  89   2.0000      -1.015199       -27.6250
  90   2.0000      -1.014541       -27.6071
  91   2.0000      -1.007285       -27.4096
  92   2.0000      -0.999324       -27.1930
  93   2.0000      -0.996630       -27.1197
  94   2.0000      -0.996072       -27.1045
  95   2.0000      -0.990906       -26.9639
  96   2.0000      -0.989926       -26.9372
  97   2.0000      -0.965990       -26.2859
  98   2.0000      -0.965446       -26.2711
  99   2.0000      -0.941758       -25.6265
 100   2.0000      -0.937342       -25.5064
 101   2.0000      -0.934781       -25.4367
 102   2.0000      -0.933613       -25.4049
 103   2.0000      -0.918930       -25.0054
 104   2.0000      -0.916115       -24.9288
 105   2.0000      -0.913562       -24.8593
 106   2.0000      -0.897910       -24.4334
 107   2.0000      -0.896724       -24.4011
 108   2.0000      -0.882480       -24.0135
 109   2.0000      -0.873096       -23.7582
 110   2.0000      -0.865261       -23.5449
 111   2.0000      -0.851767       -23.1778
 112   2.0000      -0.849928       -23.1277
 113   2.0000      -0.835533       -22.7360
 114   2.0000      -0.834425       -22.7058
 115   2.0000      -0.828218       -22.5370
 116   2.0000      -0.818365       -22.2688
 117   2.0000      -0.813904       -22.1475
 118   2.0000      -0.801492       -21.8097
 119   2.0000      -0.791277       -21.5317
 120   2.0000      -0.776406       -21.1271
 121   2.0000      -0.775528       -21.1032
 122   2.0000      -0.771675       -20.9983
 123   2.0000      -0.767406       -20.8822
 124   2.0000      -0.760033       -20.6815
 125   2.0000      -0.751710       -20.4551
 126   2.0000      -0.742412       -20.2021
 127   2.0000      -0.739822       -20.1316
 128   2.0000      -0.713536       -19.4163
 129   2.0000      -0.711631       -19.3645
 130   2.0000      -0.709712       -19.3122
 131   2.0000      -0.706720       -19.2308
 132   2.0000      -0.706096       -19.2139
 133   2.0000      -0.703831       -19.1522
 134   2.0000      -0.699082       -19.0230
 135   2.0000      -0.691419       -18.8145
 136   2.0000      -0.681166       -18.5355
 137   2.0000      -0.673170       -18.3179
 138   2.0000      -0.672246       -18.2928
 139   2.0000      -0.665786       -18.1170
 140   2.0000      -0.658398       -17.9159
 141   2.0000      -0.648825       -17.6554
 142   2.0000      -0.646059       -17.5802
 143   2.0000      -0.637384       -17.3441
 144   2.0000      -0.631991       -17.1974
 145   2.0000      -0.627128       -17.0650
 146   2.0000      -0.626669       -17.0525
 147   2.0000      -0.625275       -17.0146
 148   2.0000      -0.623122       -16.9560
 149   2.0000      -0.619468       -16.8566
 150   2.0000      -0.613576       -16.6963
 151   2.0000      -0.612487       -16.6666
 152   2.0000      -0.609502       -16.5854
 153   2.0000      -0.597163       -16.2496
 154   2.0000      -0.594822       -16.1859
 155   2.0000      -0.591998       -16.1091
 156   2.0000      -0.590364       -16.0646
 157   2.0000      -0.586402       -15.9568
 158   2.0000      -0.585910       -15.9434
 159   2.0000      -0.584661       -15.9094
 160   2.0000      -0.583977       -15.8908
 161   2.0000      -0.578407       -15.7392
 162   2.0000      -0.574720       -15.6389
 163   2.0000      -0.569329       -15.4922
 164   2.0000      -0.563485       -15.3332
 165   2.0000      -0.562253       -15.2997
 166   2.0000      -0.561841       -15.2885
 167   2.0000      -0.561080       -15.2678
 168   2.0000      -0.559738       -15.2312
 169   2.0000      -0.559163       -15.2156
 170   2.0000      -0.552060       -15.0223
 171   2.0000      -0.542275       -14.7560
 172   2.0000      -0.538457       -14.6522
 173   2.0000      -0.536901       -14.6098
 174   2.0000      -0.535626       -14.5751
 175   2.0000      -0.533533       -14.5182
 176   2.0000      -0.532838       -14.4993
 177   2.0000      -0.526225       -14.3193
 178   2.0000      -0.524031       -14.2596
 179   2.0000      -0.523617       -14.2483
 180   2.0000      -0.522953       -14.2303
 181   2.0000      -0.519164       -14.1272
 182   2.0000      -0.518014       -14.0959
 183   2.0000      -0.516001       -14.0411
 184   2.0000      -0.513676       -13.9778
 185   2.0000      -0.511167       -13.9096
 186   2.0000      -0.509736       -13.8706
 187   2.0000      -0.507041       -13.7973
 188   2.0000      -0.506772       -13.7900
 189   2.0000      -0.504852       -13.7377
 190   2.0000      -0.504095       -13.7171
 191   2.0000      -0.503639       -13.7047
 192   2.0000      -0.503315       -13.6959
 193   2.0000      -0.501608       -13.6495
 194   2.0000      -0.498493       -13.5647
 195   2.0000      -0.496786       -13.5182
 196   2.0000      -0.495074       -13.4716
 197   2.0000      -0.491460       -13.3733
 198   2.0000      -0.488526       -13.2935
 199   2.0000      -0.486208       -13.2304
 200   2.0000      -0.485154       -13.2017
 201   2.0000      -0.484930       -13.1956
 202   2.0000      -0.479661       -13.0522
 203   2.0000      -0.479238       -13.0407
 204   2.0000      -0.475269       -12.9327
 205   2.0000      -0.474508       -12.9120
 206   2.0000      -0.472601       -12.8601
 207   2.0000      -0.468523       -12.7492
 208   2.0000      -0.464643       -12.6436
 209   2.0000      -0.462969       -12.5980
 210   2.0000      -0.459335       -12.4991
 211   2.0000      -0.450680       -12.2636
 212   2.0000      -0.449908       -12.2426
 213   2.0000      -0.445235       -12.1155
 214   2.0000      -0.444029       -12.0826
 215   2.0000      -0.440602       -11.9894
 216   2.0000      -0.438982       -11.9453
 217   2.0000      -0.436640       -11.8816
 218   2.0000      -0.436116       -11.8673
 219   2.0000      -0.435318       -11.8456
 220   2.0000      -0.430507       -11.7147
 221   2.0000      -0.429904       -11.6983
 222   2.0000      -0.428224       -11.6526
 223   2.0000      -0.427581       -11.6351
 224   2.0000      -0.425562       -11.5801
 225   2.0000      -0.423094       -11.5130
 226   2.0000      -0.421386       -11.4665
 227   2.0000      -0.420319       -11.4375
 228   2.0000      -0.416722       -11.3396
 229   2.0000      -0.412808       -11.2331
 230   2.0000      -0.412117       -11.2143
 231   2.0000      -0.408509       -11.1161
 232   2.0000      -0.401299       -10.9199
 233   2.0000      -0.397359       -10.8127
 234   2.0000      -0.393152       -10.6982
 235   2.0000      -0.389935       -10.6107
 236   2.0000      -0.389182       -10.5902
 237   2.0000      -0.374731       -10.1970
 238   2.0000      -0.374415       -10.1884
 239   2.0000      -0.371738       -10.1155
 240   2.0000      -0.370904       -10.0928
 241   2.0000      -0.359919        -9.7939
 242   2.0000      -0.358601        -9.7580
 243   2.0000      -0.347625        -9.4593
 244   2.0000      -0.346866        -9.4387
 245   2.0000      -0.341565        -9.2945
 246   2.0000      -0.333558        -9.0766
 247   2.0000      -0.333086        -9.0637
 248   2.0000      -0.326166        -8.8754
 249   2.0000      -0.313560        -8.5324
 250   2.0000      -0.313416        -8.5285
 251   2.0000      -0.312928        -8.5152
 252   2.0000      -0.292049        -7.9471
 253   2.0000      -0.290362        -7.9012
 254   2.0000      -0.285182        -7.7602
 255   2.0000      -0.284622        -7.7450
 256   2.0000      -0.276013        -7.5107
 257   0.0000      -0.094371        -2.5680
 258   0.0000      -0.088581        -2.4104
 259   0.0000      -0.069978        -1.9042
 260   0.0000      -0.068803        -1.8722
 261   0.0000      -0.047763        -1.2997

MULLIKEN ATOMIC CHARGES
-----------------------
   0 C :   -0.113379
   1 C :    0.114107
   2 O :   -0.157592
   3 C :    0.008800
   4 C :   -0.010444
   5 C :    0.307909
   6 C :   -0.308027
   7 C :   -0.192832
   8 N :    0.145483
   9 C :   -0.186297
  10 N :    0.157587
  11 C :   -0.016864
  12 C :    0.005155
  13 C :    0.076554
  14 C :    0.036495
  15 C :   -0.026096
  16 C :    0.037252
  17 C :    0.035994
  18 C :   -0.019843
  19 C :   -0.031691
  20 C :   -0.142157
  21 C :    0.199321
  22 C :    0.203847
  23 N :   -0.219847
  24 C :    0.147906
  25 O :   -0.163462
  26 C :    0.124948
  27 C :   -0.192597
  28 C :    0.162508
  29 O :   -0.137449
  30 N :   -0.233824
  31 C :    0.117779
  32 C :   -0.056568
  33 C :    0.173682
  34 F :   -0.155455
  35 C :    0.167105
  36 F :   -0.158720
  37 C :   -0.056301
  38 C :   -0.013273
  39 C :    0.003974
  40 N :   -0.062047
  41 N :   -0.084889
  42 N :   -0.039941
  43 C :    0.138749
  44 C :   -0.190183
  45 C :    0.205263
  46 C :    0.198583
  47 N :   -0.232617
  48 C :    0.161174
  49 O :   -0.132663
  50 C :    0.116740
  51 C :   -0.141007
  52 C :    0.152218
  53 O :   -0.165034
  54 N :   -0.222524
  55 C :    0.126933
  56 C :   -0.034549
  57 C :   -0.108057
  58 C :    0.112453
  59 O :   -0.154303
  60 C :    0.008779
  61 C :   -0.009857
  62 C :    0.301550
  63 C :   -0.296571
  64 C :   -0.200791
  65 N :    0.143335
  66 C :   -0.190061
  67 N :    0.154268
  68 C :   -0.016880
  69 C :    0.003370
  70 C :    0.079918
  71 C :    0.036912
  72 C :   -0.029454
  73 C :    0.039645
  74 C :    0.036930
  75 C :   -0.020880
  76 H :    0.002957
  77 H :   -0.013228
  78 H :   -0.001371
  79 H :   -0.007871
  80 H :   -0.006310
  81 H :   -0.021458
  82 H :    0.007345
  83 H :    0.045206
  84 H :    0.035299
  85 H :    0.051225
  86 H :    0.048068
  87 H :    0.061911
  88 H :    0.049883
  89 H :    0.056809
  90 H :    0.058907
  91 H :    0.065999
  92 H :    0.049142
  93 H :    0.062095
  94 H :    0.050237
  95 H :    0.051460
  96 H :    0.034907
  97 H :    0.041596
  98 H :    0.006965
  99 H :    0.002294
 100 H :   -0.012862
 101 H :   -0.000540
 102 H :   -0.008082
 103 H :   -0.007724
 104 H :   -0.021060
Sum of atomic charges:    0.0000000

LOEWDIN ATOMIC CHARGES
----------------------
   0 C :   -0.077253
   1 C :    0.088642
   2 O :   -0.147251
   3 C :   -0.035492
   4 C :    0.001605
   5 C :    0.079020
   6 C :   -0.126162
   7 C :   -0.010037
   8 N :   -0.062849
   9 C :   -0.018066
  10 N :   -0.051397
  11 C :   -0.014792
  12 C :    0.019439
  13 C :   -0.010152
  14 C :   -0.002584
  15 C :   -0.003331
  16 C :   -0.013209
  17 C :   -0.014405
  18 C :   -0.012338
  19 C :    0.054757
  20 C :   -0.124115
  21 C :    0.087526
  22 C :    0.072729
  23 N :   -0.003238
  24 C :    0.099660
  25 O :   -0.161163
  26 C :    0.030934
  27 C :   -0.100963
  28 C :    0.104494
  29 O :   -0.139929
  30 N :   -0.011052
  31 C :    0.037319
  32 C :   -0.055534
  33 C :    0.077433
  34 F :   -0.035676
  35 C :    0.075639
  36 F :   -0.039813
  37 C :   -0.055577
  38 C :   -0.046838
  39 C :   -0.042583
  40 N :   -0.091842
  41 N :    0.154498
  42 N :   -0.079232
  43 C :    0.033357
  44 C :   -0.100901
  45 C :    0.071986
  46 C :    0.088847
  47 N :   -0.010850
  48 C :    0.104985
  49 O :   -0.136032
  50 C :    0.037256
  51 C :   -0.124423
  52 C :    0.100428
  53 O :   -0.161421
  54 N :   -0.003962
  55 C :    0.031522
  56 C :    0.054551
  57 C :   -0.077485
  58 C :    0.088443
  59 O :   -0.146135
  60 C :   -0.035192
  61 C :    0.001429
  62 C :    0.079368
  63 C :   -0.127201
  64 C :   -0.011296
  65 N :   -0.064446
  66 C :   -0.018009
  67 N :   -0.054259
  68 C :   -0.014820
  69 C :    0.019202
  70 C :   -0.010059
  71 C :   -0.002589
  72 C :   -0.003259
  73 C :   -0.012722
  74 C :   -0.014055
  75 C :   -0.012426
  76 H :    0.040582
  77 H :    0.035389
  78 H :    0.034742
  79 H :    0.032036
  80 H :    0.031737
  81 H :    0.030152
  82 H :    0.044069
  83 H :    0.032663
  84 H :    0.020804
  85 H :    0.038683
  86 H :    0.030593
  87 H :    0.044182
  88 H :    0.035420
  89 H :    0.042288
  90 H :    0.042592
  91 H :    0.047228
  92 H :    0.034989
  93 H :    0.044144
  94 H :    0.031491
  95 H :    0.038819
  96 H :    0.028534
  97 H :    0.023655
  98 H :    0.044172
  99 H :    0.040366
 100 H :    0.035324
 101 H :    0.034959
 102 H :    0.032076
 103 H :    0.031527
 104 H :    0.030128

  Mayer bond orders larger than 0.100000
B(  0-C ,  1-C ) :   0.9536 B(  0-C ,  5-C ) :   1.0109 B(  0-C , 19-C ) :   1.7123
B(  1-C ,  2-O ) :   2.1818 B(  1-C ,  3-C ) :   0.9465 B(  3-C ,  4-C ) :   1.4123
B(  3-C , 14-C ) :   1.2347 B(  4-C ,  5-C ) :   1.0055 B(  4-C , 11-C ) :   1.2615
B(  5-C ,  6-C ) :   1.6625 B(  6-C ,  7-C ) :   1.1662 B(  6-C ,  9-C ) :   1.1338
B(  7-C ,  8-N ) :   2.9901 B(  9-C , 10-N ) :   2.9955 B( 11-C , 12-C ) :   1.4704
B( 11-C , 76-H ) :   0.9855 B( 12-C , 13-C ) :   1.2228 B( 12-C , 77-H ) :   0.9935
B( 13-C , 14-C ) :   1.2414 B( 13-C , 18-C ) :   1.2411 B( 14-C , 15-C ) :   1.2779
B( 15-C , 16-C ) :   1.4755 B( 15-C , 78-H ) :   0.9852 B( 16-C , 17-C ) :   1.2558
B( 16-C , 79-H ) :   0.9871 B( 17-C , 18-C ) :   1.4951 B( 17-C , 80-H ) :   0.9891
B( 18-C , 81-H ) :   0.9971 B( 19-C , 20-C ) :   1.0882 B( 19-C , 82-H ) :   0.9473
B( 20-C , 21-C ) :   1.5203 B( 20-C , 24-C ) :   0.9028 B( 21-C , 22-C ) :   1.0362
B( 21-C , 30-N ) :   1.2125 B( 22-C , 23-N ) :   1.1772 B( 22-C , 27-C ) :   1.6649
B( 23-N , 24-C ) :   1.0477 B( 23-N , 26-C ) :   0.9446 B( 24-C , 25-O ) :   2.1560
B( 26-C , 83-H ) :   0.9716 B( 26-C , 84-H ) :   0.9581 B( 26-C , 85-H ) :   0.9552
B( 27-C , 28-C ) :   0.9361 B( 27-C , 32-C ) :   0.9403 B( 28-C , 29-O ) :   2.2168
B( 28-C , 30-N ) :   0.9941 B( 30-N , 31-C ) :   0.9483 B( 31-C , 86-H ) :   0.9744
B( 31-C , 87-H ) :   0.9569 B( 31-C , 88-H ) :   0.9712 B( 32-C , 33-C ) :   1.4360
B( 32-C , 37-C ) :   0.1328 B( 32-C , 39-C ) :   1.2484 B( 33-C , 34-F ) :   1.1836
B( 33-C , 35-C ) :   1.1142 B( 35-C , 36-F ) :   1.1823 B( 35-C , 37-C ) :   1.4352
B( 37-C , 38-C ) :   1.2529 B( 37-C , 44-C ) :   0.9388 B( 38-C , 39-C ) :   1.2122
B( 38-C , 42-N ) :   1.4571 B( 39-C , 40-N ) :   1.4470 B( 40-N , 41-N ) :   1.2124
B( 40-N , 42-N ) :   0.1628 B( 41-N , 42-N ) :   1.2393 B( 41-N , 43-C ) :   0.9496
B( 43-C , 89-H ) :   0.9696 B( 43-C , 90-H ) :   0.9698 B( 43-C , 91-H ) :   0.9659
B( 44-C , 45-C ) :   1.6646 B( 44-C , 48-C ) :   0.9348 B( 45-C , 46-C ) :   1.0371
B( 45-C , 54-N ) :   1.1742 B( 46-C , 47-N ) :   1.2132 B( 46-C , 51-C ) :   1.5164
B( 47-N , 48-C ) :   0.9918 B( 47-N , 50-C ) :   0.9486 B( 48-C , 49-O ) :   2.2206
B( 50-C , 92-H ) :   0.9717 B( 50-C , 93-H ) :   0.9565 B( 50-C , 94-H ) :   0.9737
B( 51-C , 52-C ) :   0.9028 B( 51-C , 56-C ) :   1.0953 B( 52-C , 53-O ) :   2.1513
B( 52-C , 54-N ) :   1.0470 B( 54-N , 55-C ) :   0.9486 B( 55-C , 95-H ) :   0.9553
B( 55-C , 96-H ) :   0.9732 B( 55-C , 97-H ) :   0.9578 B( 56-C , 57-C ) :   1.7045
B( 56-C , 98-H ) :   0.9494 B( 57-C , 58-C ) :   0.9534 B( 57-C , 62-C ) :   1.0138
B( 58-C , 59-O ) :   2.1855 B( 58-C , 60-C ) :   0.9453 B( 60-C , 61-C ) :   1.4114
B( 60-C , 71-C ) :   1.2338 B( 61-C , 62-C ) :   1.0070 B( 61-C , 68-C ) :   1.2604
B( 62-C , 63-C ) :   1.6603 B( 63-C , 64-C ) :   1.1638 B( 63-C , 66-C ) :   1.1334
B( 64-C , 65-N ) :   2.9948 B( 66-C , 67-N ) :   2.9967 B( 68-C , 69-C ) :   1.4684
B( 68-C , 99-H ) :   0.9862 B( 69-C , 70-C ) :   1.2223 B( 69-C ,100-H ) :   0.9942
B( 70-C , 71-C ) :   1.2425 B( 70-C , 75-C ) :   1.2406 B( 71-C , 72-C ) :   1.2749
B( 72-C , 73-C ) :   1.4752 B( 72-C ,101-H ) :   0.9871 B( 73-C , 74-C ) :   1.2553
B( 73-C ,102-H ) :   0.9875 B( 74-C , 75-C ) :   1.4944 B( 74-C ,103-H ) :   0.9894
B( 75-C ,104-H ) :   0.9978

-----------------------------------------------------------------------------
         ABSORPTION SPECTRUM VIA TRANSITION ELECTRIC DIPOLE MOMENTS
-----------------------------------------------------------------------------
State   Energy  Wavelength   fosc         T2         TX        TY        TZ
        (cm-1)    (nm)                  (au**2)     (au)      (au)      (au)
-----------------------------------------------------------------------------
   0   21268.0    470.2   0.052624045   0.81458  -0.14557   0.88871  -0.05987
   1   21813.5    458.4   0.021947880   0.33124   0.17423   0.22354   0.50091
   2   24264.0    412.1   1.626122098  22.06310   2.31823   3.90490  -1.20028
   3   25324.4    394.9   0.105174355   1.36724   0.06290   0.52400   1.04341
   4   26307.3    380.1   0.015529305   0.19434  -0.07703   0.25068   0.35435
   5   26485.9    377.6   0.024446279   0.30386  -0.49729  -0.15722  -0.17847
   6   27830.1    359.3   0.410370316   4.85442  -0.71853  -2.08208   0.05534
   7   27928.9    358.1   0.053794406   0.63410   0.56500   0.35753  -0.43249
   8   29793.4    335.6   0.061502542   0.67959  -0.81116   0.14701   0.00148
   9   29887.4    334.6   0.037947504   0.41799  -0.23423   0.05303   0.60027
  10   30488.7    328.0   0.071296159   0.76984   0.14442   0.86542   0.00641
  11   30556.6    327.3   0.081853576   0.88188  -0.50153  -0.78402   0.12510
  12   30769.4    325.0   0.022476503   0.24048  -0.45682  -0.17642   0.02593
  13   31100.7    321.5   0.207147218   2.19272   0.34863   0.48165   1.35617
  14   31289.3    319.6   0.073444723   0.77275   0.20455  -0.26937  -0.81139
  15   31677.9    315.7   0.249194063   2.58975   0.88856  -1.33349  -0.14833
  16   32028.0    312.2   0.127685859   1.31247  -0.25962  -0.97511   0.54242
  17   32201.9    310.5   0.082670429   0.84517  -0.86754   0.30176   0.03856
  18   32516.0    307.5   0.240572514   2.43571  -0.99027  -1.11373   0.46332
  19   32650.4    306.3   0.462003166   4.65835   0.28948   2.13554   0.11842
  20   32822.1    304.7   0.179432339   1.79974  -0.30557  -1.25025   0.37847
  21   32860.6    304.3   0.480422651   4.81308   0.06097  -2.18891   0.13424
  22   33245.8    300.8   0.088275624   0.87414  -0.36594  -0.85972  -0.03323
  23   33356.4    299.8   0.127196604   1.25537  -0.95996  -0.56630   0.11470
  24   33587.0    297.7   0.031403547   0.30781   0.40160   0.33000  -0.19397
  25   33987.6    294.2   0.150714180   1.45985  -0.14114  -1.19697  -0.08476
  26   34140.6    292.9   0.007942692   0.07659   0.14468   0.23250   0.04001
  27   34208.5    292.3   0.014437852   0.13895   0.35158   0.10341   0.06814
  28   34347.5    291.1   0.022043332   0.21128   0.05219   0.11912  -0.44087
  29   34702.2    288.2   0.047847183   0.45391  -0.33388  -0.56976  -0.13348
  30   34847.8    287.0   0.017797783   0.16814   0.19375   0.35902  -0.04127
  31   36014.0    277.7   0.079349392   0.72535  -0.41938   0.73026   0.12723
  32   36171.8    276.5   0.149374564   1.35951  -0.38470  -1.09947  -0.05175
  33   36517.3    273.8   0.001434138   0.01293   0.10908  -0.03067  -0.00950
  34   36687.4    272.6   0.038396527   0.34455   0.20301   0.50821  -0.21227
  35   37455.3    267.0   0.199421592   1.75281   0.39856  -1.25341  -0.15143
  36   37641.0    265.7   0.024830025   0.21717   0.29835   0.20696   0.29210
  37   37679.5    265.4   0.026825584   0.23438  -0.37262  -0.30860   0.01742
  38   38000.5    263.2   0.083817345   0.72614  -0.48246  -0.68754  -0.14373
  39   38158.2    262.1   0.003387624   0.02923  -0.02597   0.10709   0.13071
  40   38931.5    256.9   0.007571218   0.06402  -0.19611  -0.15894  -0.01744
  41   39602.9    252.5   0.036596557   0.30422   0.30172  -0.45995   0.04039
  42   39720.6    251.8   0.024077948   0.19956   0.09698   0.30196   0.31461
  43   40006.6    250.0   0.017097846   0.14070   0.13354   0.34450   0.06470
  44   40196.0    248.8   0.058590423   0.47987  -0.28562  -0.63017  -0.03419

FINAL SINGLE POINT ENERGY     -3438.565478655067

DIPOLE MOMENT
-------------
                                X             Y             Z
Electronic contribution:     11.17467      -6.30469     -15.64234
Nuclear contribution   :    -13.20288       6.69892      16.14769
                        -----------------------------------------
Total Dipole Moment    :     -2.02822       0.39423       0.50535
                        -----------------------------------------
Magnitude (a.u.)       :      2.12708
Magnitude (Debye)      :      5.40661

Rotational constants in cm-1:     0.003264     0.000247     0.000243
Rotational constants in MHz :    97.847827     7.414078     7.291753

                             ****ORCA TERMINATED NORMALLY****
TOTAL RUN TIME: 0 days 0 hours 11 minutes 3 seconds 386 msec
