                         Program Version 4.2.0 -  RELEASE  -
|  1> # ORCA input file
|  2> # SCF done       -185.358932986137          0.000884243006
|  3> ! CAM-B3LYP def2-SVP def2/J RIJCOSX Grid4 TightSCF
|  4> %maxcore 5000
|  5> %tddft
|  6>     Mode sTDDFT
|  7>     Ethresh 5.0
|  8>     maxcore 5000
|  9> end
| 10>
| 11> %pal
| 12>   nprocs 6
| 13>   end
| 14> * xyz 0 1
| 15>    C        3.73985        -5.18519         4.07445
| 16>    C        2.27664        -5.36309         4.32888
| 17>    O        1.45790        -4.47656         4.40034
| 18>    C        2.08159        -6.82049         4.40169
| 19>    C        3.32035        -7.46553         4.34476
| 20>    C        4.38136        -6.46696         4.29783
| 21>    C        5.69505        -6.65723         4.63150
| 22>    C        6.60036        -5.59695         4.85667
| 23>    N        7.34775        -4.76863         5.12588
| 24>    C        6.26748        -7.91899         4.90049
| 25>    N        6.77907        -8.92417         5.11085
| 26>    C        3.39883        -8.86408         4.36984
| 27>    C        2.23725        -9.58605         4.46116
| 28>    C        0.97052        -8.96575         4.53765
| 29>    C        0.87690        -7.54329         4.50465
| 30>    C       -0.38935        -6.92824         4.57801
| 31>    C       -1.51861        -7.69293         4.68433
| 32>    C       -1.43244        -9.09392         4.71950
| 33>    C       -0.21668        -9.71755         4.64711
| 34>    C        4.22502        -4.01230         3.60660
| 35>    C        5.49661        -3.79841         3.00274
| 36>    C        6.24346        -4.75214         2.16246
| 37>    N        7.36968        -4.29571         1.70849
| 38>    C        7.48851        -3.03449         2.21556
| 39>    C        6.28946        -2.67962         2.99494
| 40>    C        6.43184        -1.35996         3.55870
| 41>    S        5.34356        -0.57894         4.51111
| 42>    C        7.73111        -0.92762         3.11755
| 43>    C        8.35605        -1.98011         2.28947
| 44>    N        9.60303        -1.59935         1.89052
| 45>    C        9.80681        -0.43396         2.41933
| 46>    C        8.67843         0.06664         3.23026
| 47>    C        8.64175         1.29791         3.93045
| 48>    S        7.18754         1.87778         4.67557
| 49>    C        7.98117         3.31007         5.23585
| 50>    C        7.30434         4.37379         6.00816
| 51>    O        7.88889         5.36156         6.35950
| 52>    O        6.01233         4.18003         6.29414
| 53>    C        9.30461         3.33666         4.87401
| 54>    C        9.68748         2.20200         4.14246
| 55>    O       10.91529         1.96947         3.61553
| 56>    C       12.01764         2.48668         4.17474
| 57>    C       12.23860         2.88725         5.57158
| 58>    N       13.45061         3.28911         5.80921
| 59>    C       14.11864         3.18849         4.62225
| 60>    C       13.23345         2.65744         3.56974
| 61>    C       13.95737         2.51733         2.33193
| 62>    S       13.40813         1.96272         0.88889
| 63>    C       15.28186         2.99017         2.65112
| 64>    C       15.35097         3.39621         4.06753
| 65>    N       16.60416         3.84061         4.37538
| 66>    C       17.30387         3.69449         3.29381
| 67>    C       16.54691         3.15599         2.14743
| 68>    C       17.05296         2.94546         0.83418
| 69>    C       18.32181         2.60742         0.50631
| 70>    C       18.83913         2.81583        -0.88196
| 71>    O       18.16689         3.02504        -1.86445
| 72>    C       20.30482         2.77509        -0.74567
| 73>    C       20.64681         2.41369         0.56038
| 74>    C       19.43171         2.15194         1.32160
| 75>    C       19.33146         1.41654         2.47150
| 76>    C       18.10069         0.97263         3.00347
| 77>    N       17.13229         0.52895         3.43031
| 78>    C       20.43947         0.92933         3.19697
| 79>    N       21.30962         0.52657         3.82677
| 80>    C       21.98960         2.33084         0.95079
| 81>    C       22.96133         2.60898         0.02501
| 82>    C       22.65112         2.96690        -1.30567
| 83>    C       21.28798         3.05614        -1.71469
| 84>    C       20.98330         3.41532        -3.04323
| 85>    C       21.99017         3.67483        -3.93219
| 86>    C       23.33409         3.58898        -3.53502
| 87>    C       23.65878         3.24298        -2.25166
| 88>    H        4.35149        -9.36461         4.30836
| 89>    H        2.27923       -10.66544         4.47814
| 90>    H       -0.44432        -5.85148         4.54987
| 91>    H       -2.48816        -7.22150         4.74227
| 92>    H       -2.33702        -9.67749         4.80416
| 93>    H       -0.14808       -10.79527         4.67493
| 94>    H        3.55736        -3.15766         3.65616
| 95>    H        5.89302        -5.72951         1.87750
| 96>    H       10.72380         0.09732         2.24017
| 97>    H        5.65708         3.34220         5.96513
| 98>    H        9.94892         4.16515         5.10915
| 99>    H       11.51534         2.82988         6.36633
|100>    H       18.33527         4.00153         3.26261
|101>    H       16.37008         3.12728         0.00993
|102>    H       22.25509         2.06596         1.96140
|103>    H       24.00197         2.55591         0.31033
|104>    H       19.94769         3.47902        -3.33771
|105>    H       21.75643         3.94893        -4.94990
|106>    H       24.11247         3.79937        -4.25326
|107>    H       24.69218         3.17525        -1.94425
|108> *
|109>
|110>                          ****END OF INPUT****

CARTESIAN COORDINATES (ANGSTROEM)
---------------------------------
  C      3.739850   -5.185190    4.074450
  C      2.276640   -5.363090    4.328880
  O      1.457900   -4.476560    4.400340
  C      2.081590   -6.820490    4.401690
  C      3.320350   -7.465530    4.344760
  C      4.381360   -6.466960    4.297830
  C      5.695050   -6.657230    4.631500
  C      6.600360   -5.596950    4.856670
  N      7.347750   -4.768630    5.125880
  C      6.267480   -7.918990    4.900490
  N      6.779070   -8.924170    5.110850
  C      3.398830   -8.864080    4.369840
  C      2.237250   -9.586050    4.461160
  C      0.970520   -8.965750    4.537650
  C      0.876900   -7.543290    4.504650
  C     -0.389350   -6.928240    4.578010
  C     -1.518610   -7.692930    4.684330
  C     -1.432440   -9.093920    4.719500
  C     -0.216680   -9.717550    4.647110
  C      4.225020   -4.012300    3.606600
  C      5.496610   -3.798410    3.002740
  C      6.243460   -4.752140    2.162460
  N      7.369680   -4.295710    1.708490
  C      7.488510   -3.034490    2.215560
  C      6.289460   -2.679620    2.994940
  C      6.431840   -1.359960    3.558700
  S      5.343560   -0.578940    4.511110
  C      7.731110   -0.927620    3.117550
  C      8.356050   -1.980110    2.289470
  N      9.603030   -1.599350    1.890520
  C      9.806810   -0.433960    2.419330
  C      8.678430    0.066640    3.230260
  C      8.641750    1.297910    3.930450
  S      7.187540    1.877780    4.675570
  C      7.981170    3.310070    5.235850
  C      7.304340    4.373790    6.008160
  O      7.888890    5.361560    6.359500
  O      6.012330    4.180030    6.294140
  C      9.304610    3.336660    4.874010
  C      9.687480    2.202000    4.142460
  O     10.915290    1.969470    3.615530
  C     12.017640    2.486680    4.174740
  C     12.238600    2.887250    5.571580
  N     13.450610    3.289110    5.809210
  C     14.118640    3.188490    4.622250
  C     13.233450    2.657440    3.569740
  C     13.957370    2.517330    2.331930
  S     13.408130    1.962720    0.888890
  C     15.281860    2.990170    2.651120
  C     15.350970    3.396210    4.067530
  N     16.604160    3.840610    4.375380
  C     17.303870    3.694490    3.293810
  C     16.546910    3.155990    2.147430
  C     17.052960    2.945460    0.834180
  C     18.321810    2.607420    0.506310
  C     18.839130    2.815830   -0.881960
  O     18.166890    3.025040   -1.864450
  C     20.304820    2.775090   -0.745670
  C     20.646810    2.413690    0.560380
  C     19.431710    2.151940    1.321600
  C     19.331460    1.416540    2.471500
  C     18.100690    0.972630    3.003470
  N     17.132290    0.528950    3.430310
  C     20.439470    0.929330    3.196970
  N     21.309620    0.526570    3.826770
  C     21.989600    2.330840    0.950790
  C     22.961330    2.608980    0.025010
  C     22.651120    2.966900   -1.305670
  C     21.287980    3.056140   -1.714690
  C     20.983300    3.415320   -3.043230
  C     21.990170    3.674830   -3.932190
  C     23.334090    3.588980   -3.535020
  C     23.658780    3.242980   -2.251660
  H      4.351490   -9.364610    4.308360
  H      2.279230  -10.665440    4.478140
  H     -0.444320   -5.851480    4.549870
  H     -2.488160   -7.221500    4.742270
  H     -2.337020   -9.677490    4.804160
  H     -0.148080  -10.795270    4.674930
  H      3.557360   -3.157660    3.656160
  H      5.893020   -5.729510    1.877500
  H     10.723800    0.097320    2.240170
  H      5.657080    3.342200    5.965130
  H      9.948920    4.165150    5.109150
  H     11.515340    2.829880    6.366330
  H     18.335270    4.001530    3.262610
  H     16.370080    3.127280    0.009930
  H     22.255090    2.065960    1.961400
  H     24.001970    2.555910    0.310330
  H     19.947690    3.479020   -3.337710
  H     21.756430    3.948930   -4.949900
  H     24.112470    3.799370   -4.253260
  H     24.692180    3.175250   -1.944250

 Total Charge           Charge          ....    0
 Multiplicity           Mult            ....    1
 Number of Electrons    NEL             ....  506
 Basis Dimension        Dim             .... 1134

ORBITAL ENERGIES
----------------

  NO   OCC          E(Eh)            E(eV)
   0   2.0000     -88.990754     -2421.5615
   1   2.0000     -88.915787     -2419.5216
   2   2.0000     -88.911639     -2419.4087
   3   2.0000     -19.314401      -525.5716
   4   2.0000     -19.271419      -524.4020
   5   2.0000     -19.229321      -523.2564
   6   2.0000     -19.228324      -523.2293
   7   2.0000     -19.207196      -522.6544
   8   2.0000     -14.431425      -392.6990
   9   2.0000     -14.425699      -392.5432
  10   2.0000     -14.425306      -392.5325
  11   2.0000     -14.425063      -392.5259
  12   2.0000     -14.424875      -392.5208
  13   2.0000     -14.424566      -392.5124
  14   2.0000     -14.424494      -392.5104
  15   2.0000     -14.424273      -392.5044
  16   2.0000     -10.418045      -283.4894
  17   2.0000     -10.379665      -282.4451
  18   2.0000     -10.379435      -282.4388
  19   2.0000     -10.378679      -282.4182
  20   2.0000     -10.377048      -282.3738
  21   2.0000     -10.358964      -281.8817
  22   2.0000     -10.358122      -281.8588
  23   2.0000     -10.356979      -281.8277
  24   2.0000     -10.353490      -281.7328
  25   2.0000     -10.352558      -281.7074
  26   2.0000     -10.352301      -281.7004
  27   2.0000     -10.352135      -281.6959
  28   2.0000     -10.346173      -281.5337
  29   2.0000     -10.344444      -281.4866
  30   2.0000     -10.344417      -281.4859
  31   2.0000     -10.343085      -281.4497
  32   2.0000     -10.343014      -281.4477
  33   2.0000     -10.342409      -281.4313
  34   2.0000     -10.340145      -281.3696
  35   2.0000     -10.339254      -281.3454
  36   2.0000     -10.328743      -281.0594
  37   2.0000     -10.328380      -281.0495
  38   2.0000     -10.327353      -281.0216
  39   2.0000     -10.326848      -281.0078
  40   2.0000     -10.326527      -280.9991
  41   2.0000     -10.325604      -280.9740
  42   2.0000     -10.325542      -280.9723
  43   2.0000     -10.324788      -280.9518
  44   2.0000     -10.319987      -280.8211
  45   2.0000     -10.318991      -280.7940
  46   2.0000     -10.317766      -280.7607
  47   2.0000     -10.317663      -280.7579
  48   2.0000     -10.312708      -280.6230
  49   2.0000     -10.312204      -280.6093
  50   2.0000     -10.311680      -280.5951
  51   2.0000     -10.311360      -280.5864
  52   2.0000     -10.309758      -280.5428
  53   2.0000     -10.309351      -280.5317
  54   2.0000     -10.305888      -280.4375
  55   2.0000     -10.305189      -280.4184
  56   2.0000     -10.304997      -280.4132
  57   2.0000     -10.304621      -280.4030
  58   2.0000     -10.304314      -280.3946
  59   2.0000     -10.303766      -280.3797
  60   2.0000     -10.303756      -280.3794
  61   2.0000     -10.303641      -280.3763
  62   2.0000     -10.302723      -280.3514
  63   2.0000     -10.300215      -280.2831
  64   2.0000     -10.299508      -280.2638
  65   2.0000     -10.291208      -280.0380
  66   2.0000     -10.290693      -280.0240
  67   2.0000     -10.290219      -280.0111
  68   2.0000     -10.289701      -279.9970
  69   2.0000     -10.288776      -279.9718
  70   2.0000     -10.287920      -279.9485
  71   2.0000     -10.285191      -279.8743
  72   2.0000     -10.284303      -279.8501
  73   2.0000      -8.085273      -220.0115
  74   2.0000      -8.011581      -218.0062
  75   2.0000      -8.006951      -217.8802
  76   2.0000      -6.054500      -164.7513
  77   2.0000      -6.050358      -164.6386
  78   2.0000      -6.047462      -164.5598
  79   2.0000      -5.980275      -162.7316
  80   2.0000      -5.980110      -162.7271
  81   2.0000      -5.975840      -162.6109
  82   2.0000      -5.975564      -162.6034
  83   2.0000      -5.970932      -162.4773
  84   2.0000      -5.966156      -162.3474
  85   2.0000      -1.225780       -33.3552
  86   2.0000      -1.194875       -32.5142
  87   2.0000      -1.144500       -31.1434
  88   2.0000      -1.143540       -31.1173
  89   2.0000      -1.107903       -30.1476
  90   2.0000      -1.096862       -29.8471
  91   2.0000      -1.094684       -29.7879
  92   2.0000      -1.078001       -29.3339
  93   2.0000      -1.075464       -29.2648
  94   2.0000      -1.029709       -28.0198
  95   2.0000      -1.028927       -27.9985
  96   2.0000      -1.015884       -27.6436
  97   2.0000      -1.009070       -27.4582
  98   2.0000      -1.008235       -27.4355
  99   2.0000      -1.003638       -27.3104
 100   2.0000      -1.002796       -27.2875
 101   2.0000      -0.978594       -26.6289
 102   2.0000      -0.977801       -26.6073
 103   2.0000      -0.976183       -26.5633
 104   2.0000      -0.975035       -26.5321
 105   2.0000      -0.935573       -25.4582
 106   2.0000      -0.935018       -25.4431
 107   2.0000      -0.921458       -25.0741
 108   2.0000      -0.920961       -25.0606
 109   2.0000      -0.914698       -24.8902
 110   2.0000      -0.906864       -24.6770
 111   2.0000      -0.906323       -24.6623
 112   2.0000      -0.898118       -24.4390
 113   2.0000      -0.875526       -23.8243
 114   2.0000      -0.874968       -23.8091
 115   2.0000      -0.867211       -23.5980
 116   2.0000      -0.865292       -23.5458
 117   2.0000      -0.855485       -23.2789
 118   2.0000      -0.854879       -23.2624
 119   2.0000      -0.849744       -23.1227
 120   2.0000      -0.840762       -22.8783
 121   2.0000      -0.836245       -22.7554
 122   2.0000      -0.833372       -22.6772
 123   2.0000      -0.797427       -21.6991
 124   2.0000      -0.794620       -21.6227
 125   2.0000      -0.786108       -21.3911
 126   2.0000      -0.785455       -21.3733
 127   2.0000      -0.774457       -21.0740
 128   2.0000      -0.773848       -21.0575
 129   2.0000      -0.760117       -20.6838
 130   2.0000      -0.752652       -20.4807
 131   2.0000      -0.743414       -20.2293
 132   2.0000      -0.727431       -19.7944
 133   2.0000      -0.724109       -19.7040
 134   2.0000      -0.723256       -19.6808
 135   2.0000      -0.718539       -19.5524
 136   2.0000      -0.717850       -19.5337
 137   2.0000      -0.715721       -19.4758
 138   2.0000      -0.713017       -19.4022
 139   2.0000      -0.705330       -19.1930
 140   2.0000      -0.699084       -19.0230
 141   2.0000      -0.698288       -19.0014
 142   2.0000      -0.686781       -18.6883
 143   2.0000      -0.686158       -18.6713
 144   2.0000      -0.672803       -18.3079
 145   2.0000      -0.664514       -18.0824
 146   2.0000      -0.658029       -17.9059
 147   2.0000      -0.649092       -17.6627
 148   2.0000      -0.648878       -17.6569
 149   2.0000      -0.638873       -17.3846
 150   2.0000      -0.638219       -17.3668
 151   2.0000      -0.628724       -17.1084
 152   2.0000      -0.615732       -16.7549
 153   2.0000      -0.612283       -16.6611
 154   2.0000      -0.601843       -16.3770
 155   2.0000      -0.600723       -16.3465
 156   2.0000      -0.597390       -16.2558
 157   2.0000      -0.596669       -16.2362
 158   2.0000      -0.595259       -16.1978
 159   2.0000      -0.593170       -16.1410
 160   2.0000      -0.589831       -16.0501
 161   2.0000      -0.585851       -15.9418
 162   2.0000      -0.580228       -15.7888
 163   2.0000      -0.575220       -15.6525
 164   2.0000      -0.569377       -15.4935
 165   2.0000      -0.567534       -15.4434
 166   2.0000      -0.563827       -15.3425
 167   2.0000      -0.559567       -15.2266
 168   2.0000      -0.556672       -15.1478
 169   2.0000      -0.551303       -15.0017
 170   2.0000      -0.549653       -14.9568
 171   2.0000      -0.547813       -14.9068
 172   2.0000      -0.545607       -14.8467
 173   2.0000      -0.545215       -14.8361
 174   2.0000      -0.544016       -14.8034
 175   2.0000      -0.539508       -14.6808
 176   2.0000      -0.535245       -14.5648
 177   2.0000      -0.534176       -14.5357
 178   2.0000      -0.528764       -14.3884
 179   2.0000      -0.524747       -14.2791
 180   2.0000      -0.522829       -14.2269
 181   2.0000      -0.519999       -14.1499
 182   2.0000      -0.518631       -14.1127
 183   2.0000      -0.517435       -14.0801
 184   2.0000      -0.514592       -14.0027
 185   2.0000      -0.513867       -13.9830
 186   2.0000      -0.513688       -13.9782
 187   2.0000      -0.511025       -13.9057
 188   2.0000      -0.506404       -13.7799
 189   2.0000      -0.504153       -13.7187
 190   2.0000      -0.502844       -13.6831
 191   2.0000      -0.500621       -13.6226
 192   2.0000      -0.498919       -13.5763
 193   2.0000      -0.496148       -13.5009
 194   2.0000      -0.492608       -13.4046
 195   2.0000      -0.490431       -13.3453
 196   2.0000      -0.489396       -13.3171
 197   2.0000      -0.485942       -13.2232
 198   2.0000      -0.484795       -13.1919
 199   2.0000      -0.480244       -13.0681
 200   2.0000      -0.477266       -12.9871
 201   2.0000      -0.476249       -12.9594
 202   2.0000      -0.468849       -12.7580
 203   2.0000      -0.464152       -12.6302
 204   2.0000      -0.461996       -12.5716
 205   2.0000      -0.459031       -12.4909
 206   2.0000      -0.457836       -12.4583
 207   2.0000      -0.453552       -12.3418
 208   2.0000      -0.452582       -12.3154
 209   2.0000      -0.451502       -12.2860
 210   2.0000      -0.448081       -12.1929
 211   2.0000      -0.447069       -12.1654
 212   2.0000      -0.445171       -12.1137
 213   2.0000      -0.443673       -12.0729
 214   2.0000      -0.442732       -12.0474
 215   2.0000      -0.440645       -11.9905
 216   2.0000      -0.439100       -11.9485
 217   2.0000      -0.438031       -11.9194
 218   2.0000      -0.437132       -11.8950
 219   2.0000      -0.432912       -11.7801
 220   2.0000      -0.432385       -11.7658
 221   2.0000      -0.431672       -11.7464
 222   2.0000      -0.431058       -11.7297
 223   2.0000      -0.423738       -11.5305
 224   2.0000      -0.422981       -11.5099
 225   2.0000      -0.409547       -11.1443
 226   2.0000      -0.408498       -11.1158
 227   2.0000      -0.405446       -11.0328
 228   2.0000      -0.385910       -10.5011
 229   2.0000      -0.385176       -10.4812
 230   2.0000      -0.382500       -10.4083
 231   2.0000      -0.370938       -10.0937
 232   2.0000      -0.370562       -10.0835
 233   2.0000      -0.368898       -10.0382
 234   2.0000      -0.367072        -9.9885
 235   2.0000      -0.361797        -9.8450
 236   2.0000      -0.361274        -9.8308
 237   2.0000      -0.359085        -9.7712
 238   2.0000      -0.355043        -9.6612
 239   2.0000      -0.345338        -9.3971
 240   2.0000      -0.344534        -9.3753
 241   2.0000      -0.332507        -9.0480
 242   2.0000      -0.331319        -9.0156
 243   2.0000      -0.327139        -8.9019
 244   2.0000      -0.325498        -8.8572
 245   2.0000      -0.320518        -8.7217
 246   2.0000      -0.311567        -8.4782
 247   2.0000      -0.306642        -8.3442
 248   2.0000      -0.301327        -8.1995
 249   2.0000      -0.299979        -8.1628
 250   2.0000      -0.297717        -8.1013
 251   2.0000      -0.297247        -8.0885
 252   2.0000      -0.287733        -7.8296
 253   0.0000      -0.125658        -3.4193
 254   0.0000      -0.123208        -3.3527
 255   0.0000      -0.104625        -2.8470
 256   0.0000      -0.097448        -2.6517
 257   0.0000      -0.086807        -2.3621

MULLIKEN ATOMIC CHARGES
-----------------------
   0 C :   -0.109631
   1 C :    0.120641
   2 O :   -0.134819
   3 C :    0.007641
   4 C :   -0.004568
   5 C :    0.257802
   6 C :   -0.333497
   7 C :   -0.186346
   8 N :    0.173635
   9 C :   -0.176051
  10 N :    0.166722
  11 C :   -0.019962
  12 C :    0.005041
  13 C :    0.081116
  14 C :    0.036211
  15 C :   -0.026047
  16 C :    0.039845
  17 C :    0.040113
  18 C :   -0.021945
  19 C :    0.020845
  20 C :   -0.072509
  21 C :    0.064936
  22 N :   -0.010185
  23 C :    0.026264
  24 C :    0.055491
  25 C :   -0.002039
  26 S :   -0.117900
  27 C :   -0.038755
  28 C :    0.013900
  29 N :   -0.009461
  30 C :    0.071250
  31 C :    0.006527
  32 C :   -0.144662
  33 S :    0.175217
  34 C :   -0.147951
  35 C :    0.184834
  36 O :   -0.161772
  37 O :   -0.149977
  38 C :   -0.060384
  39 C :    0.240197
  40 O :   -0.216679
  41 C :    0.111929
  42 C :   -0.003171
  43 N :   -0.005480
  44 C :    0.007274
  45 C :   -0.006482
  46 C :   -0.006860
  47 S :   -0.091745
  48 C :    0.060479
  49 C :    0.034511
  50 N :   -0.011615
  51 C :    0.066649
  52 C :   -0.076375
  53 C :    0.032155
  54 C :   -0.114251
  55 C :    0.124639
  56 O :   -0.135083
  57 C :    0.006540
  58 C :   -0.003609
  59 C :    0.252664
  60 C :   -0.333101
  61 C :   -0.187707
  62 N :    0.180304
  63 C :   -0.181686
  64 N :    0.169264
  65 C :   -0.019408
  66 C :    0.006293
  67 C :    0.079242
  68 C :    0.036998
  69 C :   -0.027230
  70 C :    0.041795
  71 C :    0.039762
  72 C :   -0.020893
  73 H :    0.002410
  74 H :   -0.007160
  75 H :    0.004415
  76 H :   -0.004109
  77 H :   -0.003152
  78 H :   -0.016758
  79 H :    0.033264
  80 H :    0.019744
  81 H :    0.023281
  82 H :    0.187501
  83 H :    0.026745
  84 H :    0.034921
  85 H :    0.022905
  86 H :    0.034355
  87 H :    0.002035
  88 H :   -0.008600
  89 H :    0.003587
  90 H :   -0.003742
  91 H :   -0.002563
  92 H :   -0.017969
Sum of atomic charges:   -0.0000000

LOEWDIN ATOMIC CHARGES
----------------------
   0 C :   -0.066808
   1 C :    0.087220
   2 O :   -0.128694
   3 C :   -0.032662
   4 C :   -0.005154
   5 C :    0.064673
   6 C :   -0.126232
   7 C :   -0.019574
   8 N :   -0.037139
   9 C :   -0.020521
  10 N :   -0.037276
  11 C :   -0.017213
  12 C :    0.023053
  13 C :   -0.008028
  14 C :   -0.002365
  15 C :   -0.001515
  16 C :   -0.008964
  17 C :   -0.009189
  18 C :   -0.011128
  19 C :    0.064837
  20 C :   -0.053986
  21 C :    0.086331
  22 N :   -0.067729
  23 C :    0.039797
  24 C :   -0.002802
  25 C :   -0.140159
  26 S :    0.058031
  27 C :   -0.043788
  28 C :    0.052116
  29 N :   -0.067410
  30 C :    0.102113
  31 C :   -0.045279
  32 C :   -0.186732
  33 S :    0.488191
  34 C :   -0.226394
  35 C :    0.062668
  36 O :   -0.150701
  37 O :   -0.023812
  38 C :   -0.048169
  39 C :    0.024207
  40 O :   -0.005616
  41 C :    0.029979
  42 C :    0.061163
  43 N :   -0.065359
  44 C :    0.047024
  45 C :   -0.066338
  46 C :   -0.142718
  47 S :    0.074691
  48 C :    0.000297
  49 C :    0.047477
  50 N :   -0.070606
  51 C :    0.091189
  52 C :   -0.053406
  53 C :    0.065557
  54 C :   -0.065693
  55 C :    0.087729
  56 O :   -0.127810
  57 C :   -0.032386
  58 C :   -0.005415
  59 C :    0.064087
  60 C :   -0.126409
  61 C :   -0.020709
  62 N :   -0.035044
  63 C :   -0.020822
  64 N :   -0.037108
  65 C :   -0.017287
  66 C :    0.023139
  67 C :   -0.008103
  68 C :   -0.002337
  69 C :   -0.001206
  70 C :   -0.008942
  71 C :   -0.009394
  72 C :   -0.011023
  73 H :    0.040447
  74 H :    0.037551
  75 H :    0.036519
  76 H :    0.033930
  77 H :    0.033448
  78 H :    0.031775
  79 H :    0.051907
  80 H :    0.026514
  81 H :    0.025774
  82 H :    0.085590
  83 H :    0.046362
  84 H :    0.033832
  85 H :    0.027309
  86 H :    0.053345
  87 H :    0.040317
  88 H :    0.037316
  89 H :    0.036516
  90 H :    0.033992
  91 H :    0.033582
  92 H :    0.031556

  Mayer bond orders larger than 0.100000
B(  0-C ,  1-C ) :   0.9395 B(  0-C ,  5-C ) :   1.0104 B(  0-C , 19-C ) :   1.7228
B(  1-C ,  2-O ) :   2.2159 B(  1-C ,  3-C ) :   0.9408 B(  3-C ,  4-C ) :   1.4058
B(  3-C , 14-C ) :   1.2377 B(  4-C ,  5-C ) :   1.0129 B(  4-C , 11-C ) :   1.2609
B(  5-C ,  6-C ) :   1.6580 B(  6-C ,  7-C ) :   1.1534 B(  6-C ,  9-C ) :   1.1282
B(  7-C ,  8-N ) :   3.0045 B(  9-C , 10-N ) :   2.9954 B( 11-C , 12-C ) :   1.4676
B( 11-C , 73-H ) :   0.9878 B( 12-C , 13-C ) :   1.2229 B( 12-C , 74-H ) :   0.9942
B( 13-C , 14-C ) :   1.2398 B( 13-C , 18-C ) :   1.2409 B( 14-C , 15-C ) :   1.2764
B( 15-C , 16-C ) :   1.4736 B( 15-C , 75-H ) :   0.9867 B( 16-C , 17-C ) :   1.2559
B( 16-C , 76-H ) :   0.9883 B( 17-C , 18-C ) :   1.4941 B( 17-C , 77-H ) :   0.9896
B( 18-C , 78-H ) :   0.9979 B( 19-C , 20-C ) :   1.0226 B( 19-C , 79-H ) :   0.9511
B( 20-C , 21-C ) :   1.0068 B( 20-C , 24-C ) :   1.5623 B( 21-C , 22-N ) :   1.7448
B( 21-C , 80-H ) :   0.9888 B( 22-N , 23-C ) :   1.2569 B( 23-C , 24-C ) :   1.0708
B( 23-C , 28-C ) :   1.5191 B( 24-C , 25-C ) :   1.0265 B( 25-C , 26-S ) :   1.6912
B( 25-C , 27-C ) :   1.0360 B( 27-C , 28-C ) :   1.0678 B( 27-C , 31-C ) :   1.5256
B( 28-C , 29-N ) :   1.2703 B( 29-N , 30-C ) :   1.7208 B( 30-C , 31-C ) :   1.0242
B( 30-C , 81-H ) :   0.9818 B( 31-C , 32-C ) :   1.1373 B( 32-C , 33-S ) :   1.1558
B( 32-C , 34-C ) :   0.1021 B( 32-C , 39-C ) :   1.4354 B( 33-S , 34-C ) :   1.1093
B( 34-C , 35-C ) :   0.9211 B( 34-C , 38-C ) :   1.5029 B( 35-C , 36-O ) :   2.2062
B( 35-C , 37-O ) :   1.2507 B( 37-O , 82-H ) :   0.9466 B( 38-C , 39-C ) :   1.2279
B( 38-C , 83-H ) :   1.0039 B( 39-C , 40-O ) :   1.0676 B( 40-O , 41-C ) :   1.1254
B( 41-C , 42-C ) :   1.0050 B( 41-C , 45-C ) :   1.5597 B( 42-C , 43-N ) :   1.7289
B( 42-C , 84-H ) :   0.9929 B( 43-N , 44-C ) :   1.2467 B( 44-C , 45-C ) :   1.0799
B( 44-C , 49-C ) :   1.5624 B( 45-C , 46-C ) :   1.0104 B( 46-C , 47-S ) :   1.7254
B( 46-C , 48-C ) :   1.0138 B( 48-C , 49-C ) :   1.0667 B( 48-C , 52-C ) :   1.5656
B( 49-C , 50-N ) :   1.2529 B( 50-N , 51-C ) :   1.7493 B( 51-C , 52-C ) :   1.0015
B( 51-C , 85-H ) :   0.9871 B( 52-C , 53-C ) :   1.0302 B( 53-C , 54-C ) :   1.7197
B( 53-C , 86-H ) :   0.9509 B( 54-C , 55-C ) :   0.9360 B( 54-C , 59-C ) :   1.0138
B( 55-C , 56-O ) :   2.2165 B( 55-C , 57-C ) :   0.9406 B( 57-C , 58-C ) :   1.4059
B( 57-C , 68-C ) :   1.2376 B( 58-C , 59-C ) :   1.0125 B( 58-C , 65-C ) :   1.2618
B( 59-C , 60-C ) :   1.6589 B( 60-C , 61-C ) :   1.1516 B( 60-C , 63-C ) :   1.1310
B( 61-C , 62-N ) :   3.0078 B( 63-C , 64-N ) :   2.9963 B( 65-C , 66-C ) :   1.4681
B( 65-C , 87-H ) :   0.9867 B( 66-C , 67-C ) :   1.2221 B( 66-C , 88-H ) :   0.9946
B( 67-C , 68-C ) :   1.2409 B( 67-C , 72-C ) :   1.2409 B( 68-C , 69-C ) :   1.2750
B( 69-C , 70-C ) :   1.4752 B( 69-C , 89-H ) :   0.9873 B( 70-C , 71-C ) :   1.2564
B( 70-C , 90-H ) :   0.9870 B( 71-C , 72-C ) :   1.4934 B( 71-C , 91-H ) :   0.9892
B( 72-C , 92-H ) :   0.9986

-----------------------------------------------------------------------------
         ABSORPTION SPECTRUM VIA TRANSITION ELECTRIC DIPOLE MOMENTS
-----------------------------------------------------------------------------
State   Energy  Wavelength   fosc         T2         TX        TY        TZ
        (cm-1)    (nm)                  (au**2)     (au)      (au)      (au)
-----------------------------------------------------------------------------
   0   15646.7    639.1   0.001027314   0.02162  -0.13019  -0.06305   0.02626
   1   16255.8    615.2   0.000607613   0.01231   0.09670   0.04321  -0.03299
   2   17248.3    579.8   0.260399501   4.97015   1.61384   1.53604  -0.07905
   3   17676.0    565.7   0.006078688   0.11321  -0.23939  -0.23644   0.00168
   4   17861.8    559.9   0.065603098   1.20914  -0.96238   0.29281   0.44411
   5   19019.1    525.8   0.000193396   0.00335  -0.01278  -0.05507  -0.01230
   6   21171.5    472.3   0.013876751   0.21578  -0.31254   0.27989   0.19940
   7   21392.5    467.5   0.045582967   0.70148   0.57156   0.56374  -0.23876
   8   22986.2    435.0   0.309456760   4.43209   1.60548   1.36035   0.06301
   9   23396.5    427.4   0.017017884   0.23946   0.05897   0.48569   0.00949
  10   23736.7    421.3   0.012638566   0.17529  -0.29103  -0.26185   0.14841
  11   23897.6    418.5   0.012083895   0.16647   0.21506   0.28089  -0.20326
  12   24115.2    414.7   0.118606324   1.61917  -1.09393  -0.11126   0.64039
  13   24928.4    401.1   0.277740546   3.66793  -1.42743  -1.22006   0.37662
  14   25053.0    399.2   0.068585355   0.90125  -0.74935   0.28474   0.50858
  15   25382.2    394.0   0.233482306   3.02831  -1.17739  -1.27150   0.15925
  16   25514.8    391.9   0.064951114   0.83805  -0.19611  -0.79878   0.40191
  17   25879.8    386.4   0.061711149   0.78502   0.65270   0.45765  -0.38673
  18   25946.4    385.4   0.058118243   0.73741   0.79441   0.10045  -0.31022
  19   25979.8    384.9   0.015917266   0.20170   0.41674  -0.11546  -0.12123
  20   26078.5    383.5   0.132354734   1.67083  -1.18468   0.25871   0.44770
  21   26864.1    372.2   0.131201329   1.60784  -1.04244  -0.71028   0.12912
  22   26948.0    371.1   0.207928436   2.54017   1.12817   1.11195   0.17593
  23   27386.0    365.1   0.238559136   2.86776  -0.86971  -1.42751   0.27123
  24   27572.9    362.7   0.042574334   0.50832  -0.37294   0.45882   0.39840
  25   27932.0    358.0   0.106028663   1.24968   0.70962  -0.50987   0.69725
  26   28316.7    353.1   0.246076277   2.86090  -0.65468  -1.52916   0.30653
  27   28868.2    346.4   0.201118965   2.29355  -1.25140   0.57506   0.62997
  28   28985.8    345.0   0.051430436   0.58413  -0.67945  -0.33889   0.08739
  29   29449.5    339.6   0.072688302   0.81257  -0.82520   0.30242   0.20037
  30   29468.0    339.4   0.076593353   0.85569   0.87718  -0.18047  -0.23166
  31   29535.7    338.6   0.022784026   0.25396   0.25852   0.40643  -0.14811
  32   29605.4    337.8   0.036648559   0.40753  -0.54814   0.27058   0.18400
  33   29982.3    333.5   0.105047971   1.15345  -0.40115  -0.98266  -0.16402
  34   30201.6    331.1   0.001063370   0.01159  -0.01110   0.09421   0.05091
  35   30276.7    330.3   0.037258617   0.40513   0.51457   0.26450  -0.26529
  36   30543.6    327.4   0.189467550   2.04216   1.12485   0.87789  -0.07868
  37   30772.3    325.0   0.232183013   2.48397  -1.28820  -0.40176   0.81432
  38   30859.6    324.0   0.078534820   0.83781  -0.73553   0.25601   0.48090
  39   30923.1    323.4   0.122544096   1.30462   0.30730  -1.02612  -0.39656
  40   31074.0    321.8   0.045219046   0.47907  -0.69150   0.02091  -0.02140
  41   31235.3    320.2   0.044437196   0.46836  -0.15302   0.12961  -0.65433
  42   31468.0    317.8   0.044456241   0.46509  -0.63745  -0.13683   0.20006
  43   31688.8    315.6   0.061010528   0.63383  -0.77722   0.03361  -0.16920
  44   31762.0    314.8   0.024758024   0.25662  -0.17079  -0.12480   0.46030
  45   32140.6    311.1   0.143419686   1.46903   1.06369   0.49346  -0.30673
  46   32302.7    309.6   0.252873004   2.57715   1.06083   0.44491  -1.11975
  47   32426.9    308.4   0.385641319   3.91520  -1.96427  -0.23693   0.02622
  48   32524.3    307.5   0.156596312   1.58507  -0.15711   0.52671  -1.13268
  49   32664.1    306.1   0.083854548   0.84515   0.18265  -0.02107   0.90074
  50   33024.5    302.8   0.058017881   0.57836   0.15271   0.73534  -0.11968
  51   33236.1    300.9   0.087390189   0.86562  -0.37520  -0.45044   0.72246
  52   33468.9    298.8   0.022729355   0.22357  -0.19930  -0.15284   0.40062
  53   33516.4    298.4   0.093238918   0.91583   0.79774   0.47587   0.23020
  54   33609.2    297.5   0.011861972   0.11619  -0.17419   0.18705   0.22552
  55   34060.2    293.6   0.092039071   0.88961  -0.90601  -0.25990  -0.03481
  56   34063.5    293.6   0.024764195   0.23934   0.20228   0.17565  -0.40935
  57   34385.8    290.8   0.004592683   0.04397   0.20918  -0.01385   0.00486
  58   34463.7    290.2   0.032197047   0.30756  -0.30348   0.05185   0.46127
  59   34601.6    289.0   0.239146587   2.27532  -1.23566  -0.04777   0.86382
  60   34794.0    287.4   0.027343024   0.25871   0.31921  -0.29018  -0.26947
  61   34880.2    286.7   0.113864351   1.07469  -0.88277  -0.43163   0.33030
  62   35045.6    285.3   0.012673837   0.11906   0.22569   0.23095  -0.12158
  63   35115.6    284.8   0.058196418   0.54560   0.29909  -0.21299  -0.64092
  64   35317.2    283.1   0.050820996   0.47373  -0.26076  -0.63682  -0.01380
  65   35587.3    281.0   0.006717409   0.06214   0.04385   0.17361   0.17343
  66   35806.0    279.3   0.168123682   1.54578   0.61485   1.03057   0.32506
  67   36087.3    277.1   0.003994168   0.03644   0.03294   0.18723   0.01720
  68   36105.9    277.0   0.074358361   0.67800   0.76484   0.27475  -0.13240
  69   36398.5    274.7   0.155422822   1.40575   0.99488   0.07824  -0.64019
  70   36461.8    274.3   0.064656002   0.58378   0.75225   0.07555  -0.11039
  71   36478.9    274.1   0.039807503   0.35925  -0.55512  -0.18147  -0.13477
  72   36579.4    273.4   0.041686738   0.37518  -0.36852   0.48837   0.02931
  73   36605.2    273.2   0.064247298   0.57781  -0.60811  -0.20005   0.40987
  74   36965.1    270.5   0.009631946   0.08578  -0.01483  -0.28050   0.08296
  75   36972.5    270.5   0.020769746   0.18494   0.31543   0.13728   0.25806
  76   37057.9    269.8   0.008113827   0.07208   0.17300   0.19366  -0.06817
  77   37143.6    269.2   0.018345552   0.16260   0.21072   0.06629  -0.33735
  78   37155.9    269.1   0.133184897   1.18006   0.56378   0.20906  -0.90471
  79   37211.3    268.7   0.005031328   0.04451  -0.04754  -0.11456  -0.17067
  80   37258.3    268.4   0.085088222   0.75183   0.36416   0.21816  -0.75606
  81   37503.3    266.6   0.008744364   0.07676   0.24844   0.06283  -0.10532
  82   37571.7    266.2   0.011166628   0.09784   0.24386   0.18778  -0.05582
  83   38077.8    262.6   0.001442740   0.01247  -0.10350  -0.02593   0.03301
  84   38245.3    261.5   0.106185432   0.91403  -0.47548   0.59871   0.57402
  85   38408.5    260.4   0.012573657   0.10777  -0.01226   0.19463  -0.26409
  86   38486.2    259.8   0.165431804   1.41511  -0.75949   0.54543   0.73538
  87   38914.9    257.0   0.019796514   0.16747  -0.06405   0.01668  -0.40385
  88   39040.9    256.1   0.009454169   0.07972  -0.12774   0.17991   0.17618
  89   39057.8    256.0   0.025093514   0.21151   0.01078  -0.31904  -0.33107
  90   39138.7    255.5   0.155648803   1.30923  -0.56080   0.49677   0.86484
  91   39208.1    255.0   0.108289456   0.90926  -0.62528  -0.33820  -0.63554
  92   39368.2    254.0   0.003985173   0.03333   0.05270  -0.02518  -0.17296
  93   39504.7    253.1   0.008258986   0.06883   0.23969  -0.05950  -0.08852
  94   39635.8    252.3   0.138846698   1.15325  -0.78640  -0.40938  -0.60600
  95   39730.6    251.7   0.007282134   0.06034   0.19222  -0.09086   0.12303
  96   39948.6    250.3   0.067257750   0.55426  -0.51316  -0.40884   0.35182
  97   40286.0    248.2   0.006533777   0.05339   0.05916  -0.19641  -0.10638

FINAL SINGLE POINT ENERGY     -4188.441864204728

DIPOLE MOMENT
-------------
                                X             Y             Z
Electronic contribution:     -4.14746      12.22576      12.09469
Nuclear contribution   :      3.06198     -12.75043     -14.44155
                        -----------------------------------------
Total Dipole Moment    :     -1.08548      -0.52467      -2.34686
                        -----------------------------------------
Magnitude (a.u.)       :      2.63842
Magnitude (Debye)      :      6.70634

Rotational constants in cm-1:     0.001716     0.000256     0.000236
Rotational constants in MHz :    51.439473     7.685590     7.069427

                             ****ORCA TERMINATED NORMALLY****
TOTAL RUN TIME: 0 days 0 hours 9 minutes 43 seconds 729 msec
