                         Program Version 4.2.0 -  RELEASE  -
|  1> # ORCA input file
|  2> # SCF done       -184.766036451548          0.000530219416
|  3> ! CAM-B3LYP def2-SVP def2/J RIJCOSX Grid4 TightSCF
|  4> %maxcore 5000
|  5> %tddft
|  6>     Mode sTDDFT
|  7>     Ethresh 5.0
|  8>     maxcore 5000
|  9> end
| 10>
| 11> %pal
| 12>   nprocs 6
| 13>   end
| 14> * xyz 0 1
| 15>    C        2.83279         5.42738        -4.54206
| 16>    C        1.70117         5.62517        -5.49622
| 17>    O        1.27300         4.80245        -6.27221
| 18>    C        1.21393         6.99068        -5.22863
| 19>    C        2.05450         7.61603        -4.30494
| 20>    C        3.15723         6.72108        -3.97617
| 21>    C        4.36621         7.08616        -3.44740
| 22>    C        5.49873         6.24185        -3.41888
| 23>    N        6.47116         5.63287        -3.43921
| 24>    C        4.66593         8.37618        -2.96957
| 25>    N        4.97057         9.39955        -2.54703
| 26>    C        1.78692         8.91830        -3.86288
| 27>    C        0.68961         9.56979        -4.36236
| 28>    C       -0.17029         8.97346        -5.31101
| 29>    C        0.08671         7.64526        -5.76162
| 30>    C       -0.77620         7.05258        -6.70581
| 31>    C       -1.84862         7.75070        -7.18868
| 32>    C       -2.10511         9.05985        -6.75053
| 33>    C       -1.28658         9.65828        -5.83199
| 34>    C        3.29858         4.18636        -4.26186
| 35>    C        4.09338         3.80674        -3.14588
| 36>    C        4.07646         4.41123        -1.80573
| 37>    N        4.87304         3.84047        -0.95279
| 38>    C        5.49545         2.84221        -1.63976
| 39>    C        4.98338         2.76638        -3.01547
| 40>    C        5.66111         1.72254        -3.74637
| 41>    S        5.42964         1.31116        -5.32006
| 42>    C        6.58645         1.17079        -2.79086
| 43>    C        6.46162         1.87890        -1.50605
| 44>    N        7.33963         1.37239        -0.59191
| 45>    C        8.01821         0.46390        -1.21956
| 46>    C        7.63175         0.28747        -2.63341
| 47>    C        8.17987        -0.67481        -3.51902
| 48>    S        7.17567        -1.41206        -4.72672
| 49>    C        8.42394        -2.51605        -5.13487
| 50>    C        9.56539        -2.33843        -4.41704
| 51>    C       10.80071        -3.15401        -4.60384
| 52>    C        9.45515        -1.25427        -3.49314
| 53>    C       10.56932        -0.78186        -2.73416
| 54>    C       10.75461         0.49446        -2.30904
| 55>    C       11.88519         0.90574        -1.56298
| 56>    C       12.08610         2.19803        -1.19006
| 57>    C       13.19435         2.66804        -0.44915
| 58>    C       14.31333         1.89086         0.11226
| 59>    N       15.19370         2.59663         0.75166
| 60>    C       14.75131         3.89102         0.68197
| 61>    C       13.49204         3.96145        -0.07248
| 62>    C       13.04368         5.32282        -0.15972
| 63>    S       11.76859         5.90133        -1.03046
| 64>    C       14.00956         6.06676         0.61049
| 65>    C       15.08076         5.15837         1.07615
| 66>    N       16.04532         5.85613         1.73953
| 67>    C       15.65818         7.09457         1.72145
| 68>    C       14.36865         7.31958         1.04864
| 69>    C       13.75870         8.59375         0.89037
| 70>    C       12.44579         8.88734         0.74419
| 71>    C       12.04475        10.22250         0.19271
| 72>    O       12.76147        11.19507         0.11897
| 73>    C       10.66078        10.04193        -0.26203
| 74>    C       10.19868         8.78306         0.13243
| 75>    C       11.23366         8.11083         0.90995
| 76>    C       11.02853         7.10691         1.81807
| 77>    C       12.02657         6.61682         2.68250
| 78>    N       12.79922         6.19622         3.42062
| 79>    C        9.78205         6.48311         2.03956
| 80>    N        8.79927         5.93829         2.27074
| 81>    C        8.91692         8.34621        -0.22178
| 82>    C        8.11690         9.18745        -0.95130
| 83>    C        8.54248        10.47520        -1.34579
| 84>    C        9.85016        10.92596        -1.00162
| 85>    C       10.27038        12.20911        -1.40476
| 86>    C        9.42503        13.01550        -2.11697
| 87>    C        8.13537        12.57665        -2.45653
| 88>    C        7.70105        11.33440        -2.08127
| 89>    H        2.42279         9.39553        -3.13472
| 90>    H        0.46515        10.57270        -4.02900
| 91>    H       -0.56977         6.04650        -7.03504
| 92>    H       -2.50770         7.29760        -7.91390
| 93>    H       -2.95725         9.59245        -7.14579
| 94>    H       -1.48236        10.66543        -5.49365
| 95>    H        2.98364         3.39049        -4.92951
| 96>    H        3.42613         5.21108        -1.49525
| 97>    H        8.74345        -0.13663        -0.70034
| 98>    H        8.24732        -3.24295        -5.90369
| 99>    H       10.64057        -3.90865        -5.36875
|100>    H       11.07229        -3.65403        -3.67469
|101>    H       11.63359        -2.52132        -4.90747
|102>    H       11.35811        -1.50219        -2.55632
|103>    H       10.03286         1.25890        -2.56412
|104>    H       12.60471         0.14537        -1.28954
|105>    H       11.35744         2.94670        -1.47492
|106>    H       14.43803         0.82541         0.02831
|107>    H       16.24660         7.86584         2.18704
|108>    H       14.43703         9.43981         0.82039
|109>    H        8.57297         7.36261         0.05435
|110>    H        7.12541         8.87198        -1.24113
|111>    H       11.26334        12.53634        -1.13947
|112>    H        9.74707        13.99972        -2.42368
|113>    H        7.48619        13.23086        -3.01978
|114>    H        6.71099        10.99001        -2.33839
|115> *
|116>
|117>                          ****END OF INPUT****

CARTESIAN COORDINATES (ANGSTROEM)
---------------------------------
  C      2.832790    5.427380   -4.542060
  C      1.701170    5.625170   -5.496220
  O      1.273000    4.802450   -6.272210
  C      1.213930    6.990680   -5.228630
  C      2.054500    7.616030   -4.304940
  C      3.157230    6.721080   -3.976170
  C      4.366210    7.086160   -3.447400
  C      5.498730    6.241850   -3.418880
  N      6.471160    5.632870   -3.439210
  C      4.665930    8.376180   -2.969570
  N      4.970570    9.399550   -2.547030
  C      1.786920    8.918300   -3.862880
  C      0.689610    9.569790   -4.362360
  C     -0.170290    8.973460   -5.311010
  C      0.086710    7.645260   -5.761620
  C     -0.776200    7.052580   -6.705810
  C     -1.848620    7.750700   -7.188680
  C     -2.105110    9.059850   -6.750530
  C     -1.286580    9.658280   -5.831990
  C      3.298580    4.186360   -4.261860
  C      4.093380    3.806740   -3.145880
  C      4.076460    4.411230   -1.805730
  N      4.873040    3.840470   -0.952790
  C      5.495450    2.842210   -1.639760
  C      4.983380    2.766380   -3.015470
  C      5.661110    1.722540   -3.746370
  S      5.429640    1.311160   -5.320060
  C      6.586450    1.170790   -2.790860
  C      6.461620    1.878900   -1.506050
  N      7.339630    1.372390   -0.591910
  C      8.018210    0.463900   -1.219560
  C      7.631750    0.287470   -2.633410
  C      8.179870   -0.674810   -3.519020
  S      7.175670   -1.412060   -4.726720
  C      8.423940   -2.516050   -5.134870
  C      9.565390   -2.338430   -4.417040
  C     10.800710   -3.154010   -4.603840
  C      9.455150   -1.254270   -3.493140
  C     10.569320   -0.781860   -2.734160
  C     10.754610    0.494460   -2.309040
  C     11.885190    0.905740   -1.562980
  C     12.086100    2.198030   -1.190060
  C     13.194350    2.668040   -0.449150
  C     14.313330    1.890860    0.112260
  N     15.193700    2.596630    0.751660
  C     14.751310    3.891020    0.681970
  C     13.492040    3.961450   -0.072480
  C     13.043680    5.322820   -0.159720
  S     11.768590    5.901330   -1.030460
  C     14.009560    6.066760    0.610490
  C     15.080760    5.158370    1.076150
  N     16.045320    5.856130    1.739530
  C     15.658180    7.094570    1.721450
  C     14.368650    7.319580    1.048640
  C     13.758700    8.593750    0.890370
  C     12.445790    8.887340    0.744190
  C     12.044750   10.222500    0.192710
  O     12.761470   11.195070    0.118970
  C     10.660780   10.041930   -0.262030
  C     10.198680    8.783060    0.132430
  C     11.233660    8.110830    0.909950
  C     11.028530    7.106910    1.818070
  C     12.026570    6.616820    2.682500
  N     12.799220    6.196220    3.420620
  C      9.782050    6.483110    2.039560
  N      8.799270    5.938290    2.270740
  C      8.916920    8.346210   -0.221780
  C      8.116900    9.187450   -0.951300
  C      8.542480   10.475200   -1.345790
  C      9.850160   10.925960   -1.001620
  C     10.270380   12.209110   -1.404760
  C      9.425030   13.015500   -2.116970
  C      8.135370   12.576650   -2.456530
  C      7.701050   11.334400   -2.081270
  H      2.422790    9.395530   -3.134720
  H      0.465150   10.572700   -4.029000
  H     -0.569770    6.046500   -7.035040
  H     -2.507700    7.297600   -7.913900
  H     -2.957250    9.592450   -7.145790
  H     -1.482360   10.665430   -5.493650
  H      2.983640    3.390490   -4.929510
  H      3.426130    5.211080   -1.495250
  H      8.743450   -0.136630   -0.700340
  H      8.247320   -3.242950   -5.903690
  H     10.640570   -3.908650   -5.368750
  H     11.072290   -3.654030   -3.674690
  H     11.633590   -2.521320   -4.907470
  H     11.358110   -1.502190   -2.556320
  H     10.032860    1.258900   -2.564120
  H     12.604710    0.145370   -1.289540
  H     11.357440    2.946700   -1.474920
  H     14.438030    0.825410    0.028310
  H     16.246600    7.865840    2.187040
  H     14.437030    9.439810    0.820390
  H      8.572970    7.362610    0.054350
  H      7.125410    8.871980   -1.241130
  H     11.263340   12.536340   -1.139470
  H      9.747070   13.999720   -2.423680
  H      7.486190   13.230860   -3.019780
  H      6.710990   10.990010   -2.338390

 Total Charge           Charge          ....    0
 Multiplicity           Mult            ....    1
 Number of Electrons    NEL             ....  512
 Basis Dimension        Dim             .... 1178

ORBITAL ENERGIES
----------------

  NO   OCC          E(Eh)            E(eV)
   0   2.0000     -88.963721     -2420.8259
   1   2.0000     -88.906762     -2419.2760
   2   2.0000     -88.905600     -2419.2444
   3   2.0000     -19.227451      -523.2055
   4   2.0000     -19.212789      -522.8066
   5   2.0000     -14.434771      -392.7901
   6   2.0000     -14.424564      -392.5123
   7   2.0000     -14.420086      -392.3905
   8   2.0000     -14.417288      -392.3144
   9   2.0000     -14.415204      -392.2577
  10   2.0000     -14.413538      -392.2123
  11   2.0000     -14.409961      -392.1150
  12   2.0000     -14.404472      -391.9656
  13   2.0000     -10.377839      -282.3954
  14   2.0000     -10.362747      -281.9847
  15   2.0000     -10.358194      -281.8608
  16   2.0000     -10.354590      -281.7627
  17   2.0000     -10.346131      -281.5325
  18   2.0000     -10.343065      -281.4491
  19   2.0000     -10.341852      -281.4161
  20   2.0000     -10.338742      -281.3315
  21   2.0000     -10.337513      -281.2980
  22   2.0000     -10.336511      -281.2708
  23   2.0000     -10.336420      -281.2683
  24   2.0000     -10.334637      -281.2198
  25   2.0000     -10.333932      -281.2006
  26   2.0000     -10.332229      -281.1542
  27   2.0000     -10.330120      -281.0969
  28   2.0000     -10.329143      -281.0703
  29   2.0000     -10.327746      -281.0323
  30   2.0000     -10.326315      -280.9933
  31   2.0000     -10.323208      -280.9088
  32   2.0000     -10.319529      -280.8087
  33   2.0000     -10.318169      -280.7717
  34   2.0000     -10.317760      -280.7605
  35   2.0000     -10.311815      -280.5987
  36   2.0000     -10.309504      -280.5359
  37   2.0000     -10.309015      -280.5226
  38   2.0000     -10.308560      -280.5102
  39   2.0000     -10.306696      -280.4594
  40   2.0000     -10.306667      -280.4587
  41   2.0000     -10.305830      -280.4359
  42   2.0000     -10.305548      -280.4282
  43   2.0000     -10.305217      -280.4192
  44   2.0000     -10.305070      -280.4152
  45   2.0000     -10.304317      -280.3947
  46   2.0000     -10.304007      -280.3863
  47   2.0000     -10.302337      -280.3408
  48   2.0000     -10.301543      -280.3192
  49   2.0000     -10.300121      -280.2805
  50   2.0000     -10.299366      -280.2600
  51   2.0000     -10.298964      -280.2490
  52   2.0000     -10.298624      -280.2398
  53   2.0000     -10.297415      -280.2069
  54   2.0000     -10.296460      -280.1809
  55   2.0000     -10.296092      -280.1709
  56   2.0000     -10.294122      -280.1173
  57   2.0000     -10.293226      -280.0929
  58   2.0000     -10.291874      -280.0561
  59   2.0000     -10.291422      -280.0438
  60   2.0000     -10.290912      -280.0299
  61   2.0000     -10.289479      -279.9910
  62   2.0000     -10.288828      -279.9732
  63   2.0000     -10.285252      -279.8759
  64   2.0000     -10.284857      -279.8652
  65   2.0000     -10.284236      -279.8483
  66   2.0000     -10.281008      -279.7604
  67   2.0000     -10.280447      -279.7452
  68   2.0000     -10.279302      -279.7140
  69   2.0000     -10.277541      -279.6661
  70   2.0000     -10.269728      -279.4535
  71   2.0000     -10.268871      -279.4302
  72   2.0000     -10.265373      -279.3350
  73   2.0000     -10.264538      -279.3123
  74   2.0000      -8.059197      -219.3019
  75   2.0000      -8.001829      -217.7408
  76   2.0000      -8.001197      -217.7236
  77   2.0000      -6.028432      -164.0420
  78   2.0000      -6.023977      -163.9207
  79   2.0000      -6.021586      -163.8557
  80   2.0000      -5.970580      -162.4677
  81   2.0000      -5.970398      -162.4628
  82   2.0000      -5.970004      -162.4521
  83   2.0000      -5.969812      -162.4468
  84   2.0000      -5.961186      -162.2121
  85   2.0000      -5.960395      -162.1906
  86   2.0000      -1.142502       -31.0891
  87   2.0000      -1.127607       -30.6837
  88   2.0000      -1.087629       -29.5959
  89   2.0000      -1.083251       -29.4768
  90   2.0000      -1.068267       -29.0690
  91   2.0000      -1.064100       -28.9556
  92   2.0000      -1.032846       -28.1052
  93   2.0000      -1.012445       -27.5500
  94   2.0000      -1.010909       -27.5082
  95   2.0000      -1.006158       -27.3789
  96   2.0000      -0.997734       -27.1497
  97   2.0000      -0.990557       -26.9544
  98   2.0000      -0.984668       -26.7942
  99   2.0000      -0.978598       -26.6290
 100   2.0000      -0.966986       -26.3130
 101   2.0000      -0.964958       -26.2578
 102   2.0000      -0.957406       -26.0523
 103   2.0000      -0.934625       -25.4324
 104   2.0000      -0.933618       -25.4050
 105   2.0000      -0.920547       -25.0494
 106   2.0000      -0.916872       -24.9494
 107   2.0000      -0.905727       -24.6461
 108   2.0000      -0.904292       -24.6070
 109   2.0000      -0.901839       -24.5403
 110   2.0000      -0.899625       -24.4800
 111   2.0000      -0.887655       -24.1543
 112   2.0000      -0.873392       -23.7662
 113   2.0000      -0.865877       -23.5617
 114   2.0000      -0.860233       -23.4081
 115   2.0000      -0.858362       -23.3572
 116   2.0000      -0.853398       -23.2221
 117   2.0000      -0.850514       -23.1437
 118   2.0000      -0.842009       -22.9122
 119   2.0000      -0.835395       -22.7322
 120   2.0000      -0.833005       -22.6672
 121   2.0000      -0.818358       -22.2687
 122   2.0000      -0.804208       -21.8836
 123   2.0000      -0.791844       -21.5472
 124   2.0000      -0.784867       -21.3573
 125   2.0000      -0.780220       -21.2309
 126   2.0000      -0.775021       -21.0894
 127   2.0000      -0.766546       -20.8588
 128   2.0000      -0.765209       -20.8224
 129   2.0000      -0.755857       -20.5679
 130   2.0000      -0.741981       -20.1903
 131   2.0000      -0.739307       -20.1176
 132   2.0000      -0.724743       -19.7213
 133   2.0000      -0.719571       -19.5805
 134   2.0000      -0.716965       -19.5096
 135   2.0000      -0.708063       -19.2674
 136   2.0000      -0.706816       -19.2335
 137   2.0000      -0.701755       -19.0957
 138   2.0000      -0.697310       -18.9748
 139   2.0000      -0.695089       -18.9143
 140   2.0000      -0.688122       -18.7248
 141   2.0000      -0.685401       -18.6507
 142   2.0000      -0.680352       -18.5133
 143   2.0000      -0.667407       -18.1611
 144   2.0000      -0.663158       -18.0454
 145   2.0000      -0.651878       -17.7385
 146   2.0000      -0.648648       -17.6506
 147   2.0000      -0.647304       -17.6140
 148   2.0000      -0.639150       -17.3921
 149   2.0000      -0.635171       -17.2839
 150   2.0000      -0.630120       -17.1464
 151   2.0000      -0.619836       -16.8666
 152   2.0000      -0.618243       -16.8233
 153   2.0000      -0.609524       -16.5860
 154   2.0000      -0.598487       -16.2857
 155   2.0000      -0.597865       -16.2687
 156   2.0000      -0.597645       -16.2627
 157   2.0000      -0.590721       -16.0743
 158   2.0000      -0.584895       -15.9158
 159   2.0000      -0.578802       -15.7500
 160   2.0000      -0.576973       -15.7002
 161   2.0000      -0.576671       -15.6920
 162   2.0000      -0.573113       -15.5952
 163   2.0000      -0.570363       -15.5204
 164   2.0000      -0.567192       -15.4341
 165   2.0000      -0.556796       -15.1512
 166   2.0000      -0.553304       -15.0562
 167   2.0000      -0.550148       -14.9703
 168   2.0000      -0.547510       -14.8985
 169   2.0000      -0.546838       -14.8802
 170   2.0000      -0.546283       -14.8651
 171   2.0000      -0.543400       -14.7867
 172   2.0000      -0.542222       -14.7546
 173   2.0000      -0.535175       -14.5629
 174   2.0000      -0.529847       -14.4179
 175   2.0000      -0.528515       -14.3816
 176   2.0000      -0.525757       -14.3066
 177   2.0000      -0.521765       -14.1980
 178   2.0000      -0.520307       -14.1583
 179   2.0000      -0.518614       -14.1122
 180   2.0000      -0.516488       -14.0544
 181   2.0000      -0.514580       -14.0024
 182   2.0000      -0.513356       -13.9691
 183   2.0000      -0.510145       -13.8818
 184   2.0000      -0.507536       -13.8108
 185   2.0000      -0.502363       -13.6700
 186   2.0000      -0.501358       -13.6427
 187   2.0000      -0.499692       -13.5973
 188   2.0000      -0.497960       -13.5502
 189   2.0000      -0.495612       -13.4863
 190   2.0000      -0.494411       -13.4536
 191   2.0000      -0.492893       -13.4123
 192   2.0000      -0.490359       -13.3433
 193   2.0000      -0.489201       -13.3118
 194   2.0000      -0.487133       -13.2556
 195   2.0000      -0.486759       -13.2454
 196   2.0000      -0.484982       -13.1970
 197   2.0000      -0.481146       -13.0927
 198   2.0000      -0.479476       -13.0472
 199   2.0000      -0.476106       -12.9555
 200   2.0000      -0.468682       -12.7535
 201   2.0000      -0.468133       -12.7386
 202   2.0000      -0.466060       -12.6822
 203   2.0000      -0.465640       -12.6707
 204   2.0000      -0.463672       -12.6172
 205   2.0000      -0.458819       -12.4851
 206   2.0000      -0.455346       -12.3906
 207   2.0000      -0.453883       -12.3508
 208   2.0000      -0.450576       -12.2608
 209   2.0000      -0.449755       -12.2385
 210   2.0000      -0.445438       -12.1210
 211   2.0000      -0.443659       -12.0726
 212   2.0000      -0.442679       -12.0459
 213   2.0000      -0.440979       -11.9997
 214   2.0000      -0.440299       -11.9811
 215   2.0000      -0.438266       -11.9258
 216   2.0000      -0.435929       -11.8622
 217   2.0000      -0.433214       -11.7883
 218   2.0000      -0.431838       -11.7509
 219   2.0000      -0.429122       -11.6770
 220   2.0000      -0.428221       -11.6525
 221   2.0000      -0.427446       -11.6314
 222   2.0000      -0.426569       -11.6075
 223   2.0000      -0.422507       -11.4970
 224   2.0000      -0.422293       -11.4912
 225   2.0000      -0.416057       -11.3215
 226   2.0000      -0.415064       -11.2945
 227   2.0000      -0.411183       -11.1889
 228   2.0000      -0.408158       -11.1065
 229   2.0000      -0.405282       -11.0283
 230   2.0000      -0.393663       -10.7121
 231   2.0000      -0.385060       -10.4780
 232   2.0000      -0.378657       -10.3038
 233   2.0000      -0.369187       -10.0461
 234   2.0000      -0.366898        -9.9838
 235   2.0000      -0.365243        -9.9388
 236   2.0000      -0.356642        -9.7047
 237   2.0000      -0.354704        -9.6520
 238   2.0000      -0.352608        -9.5950
 239   2.0000      -0.352239        -9.5849
 240   2.0000      -0.351518        -9.5653
 241   2.0000      -0.343554        -9.3486
 242   2.0000      -0.330005        -8.9799
 243   2.0000      -0.329366        -8.9625
 244   2.0000      -0.327111        -8.9012
 245   2.0000      -0.319565        -8.6958
 246   2.0000      -0.316359        -8.6086
 247   2.0000      -0.307573        -8.3695
 248   2.0000      -0.307491        -8.3672
 249   2.0000      -0.300628        -8.1805
 250   2.0000      -0.299160        -8.1406
 251   2.0000      -0.294936        -8.0256
 252   2.0000      -0.286900        -7.8070
 253   2.0000      -0.282791        -7.6951
 254   2.0000      -0.278263        -7.5719
 255   2.0000      -0.259188        -7.0529
 256   0.0000      -0.119424        -3.2497
 257   0.0000      -0.112804        -3.0696
 258   0.0000      -0.099990        -2.7209
 259   0.0000      -0.091728        -2.4960
 260   0.0000      -0.082700        -2.2504

MULLIKEN ATOMIC CHARGES
-----------------------
   0 C :   -0.121694
   1 C :    0.127731
   2 O :   -0.138172
   3 C :    0.007987
   4 C :   -0.006334
   5 C :    0.269538
   6 C :   -0.344625
   7 C :   -0.203897
   8 N :    0.185545
   9 C :   -0.130837
  10 N :    0.146737
  11 C :   -0.028488
  12 C :    0.010596
  13 C :    0.077042
  14 C :    0.036164
  15 C :   -0.022417
  16 C :    0.036844
  17 C :    0.040212
  18 C :   -0.018382
  19 C :    0.033750
  20 C :   -0.069480
  21 C :    0.052762
  22 N :   -0.008353
  23 C :    0.020564
  24 C :    0.049350
  25 C :   -0.009156
  26 S :   -0.110059
  27 C :   -0.023338
  28 C :    0.014300
  29 N :   -0.015055
  30 C :    0.064218
  31 C :   -0.033702
  32 C :   -0.182763
  33 S :    0.194859
  34 C :   -0.120923
  35 C :   -0.082803
  36 C :    0.117442
  37 C :    0.147885
  38 C :   -0.054301
  39 C :    0.001385
  40 C :    0.012100
  41 C :   -0.017857
  42 C :    0.008034
  43 C :    0.057834
  44 N :   -0.022863
  45 C :    0.025707
  46 C :    0.006997
  47 C :   -0.018408
  48 S :   -0.102138
  49 C :    0.004132
  50 C :    0.017125
  51 N :   -0.016986
  52 C :    0.077318
  53 C :   -0.011651
  54 C :    0.002891
  55 C :   -0.092659
  56 C :    0.109004
  57 O :   -0.148645
  58 C :    0.020871
  59 C :   -0.000917
  60 C :    0.272660
  61 C :   -0.336357
  62 C :   -0.190145
  63 N :    0.170759
  64 C :   -0.183317
  65 N :    0.175689
  66 C :   -0.015204
  67 C :    0.020477
  68 C :    0.074669
  69 C :    0.027764
  70 C :   -0.027675
  71 C :    0.039504
  72 C :    0.034572
  73 C :   -0.013227
  74 H :    0.001395
  75 H :   -0.010319
  76 H :    0.002953
  77 H :   -0.002762
  78 H :   -0.003184
  79 H :   -0.018909
  80 H :    0.031938
  81 H :    0.015727
  82 H :    0.025796
  83 H :    0.022727
  84 H :    0.013818
  85 H :    0.031118
  86 H :    0.032364
  87 H :   -0.008747
  88 H :    0.034446
  89 H :   -0.008338
  90 H :    0.005838
  91 H :    0.009139
  92 H :    0.010223
  93 H :    0.020799
  94 H :    0.004702
  95 H :   -0.023233
  96 H :   -0.005385
  97 H :   -0.012578
  98 H :   -0.012561
  99 H :   -0.027161
Sum of atomic charges:    0.0000000

LOEWDIN ATOMIC CHARGES
----------------------
   0 C :   -0.077075
   1 C :    0.087994
   2 O :   -0.129631
   3 C :   -0.029898
   4 C :   -0.007628
   5 C :    0.072215
   6 C :   -0.135646
   7 C :   -0.022669
   8 N :   -0.034205
   9 C :    0.001253
  10 N :   -0.050715
  11 C :   -0.019334
  12 C :    0.021710
  13 C :   -0.007756
  14 C :   -0.002679
  15 C :   -0.000228
  16 C :   -0.009561
  17 C :   -0.008839
  18 C :   -0.011478
  19 C :    0.075643
  20 C :   -0.062518
  21 C :    0.074531
  22 N :   -0.067690
  23 C :    0.024790
  24 C :    0.001815
  25 C :   -0.143959
  26 S :    0.064916
  27 C :   -0.058388
  28 C :    0.058619
  29 N :   -0.071518
  30 C :    0.099102
  31 C :   -0.049644
  32 C :   -0.173712
  33 S :    0.487091
  34 C :   -0.181025
  35 C :   -0.058866
  36 C :   -0.044538
  37 C :   -0.050439
  38 C :   -0.013609
  39 C :   -0.011969
  40 C :   -0.008380
  41 C :   -0.008668
  42 C :   -0.035591
  43 C :    0.089220
  44 N :   -0.073274
  45 C :    0.043774
  46 C :   -0.035382
  47 C :   -0.144339
  48 S :    0.092290
  49 C :   -0.012048
  50 C :    0.042149
  51 N :   -0.070000
  52 C :    0.096519
  53 C :   -0.047722
  54 C :    0.038728
  55 C :   -0.048398
  56 C :    0.088892
  57 O :   -0.139789
  58 C :   -0.036938
  59 C :    0.002223
  60 C :    0.062407
  61 C :   -0.133856
  62 C :   -0.015030
  63 N :   -0.049342
  64 C :   -0.024600
  65 N :   -0.040904
  66 C :   -0.017635
  67 C :    0.028573
  68 C :   -0.008506
  69 C :   -0.003104
  70 C :   -0.008353
  71 C :   -0.013092
  72 C :   -0.018155
  73 C :   -0.006134
  74 H :    0.039199
  75 H :    0.036778
  76 H :    0.036549
  77 H :    0.034184
  78 H :    0.033450
  79 H :    0.031268
  80 H :    0.051671
  81 H :    0.023927
  82 H :    0.030479
  83 H :    0.024910
  84 H :    0.035673
  85 H :    0.035545
  86 H :    0.037325
  87 H :    0.030840
  88 H :    0.038677
  89 H :    0.027158
  90 H :    0.035279
  91 H :    0.023677
  92 H :    0.028179
  93 H :    0.047861
  94 H :    0.040649
  95 H :    0.035137
  96 H :    0.033268
  97 H :    0.030169
  98 H :    0.029565
  99 H :    0.028580

  Mayer bond orders larger than 0.100000
B(  0-C ,  1-C ) :   0.9432 B(  0-C ,  5-C ) :   1.0230 B(  0-C , 19-C ) :   1.6969
B(  1-C ,  2-O ) :   2.2118 B(  1-C ,  3-C ) :   0.9359 B(  3-C ,  4-C ) :   1.4098
B(  3-C , 14-C ) :   1.2414 B(  4-C ,  5-C ) :   1.0109 B(  4-C , 11-C ) :   1.2559
B(  5-C ,  6-C ) :   1.6396 B(  6-C ,  7-C ) :   1.1509 B(  6-C ,  9-C ) :   1.1477
B(  7-C ,  8-N ) :   3.0139 B(  9-C , 10-N ) :   2.8930 B( 11-C , 12-C ) :   1.4704
B( 11-C , 74-H ) :   0.9877 B( 12-C , 13-C ) :   1.2238 B( 12-C , 75-H ) :   0.9932
B( 13-C , 14-C ) :   1.2368 B( 13-C , 18-C ) :   1.2432 B( 14-C , 15-C ) :   1.2750
B( 15-C , 16-C ) :   1.4756 B( 15-C , 76-H ) :   0.9863 B( 16-C , 17-C ) :   1.2541
B( 16-C , 77-H ) :   0.9882 B( 17-C , 18-C ) :   1.4949 B( 17-C , 78-H ) :   0.9897
B( 18-C , 79-H ) :   0.9970 B( 19-C , 20-C ) :   1.0375 B( 19-C , 80-H ) :   0.9512
B( 20-C , 21-C ) :   1.0142 B( 20-C , 24-C ) :   1.5397 B( 21-C , 22-N ) :   1.7397
B( 21-C , 81-H ) :   0.9880 B( 22-N , 23-C ) :   1.2658 B( 23-C , 24-C ) :   1.0790
B( 23-C , 28-C ) :   1.5002 B( 24-C , 25-C ) :   1.0179 B( 25-C , 26-S ) :   1.6990
B( 25-C , 27-C ) :   1.0309 B( 27-C , 28-C ) :   1.0755 B( 27-C , 31-C ) :   1.5415
B( 28-C , 29-N ) :   1.2556 B( 29-N , 30-C ) :   1.7416 B( 30-C , 31-C ) :   1.0135
B( 30-C , 82-H ) :   0.9822 B( 31-C , 32-C ) :   1.1231 B( 32-C , 33-S ) :   1.1729
B( 32-C , 37-C ) :   1.3981 B( 33-S , 34-C ) :   1.1581 B( 34-C , 35-C ) :   1.5765
B( 34-C , 83-H ) :   0.9665 B( 35-C , 36-C ) :   1.0950 B( 35-C , 37-C ) :   1.2373
B( 36-C , 84-H ) :   0.9500 B( 36-C , 85-H ) :   0.9432 B( 36-C , 86-H ) :   0.9434
B( 37-C , 38-C ) :   1.1002 B( 38-C , 39-C ) :   1.6298 B( 38-C , 87-H ) :   0.9614
B( 39-C , 40-C ) :   1.1485 B( 39-C , 88-H ) :   0.9778 B( 40-C , 41-C ) :   1.6016
B( 40-C , 89-H ) :   0.9866 B( 41-C , 42-C ) :   1.1147 B( 41-C , 90-H ) :   0.9762
B( 42-C , 43-C ) :   0.9974 B( 42-C , 46-C ) :   1.4999 B( 43-C , 44-N ) :   1.7518
B( 43-C , 91-H ) :   0.9882 B( 44-N , 45-C ) :   1.2459 B( 45-C , 46-C ) :   1.0742
B( 45-C , 50-C ) :   1.5237 B( 46-C , 47-C ) :   1.0341 B( 47-C , 48-S ) :   1.6723
B( 47-C , 49-C ) :   1.0358 B( 49-C , 50-C ) :   1.0689 B( 49-C , 53-C ) :   1.5253
B( 50-C , 51-N ) :   1.2711 B( 51-N , 52-C ) :   1.7248 B( 52-C , 53-C ) :   1.0146
B( 52-C , 92-H ) :   0.9936 B( 53-C , 54-C ) :   1.0483 B( 54-C , 55-C ) :   1.7400
B( 54-C , 93-H ) :   0.9376 B( 55-C , 56-C ) :   0.9392 B( 55-C , 60-C ) :   1.0122
B( 56-C , 57-O ) :   2.1998 B( 56-C , 58-C ) :   0.9484 B( 58-C , 59-C ) :   1.4087
B( 58-C , 69-C ) :   1.2263 B( 59-C , 60-C ) :   0.9975 B( 59-C , 66-C ) :   1.2631
B( 60-C , 61-C ) :   1.6485 B( 61-C , 62-C ) :   1.1720 B( 61-C , 64-C ) :   1.1268
B( 62-C , 63-N ) :   3.0086 B( 64-C , 65-N ) :   3.0107 B( 66-C , 67-C ) :   1.4572
B( 66-C , 94-H ) :   0.9893 B( 67-C , 68-C ) :   1.2327 B( 67-C , 95-H ) :   0.9909
B( 68-C , 69-C ) :   1.2376 B( 68-C , 73-C ) :   1.2458 B( 69-C , 70-C ) :   1.2800
B( 70-C , 71-C ) :   1.4724 B( 70-C , 96-H ) :   0.9868 B( 71-C , 72-C ) :   1.2539
B( 71-C , 97-H ) :   0.9866 B( 72-C , 73-C ) :   1.4896 B( 72-C , 98-H ) :   0.9897
B( 73-C , 99-H ) :   0.9863

-----------------------------------------------------------------------------
         ABSORPTION SPECTRUM VIA TRANSITION ELECTRIC DIPOLE MOMENTS
-----------------------------------------------------------------------------
State   Energy  Wavelength   fosc         T2         TX        TY        TZ
        (cm-1)    (nm)                  (au**2)     (au)      (au)      (au)
-----------------------------------------------------------------------------
   0   13874.7    720.7   0.196127246   4.65360  -2.08616   0.33078  -0.43833
   1   14881.0    672.0   0.002489478   0.05507   0.17675  -0.15166  -0.02890
   2   15159.4    659.7   0.049320252   1.07108   0.37382   0.92747   0.26673
   3   16216.8    616.6   0.109194757   2.21673   0.56263   1.18504   0.70417
   4   17234.6    580.2   0.010046890   0.19191   0.05573   0.39139   0.18874
   5   17411.5    574.3   0.001837487   0.03474   0.01743  -0.13912  -0.12282
   6   18817.8    531.4   0.297769848   5.20941   2.04914   0.72692   0.69427
   7   20077.2    498.1   0.033728247   0.55305   0.40187  -0.62457   0.03831
   8   20533.7    487.0   0.037195230   0.59634  -0.60126   0.38024  -0.30041
   9   21402.9    467.2   0.104452594   1.60665  -0.36915  -1.11918  -0.46670
  10   21853.3    457.6   0.098128688   1.47827  -0.16277  -1.06878  -0.55632
  11   22124.2    452.0   0.076584950   1.13960   0.24076   0.64649   0.81467
  12   22928.3    436.1   0.000567625   0.00815   0.04519  -0.06545   0.04271
  13   23137.9    432.2   0.044546170   0.63381   0.24448  -0.74095   0.15824
  14   23975.4    417.1   0.268547015   3.68748  -0.88947   1.69686  -0.13038
  15   24037.9    416.0   0.000330729   0.00453  -0.02463   0.04443  -0.04414
  16   24720.9    404.5   0.306695001   4.08430  -0.93773   1.78917   0.06175
  17   24786.6    403.4   0.019571720   0.25995   0.33911  -0.10715  -0.36534
  18   25150.9    397.6   0.012098898   0.15837  -0.00357   0.30346   0.25743
  19   25221.8    396.5   0.055891818   0.72954  -0.23059   0.81827  -0.08241
  20   25398.8    393.7   0.064783830   0.83971   0.82569   0.15002   0.36801
  21   25661.2    389.7   0.026937661   0.34559   0.40376  -0.21302   0.37039
  22   25749.1    388.4   0.084391833   1.07898   0.41280  -0.87074  -0.38779
  23   26140.7    382.5   0.067373887   0.84849  -0.09484  -0.91299  -0.07708
  24   26236.9    381.1   0.009380009   0.11770  -0.16886   0.17139  -0.24456
  25   26310.6    380.1   0.000624001   0.00781  -0.00247  -0.08780  -0.00965
  26   26821.6    372.8   0.061857485   0.75925  -0.84324  -0.04000  -0.21586
  27   27090.8    369.1   0.020693905   0.25148  -0.02955  -0.28968   0.40827
  28   27257.0    366.9   0.017059966   0.20605   0.12852  -0.42865  -0.07610
  29   27421.8    364.7   0.425659291   5.11025   1.23169  -1.89544  -0.02235
  30   27579.7    362.6   0.001921751   0.02294   0.10420  -0.09624  -0.05310
  31   27701.8    361.0   0.124356460   1.47787   0.43903  -1.12804   0.11242
  32   27956.4    357.7   0.018255374   0.21497  -0.20483  -0.41430   0.03705
  33   28022.4    356.9   0.015588428   0.18314  -0.42090   0.01454   0.07594
  34   28478.3    351.1   0.175818048   2.03247   0.55296  -1.23613  -0.44574
  35   28562.3    350.1   0.026772482   0.30858  -0.20514  -0.45808  -0.23804
  36   28645.2    349.1   0.093609911   1.07584   0.07495  -1.00942  -0.22649
  37   28872.1    346.4   0.078517960   0.89530  -0.40852   0.80015   0.29693
  38   28896.6    346.1   0.007310698   0.08329  -0.05292  -0.28173  -0.03338
  39   29032.8    344.4   0.187248676   2.12327  -0.35958   1.34628   0.42604
  40   29292.3    341.4   0.011077810   0.12450   0.30373  -0.02486   0.17785
  41   29401.9    340.1   0.005775256   0.06467   0.14331   0.11560   0.17540
  42   29835.8    335.2   0.026179541   0.28887   0.53704  -0.01174   0.01779
  43   30272.6    330.3   0.116497608   1.26690  -1.05345   0.27249  -0.28791
  44   30632.0    326.5   0.057867376   0.62192   0.46105   0.62769   0.12392
  45   30752.9    325.2   0.049665130   0.53167  -0.02932  -0.52946  -0.50048
  46   30937.9    323.2   0.028507426   0.30335  -0.15092   0.31145  -0.42845
  47   30997.2    322.6   0.026218603   0.27846  -0.33503  -0.25900   0.31485
  48   31255.1    319.9   0.209762722   2.20944   1.40144  -0.31617   0.38137
  49   31398.9    318.5   0.016026964   0.16804   0.25746  -0.13953  -0.28685
  50   31514.1    317.3   0.024883590   0.25995  -0.15391   0.29358  -0.38739
  51   31578.2    316.7   0.062257423   0.64905  -0.44418  -0.60628  -0.29014
  52   31684.5    315.6   0.002117981   0.02201  -0.01560  -0.11966  -0.08628
  53   31844.7    314.0   0.137443784   1.42090  -0.53663   1.05312  -0.15445
  54   32198.1    310.6   0.089977058   0.91998  -0.82147   0.41884  -0.26409
  55   32260.0    310.0   0.046668200   0.47625  -0.03580   0.59818  -0.34227
  56   32526.3    307.4   0.132353827   1.33961  -0.04320   1.05634  -0.47105
  57   32616.9    306.6   0.294214061   2.96959  -1.58871   0.22038  -0.63010
  58   32630.2    306.5   0.113549451   1.14562   0.64846   0.60889   0.59528
  59   32848.5    304.4   0.015125555   0.15159   0.03517   0.38774   0.00350
  60   32918.3    303.8   0.063881899   0.63887  -0.07521   0.59552  -0.52780
  61   33033.1    302.7   0.147868550   1.47368  -0.75896  -0.89550  -0.30941
  62   33162.8    301.5   0.087324614   0.86688  -0.77613   0.08582  -0.50709
  63   33226.0    301.0   0.172185349   1.70606   0.32075  -1.17866   0.46252
  64   33258.8    300.7   0.023346885   0.23110  -0.26240  -0.35688   0.18677
  65   33402.1    299.4   0.045153760   0.44504   0.45054  -0.48562   0.07892
  66   33522.7    298.3   0.045398028   0.44583   0.41890  -0.45634   0.24923
  67   33656.4    297.1   0.180878801   1.76928   0.61032  -0.91997   0.74192
  68   33994.6    294.2   0.041446483   0.40138   0.40897  -0.45836   0.15502
  69   34112.6    293.1   0.065443542   0.63158   0.51135  -0.44125   0.41880
  70   34337.1    291.2   0.185768197   1.78108  -0.92582   0.63984  -0.71732
  71   34506.8    289.8   0.067015384   0.63936  -0.39436   0.59560  -0.35931
  72   34611.7    288.9   0.017131099   0.16294   0.17935  -0.34542   0.10706
  73   34664.3    288.5   0.091509216   0.86908  -0.66320   0.54776  -0.35944
  74   34698.3    288.2   0.131185973   1.24467   0.96913  -0.20588   0.51291
  75   34958.7    286.1   0.072862917   0.68616   0.49721  -0.65287  -0.11269
  76   35085.6    285.0   0.194480002   1.82483  -1.11077  -0.00750  -0.76874
  77   35137.2    284.6   0.070980047   0.66504   0.56760   0.48179   0.33278
  78   35184.1    284.2   0.018803998   0.17595   0.28966  -0.19223   0.23471
  79   35467.2    282.0   0.441544616   4.09848   0.61614  -1.79116   0.71456
  80   35722.0    279.9   0.031933499   0.29430   0.40707   0.07728   0.35017
  81   36080.4    277.2   0.063178562   0.57647  -0.40945   0.37186  -0.52014
  82   36296.4    275.5   0.017360225   0.15746   0.19776  -0.25890   0.22654
  83   36390.3    274.8   0.007153423   0.06471   0.10831   0.21226  -0.08905
  84   36628.9    273.0   0.173481265   1.55921  -1.05237   0.19928  -0.64189
  85   36833.3    271.5   0.009704400   0.08674   0.00853  -0.11262  -0.27200
  86   36953.7    270.6   0.028523066   0.25411   0.02017   0.22442   0.45093
  87   37112.8    269.4   0.077244614   0.68520  -0.62236  -0.04729  -0.54372
  88   37498.6    266.7   0.033864289   0.29730  -0.06904  -0.10989  -0.52959
  89   37582.2    266.1   0.035181614   0.30818   0.24048  -0.23138   0.44364
  90   37638.0    265.7   0.030529656   0.26704  -0.32676   0.39181  -0.08218
  91   37790.0    264.6   0.024947372   0.21733  -0.05713  -0.31676  -0.33724
  92   37959.7    263.4   0.173464233   1.50440  -1.03053  -0.03113  -0.66440
  93   38080.4    262.6   0.004971022   0.04298   0.20349  -0.03567  -0.01715
  94   38359.0    260.7   0.039149645   0.33600   0.39178  -0.40815   0.12616
  95   38429.4    260.2   0.014290016   0.12242  -0.29603   0.18257   0.03812
  96   38493.6    259.8   0.074295206   0.63540   0.43376  -0.05444   0.66655
  97   38596.7    259.1   0.026597765   0.22687   0.35679   0.10450   0.29774
  98   38822.9    257.6   0.015690880   0.13306  -0.33485  -0.12653  -0.07015
  99   38835.4    257.5   0.022467647   0.19046  -0.26594  -0.33973  -0.06573
 100   38949.6    256.7   0.053903320   0.45560   0.21241  -0.13261  -0.62682
 101   39173.9    255.3   0.029642036   0.24911   0.21275  -0.25139  -0.37503
 102   39363.5    254.0   0.028145394   0.23539   0.28898  -0.38929  -0.01836
 103   39512.3    253.1   0.049593230   0.41321   0.57637  -0.27404   0.07688
 104   39628.9    252.3   0.057270228   0.47576  -0.24751  -0.09373  -0.63696
 105   39763.3    251.5   0.007827434   0.06481   0.22765   0.09312  -0.06564
 106   40032.3    249.8   0.043076272   0.35424   0.50603  -0.20518   0.23682
 107   40173.1    248.9   0.004558122   0.03735  -0.09421   0.16315   0.04314
 108   40299.2    248.1   0.087354920   0.71362  -0.38489   0.65625   0.36717

FINAL SINGLE POINT ENERGY     -4118.823984554168

DIPOLE MOMENT
-------------
                                X             Y             Z
Electronic contribution:      9.73305       0.05588      17.08836
Nuclear contribution   :    -12.30810      -0.81304     -20.36968
                        -----------------------------------------
Total Dipole Moment    :     -2.57505      -0.75715      -3.28131
                        -----------------------------------------
Magnitude (a.u.)       :      4.23925
Magnitude (Debye)      :     10.77531

Rotational constants in cm-1:     0.000962     0.000605     0.000394
Rotational constants in MHz :    28.837468    18.144363    11.802631

                             ****ORCA TERMINATED NORMALLY****
TOTAL RUN TIME: 0 days 0 hours 11 minutes 28 seconds 583 msec
