                         Program Version 4.2.0 -  RELEASE  -
|  1> # ORCA input file
|  2> # SCF done       -176.191329363515          0.000533070573
|  3> ! CAM-B3LYP def2-SVP def2/J RIJCOSX Grid4 TightSCF
|  4> %maxcore 5000
|  5> %tddft
|  6>     Mode sTDDFT
|  7>     Ethresh 5.0
|  8>     maxcore 5000
|  9> end
| 10>
| 11> %pal
| 12>   nprocs 6
| 13>   end
| 14> * xyz 0 1
| 15>    C        6.00695         0.45106         0.10723
| 16>    C        5.31432         1.68742        -0.39580
| 17>    O        5.35418         2.10070        -1.53144
| 18>    C        4.55712         2.19229         0.75526
| 19>    C        4.87676         1.44327         1.88962
| 20>    C        5.91927         0.47874         1.56302
| 21>    C        6.76216        -0.09932         2.46621
| 22>    C        7.89455        -0.86029         2.11961
| 23>    N        8.83941        -1.46618         1.87689
| 24>    C        6.65499         0.05581         3.86642
| 25>    N        6.63225         0.14254         5.01004
| 26>    C        4.22960         1.68489         3.10867
| 27>    C        3.29381         2.68350         3.17032
| 28>    C        2.96768         3.47896         2.04904
| 29>    C        3.60615         3.23254         0.79913
| 30>    C        3.26906         4.02063        -0.31950
| 31>    C        2.33956         5.01766        -0.20282
| 32>    C        1.70982         5.26708         1.02680
| 33>    C        2.01513         4.51488         2.12804
| 34>    C        6.33803        -0.48876        -0.78955
| 35>    C        6.64847        -1.91071        -0.54901
| 36>    S        7.12030        -2.89115        -2.05432
| 37>    C        5.63137        -3.58284        -1.49307
| 38>    C        5.40474        -2.78066        -0.42871
| 39>    C        4.34186        -2.64322         0.54142
| 40>    O        4.36939        -1.79705         1.41726
| 41>    C        3.19724        -3.63419         0.40165
| 42>    C        3.66081        -4.99397         0.81679
| 43>    C        3.59670        -6.07766         0.03776
| 44>    C        4.00383        -7.39979         0.41215
| 45>    N        3.81002        -8.45870        -0.45080
| 46>    C        4.25083        -9.59575         0.15161
| 47>    C        4.39117       -10.97462        -0.00095
| 48>    C        4.96919       -11.43506         1.18191
| 49>    N        5.18591       -10.37051         2.03467
| 50>    C        4.74696        -9.23864         1.42584
| 51>    C        4.59145        -7.85951         1.58695
| 52>    C        5.28120       -12.78821         1.49536
| 53>    C        5.89285       -13.23223         2.60736
| 54>    C        6.17143       -14.65159         2.85336
| 55>    S        5.37958       -15.33263         4.44506
| 56>    C        7.08991       -15.51662         4.63771
| 57>    C        7.51149       -15.00977         3.45494
| 58>    C        8.84641       -14.82657         2.93705
| 59>    O        9.84823       -15.07981         3.57020
| 60>    C        8.91694       -14.30572         1.48827
| 61>    C        9.12256       -15.48678         0.61481
| 62>    C        8.12221       -16.20002         0.06719
| 63>    C        8.36914       -17.33201        -0.75478
| 64>    C        7.49818       -18.17023        -1.37404
| 65>    C        8.04647       -19.43259        -1.95410
| 66>    O        9.21873       -19.66515        -2.15360
| 67>    C        6.88304       -20.30536        -2.17500
| 68>    C        5.71807       -19.60325        -1.86713
| 69>    C        6.05595       -18.22473        -1.51071
| 70>    C        5.15522       -17.19290        -1.50471
| 71>    C        5.44091       -15.82097        -1.36113
| 72>    N        5.55528       -14.68092        -1.27325
| 73>    C        3.76878       -17.34298        -1.73474
| 74>    N        2.63335       -17.36790        -1.90238
| 75>    C        4.47008       -20.23763        -1.94008
| 76>    C        4.41691       -21.54789        -2.33780
| 77>    C        5.57636       -22.27719        -2.68047
| 78>    C        6.85272       -21.64916        -2.59516
| 79>    C        8.01049       -22.38129        -2.92857
| 80>    C        7.90617       -23.68298        -3.33484
| 81>    C        6.65075       -24.30597        -3.42281
| 82>    C        5.51115       -23.62052        -3.10232
| 83>    H        4.44781         1.08359         3.97550
| 84>    H        2.78073         2.87943         4.10088
| 85>    H        3.75861         3.82065        -1.25950
| 86>    H        2.08321         5.62233        -1.05987
| 87>    H        0.97926         6.05942         1.09628
| 88>    H        1.53147         4.70426         3.07541
| 89>    H        6.21826        -0.20267        -1.82968
| 90>    H        7.37796        -2.09221         0.23777
| 91>    H        5.11965        -4.42511        -1.91554
| 92>    H        2.84109        -3.64749        -0.62941
| 93>    H        2.39176        -3.29921         1.06067
| 94>    H        4.05821        -5.06491         1.81796
| 95>    H        3.17776        -5.98759        -0.95896
| 96>    H        3.38338        -8.38801        -1.35839
| 97>    H        4.12607       -11.58794        -0.83834
| 98>    H        5.57563       -10.44078         2.95756
| 99>    H        4.86242        -7.25988         2.43177
|100>    H        5.00728       -13.49667         0.72414
|101>    H        6.20425       -12.55956         3.39465
|102>    H        5.85231       -15.28991         2.03053
|103>    H        7.59992       -15.93990         5.48142
|104>    H        9.77116       -13.63217         1.42022
|105>    H        7.99433       -13.78302         1.23895
|106>    H       10.14655       -15.80019         0.46055
|107>    H        7.10204       -15.90179         0.24655
|108>    H        9.41170       -17.61476        -0.86998
|109>    H        3.56536       -19.71561        -1.67594
|110>    H        3.46185       -22.04995        -2.39444
|111>    H        8.96922       -21.89256        -2.85647
|112>    H        8.79274       -24.24314        -3.59183
|113>    H        6.59223       -25.33487        -3.74580
|114>    H        4.54406       -24.09771        -3.16861
|115> *
|116>
|117>                          ****END OF INPUT****

CARTESIAN COORDINATES (ANGSTROEM)
---------------------------------
  C      6.006950    0.451060    0.107230
  C      5.314320    1.687420   -0.395800
  O      5.354180    2.100700   -1.531440
  C      4.557120    2.192290    0.755260
  C      4.876760    1.443270    1.889620
  C      5.919270    0.478740    1.563020
  C      6.762160   -0.099320    2.466210
  C      7.894550   -0.860290    2.119610
  N      8.839410   -1.466180    1.876890
  C      6.654990    0.055810    3.866420
  N      6.632250    0.142540    5.010040
  C      4.229600    1.684890    3.108670
  C      3.293810    2.683500    3.170320
  C      2.967680    3.478960    2.049040
  C      3.606150    3.232540    0.799130
  C      3.269060    4.020630   -0.319500
  C      2.339560    5.017660   -0.202820
  C      1.709820    5.267080    1.026800
  C      2.015130    4.514880    2.128040
  C      6.338030   -0.488760   -0.789550
  C      6.648470   -1.910710   -0.549010
  S      7.120300   -2.891150   -2.054320
  C      5.631370   -3.582840   -1.493070
  C      5.404740   -2.780660   -0.428710
  C      4.341860   -2.643220    0.541420
  O      4.369390   -1.797050    1.417260
  C      3.197240   -3.634190    0.401650
  C      3.660810   -4.993970    0.816790
  C      3.596700   -6.077660    0.037760
  C      4.003830   -7.399790    0.412150
  N      3.810020   -8.458700   -0.450800
  C      4.250830   -9.595750    0.151610
  C      4.391170  -10.974620   -0.000950
  C      4.969190  -11.435060    1.181910
  N      5.185910  -10.370510    2.034670
  C      4.746960   -9.238640    1.425840
  C      4.591450   -7.859510    1.586950
  C      5.281200  -12.788210    1.495360
  C      5.892850  -13.232230    2.607360
  C      6.171430  -14.651590    2.853360
  S      5.379580  -15.332630    4.445060
  C      7.089910  -15.516620    4.637710
  C      7.511490  -15.009770    3.454940
  C      8.846410  -14.826570    2.937050
  O      9.848230  -15.079810    3.570200
  C      8.916940  -14.305720    1.488270
  C      9.122560  -15.486780    0.614810
  C      8.122210  -16.200020    0.067190
  C      8.369140  -17.332010   -0.754780
  C      7.498180  -18.170230   -1.374040
  C      8.046470  -19.432590   -1.954100
  O      9.218730  -19.665150   -2.153600
  C      6.883040  -20.305360   -2.175000
  C      5.718070  -19.603250   -1.867130
  C      6.055950  -18.224730   -1.510710
  C      5.155220  -17.192900   -1.504710
  C      5.440910  -15.820970   -1.361130
  N      5.555280  -14.680920   -1.273250
  C      3.768780  -17.342980   -1.734740
  N      2.633350  -17.367900   -1.902380
  C      4.470080  -20.237630   -1.940080
  C      4.416910  -21.547890   -2.337800
  C      5.576360  -22.277190   -2.680470
  C      6.852720  -21.649160   -2.595160
  C      8.010490  -22.381290   -2.928570
  C      7.906170  -23.682980   -3.334840
  C      6.650750  -24.305970   -3.422810
  C      5.511150  -23.620520   -3.102320
  H      4.447810    1.083590    3.975500
  H      2.780730    2.879430    4.100880
  H      3.758610    3.820650   -1.259500
  H      2.083210    5.622330   -1.059870
  H      0.979260    6.059420    1.096280
  H      1.531470    4.704260    3.075410
  H      6.218260   -0.202670   -1.829680
  H      7.377960   -2.092210    0.237770
  H      5.119650   -4.425110   -1.915540
  H      2.841090   -3.647490   -0.629410
  H      2.391760   -3.299210    1.060670
  H      4.058210   -5.064910    1.817960
  H      3.177760   -5.987590   -0.958960
  H      3.383380   -8.388010   -1.358390
  H      4.126070  -11.587940   -0.838340
  H      5.575630  -10.440780    2.957560
  H      4.862420   -7.259880    2.431770
  H      5.007280  -13.496670    0.724140
  H      6.204250  -12.559560    3.394650
  H      5.852310  -15.289910    2.030530
  H      7.599920  -15.939900    5.481420
  H      9.771160  -13.632170    1.420220
  H      7.994330  -13.783020    1.238950
  H     10.146550  -15.800190    0.460550
  H      7.102040  -15.901790    0.246550
  H      9.411700  -17.614760   -0.869980
  H      3.565360  -19.715610   -1.675940
  H      3.461850  -22.049950   -2.394440
  H      8.969220  -21.892560   -2.856470
  H      8.792740  -24.243140   -3.591830
  H      6.592230  -25.334870   -3.745800
  H      4.544060  -24.097710   -3.168610

 Total Charge           Charge          ....    0
 Multiplicity           Mult            ....    1
 Number of Electrons    NEL             ....  474
 Basis Dimension        Dim             .... 1120

ORBITAL ENERGIES
----------------

  NO   OCC          E(Eh)            E(eV)
   0   2.0000     -88.948988     -2420.4250
   1   2.0000     -88.935422     -2420.0559
   2   2.0000     -19.219052      -522.9770
   3   2.0000     -19.217217      -522.9271
   4   2.0000     -19.211516      -522.7719
   5   2.0000     -19.196747      -522.3700
   6   2.0000     -14.449840      -393.2001
   7   2.0000     -14.445278      -393.0760
   8   2.0000     -14.426596      -392.5676
   9   2.0000     -14.419487      -392.3742
  10   2.0000     -14.415265      -392.2593
  11   2.0000     -14.410352      -392.1256
  12   2.0000     -10.368675      -282.1460
  13   2.0000     -10.367368      -282.1104
  14   2.0000     -10.364317      -282.0274
  15   2.0000     -10.356275      -281.8086
  16   2.0000     -10.350469      -281.6506
  17   2.0000     -10.348869      -281.6070
  18   2.0000     -10.339680      -281.3570
  19   2.0000     -10.338982      -281.3380
  20   2.0000     -10.330572      -281.1092
  21   2.0000     -10.328909      -281.0639
  22   2.0000     -10.323179      -280.9080
  23   2.0000     -10.322551      -280.8909
  24   2.0000     -10.317684      -280.7585
  25   2.0000     -10.317225      -280.7460
  26   2.0000     -10.315719      -280.7050
  27   2.0000     -10.314336      -280.6673
  28   2.0000     -10.312986      -280.6306
  29   2.0000     -10.312206      -280.6094
  30   2.0000     -10.311711      -280.5959
  31   2.0000     -10.306771      -280.4615
  32   2.0000     -10.306305      -280.4488
  33   2.0000     -10.298503      -280.2365
  34   2.0000     -10.297515      -280.2096
  35   2.0000     -10.297390      -280.2062
  36   2.0000     -10.297357      -280.2053
  37   2.0000     -10.297139      -280.1994
  38   2.0000     -10.297109      -280.1986
  39   2.0000     -10.296356      -280.1781
  40   2.0000     -10.294349      -280.1235
  41   2.0000     -10.293406      -280.0978
  42   2.0000     -10.293327      -280.0957
  43   2.0000     -10.292930      -280.0849
  44   2.0000     -10.292794      -280.0812
  45   2.0000     -10.292548      -280.0745
  46   2.0000     -10.290465      -280.0178
  47   2.0000     -10.287300      -279.9317
  48   2.0000     -10.286515      -279.9103
  49   2.0000     -10.285670      -279.8873
  50   2.0000     -10.285136      -279.8728
  51   2.0000     -10.283019      -279.8152
  52   2.0000     -10.281760      -279.7809
  53   2.0000     -10.281375      -279.7704
  54   2.0000     -10.281250      -279.7670
  55   2.0000     -10.279791      -279.7273
  56   2.0000     -10.279463      -279.7184
  57   2.0000     -10.279244      -279.7124
  58   2.0000     -10.279237      -279.7123
  59   2.0000     -10.278544      -279.6934
  60   2.0000     -10.277056      -279.6529
  61   2.0000     -10.276767      -279.6450
  62   2.0000     -10.275729      -279.6168
  63   2.0000     -10.275584      -279.6128
  64   2.0000     -10.274187      -279.5748
  65   2.0000     -10.270413      -279.4722
  66   2.0000     -10.253912      -279.0231
  67   2.0000     -10.253062      -279.0000
  68   2.0000      -8.045292      -218.9235
  69   2.0000      -8.031763      -218.5554
  70   2.0000      -6.014822      -163.6716
  71   2.0000      -6.011844      -163.5906
  72   2.0000      -6.005442      -163.4164
  73   2.0000      -6.001063      -163.2972
  74   2.0000      -5.998332      -163.2229
  75   2.0000      -5.992157      -163.0549
  76   2.0000      -1.133917       -30.8555
  77   2.0000      -1.132841       -30.8262
  78   2.0000      -1.126032       -30.6409
  79   2.0000      -1.114793       -30.3351
  80   2.0000      -1.078721       -29.3535
  81   2.0000      -1.042575       -28.3699
  82   2.0000      -1.025548       -27.9066
  83   2.0000      -1.016288       -27.6546
  84   2.0000      -1.005129       -27.3509
  85   2.0000      -0.999513       -27.1981
  86   2.0000      -0.998465       -27.1696
  87   2.0000      -0.996908       -27.1272
  88   2.0000      -0.990492       -26.9527
  89   2.0000      -0.981285       -26.7021
  90   2.0000      -0.971154       -26.4264
  91   2.0000      -0.965210       -26.2647
  92   2.0000      -0.931863       -25.3573
  93   2.0000      -0.921411       -25.0729
  94   2.0000      -0.919178       -25.0121
  95   2.0000      -0.907447       -24.6929
  96   2.0000      -0.904559       -24.6143
  97   2.0000      -0.901315       -24.5260
  98   2.0000      -0.888297       -24.1718
  99   2.0000      -0.882143       -24.0043
 100   2.0000      -0.880320       -23.9547
 101   2.0000      -0.863466       -23.4961
 102   2.0000      -0.859181       -23.3795
 103   2.0000      -0.853872       -23.2350
 104   2.0000      -0.851527       -23.1712
 105   2.0000      -0.842526       -22.9263
 106   2.0000      -0.837393       -22.7866
 107   2.0000      -0.835301       -22.7297
 108   2.0000      -0.817547       -22.2466
 109   2.0000      -0.801766       -21.8172
 110   2.0000      -0.795314       -21.6416
 111   2.0000      -0.789606       -21.4863
 112   2.0000      -0.783998       -21.3337
 113   2.0000      -0.778721       -21.1901
 114   2.0000      -0.771781       -21.0012
 115   2.0000      -0.754092       -20.5199
 116   2.0000      -0.743725       -20.2378
 117   2.0000      -0.739675       -20.1276
 118   2.0000      -0.716588       -19.4993
 119   2.0000      -0.710844       -19.3431
 120   2.0000      -0.709258       -19.2999
 121   2.0000      -0.704073       -19.1588
 122   2.0000      -0.701522       -19.0894
 123   2.0000      -0.692604       -18.8467
 124   2.0000      -0.681843       -18.5539
 125   2.0000      -0.681342       -18.5403
 126   2.0000      -0.680144       -18.5077
 127   2.0000      -0.675647       -18.3853
 128   2.0000      -0.673146       -18.3172
 129   2.0000      -0.667229       -18.1562
 130   2.0000      -0.663703       -18.0603
 131   2.0000      -0.652453       -17.7541
 132   2.0000      -0.649420       -17.6716
 133   2.0000      -0.633647       -17.2424
 134   2.0000      -0.632982       -17.2243
 135   2.0000      -0.629149       -17.1200
 136   2.0000      -0.625837       -17.0299
 137   2.0000      -0.625047       -17.0084
 138   2.0000      -0.617021       -16.7900
 139   2.0000      -0.615530       -16.7494
 140   2.0000      -0.608522       -16.5587
 141   2.0000      -0.596679       -16.2365
 142   2.0000      -0.590450       -16.0670
 143   2.0000      -0.590338       -16.0639
 144   2.0000      -0.585803       -15.9405
 145   2.0000      -0.580209       -15.7883
 146   2.0000      -0.575097       -15.6492
 147   2.0000      -0.572427       -15.5765
 148   2.0000      -0.571166       -15.5422
 149   2.0000      -0.563692       -15.3388
 150   2.0000      -0.561165       -15.2701
 151   2.0000      -0.558199       -15.1894
 152   2.0000      -0.547954       -14.9106
 153   2.0000      -0.545080       -14.8324
 154   2.0000      -0.541819       -14.7437
 155   2.0000      -0.541004       -14.7215
 156   2.0000      -0.538459       -14.6522
 157   2.0000      -0.534964       -14.5571
 158   2.0000      -0.532569       -14.4919
 159   2.0000      -0.532156       -14.4807
 160   2.0000      -0.528899       -14.3921
 161   2.0000      -0.526105       -14.3161
 162   2.0000      -0.524007       -14.2590
 163   2.0000      -0.523417       -14.2429
 164   2.0000      -0.519729       -14.1425
 165   2.0000      -0.516157       -14.0454
 166   2.0000      -0.510399       -13.8887
 167   2.0000      -0.508434       -13.8352
 168   2.0000      -0.506580       -13.7847
 169   2.0000      -0.505381       -13.7521
 170   2.0000      -0.504240       -13.7211
 171   2.0000      -0.504119       -13.7178
 172   2.0000      -0.501715       -13.6524
 173   2.0000      -0.498888       -13.5754
 174   2.0000      -0.496309       -13.5052
 175   2.0000      -0.493425       -13.4268
 176   2.0000      -0.491655       -13.3786
 177   2.0000      -0.484646       -13.1879
 178   2.0000      -0.482571       -13.1314
 179   2.0000      -0.480496       -13.0750
 180   2.0000      -0.476605       -12.9691
 181   2.0000      -0.476054       -12.9541
 182   2.0000      -0.475011       -12.9257
 183   2.0000      -0.469972       -12.7886
 184   2.0000      -0.466370       -12.6906
 185   2.0000      -0.463668       -12.6170
 186   2.0000      -0.462955       -12.5977
 187   2.0000      -0.462314       -12.5802
 188   2.0000      -0.458937       -12.4883
 189   2.0000      -0.454025       -12.3546
 190   2.0000      -0.453347       -12.3362
 191   2.0000      -0.447427       -12.1751
 192   2.0000      -0.447233       -12.1698
 193   2.0000      -0.445016       -12.1095
 194   2.0000      -0.443953       -12.0806
 195   2.0000      -0.439191       -11.9510
 196   2.0000      -0.437969       -11.9177
 197   2.0000      -0.436761       -11.8849
 198   2.0000      -0.435337       -11.8461
 199   2.0000      -0.433429       -11.7942
 200   2.0000      -0.431694       -11.7470
 201   2.0000      -0.430964       -11.7271
 202   2.0000      -0.428427       -11.6581
 203   2.0000      -0.428195       -11.6518
 204   2.0000      -0.427873       -11.6430
 205   2.0000      -0.425644       -11.5824
 206   2.0000      -0.424355       -11.5473
 207   2.0000      -0.423556       -11.5255
 208   2.0000      -0.422057       -11.4848
 209   2.0000      -0.421207       -11.4616
 210   2.0000      -0.416403       -11.3309
 211   2.0000      -0.415106       -11.2956
 212   2.0000      -0.409560       -11.1447
 213   2.0000      -0.408865       -11.1258
 214   2.0000      -0.396682       -10.7943
 215   2.0000      -0.388110       -10.5610
 216   2.0000      -0.386258       -10.5106
 217   2.0000      -0.385317       -10.4850
 218   2.0000      -0.373009       -10.1501
 219   2.0000      -0.368515       -10.0278
 220   2.0000      -0.368352       -10.0234
 221   2.0000      -0.363378        -9.8880
 222   2.0000      -0.340925        -9.2770
 223   2.0000      -0.339468        -9.2374
 224   2.0000      -0.334880        -9.1126
 225   2.0000      -0.331281        -9.0146
 226   2.0000      -0.328033        -8.9262
 227   2.0000      -0.319832        -8.7031
 228   2.0000      -0.309830        -8.4309
 229   2.0000      -0.309611        -8.4249
 230   2.0000      -0.299340        -8.1455
 231   2.0000      -0.297579        -8.0975
 232   2.0000      -0.292137        -7.9495
 233   2.0000      -0.290183        -7.8963
 234   2.0000      -0.286048        -7.7838
 235   2.0000      -0.278905        -7.5894
 236   2.0000      -0.222282        -6.0486
 237   0.0000      -0.088167        -2.3991
 238   0.0000      -0.074344        -2.0230
 239   0.0000      -0.067150        -1.8273
 240   0.0000      -0.055114        -1.4997
 241   0.0000      -0.035954        -0.9784

MULLIKEN ATOMIC CHARGES
-----------------------
   0 C :   -0.087531
   1 C :    0.111086
   2 O :   -0.147854
   3 C :    0.015145
   4 C :   -0.017333
   5 C :    0.341081
   6 C :   -0.319311
   7 C :   -0.167943
   8 N :    0.130894
   9 C :   -0.182770
  10 N :    0.155439
  11 C :   -0.005441
  12 C :    0.006015
  13 C :    0.076602
  14 C :    0.034371
  15 C :   -0.023212
  16 C :    0.036247
  17 C :    0.035722
  18 C :   -0.019393
  19 C :    0.053603
  20 C :   -0.134763
  21 S :    0.071885
  22 C :   -0.008142
  23 C :   -0.052807
  24 C :    0.046482
  25 O :   -0.194159
  26 C :    0.167702
  27 C :   -0.109020
  28 C :    0.028498
  29 C :    0.088864
  30 N :   -0.037681
  31 C :    0.113125
  32 C :   -0.160563
  33 C :    0.039810
  34 N :   -0.035504
  35 C :    0.102481
  36 C :   -0.169236
  37 C :    0.090539
  38 C :    0.021737
  39 C :   -0.115787
  40 S :    0.038363
  41 C :   -0.016757
  42 C :   -0.043253
  43 C :    0.025618
  44 O :   -0.178121
  45 C :    0.142554
  46 C :   -0.063017
  47 C :    0.030934
  48 C :    0.021176
  49 C :   -0.098456
  50 C :    0.114864
  51 O :   -0.151633
  52 C :    0.013413
  53 C :   -0.018170
  54 C :    0.309672
  55 C :   -0.345838
  56 C :   -0.177015
  57 N :    0.153379
  58 C :   -0.193433
  59 N :    0.159327
  60 C :   -0.016380
  61 C :    0.004041
  62 C :    0.078727
  63 C :    0.037172
  64 C :   -0.025816
  65 C :    0.038214
  66 C :    0.042409
  67 C :   -0.023114
  68 H :    0.004652
  69 H :   -0.012852
  70 H :   -0.001253
  71 H :   -0.007412
  72 H :   -0.006042
  73 H :   -0.021935
  74 H :    0.030476
  75 H :    0.101750
  76 H :    0.020113
  77 H :    0.012023
  78 H :    0.019268
  79 H :    0.006447
  80 H :   -0.037534
  81 H :    0.116185
  82 H :   -0.029895
  83 H :    0.121295
  84 H :   -0.039066
  85 H :   -0.017689
  86 H :   -0.031281
  87 H :    0.063297
  88 H :    0.032105
  89 H :    0.021873
  90 H :    0.036337
  91 H :    0.027516
  92 H :   -0.019701
  93 H :    0.015954
  94 H :    0.001354
  95 H :   -0.012596
  96 H :    0.001397
  97 H :   -0.006146
  98 H :   -0.005448
  99 H :   -0.020927
Sum of atomic charges:   -0.0000000

LOEWDIN ATOMIC CHARGES
----------------------
   0 C :   -0.067760
   1 C :    0.090994
   2 O :   -0.138340
   3 C :   -0.035014
   4 C :    0.006399
   5 C :    0.087263
   6 C :   -0.127725
   7 C :   -0.009916
   8 N :   -0.052460
   9 C :   -0.017527
  10 N :   -0.049237
  11 C :   -0.010307
  12 C :    0.020553
  13 C :   -0.009651
  14 C :   -0.002788
  15 C :   -0.003016
  16 C :   -0.013013
  17 C :   -0.013730
  18 C :   -0.012252
  19 C :    0.047615
  20 C :   -0.078800
  21 S :    0.317245
  22 C :   -0.079969
  23 C :   -0.122032
  24 C :    0.075700
  25 O :   -0.159720
  26 C :   -0.046342
  27 C :   -0.026708
  28 C :   -0.044051
  29 C :   -0.009525
  30 N :    0.068526
  31 C :   -0.034578
  32 C :   -0.079067
  33 C :   -0.014864
  34 N :    0.066956
  35 C :   -0.018507
  36 C :   -0.097574
  37 C :   -0.011117
  38 C :   -0.084998
  39 C :   -0.060822
  40 S :    0.278378
  41 C :   -0.066574
  42 C :   -0.148164
  43 C :    0.072154
  44 O :   -0.159241
  45 C :   -0.054152
  46 C :    0.059767
  47 C :   -0.051438
  48 C :    0.074146
  49 C :   -0.096902
  50 C :    0.087897
  51 O :   -0.141218
  52 C :   -0.030498
  53 C :   -0.006556
  54 C :    0.079282
  55 C :   -0.140948
  56 C :   -0.008859
  57 N :   -0.053150
  58 C :   -0.021073
  59 N :   -0.048993
  60 C :   -0.017150
  61 C :    0.018573
  62 C :   -0.008274
  63 C :   -0.003149
  64 C :   -0.000907
  65 C :   -0.011958
  66 C :   -0.010855
  67 C :   -0.012727
  68 H :    0.041435
  69 H :    0.035638
  70 H :    0.034970
  71 H :    0.032276
  72 H :    0.031818
  73 H :    0.030147
  74 H :    0.041746
  75 H :    0.045194
  76 H :    0.020733
  77 H :    0.034645
  78 H :    0.043428
  79 H :    0.027931
  80 H :    0.019931
  81 H :    0.086045
  82 H :    0.028156
  83 H :    0.086363
  84 H :    0.022262
  85 H :    0.034307
  86 H :    0.015373
  87 H :    0.031050
  88 H :    0.026491
  89 H :    0.047012
  90 H :    0.042028
  91 H :    0.036211
  92 H :    0.024697
  93 H :    0.045468
  94 H :    0.039641
  95 H :    0.035900
  96 H :    0.035860
  97 H :    0.032965
  98 H :    0.032470
  99 H :    0.030559

  Mayer bond orders larger than 0.100000
B(  0-C ,  1-C ) :   0.9467 B(  0-C ,  5-C ) :   0.9660 B(  0-C , 19-C ) :   1.8689
B(  1-C ,  2-O ) :   2.1960 B(  1-C ,  3-C ) :   0.9447 B(  3-C ,  4-C ) :   1.4123
B(  3-C , 14-C ) :   1.2279 B(  4-C ,  5-C ) :   1.0078 B(  4-C , 11-C ) :   1.2638
B(  5-C ,  6-C ) :   1.6790 B(  6-C ,  7-C ) :   1.1693 B(  6-C ,  9-C ) :   1.1190
B(  7-C ,  8-N ) :   2.9276 B(  9-C , 10-N ) :   3.0021 B( 11-C , 12-C ) :   1.4736
B( 11-C , 68-H ) :   0.9842 B( 12-C , 13-C ) :   1.2197 B( 12-C , 69-H ) :   0.9934
B( 13-C , 14-C ) :   1.2452 B( 13-C , 18-C ) :   1.2417 B( 14-C , 15-C ) :   1.2785
B( 15-C , 16-C ) :   1.4731 B( 15-C , 70-H ) :   0.9865 B( 16-C , 17-C ) :   1.2574
B( 16-C , 71-H ) :   0.9872 B( 17-C , 18-C ) :   1.4940 B( 17-C , 72-H ) :   0.9896
B( 18-C , 73-H ) :   0.9973 B( 19-C , 20-C ) :   0.9449 B( 19-C , 74-H ) :   0.9214
B( 20-C , 21-S ) :   1.0140 B( 20-C , 23-C ) :   0.9708 B( 20-C , 75-H ) :   0.8728
B( 21-S , 22-C ) :   1.1154 B( 22-C , 23-C ) :   1.6563 B( 22-C , 76-H ) :   0.9924
B( 23-C , 24-C ) :   0.9975 B( 24-C , 25-O ) :   2.1254 B( 24-C , 26-C ) :   1.0167
B( 26-C , 27-C ) :   1.0395 B( 26-C , 77-H ) :   0.9280 B( 26-C , 78-H ) :   0.8877
B( 27-C , 28-C ) :   1.8141 B( 27-C , 79-H ) :   0.9649 B( 28-C , 29-C ) :   1.0735
B( 28-C , 80-H ) :   0.9540 B( 29-C , 30-N ) :   1.1803 B( 29-C , 36-C ) :   1.4416
B( 30-N , 31-C ) :   1.1562 B( 30-N , 81-H ) :   0.9380 B( 31-C , 32-C ) :   1.2206
B( 31-C , 35-C ) :   1.3373 B( 32-C , 33-C ) :   1.3935 B( 32-C , 82-H ) :   1.0434
B( 33-C , 34-N ) :   1.1928 B( 33-C , 37-C ) :   1.1479 B( 34-N , 35-C ) :   1.1686
B( 34-N , 83-H ) :   0.9336 B( 35-C , 36-C ) :   1.2477 B( 36-C , 84-H ) :   1.0291
B( 37-C , 38-C ) :   1.6690 B( 37-C , 85-H ) :   0.9472 B( 38-C , 39-C ) :   1.0057
B( 38-C , 86-H ) :   0.9749 B( 39-C , 40-S ) :   0.9748 B( 39-C , 42-C ) :   0.9517
B( 39-C , 87-H ) :   0.9109 B( 40-S , 41-C ) :   1.1179 B( 41-C , 42-C ) :   1.6328
B( 41-C , 88-H ) :   1.0065 B( 42-C , 43-C ) :   1.0092 B( 43-C , 44-O ) :   2.2297
B( 43-C , 45-C ) :   0.9678 B( 45-C , 46-C ) :   1.0498 B( 45-C , 89-H ) :   0.8891
B( 45-C , 90-H ) :   0.9191 B( 46-C , 47-C ) :   1.7608 B( 46-C , 91-H ) :   0.9771
B( 47-C , 48-C ) :   1.1133 B( 47-C , 92-H ) :   0.9527 B( 48-C , 49-C ) :   1.6490
B( 48-C , 93-H ) :   0.9447 B( 49-C , 50-C ) :   0.9559 B( 49-C , 54-C ) :   1.0115
B( 50-C , 51-O ) :   2.1823 B( 50-C , 52-C ) :   0.9442 B( 52-C , 53-C ) :   1.4158
B( 52-C , 63-C ) :   1.2351 B( 53-C , 54-C ) :   1.0020 B( 53-C , 60-C ) :   1.2554
B( 54-C , 55-C ) :   1.6343 B( 55-C , 56-C ) :   1.1767 B( 55-C , 58-C ) :   1.1210
B( 56-C , 57-N ) :   2.9187 B( 58-C , 59-N ) :   2.9948 B( 60-C , 61-C ) :   1.4745
B( 60-C , 94-H ) :   0.9831 B( 61-C , 62-C ) :   1.2230 B( 61-C , 95-H ) :   0.9944
B( 62-C , 63-C ) :   1.2420 B( 62-C , 67-C ) :   1.2373 B( 63-C , 64-C ) :   1.2746
B( 64-C , 65-C ) :   1.4739 B( 64-C , 96-H ) :   0.9873 B( 65-C , 66-C ) :   1.2553
B( 65-C , 97-H ) :   0.9877 B( 66-C , 67-C ) :   1.4955 B( 66-C , 98-H ) :   0.9885
B( 67-C , 99-H ) :   0.9986

-----------------------------------------------------------------------------
         ABSORPTION SPECTRUM VIA TRANSITION ELECTRIC DIPOLE MOMENTS
-----------------------------------------------------------------------------
State   Energy  Wavelength   fosc         T2         TX        TY        TZ
        (cm-1)    (nm)                  (au**2)     (au)      (au)      (au)
-----------------------------------------------------------------------------
   0   16631.6    601.3   0.002867763   0.05677  -0.08140   0.21403   0.06583
   1   21077.0    474.5   0.007452490   0.11640   0.06366  -0.30140   0.14666
   2   22864.9    437.4   0.006112166   0.08800   0.14116  -0.26088  -0.00404
   3   24354.3    410.6   0.214857419   2.90436   0.13277  -1.67709   0.27223
   4   25314.1    395.0   0.161481991   2.10009  -0.49757  -1.05716  -0.85728
   5   26120.8    382.8   0.072517083   0.91396   0.15191  -0.92773   0.17381
   6   27642.6    361.8   0.012411711   0.14782  -0.21310  -0.24841  -0.20174
   7   27989.2    357.3   0.008220490   0.09669   0.07257   0.24246  -0.18066
   8   28268.0    353.8   0.091726788   1.06826  -0.47914   0.87738  -0.26248
   9   28345.6    352.8   0.145861353   1.69407  -1.20742   0.18279  -0.45032
  10   29519.4    338.8   0.002485970   0.02772  -0.04238   0.15821   0.02996
  11   29671.1    337.0   0.664970228   7.37809   0.38368  -2.66642  -0.34794
  12   29853.3    335.0   0.356046032   3.92635   0.06682  -1.97730  -0.11026
  13   30091.3    332.3   0.035771294   0.39135  -0.07780   0.32966   0.52595
  14   30450.4    328.4   0.916935101   9.91336  -1.41764   2.39745  -1.46830
  15   30598.8    326.8   0.082716011   0.88994  -0.44899   0.40388  -0.72473
  16   31300.0    319.5   0.071351453   0.75047   0.11346  -0.03605  -0.85808
  17   31466.8    317.8   0.022240516   0.23268   0.38914   0.28502  -0.00388
  18   32451.8    308.1   0.391225345   3.96884  -1.11260   1.54210   0.59405
  19   32503.0    307.7   0.269163938   2.72627  -1.24231   1.08736  -0.02407
  20   33053.0    302.5   0.335709797   3.34371   0.63732   1.65807   0.43397
  21   33652.0    297.2   0.130100039   1.27275   0.75220  -0.44097   0.71588
  22   33843.5    295.5   0.018742511   0.18232   0.11699  -0.20213  -0.35746
  23   33999.0    294.1   0.456654572   4.42179   1.31254  -1.54150   0.56815
  24   34087.5    293.4   0.012598716   0.12168  -0.18341   0.28587  -0.07947
  25   34284.6    291.7   0.257236852   2.47007  -0.15068  -1.30941  -0.85604
  26   34880.9    286.7   0.229169933   2.16294   1.13641  -0.93274   0.03873
  27   35022.2    285.5   0.089366276   0.84005  -0.48913  -0.63472  -0.44489
  28   35813.6    279.2   0.000134419   0.00124   0.03260  -0.00700   0.01112
  29   35841.7    279.0   0.011193994   0.10282   0.08146  -0.20224   0.23512
  30   36226.3    276.0   0.035874929   0.32602   0.05087   0.56847  -0.01640
  31   36390.0    274.8   0.039113788   0.35385  -0.15631   0.13641  -0.55750
  32   36944.9    270.7   0.033107320   0.29502   0.20035   0.24677   0.44043
  33   37108.8    269.5   0.001171445   0.01039   0.00721  -0.07998   0.06280
  34   37352.4    267.7   0.173945185   1.53310   0.40506  -0.67511  -0.95564
  35   37446.6    267.0   0.134476239   1.18225   0.91887   0.42108   0.40076
  36   38570.6    259.3   0.001737805   0.01483   0.08915   0.07884   0.02590
  37   38905.3    257.0   0.006728047   0.05693  -0.02582  -0.00502  -0.23715
  38   38907.5    257.0   0.009661300   0.08175   0.24842   0.10753   0.09205
  39   39196.0    255.1   0.001708543   0.01435   0.07009   0.09624   0.01324
  40   39305.7    254.4   0.067526941   0.56558  -0.66002  -0.35908  -0.03202
  41   39376.7    254.0   0.079409705   0.66391   0.24269   0.77772   0.01261
  42   39989.2    250.1   0.085112960   0.70069   0.47571  -0.61743  -0.30524
  43   40053.1    249.7   0.062689654   0.51527  -0.69396   0.08576   0.16226

FINAL SINGLE POINT ENERGY     -3575.048512427230

DIPOLE MOMENT
-------------
                                X             Y             Z
Electronic contribution:      9.25585      12.21827       1.61271
Nuclear contribution   :    -11.57495     -13.61208      -3.10128
                        -----------------------------------------
Total Dipole Moment    :     -2.31910      -1.39382      -1.48857
                        -----------------------------------------
Magnitude (a.u.)       :      3.08816
Magnitude (Debye)      :      7.84949

Rotational constants in cm-1:     0.002629     0.000221     0.000216
Rotational constants in MHz :    78.806319     6.611834     6.482486

                             ****ORCA TERMINATED NORMALLY****
TOTAL RUN TIME: 0 days 0 hours 9 minutes 1 seconds 590 msec
