                         Program Version 4.2.0 -  RELEASE  -
|  1> # ORCA input file
|  2> # SCF done       -180.775253673237          0.000786136099
|  3> ! CAM-B3LYP def2-SVP def2/J RIJCOSX Grid4 TightSCF
|  4> %maxcore 5000
|  5> %tddft
|  6>     Mode sTDDFT
|  7>     Ethresh 5.0
|  8>     maxcore 5000
|  9> end
| 10>
| 11> %pal
| 12>   nprocs 6
| 13>   end
| 14> * xyz 0 1
| 15>    C        6.55050        -1.74814         0.28535
| 16>    S        7.24578        -3.10850        -0.46730
| 17>    C        7.40734        -2.25879        -1.97198
| 18>    C        7.97651        -2.84500        -3.20026
| 19>    O        8.09684        -2.20150        -4.20680
| 20>    O        8.35339        -4.12838        -3.13831
| 21>    C        6.93713        -0.97838        -1.86791
| 22>    C        6.43572        -0.69503        -0.57899
| 23>    O        5.97166         0.52359        -0.16158
| 24>    C        5.28854         1.33360        -0.97538
| 25>    C        5.44623         2.71370        -0.79001
| 26>    C        6.31194         3.42868         0.18040
| 27>    O        7.06418         2.97118         0.99931
| 28>    N        6.08144         4.78897        -0.05483
| 29>    C        5.16334         5.00523        -1.08911
| 30>    O        4.79726         6.08354        -1.47209
| 31>    C        4.77360         3.65541        -1.56606
| 32>    C        3.92613         3.28844        -2.59467
| 33>    C        3.74373         1.92350        -2.77314
| 34>    C        4.36948         0.95546        -1.97948
| 35>    C        3.89540        -0.41464        -2.24567
| 36>    O        4.12119        -1.41213        -1.62234
| 37>    S        2.79681        -0.40179        -3.66353
| 38>    C        2.84137         1.38373        -3.81186
| 39>    O        2.22372         1.99936        -4.62557
| 40>    C        6.63730         5.86675         0.62907
| 41>    C        7.61912         5.78428         1.53831
| 42>    C        8.15756         6.90624         2.23882
| 43>    N        9.24065         6.74111         3.07307
| 44>    C        9.55327         7.94561         3.62093
| 45>    C       10.42496         8.59969         4.47976
| 46>    C       10.01569         9.94293         4.50014
| 47>    N        8.92014        10.09912         3.67488
| 48>    C        8.62324         8.89755         3.12279
| 49>    C        7.75353         8.24342         2.25259
| 50>    C       10.61190        10.98859         5.24094
| 51>    C       10.13265        12.25551         5.32186
| 52>    C       10.67271        13.31558         6.11268
| 53>    C        9.79628        14.28324         6.64730
| 54>    C        8.33716        14.42290         6.46314
| 55>    O        7.57848        13.77664         5.78346
| 56>    N        7.94532        15.51000         7.25971
| 57>    C        9.02673        16.08713         7.92677
| 58>    O        8.98901        17.02893         8.67225
| 59>    C       10.21020        15.28439         7.52090
| 60>    C       11.52875        15.41964         7.91302
| 61>    C       12.42435        14.52753         7.33494
| 62>    C       12.03864        13.51984         6.44941
| 63>    C       13.17986        12.82930         5.82775
| 64>    O       13.19720        12.04439         4.92687
| 65>    S       14.71741        13.41293         6.58406
| 66>    C       13.87541        14.61115         7.60614
| 67>    O       14.42768        15.34587         8.36762
| 68>    C        6.60804        15.88896         7.32743
| 69>    C        6.13164        16.89569         8.07237
| 70>    C        4.74770        17.25270         8.14181
| 71>    S        4.26106        18.56815         9.15791
| 72>    C        2.60441        18.35748         8.72962
| 73>    C        1.62988        19.26590         9.34120
| 74>    O        1.94433        20.12898        10.11520
| 75>    O        0.33997        19.08467         8.98946
| 76>    C        2.44015        17.31718         7.83998
| 77>    C        3.64848        16.68887         7.50430
| 78>    O        3.75697        15.63944         6.65093
| 79>    H        6.25085        -1.78500         1.31272
| 80>    H        8.18917        -4.53703        -2.27764
| 81>    H        6.95926        -0.28427        -2.68887
| 82>    H        3.42200         4.00832        -3.21860
| 83>    H        6.19344         6.80647         0.33343
| 84>    H        8.04666         4.82191         1.77777
| 85>    H        9.71795         5.86814         3.21958
| 86>    H       11.25359         8.19781         5.02694
| 87>    H        8.43744        10.96714         3.52057
| 88>    H        6.93267         8.65822         1.70494
| 89>    H       11.48936        10.70180         5.79959
| 90>    H        9.18731        12.49281         4.85535
| 91>    H       11.85639        16.18042         8.60233
| 92>    H        5.97255        15.26984         6.71099
| 93>    H        6.79691        17.49454         8.67528
| 94>    H        0.22102        18.36158         8.36230
| 95>    H        1.49350        16.99830         7.43105
| 96>    H        2.88478        15.39888         6.31629
| 97> *
| 98>
| 99>                          ****END OF INPUT****

CARTESIAN COORDINATES (ANGSTROEM)
---------------------------------
  C      6.550500   -1.748140    0.285350
  S      7.245780   -3.108500   -0.467300
  C      7.407340   -2.258790   -1.971980
  C      7.976510   -2.845000   -3.200260
  O      8.096840   -2.201500   -4.206800
  O      8.353390   -4.128380   -3.138310
  C      6.937130   -0.978380   -1.867910
  C      6.435720   -0.695030   -0.578990
  O      5.971660    0.523590   -0.161580
  C      5.288540    1.333600   -0.975380
  C      5.446230    2.713700   -0.790010
  C      6.311940    3.428680    0.180400
  O      7.064180    2.971180    0.999310
  N      6.081440    4.788970   -0.054830
  C      5.163340    5.005230   -1.089110
  O      4.797260    6.083540   -1.472090
  C      4.773600    3.655410   -1.566060
  C      3.926130    3.288440   -2.594670
  C      3.743730    1.923500   -2.773140
  C      4.369480    0.955460   -1.979480
  C      3.895400   -0.414640   -2.245670
  O      4.121190   -1.412130   -1.622340
  S      2.796810   -0.401790   -3.663530
  C      2.841370    1.383730   -3.811860
  O      2.223720    1.999360   -4.625570
  C      6.637300    5.866750    0.629070
  C      7.619120    5.784280    1.538310
  C      8.157560    6.906240    2.238820
  N      9.240650    6.741110    3.073070
  C      9.553270    7.945610    3.620930
  C     10.424960    8.599690    4.479760
  C     10.015690    9.942930    4.500140
  N      8.920140   10.099120    3.674880
  C      8.623240    8.897550    3.122790
  C      7.753530    8.243420    2.252590
  C     10.611900   10.988590    5.240940
  C     10.132650   12.255510    5.321860
  C     10.672710   13.315580    6.112680
  C      9.796280   14.283240    6.647300
  C      8.337160   14.422900    6.463140
  O      7.578480   13.776640    5.783460
  N      7.945320   15.510000    7.259710
  C      9.026730   16.087130    7.926770
  O      8.989010   17.028930    8.672250
  C     10.210200   15.284390    7.520900
  C     11.528750   15.419640    7.913020
  C     12.424350   14.527530    7.334940
  C     12.038640   13.519840    6.449410
  C     13.179860   12.829300    5.827750
  O     13.197200   12.044390    4.926870
  S     14.717410   13.412930    6.584060
  C     13.875410   14.611150    7.606140
  O     14.427680   15.345870    8.367620
  C      6.608040   15.888960    7.327430
  C      6.131640   16.895690    8.072370
  C      4.747700   17.252700    8.141810
  S      4.261060   18.568150    9.157910
  C      2.604410   18.357480    8.729620
  C      1.629880   19.265900    9.341200
  O      1.944330   20.128980   10.115200
  O      0.339970   19.084670    8.989460
  C      2.440150   17.317180    7.839980
  C      3.648480   16.688870    7.504300
  O      3.756970   15.639440    6.650930
  H      6.250850   -1.785000    1.312720
  H      8.189170   -4.537030   -2.277640
  H      6.959260   -0.284270   -2.688870
  H      3.422000    4.008320   -3.218600
  H      6.193440    6.806470    0.333430
  H      8.046660    4.821910    1.777770
  H      9.717950    5.868140    3.219580
  H     11.253590    8.197810    5.026940
  H      8.437440   10.967140    3.520570
  H      6.932670    8.658220    1.704940
  H     11.489360   10.701800    5.799590
  H      9.187310   12.492810    4.855350
  H     11.856390   16.180420    8.602330
  H      5.972550   15.269840    6.710990
  H      6.796910   17.494540    8.675280
  H      0.221020   18.361580    8.362300
  H      1.493500   16.998300    7.431050
  H      2.884780   15.398880    6.316290

 Total Charge           Charge          ....    0
 Multiplicity           Mult            ....    1
 Number of Electrons    NEL             ....  474
 Basis Dimension        Dim             .... 1002

ORBITAL ENERGIES
----------------

  NO   OCC          E(Eh)            E(eV)
   0   2.0000     -88.987858     -2421.4827
   1   2.0000     -88.964319     -2420.8422
   2   2.0000     -88.963675     -2420.8247
   3   2.0000     -88.944646     -2420.3069
   4   2.0000     -19.309773      -525.4456
   5   2.0000     -19.270179      -524.3682
   6   2.0000     -19.264904      -524.2247
   7   2.0000     -19.257749      -524.0300
   8   2.0000     -19.255422      -523.9667
   9   2.0000     -19.255265      -523.9624
  10   2.0000     -19.244650      -523.6736
  11   2.0000     -19.241429      -523.5859
  12   2.0000     -19.237230      -523.4717
  13   2.0000     -19.236410      -523.4493
  14   2.0000     -19.232681      -523.3479
  15   2.0000     -19.231070      -523.3040
  16   2.0000     -19.204086      -522.5698
  17   2.0000     -19.192849      -522.2640
  18   2.0000     -14.493468      -394.3873
  19   2.0000     -14.480693      -394.0397
  20   2.0000     -14.462097      -393.5337
  21   2.0000     -14.458185      -393.4272
  22   2.0000     -10.424703      -283.6706
  23   2.0000     -10.423274      -283.6317
  24   2.0000     -10.420398      -283.5535
  25   2.0000     -10.416802      -283.4556
  26   2.0000     -10.415529      -283.4210
  27   2.0000     -10.410934      -283.2959
  28   2.0000     -10.409717      -283.2628
  29   2.0000     -10.409632      -283.2605
  30   2.0000     -10.403006      -283.0802
  31   2.0000     -10.400922      -283.0235
  32   2.0000     -10.398260      -282.9510
  33   2.0000     -10.364696      -282.0377
  34   2.0000     -10.344661      -281.4925
  35   2.0000     -10.343011      -281.4476
  36   2.0000     -10.342656      -281.4380
  37   2.0000     -10.339670      -281.3567
  38   2.0000     -10.334530      -281.2169
  39   2.0000     -10.332248      -281.1548
  40   2.0000     -10.329020      -281.0669
  41   2.0000     -10.324462      -280.9429
  42   2.0000     -10.323561      -280.9184
  43   2.0000     -10.320068      -280.8233
  44   2.0000     -10.318282      -280.7747
  45   2.0000     -10.317372      -280.7500
  46   2.0000     -10.317032      -280.7407
  47   2.0000     -10.314839      -280.6810
  48   2.0000     -10.313261      -280.6381
  49   2.0000     -10.312164      -280.6083
  50   2.0000     -10.310278      -280.5569
  51   2.0000     -10.310241      -280.5559
  52   2.0000     -10.305498      -280.4269
  53   2.0000     -10.305132      -280.4169
  54   2.0000     -10.304242      -280.3927
  55   2.0000     -10.300091      -280.2797
  56   2.0000     -10.298580      -280.2386
  57   2.0000     -10.293920      -280.1118
  58   2.0000     -10.292993      -280.0866
  59   2.0000     -10.287751      -279.9439
  60   2.0000     -10.280583      -279.7489
  61   2.0000     -10.272872      -279.5391
  62   2.0000     -10.272348      -279.5248
  63   2.0000     -10.265263      -279.3320
  64   2.0000      -8.083816      -219.9718
  65   2.0000      -8.062872      -219.4019
  66   2.0000      -8.059446      -219.3087
  67   2.0000      -8.043950      -218.8870
  68   2.0000      -6.053031      -164.7113
  69   2.0000      -6.048854      -164.5977
  70   2.0000      -6.046116      -164.5232
  71   2.0000      -6.031734      -164.1318
  72   2.0000      -6.028636      -164.0475
  73   2.0000      -6.028480      -164.0433
  74   2.0000      -6.024549      -163.9363
  75   2.0000      -6.023896      -163.9185
  76   2.0000      -6.021682      -163.8583
  77   2.0000      -6.012739      -163.6149
  78   2.0000      -6.009591      -163.5293
  79   2.0000      -6.005035      -163.4053
  80   2.0000      -1.224985       -33.3335
  81   2.0000      -1.193011       -32.4635
  82   2.0000      -1.189732       -32.3743
  83   2.0000      -1.179882       -32.1062
  84   2.0000      -1.178646       -32.0726
  85   2.0000      -1.177685       -32.0464
  86   2.0000      -1.175898       -31.9978
  87   2.0000      -1.165919       -31.7263
  88   2.0000      -1.162171       -31.6243
  89   2.0000      -1.158802       -31.5326
  90   2.0000      -1.158151       -31.5149
  91   2.0000      -1.154287       -31.4097
  92   2.0000      -1.105440       -30.0806
  93   2.0000      -1.093803       -29.7639
  94   2.0000      -1.092787       -29.7363
  95   2.0000      -1.083026       -29.4706
  96   2.0000      -1.070147       -29.1202
  97   2.0000      -1.056414       -28.7465
  98   2.0000      -1.025166       -27.8962
  99   2.0000      -1.007708       -27.4211
 100   2.0000      -1.004372       -27.3303
 101   2.0000      -0.989341       -26.9213
 102   2.0000      -0.967514       -26.3274
 103   2.0000      -0.948300       -25.8046
 104   2.0000      -0.919188       -25.0124
 105   2.0000      -0.914816       -24.8934
 106   2.0000      -0.910858       -24.7857
 107   2.0000      -0.898298       -24.4439
 108   2.0000      -0.886906       -24.1339
 109   2.0000      -0.877021       -23.8650
 110   2.0000      -0.869508       -23.6605
 111   2.0000      -0.865179       -23.5427
 112   2.0000      -0.858964       -23.3736
 113   2.0000      -0.855164       -23.2702
 114   2.0000      -0.847342       -23.0574
 115   2.0000      -0.835852       -22.7447
 116   2.0000      -0.823167       -22.3995
 117   2.0000      -0.811960       -22.0945
 118   2.0000      -0.808660       -22.0048
 119   2.0000      -0.789594       -21.4859
 120   2.0000      -0.782981       -21.3060
 121   2.0000      -0.771578       -20.9957
 122   2.0000      -0.762298       -20.7432
 123   2.0000      -0.757703       -20.6182
 124   2.0000      -0.746015       -20.3001
 125   2.0000      -0.734498       -19.9867
 126   2.0000      -0.728067       -19.8117
 127   2.0000      -0.722385       -19.6571
 128   2.0000      -0.710850       -19.3432
 129   2.0000      -0.706107       -19.2141
 130   2.0000      -0.701256       -19.0821
 131   2.0000      -0.695909       -18.9366
 132   2.0000      -0.694771       -18.9057
 133   2.0000      -0.692271       -18.8377
 134   2.0000      -0.685665       -18.6579
 135   2.0000      -0.682629       -18.5753
 136   2.0000      -0.666994       -18.1498
 137   2.0000      -0.658940       -17.9307
 138   2.0000      -0.652671       -17.7601
 139   2.0000      -0.651337       -17.7238
 140   2.0000      -0.648308       -17.6414
 141   2.0000      -0.640051       -17.4167
 142   2.0000      -0.634822       -17.2744
 143   2.0000      -0.627708       -17.0808
 144   2.0000      -0.624905       -17.0045
 145   2.0000      -0.622261       -16.9326
 146   2.0000      -0.613566       -16.6960
 147   2.0000      -0.613116       -16.6837
 148   2.0000      -0.605799       -16.4846
 149   2.0000      -0.603273       -16.4159
 150   2.0000      -0.599024       -16.3003
 151   2.0000      -0.593216       -16.1422
 152   2.0000      -0.585901       -15.9432
 153   2.0000      -0.581887       -15.8340
 154   2.0000      -0.577820       -15.7233
 155   2.0000      -0.573799       -15.6139
 156   2.0000      -0.568271       -15.4635
 157   2.0000      -0.567437       -15.4407
 158   2.0000      -0.563344       -15.3294
 159   2.0000      -0.562187       -15.2979
 160   2.0000      -0.557721       -15.1764
 161   2.0000      -0.554231       -15.0814
 162   2.0000      -0.551951       -15.0194
 163   2.0000      -0.548481       -14.9249
 164   2.0000      -0.546403       -14.8684
 165   2.0000      -0.546064       -14.8592
 166   2.0000      -0.545290       -14.8381
 167   2.0000      -0.542628       -14.7657
 168   2.0000      -0.541506       -14.7351
 169   2.0000      -0.538480       -14.6528
 170   2.0000      -0.538299       -14.6478
 171   2.0000      -0.537280       -14.6201
 172   2.0000      -0.532275       -14.4839
 173   2.0000      -0.531192       -14.4545
 174   2.0000      -0.524806       -14.2807
 175   2.0000      -0.523563       -14.2469
 176   2.0000      -0.521580       -14.1929
 177   2.0000      -0.519532       -14.1372
 178   2.0000      -0.518528       -14.1099
 179   2.0000      -0.516446       -14.0532
 180   2.0000      -0.513904       -13.9840
 181   2.0000      -0.512433       -13.9440
 182   2.0000      -0.511799       -13.9268
 183   2.0000      -0.509935       -13.8760
 184   2.0000      -0.507743       -13.8164
 185   2.0000      -0.506900       -13.7934
 186   2.0000      -0.504298       -13.7226
 187   2.0000      -0.502723       -13.6798
 188   2.0000      -0.498614       -13.5680
 189   2.0000      -0.495383       -13.4801
 190   2.0000      -0.487807       -13.2739
 191   2.0000      -0.486878       -13.2486
 192   2.0000      -0.481588       -13.1047
 193   2.0000      -0.478795       -13.0287
 194   2.0000      -0.476494       -12.9660
 195   2.0000      -0.473621       -12.8879
 196   2.0000      -0.470537       -12.8040
 197   2.0000      -0.466362       -12.6904
 198   2.0000      -0.462160       -12.5760
 199   2.0000      -0.460224       -12.5233
 200   2.0000      -0.454686       -12.3726
 201   2.0000      -0.451349       -12.2818
 202   2.0000      -0.451190       -12.2775
 203   2.0000      -0.444672       -12.1001
 204   2.0000      -0.442475       -12.0403
 205   2.0000      -0.440362       -11.9829
 206   2.0000      -0.432885       -11.7794
 207   2.0000      -0.428693       -11.6653
 208   2.0000      -0.423279       -11.5180
 209   2.0000      -0.401979       -10.9384
 210   2.0000      -0.401904       -10.9364
 211   2.0000      -0.395113       -10.7516
 212   2.0000      -0.389407       -10.5963
 213   2.0000      -0.387872       -10.5545
 214   2.0000      -0.383302       -10.4302
 215   2.0000      -0.377526       -10.2730
 216   2.0000      -0.373273       -10.1573
 217   2.0000      -0.371396       -10.1062
 218   2.0000      -0.369978       -10.0676
 219   2.0000      -0.366523        -9.9736
 220   2.0000      -0.362693        -9.8694
 221   2.0000      -0.361384        -9.8338
 222   2.0000      -0.360764        -9.8169
 223   2.0000      -0.359900        -9.7934
 224   2.0000      -0.359601        -9.7852
 225   2.0000      -0.357299        -9.7226
 226   2.0000      -0.350949        -9.5498
 227   2.0000      -0.348813        -9.4917
 228   2.0000      -0.341324        -9.2879
 229   2.0000      -0.340020        -9.2524
 230   2.0000      -0.339263        -9.2318
 231   2.0000      -0.316106        -8.6017
 232   2.0000      -0.314895        -8.5687
 233   2.0000      -0.304415        -8.2836
 234   2.0000      -0.292223        -7.9518
 235   2.0000      -0.265089        -7.2134
 236   2.0000      -0.230308        -6.2670
 237   0.0000      -0.106938        -2.9099
 238   0.0000      -0.088330        -2.4036
 239   0.0000      -0.068031        -1.8512
 240   0.0000      -0.054841        -1.4923
 241   0.0000      -0.034465        -0.9378

MULLIKEN ATOMIC CHARGES
-----------------------
   0 C :   -0.099914
   1 S :    0.118244
   2 C :   -0.193536
   3 C :    0.185706
   4 O :   -0.168868
   5 O :   -0.152152
   6 C :   -0.015296
   7 C :    0.257970
   8 O :   -0.200736
   9 C :    0.126464
  10 C :   -0.043593
  11 C :    0.208179
  12 O :   -0.130578
  13 N :   -0.231624
  14 C :    0.189831
  15 O :   -0.129869
  16 C :    0.028315
  17 C :   -0.077146
  18 C :    0.052033
  19 C :   -0.009456
  20 C :    0.047836
  21 O :   -0.124495
  22 S :    0.032077
  23 C :    0.047784
  24 O :   -0.112084
  25 C :    0.063090
  26 C :    0.007710
  27 C :    0.092617
  28 N :   -0.031941
  29 C :    0.113202
  30 C :   -0.150996
  31 C :    0.042484
  32 N :   -0.029286
  33 C :    0.113584
  34 C :   -0.164705
  35 C :    0.117304
  36 C :   -0.101193
  37 C :    0.082364
  38 C :   -0.039737
  39 C :    0.192510
  40 O :   -0.158246
  41 N :   -0.225722
  42 C :    0.210934
  43 O :   -0.138802
  44 C :    0.014028
  45 C :   -0.088471
  46 C :    0.049270
  47 C :    0.012940
  48 C :    0.020863
  49 O :   -0.125646
  50 S :    0.000896
  51 C :    0.050051
  52 O :   -0.122752
  53 C :    0.066217
  54 C :    0.036204
  55 C :   -0.157571
  56 S :    0.212783
  57 C :   -0.193190
  58 C :    0.194637
  59 O :   -0.174892
  60 O :   -0.161345
  61 C :   -0.040639
  62 C :    0.146701
  63 O :   -0.182148
  64 H :    0.032896
  65 H :    0.182669
  66 H :    0.020125
  67 H :    0.021729
  68 H :    0.027877
  69 H :    0.006296
  70 H :    0.123857
  71 H :   -0.029781
  72 H :    0.132584
  73 H :   -0.035164
  74 H :   -0.013418
  75 H :   -0.014147
  76 H :    0.014540
  77 H :    0.037924
  78 H :    0.013642
  79 H :    0.175598
  80 H :   -0.041643
  81 H :    0.186213
Sum of atomic charges:   -0.0000000

LOEWDIN ATOMIC CHARGES
----------------------
   0 C :   -0.183219
   1 S :    0.454576
   2 C :   -0.231757
   3 C :    0.064374
   4 O :   -0.156969
   5 O :   -0.026810
   6 C :   -0.040082
   7 C :    0.012465
   8 O :   -0.009729
   9 C :    0.096174
  10 C :   -0.055894
  11 C :    0.100643
  12 O :   -0.125644
  13 N :   -0.012706
  14 C :    0.095695
  15 O :   -0.128290
  16 C :   -0.021943
  17 C :    0.030135
  18 C :   -0.043890
  19 C :   -0.094984
  20 C :   -0.046846
  21 O :   -0.107899
  22 S :    0.315912
  23 C :   -0.046853
  24 O :   -0.104809
  25 C :    0.022360
  26 C :   -0.049294
  27 C :    0.007575
  28 N :    0.073104
  29 C :   -0.031344
  30 C :   -0.067050
  31 C :   -0.013967
  32 N :    0.074277
  33 C :   -0.004668
  34 C :   -0.101785
  35 C :    0.032387
  36 C :   -0.085284
  37 C :    0.041550
  38 C :   -0.049554
  39 C :    0.104877
  40 O :   -0.144984
  41 N :   -0.012877
  42 C :    0.100292
  43 O :   -0.128353
  44 C :   -0.026187
  45 C :    0.020932
  46 C :   -0.046645
  47 C :   -0.075090
  48 C :   -0.042559
  49 O :   -0.114330
  50 S :    0.290837
  51 C :   -0.050543
  52 O :   -0.115080
  53 C :    0.030660
  54 C :   -0.064255
  55 C :   -0.194776
  56 S :    0.508188
  57 C :   -0.241174
  58 C :    0.057848
  59 O :   -0.163144
  60 O :   -0.036039
  61 C :   -0.094214
  62 C :    0.008435
  63 O :   -0.045602
  64 H :    0.034604
  65 H :    0.082721
  66 H :    0.041820
  67 H :    0.053302
  68 H :    0.033273
  69 H :    0.032824
  70 H :    0.090891
  71 H :    0.027623
  72 H :    0.092541
  73 H :    0.023778
  74 H :    0.034969
  75 H :    0.022845
  76 H :    0.049169
  77 H :    0.031518
  78 H :    0.033697
  79 H :    0.089076
  80 H :    0.019927
  81 H :    0.099247

  Mayer bond orders larger than 0.100000
B(  0-C ,  1-S ) :   1.1705 B(  0-C ,  7-C ) :   1.5607 B(  0-C , 64-H ) :   0.9761
B(  1-S ,  2-C ) :   1.1341 B(  2-C ,  3-C ) :   0.9306 B(  2-C ,  6-C ) :   1.5431
B(  3-C ,  4-O ) :   2.2044 B(  3-C ,  5-O ) :   1.2452 B(  5-O , 65-H ) :   0.9499
B(  6-C ,  7-C ) :   1.2250 B(  6-C , 66-H ) :   1.0010 B(  7-C ,  8-O ) :   0.9951
B(  8-O ,  9-C ) :   1.2773 B(  9-C , 10-C ) :   1.3566 B(  9-C , 19-C ) :   1.2956
B( 10-C , 11-C ) :   0.8716 B( 10-C , 16-C ) :   1.4285 B( 11-C , 12-O ) :   2.2145
B( 11-C , 13-N ) :   1.0338 B( 13-N , 14-C ) :   1.0367 B( 13-N , 25-C ) :   1.0043
B( 14-C , 15-O ) :   2.2388 B( 14-C , 16-C ) :   0.8717 B( 16-C , 17-C ) :   1.3245
B( 17-C , 18-C ) :   1.3440 B( 17-C , 67-H ) :   1.0293 B( 18-C , 19-C ) :   1.3468
B( 18-C , 23-C ) :   0.8407 B( 19-C , 20-C ) :   0.8460 B( 20-C , 21-O ) :   2.1819
B( 20-C , 22-S ) :   1.0338 B( 21-O , 22-S ) :   0.1059 B( 22-S , 23-C ) :   1.0272
B( 22-S , 24-O ) :   0.1089 B( 23-C , 24-O ) :   2.2267 B( 25-C , 26-C ) :   1.7340
B( 25-C , 68-H ) :   0.9725 B( 26-C , 27-C ) :   1.0771 B( 26-C , 69-H ) :   0.9529
B( 27-C , 28-N ) :   1.1976 B( 27-C , 34-C ) :   1.4212 B( 28-N , 29-C ) :   1.1520
B( 28-N , 70-H ) :   0.9356 B( 29-C , 30-C ) :   1.2625 B( 29-C , 33-C ) :   1.3076
B( 30-C , 31-C ) :   1.3355 B( 30-C , 71-H ) :   1.0416 B( 31-C , 32-N ) :   1.1858
B( 31-C , 35-C ) :   1.2194 B( 32-N , 33-C ) :   1.1856 B( 32-N , 72-H ) :   0.9296
B( 33-C , 34-C ) :   1.2562 B( 34-C , 73-H ) :   1.0295 B( 35-C , 36-C ) :   1.5718
B( 35-C , 74-H ) :   0.9460 B( 36-C , 37-C ) :   1.1875 B( 36-C , 75-H ) :   0.9403
B( 37-C , 38-C ) :   1.3294 B( 37-C , 47-C ) :   1.2824 B( 38-C , 39-C ) :   0.9115
B( 38-C , 44-C ) :   1.3921 B( 39-C , 40-O ) :   2.1353 B( 39-C , 41-N ) :   1.0443
B( 41-N , 42-C ) :   1.0337 B( 41-N , 53-C ) :   1.0064 B( 42-C , 43-O ) :   2.2059
B( 42-C , 44-C ) :   0.8771 B( 44-C , 45-C ) :   1.3250 B( 45-C , 46-C ) :   1.3365
B( 45-C , 76-H ) :   1.0300 B( 46-C , 47-C ) :   1.3528 B( 46-C , 51-C ) :   0.8414
B( 47-C , 48-C ) :   0.8628 B( 48-C , 49-O ) :   2.1857 B( 48-C , 50-S ) :   1.0119
B( 49-O , 50-S ) :   0.1017 B( 50-S , 51-C ) :   1.0296 B( 50-S , 52-O ) :   0.1091
B( 51-C , 52-O ) :   2.2154 B( 53-C , 54-C ) :   1.7321 B( 53-C , 77-H ) :   0.9611
B( 54-C , 55-C ) :   1.0989 B( 54-C , 78-H ) :   0.9482 B( 55-C , 56-S ) :   1.1448
B( 55-C , 57-C ) :   0.1119 B( 55-C , 62-C ) :   1.4684 B( 56-S , 57-C ) :   1.1600
B( 57-C , 58-C ) :   0.9495 B( 57-C , 61-C ) :   1.4485 B( 58-C , 59-O ) :   2.2033
B( 58-C , 60-O ) :   1.2328 B( 60-O , 79-H ) :   0.9610 B( 61-C , 62-C ) :   1.2797
B( 61-C , 80-H ) :   0.9710 B( 62-C , 63-O ) :   1.2001 B( 63-O , 81-H ) :   0.9550

-----------------------------------------------------------------------------
         ABSORPTION SPECTRUM VIA TRANSITION ELECTRIC DIPOLE MOMENTS
-----------------------------------------------------------------------------
State   Energy  Wavelength   fosc         T2         TX        TY        TZ
        (cm-1)    (nm)                  (au**2)     (au)      (au)      (au)
-----------------------------------------------------------------------------
   0   13802.1    724.5   0.001619102   0.03862   0.11911  -0.07891   0.13493
   1   14937.6    669.5   0.053106646   1.17043  -0.92796  -0.44554  -0.33288
   2   19915.3    502.1   1.631908532  26.97649  -1.30557  -4.22789  -2.71973
   3   21758.8    459.6   0.003360707   0.05085   0.22054  -0.01439   0.04473
   4   24890.5    401.8   0.006122785   0.08098  -0.16259  -0.16562  -0.16467
   5   25424.2    393.3   0.101419766   1.31326  -0.89314  -0.44886  -0.56044
   6   27772.0    360.1   0.003436045   0.04073   0.05875  -0.16737  -0.09625
   7   27920.9    358.2   0.002622220   0.03092  -0.11072   0.13635   0.00825
   8   28248.2    354.0   0.000353369   0.00412  -0.03293   0.05480   0.00550
   9   28625.7    349.3   0.013743102   0.15805   0.25260   0.22025   0.21386
  10   29019.1    344.6   0.472860602   5.36444   2.18916  -0.69741  -0.29260
  11   29586.5    338.0   0.013157360   0.14640  -0.22287   0.28353  -0.12783
  12   30057.1    332.7   0.038606612   0.42285  -0.61440   0.20307  -0.06426
  13   30432.1    328.6   0.002797105   0.03026  -0.09626   0.10338  -0.10151
  14   30634.4    326.4   0.014712520   0.15811  -0.21311  -0.28762  -0.17311
  15   31352.3    319.0   0.151712699   1.59305   1.15004  -0.42831  -0.29498
  16   31926.4    313.2   0.034874830   0.35962  -0.32663  -0.31481  -0.39220
  17   32137.1    311.2   0.038441162   0.39379  -0.53261   0.15530  -0.29325
  18   32272.7    309.9   0.037622704   0.38379  -0.45727  -0.30784  -0.28271
  19   32712.6    305.7   0.179098924   1.80241   1.25552   0.34402   0.32822
  20   33082.3    302.3   0.054972722   0.54705   0.50162   0.33236   0.43008
  21   33276.0    300.5   0.038022230   0.37617   0.02027  -0.50205  -0.35171
  22   33588.1    297.7   0.028064455   0.27507   0.33728  -0.32160  -0.24059
  23   33699.9    296.7   0.084647472   0.82692  -0.75866   0.44840   0.22423
  24   34079.9    293.4   0.136630213   1.31985  -0.81402   0.68132   0.43935
  25   34159.9    292.7   0.118364913   1.14073  -0.62211   0.77042   0.40021
  26   34875.2    286.7   0.082927455   0.78281   0.51228   0.63419   0.34379
  27   35356.5    282.8   0.159055919   1.48100  -0.67385  -0.71500  -0.71812
  28   35768.5    279.6   0.003608218   0.03321  -0.05081  -0.11297  -0.13367
  29   35999.2    277.8   0.002438994   0.02230   0.09290   0.10059   0.05962
  30   36147.4    276.6   0.063274953   0.57628   0.48938   0.34579   0.46607
  31   37364.0    267.6   0.002883152   0.02540   0.04852   0.14161   0.05473
  32   37389.6    267.5   0.009663280   0.08508   0.19628  -0.18832  -0.10533
  33   37497.0    266.7   0.010792572   0.09476   0.09666   0.20374   0.20952
  34   38358.3    260.7   0.007271384   0.06241  -0.20219  -0.00952  -0.14641
  35   38600.2    259.1   0.009842607   0.08395  -0.09674  -0.19700  -0.18915
  36   39285.5    254.5   0.000074859   0.00063   0.00311   0.02184   0.01186
  37   39605.1    252.5   0.009803556   0.08149   0.13808   0.21067   0.13432
  38   39628.0    252.3   0.006552815   0.05444  -0.16332  -0.11373  -0.12178
  39   39836.0    251.0   0.054768314   0.45262   0.46637  -0.45620   0.16431
  40   40153.7    249.0   0.026014864   0.21329  -0.31256   0.18236  -0.28695

FINAL SINGLE POINT ENERGY     -4472.372057436573

DIPOLE MOMENT
-------------
                                X             Y             Z
Electronic contribution:      2.42480     -16.33057      -9.63909
Nuclear contribution   :     -3.73412      12.79971       9.13539
                        -----------------------------------------
Total Dipole Moment    :     -1.30932      -3.53085      -0.50370
                        -----------------------------------------
Magnitude (a.u.)       :      3.79934
Magnitude (Debye)      :      9.65715

Rotational constants in cm-1:     0.001384     0.000241     0.000210
Rotational constants in MHz :    41.478012     7.227584     6.308842

                             ****ORCA TERMINATED NORMALLY****
TOTAL RUN TIME: 0 days 0 hours 8 minutes 27 seconds 22 msec
