                         Program Version 4.2.0 -  RELEASE  -
|  1> # ORCA input file
|  2> # SCF done       -208.981797080597          0.000941646301
|  3> ! CAM-B3LYP def2-SVP def2/J RIJCOSX Grid4 TightSCF
|  4> %maxcore 5000
|  5> %tddft
|  6>     Mode sTDDFT
|  7>     Ethresh 5.0
|  8>     maxcore 5000
|  9> end
| 10>
| 11> %pal
| 12>   nprocs 6
| 13>   end
| 14> * xyz 0 1
| 15>    C        8.33493        -1.32794         7.76304
| 16>    O        9.60469        -1.20027         8.18129
| 17>    C        9.64234        -1.45381         9.47507
| 18>    C        8.37985        -1.74759         9.94289
| 19>    N        8.07097        -2.00327        11.29464
| 20>    O        8.98910        -2.00742        12.08432
| 21>    O        6.90178        -2.18622        11.58822
| 22>    C        7.50949        -1.68207         8.80042
| 23>    N        6.14225        -1.83449         8.70037
| 24>    C        5.27584        -2.64340         9.35481
| 25>    C        3.91086        -2.31031         9.29216
| 26>    C        3.29273        -1.21269         8.53797
| 27>    O        3.85373        -0.41587         7.81083
| 28>    N        1.93197        -1.28058         8.80612
| 29>    C        1.62468        -2.34473         9.67750
| 30>    O        0.51671        -2.61000        10.05701
| 31>    C        2.91576        -3.00455         9.97616
| 32>    C        3.21110        -4.09232        10.77533
| 33>    C        4.54536        -4.48262        10.79286
| 34>    C        5.55617        -3.82458        10.08477
| 35>    C        6.84953        -4.51438        10.13927
| 36>    O        7.84698        -4.27444         9.51482
| 37>    S        6.74646        -5.90105        11.27035
| 38>    C        4.99701        -5.65712        11.56438
| 39>    O        4.33758        -6.36278        12.26584
| 40>    C        0.91287        -0.47162         8.30977
| 41>    C        1.07170         0.56023         7.47464
| 42>    C       -0.00123         1.37929         6.94821
| 43>    C       -1.32583         1.19141         7.27818
| 44>    C       -2.32349         2.00559         6.71074
| 45>    C       -3.70810         2.00466         6.85825
| 46>    C       -4.57740         1.13513         7.69606
| 47>    C       -4.24822        -0.36516         7.57501
| 48>    N       -5.46639        -1.12378         7.78287
| 49>    C       -4.53154         1.60785         9.16384
| 50>    N       -5.50685         0.87691         9.95710
| 51>    C       -4.21058         3.09170         6.05126
| 52>    C       -5.46504         3.54356         5.86910
| 53>    C       -5.74296         4.73168         5.01548
| 54>    C       -4.54473         5.32202         4.35211
| 55>    C       -3.29742         4.84324         4.53310
| 56>    C       -3.07637         3.73873         5.38737
| 57>    C       -1.93307         3.06622         5.79350
| 58>    C       -0.57037         3.24590         5.47861
| 59>    C        0.35713         2.42241         6.03737
| 60>    C       -6.48750         5.70603         5.89839
| 61>    C       -6.02105         6.89146         6.26433
| 62>    C       -6.76025         7.79766         7.13541
| 63>    C       -7.24543         7.42693         8.38961
| 64>    C       -7.08450         6.15936         9.13905
| 65>    O       -6.53495         5.13550         8.80648
| 66>    N       -7.71351         6.37026        10.36791
| 67>    C       -8.27945         7.65103        10.46851
| 68>    O       -8.88338         8.05352        11.42980
| 69>    C       -7.95175         8.32886         9.20294
| 70>    C       -8.21579         9.62849         8.81608
| 71>    C       -7.72759        10.01099         7.57208
| 72>    C       -7.01529         9.12595         6.75472
| 73>    C       -6.59219         9.69588         5.47024
| 74>    O       -5.99868         9.15728         4.57930
| 75>    S       -7.12386        11.41278         5.39214
| 76>    C       -7.91030        11.35750         7.01004
| 77>    O       -8.47170        12.29036         7.50192
| 78>    C       -7.81944         5.49090        11.44222
| 79>    C       -7.16872         4.32766        11.56729
| 80>    C       -7.25364         3.45452        12.69686
| 81>    O       -6.63872         2.23463        12.58370
| 82>    C       -6.80665         1.55890        13.70383
| 83>    C       -7.53032         2.31061        14.60513
| 84>    N       -7.87098         1.93399        15.91529
| 85>    O       -7.52762         0.83415        16.29437
| 86>    O       -8.48046         2.74428        16.59619
| 87>    C       -7.82828         3.56016        13.96262
| 88>    N       -8.55984         4.55019        14.51850
| 89>    H        8.12618        -1.15057         6.72756
| 90>    H       10.57919        -1.41523         9.99552
| 91>    H        5.67703        -1.16773         8.08294
| 92>    H        2.46445        -4.62575        11.34000
| 93>    H       -0.04908        -0.79002         8.68682
| 94>    H        2.06640         0.81732         7.14154
| 95>    H       -1.61201         0.42029         7.97277
| 96>    H       -5.61061         1.24206         7.35056
| 97>    H       -3.45460        -0.62890         8.29025
| 98>    H       -3.88338        -0.57577         6.56461
| 99>    H       -5.79601        -0.94871         8.72810
|100>    H       -5.29210        -2.11714         7.67997
|101>    H       -4.69000         2.69939         9.17663
|102>    H       -3.53892         1.40834         9.57685
|103>    H       -6.44545         1.14831         9.68003
|104>    H       -5.40283         1.10636        10.93900
|105>    H       -6.31337         3.09348         6.36410
|106>    H       -6.45108         4.42147         4.22945
|107>    H       -4.73171         6.16832         3.70882
|108>    H       -2.45536         5.29845         4.03256
|109>    H       -0.27721         4.03069         4.79718
|110>    H        1.40357         2.54687         5.79981
|111>    H       -7.44806         5.36006         6.25410
|112>    H       -5.08410         7.26486         5.87642
|113>    H       -8.76234        10.31585         9.44161
|114>    H       -8.49849         5.87388        12.18930
|115>    H       -6.52711         3.97989        10.77179
|116>    H       -6.39480         0.57282        13.79013
|117>    H       -8.77301         4.43156        15.50069
|118>    H       -8.49094         5.48464        14.15822
|119> *
|120>
|121>                          ****END OF INPUT****

CARTESIAN COORDINATES (ANGSTROEM)
---------------------------------
  C      8.334930   -1.327940    7.763040
  O      9.604690   -1.200270    8.181290
  C      9.642340   -1.453810    9.475070
  C      8.379850   -1.747590    9.942890
  N      8.070970   -2.003270   11.294640
  O      8.989100   -2.007420   12.084320
  O      6.901780   -2.186220   11.588220
  C      7.509490   -1.682070    8.800420
  N      6.142250   -1.834490    8.700370
  C      5.275840   -2.643400    9.354810
  C      3.910860   -2.310310    9.292160
  C      3.292730   -1.212690    8.537970
  O      3.853730   -0.415870    7.810830
  N      1.931970   -1.280580    8.806120
  C      1.624680   -2.344730    9.677500
  O      0.516710   -2.610000   10.057010
  C      2.915760   -3.004550    9.976160
  C      3.211100   -4.092320   10.775330
  C      4.545360   -4.482620   10.792860
  C      5.556170   -3.824580   10.084770
  C      6.849530   -4.514380   10.139270
  O      7.846980   -4.274440    9.514820
  S      6.746460   -5.901050   11.270350
  C      4.997010   -5.657120   11.564380
  O      4.337580   -6.362780   12.265840
  C      0.912870   -0.471620    8.309770
  C      1.071700    0.560230    7.474640
  C     -0.001230    1.379290    6.948210
  C     -1.325830    1.191410    7.278180
  C     -2.323490    2.005590    6.710740
  C     -3.708100    2.004660    6.858250
  C     -4.577400    1.135130    7.696060
  C     -4.248220   -0.365160    7.575010
  N     -5.466390   -1.123780    7.782870
  C     -4.531540    1.607850    9.163840
  N     -5.506850    0.876910    9.957100
  C     -4.210580    3.091700    6.051260
  C     -5.465040    3.543560    5.869100
  C     -5.742960    4.731680    5.015480
  C     -4.544730    5.322020    4.352110
  C     -3.297420    4.843240    4.533100
  C     -3.076370    3.738730    5.387370
  C     -1.933070    3.066220    5.793500
  C     -0.570370    3.245900    5.478610
  C      0.357130    2.422410    6.037370
  C     -6.487500    5.706030    5.898390
  C     -6.021050    6.891460    6.264330
  C     -6.760250    7.797660    7.135410
  C     -7.245430    7.426930    8.389610
  C     -7.084500    6.159360    9.139050
  O     -6.534950    5.135500    8.806480
  N     -7.713510    6.370260   10.367910
  C     -8.279450    7.651030   10.468510
  O     -8.883380    8.053520   11.429800
  C     -7.951750    8.328860    9.202940
  C     -8.215790    9.628490    8.816080
  C     -7.727590   10.010990    7.572080
  C     -7.015290    9.125950    6.754720
  C     -6.592190    9.695880    5.470240
  O     -5.998680    9.157280    4.579300
  S     -7.123860   11.412780    5.392140
  C     -7.910300   11.357500    7.010040
  O     -8.471700   12.290360    7.501920
  C     -7.819440    5.490900   11.442220
  C     -7.168720    4.327660   11.567290
  C     -7.253640    3.454520   12.696860
  O     -6.638720    2.234630   12.583700
  C     -6.806650    1.558900   13.703830
  C     -7.530320    2.310610   14.605130
  N     -7.870980    1.933990   15.915290
  O     -7.527620    0.834150   16.294370
  O     -8.480460    2.744280   16.596190
  C     -7.828280    3.560160   13.962620
  N     -8.559840    4.550190   14.518500
  H      8.126180   -1.150570    6.727560
  H     10.579190   -1.415230    9.995520
  H      5.677030   -1.167730    8.082940
  H      2.464450   -4.625750   11.340000
  H     -0.049080   -0.790020    8.686820
  H      2.066400    0.817320    7.141540
  H     -1.612010    0.420290    7.972770
  H     -5.610610    1.242060    7.350560
  H     -3.454600   -0.628900    8.290250
  H     -3.883380   -0.575770    6.564610
  H     -5.796010   -0.948710    8.728100
  H     -5.292100   -2.117140    7.679970
  H     -4.690000    2.699390    9.176630
  H     -3.538920    1.408340    9.576850
  H     -6.445450    1.148310    9.680030
  H     -5.402830    1.106360   10.939000
  H     -6.313370    3.093480    6.364100
  H     -6.451080    4.421470    4.229450
  H     -4.731710    6.168320    3.708820
  H     -2.455360    5.298450    4.032560
  H     -0.277210    4.030690    4.797180
  H      1.403570    2.546870    5.799810
  H     -7.448060    5.360060    6.254100
  H     -5.084100    7.264860    5.876420
  H     -8.762340   10.315850    9.441610
  H     -8.498490    5.873880   12.189300
  H     -6.527110    3.979890   10.771790
  H     -6.394800    0.572820   13.790130
  H     -8.773010    4.431560   15.500690
  H     -8.490940    5.484640   14.158220

 Total Charge           Charge          ....    0
 Multiplicity           Mult            ....    1
 Number of Electrons    NEL             ....  530
 Basis Dimension        Dim             .... 1194

ORBITAL ENERGIES
----------------

  NO   OCC          E(Eh)            E(eV)
   0   2.0000     -88.958769     -2420.6912
   1   2.0000     -88.946962     -2420.3699
   2   2.0000     -19.326543      -525.9020
   3   2.0000     -19.323252      -525.8124
   4   2.0000     -19.252842      -523.8965
   5   2.0000     -19.252494      -523.8870
   6   2.0000     -19.252348      -523.8830
   7   2.0000     -19.251941      -523.8719
   8   2.0000     -19.250706      -523.8383
   9   2.0000     -19.249389      -523.8025
  10   2.0000     -19.246031      -523.7111
  11   2.0000     -19.242879      -523.6253
  12   2.0000     -19.241119      -523.5775
  13   2.0000     -19.239661      -523.5378
  14   2.0000     -19.238377      -523.5028
  15   2.0000     -19.236103      -523.4410
  16   2.0000     -14.662028      -398.9741
  17   2.0000     -14.661538      -398.9607
  18   2.0000     -14.494340      -394.4110
  19   2.0000     -14.484009      -394.1299
  20   2.0000     -14.474585      -393.8735
  21   2.0000     -14.437024      -392.8514
  22   2.0000     -14.381197      -391.3323
  23   2.0000     -14.351356      -390.5203
  24   2.0000     -10.425081      -283.6809
  25   2.0000     -10.423316      -283.6328
  26   2.0000     -10.418249      -283.4950
  27   2.0000     -10.414188      -283.3845
  28   2.0000     -10.413862      -283.3756
  29   2.0000     -10.413343      -283.3615
  30   2.0000     -10.403559      -283.0952
  31   2.0000     -10.399501      -282.9848
  32   2.0000     -10.372638      -282.2538
  33   2.0000     -10.366884      -282.0972
  34   2.0000     -10.362767      -281.9852
  35   2.0000     -10.347883      -281.5802
  36   2.0000     -10.344652      -281.4923
  37   2.0000     -10.342927      -281.4454
  38   2.0000     -10.342410      -281.4313
  39   2.0000     -10.338259      -281.3183
  40   2.0000     -10.336518      -281.2710
  41   2.0000     -10.335965      -281.2559
  42   2.0000     -10.334698      -281.2214
  43   2.0000     -10.333917      -281.2002
  44   2.0000     -10.333136      -281.1789
  45   2.0000     -10.332164      -281.1525
  46   2.0000     -10.332152      -281.1521
  47   2.0000     -10.328220      -281.0451
  48   2.0000     -10.321314      -280.8572
  49   2.0000     -10.320938      -280.8470
  50   2.0000     -10.320580      -280.8373
  51   2.0000     -10.312829      -280.6263
  52   2.0000     -10.311540      -280.5913
  53   2.0000     -10.310011      -280.5497
  54   2.0000     -10.298133      -280.2264
  55   2.0000     -10.297540      -280.2103
  56   2.0000     -10.297376      -280.2058
  57   2.0000     -10.295520      -280.1553
  58   2.0000     -10.286328      -279.9052
  59   2.0000     -10.277055      -279.6529
  60   2.0000     -10.270853      -279.4841
  61   2.0000     -10.269286      -279.4415
  62   2.0000     -10.268380      -279.4168
  63   2.0000     -10.265364      -279.3347
  64   2.0000     -10.265299      -279.3330
  65   2.0000     -10.263417      -279.2818
  66   2.0000     -10.262343      -279.2526
  67   2.0000     -10.260611      -279.2054
  68   2.0000     -10.259325      -279.1704
  69   2.0000     -10.256389      -279.0905
  70   2.0000     -10.255962      -279.0789
  71   2.0000     -10.253946      -279.0240
  72   2.0000     -10.253660      -279.0163
  73   2.0000     -10.251737      -278.9639
  74   2.0000      -8.057957      -219.2682
  75   2.0000      -8.046271      -218.9502
  76   2.0000      -6.026827      -163.9983
  77   2.0000      -6.023561      -163.9094
  78   2.0000      -6.018990      -163.7850
  79   2.0000      -6.015144      -163.6804
  80   2.0000      -6.011891      -163.5919
  81   2.0000      -6.007267      -163.4661
  82   2.0000      -1.333695       -36.2917
  83   2.0000      -1.331223       -36.2244
  84   2.0000      -1.249980       -34.0137
  85   2.0000      -1.241586       -33.7853
  86   2.0000      -1.190089       -32.3840
  87   2.0000      -1.182427       -32.1755
  88   2.0000      -1.175570       -31.9889
  89   2.0000      -1.171418       -31.8759
  90   2.0000      -1.165306       -31.7096
  91   2.0000      -1.165173       -31.7060
  92   2.0000      -1.159938       -31.5635
  93   2.0000      -1.159530       -31.5524
  94   2.0000      -1.151416       -31.3316
  95   2.0000      -1.149811       -31.2879
  96   2.0000      -1.082612       -29.4594
  97   2.0000      -1.081438       -29.4274
  98   2.0000      -1.074609       -29.2416
  99   2.0000      -1.029927       -28.0257
 100   2.0000      -1.022143       -27.8139
 101   2.0000      -1.000577       -27.2271
 102   2.0000      -0.976966       -26.5846
 103   2.0000      -0.964899       -26.2562
 104   2.0000      -0.963685       -26.2232
 105   2.0000      -0.953639       -25.9498
 106   2.0000      -0.950028       -25.8516
 107   2.0000      -0.944872       -25.7113
 108   2.0000      -0.941438       -25.6178
 109   2.0000      -0.931446       -25.3459
 110   2.0000      -0.927060       -25.2266
 111   2.0000      -0.915585       -24.9143
 112   2.0000      -0.907826       -24.7032
 113   2.0000      -0.897798       -24.4303
 114   2.0000      -0.889713       -24.2103
 115   2.0000      -0.888135       -24.1674
 116   2.0000      -0.868851       -23.6426
 117   2.0000      -0.859121       -23.3779
 118   2.0000      -0.857959       -23.3463
 119   2.0000      -0.843670       -22.9574
 120   2.0000      -0.837456       -22.7883
 121   2.0000      -0.829875       -22.5820
 122   2.0000      -0.824720       -22.4418
 123   2.0000      -0.823633       -22.4122
 124   2.0000      -0.817993       -22.2587
 125   2.0000      -0.806201       -21.9378
 126   2.0000      -0.804154       -21.8822
 127   2.0000      -0.795433       -21.6448
 128   2.0000      -0.786352       -21.3977
 129   2.0000      -0.772465       -21.0199
 130   2.0000      -0.760714       -20.7001
 131   2.0000      -0.751901       -20.4603
 132   2.0000      -0.747274       -20.3344
 133   2.0000      -0.741431       -20.1754
 134   2.0000      -0.727148       -19.7867
 135   2.0000      -0.718255       -19.5447
 136   2.0000      -0.712672       -19.3928
 137   2.0000      -0.711114       -19.3504
 138   2.0000      -0.704646       -19.1744
 139   2.0000      -0.699857       -19.0441
 140   2.0000      -0.695699       -18.9309
 141   2.0000      -0.690087       -18.7782
 142   2.0000      -0.679691       -18.4953
 143   2.0000      -0.678161       -18.4537
 144   2.0000      -0.674122       -18.3438
 145   2.0000      -0.666185       -18.1278
 146   2.0000      -0.661990       -18.0137
 147   2.0000      -0.660639       -17.9769
 148   2.0000      -0.652979       -17.7685
 149   2.0000      -0.649903       -17.6848
 150   2.0000      -0.646606       -17.5950
 151   2.0000      -0.643590       -17.5130
 152   2.0000      -0.642417       -17.4811
 153   2.0000      -0.636529       -17.3208
 154   2.0000      -0.630129       -17.1467
 155   2.0000      -0.629117       -17.1191
 156   2.0000      -0.625636       -17.0244
 157   2.0000      -0.621766       -16.9191
 158   2.0000      -0.618773       -16.8377
 159   2.0000      -0.612526       -16.6677
 160   2.0000      -0.607385       -16.5278
 161   2.0000      -0.605511       -16.4768
 162   2.0000      -0.599981       -16.3263
 163   2.0000      -0.599588       -16.3156
 164   2.0000      -0.597681       -16.2637
 165   2.0000      -0.595020       -16.1913
 166   2.0000      -0.590662       -16.0727
 167   2.0000      -0.589645       -16.0451
 168   2.0000      -0.588605       -16.0168
 169   2.0000      -0.581638       -15.8272
 170   2.0000      -0.580345       -15.7920
 171   2.0000      -0.579953       -15.7813
 172   2.0000      -0.576747       -15.6941
 173   2.0000      -0.575366       -15.6565
 174   2.0000      -0.572670       -15.5831
 175   2.0000      -0.572504       -15.5786
 176   2.0000      -0.567996       -15.4560
 177   2.0000      -0.562425       -15.3044
 178   2.0000      -0.560907       -15.2631
 179   2.0000      -0.558028       -15.1847
 180   2.0000      -0.556192       -15.1348
 181   2.0000      -0.554114       -15.0782
 182   2.0000      -0.552959       -15.0468
 183   2.0000      -0.550161       -14.9706
 184   2.0000      -0.547540       -14.8993
 185   2.0000      -0.546506       -14.8712
 186   2.0000      -0.546196       -14.8628
 187   2.0000      -0.545363       -14.8401
 188   2.0000      -0.540185       -14.6992
 189   2.0000      -0.538046       -14.6410
 190   2.0000      -0.536556       -14.6004
 191   2.0000      -0.534568       -14.5463
 192   2.0000      -0.534470       -14.5437
 193   2.0000      -0.530720       -14.4416
 194   2.0000      -0.527301       -14.3486
 195   2.0000      -0.519382       -14.1331
 196   2.0000      -0.517647       -14.0859
 197   2.0000      -0.516844       -14.0640
 198   2.0000      -0.514033       -13.9876
 199   2.0000      -0.512481       -13.9453
 200   2.0000      -0.510288       -13.8856
 201   2.0000      -0.509280       -13.8582
 202   2.0000      -0.507723       -13.8158
 203   2.0000      -0.503001       -13.6873
 204   2.0000      -0.502528       -13.6745
 205   2.0000      -0.500802       -13.6275
 206   2.0000      -0.497273       -13.5315
 207   2.0000      -0.494715       -13.4619
 208   2.0000      -0.492177       -13.3928
 209   2.0000      -0.487079       -13.2541
 210   2.0000      -0.485091       -13.2000
 211   2.0000      -0.480691       -13.0803
 212   2.0000      -0.479987       -13.0611
 213   2.0000      -0.478319       -13.0157
 214   2.0000      -0.472161       -12.8482
 215   2.0000      -0.470102       -12.7921
 216   2.0000      -0.467194       -12.7130
 217   2.0000      -0.459147       -12.4940
 218   2.0000      -0.458053       -12.4643
 219   2.0000      -0.456473       -12.4213
 220   2.0000      -0.454311       -12.3624
 221   2.0000      -0.445453       -12.1214
 222   2.0000      -0.440975       -11.9995
 223   2.0000      -0.437695       -11.9103
 224   2.0000      -0.433762       -11.8033
 225   2.0000      -0.430516       -11.7149
 226   2.0000      -0.429353       -11.6833
 227   2.0000      -0.408837       -11.1250
 228   2.0000      -0.401823       -10.9342
 229   2.0000      -0.400181       -10.8895
 230   2.0000      -0.399889       -10.8815
 231   2.0000      -0.397767       -10.8238
 232   2.0000      -0.396015       -10.7761
 233   2.0000      -0.395779       -10.7697
 234   2.0000      -0.392615       -10.6836
 235   2.0000      -0.390171       -10.6171
 236   2.0000      -0.389030       -10.5860
 237   2.0000      -0.387658       -10.5487
 238   2.0000      -0.384502       -10.4628
 239   2.0000      -0.384104       -10.4520
 240   2.0000      -0.381635       -10.3848
 241   2.0000      -0.380493       -10.3538
 242   2.0000      -0.379487       -10.3264
 243   2.0000      -0.377116       -10.2619
 244   2.0000      -0.375037       -10.2053
 245   2.0000      -0.373202       -10.1553
 246   2.0000      -0.369105       -10.0438
 247   2.0000      -0.367255        -9.9935
 248   2.0000      -0.359257        -9.7759
 249   2.0000      -0.358245        -9.7483
 250   2.0000      -0.357915        -9.7394
 251   2.0000      -0.354677        -9.6513
 252   2.0000      -0.349007        -9.4969
 253   2.0000      -0.341750        -9.2995
 254   2.0000      -0.341034        -9.2800
 255   2.0000      -0.339734        -9.2446
 256   2.0000      -0.336962        -9.1692
 257   2.0000      -0.329042        -8.9537
 258   2.0000      -0.316385        -8.6093
 259   2.0000      -0.304747        -8.2926
 260   2.0000      -0.293812        -7.9950
 261   2.0000      -0.279592        -7.6081
 262   2.0000      -0.273573        -7.4443
 263   2.0000      -0.265052        -7.2124
 264   2.0000      -0.213052        -5.7974
 265   0.0000      -0.105756        -2.8778
 266   0.0000      -0.092499        -2.5170
 267   0.0000      -0.070111        -1.9078
 268   0.0000      -0.057887        -1.5752
 269   0.0000      -0.049633        -1.3506

MULLIKEN ATOMIC CHARGES
-----------------------
   0 C :    0.021233
   1 O :   -0.136541
   2 C :    0.087609
   3 C :    0.098548
   4 N :    0.274724
   5 O :   -0.230649
   6 O :   -0.257328
   7 C :    0.109649
   8 N :    0.006789
   9 C :    0.056127
  10 C :   -0.058144
  11 C :    0.224097
  12 O :   -0.205134
  13 N :   -0.224935
  14 C :    0.192884
  15 O :   -0.127596
  16 C :    0.028030
  17 C :   -0.090400
  18 C :    0.043662
  19 C :    0.050535
  20 C :   -0.002495
  21 O :   -0.150829
  22 S :    0.018304
  23 C :    0.049072
  24 O :   -0.119773
  25 C :    0.092208
  26 C :   -0.031504
  27 C :    0.121781
  28 C :   -0.072824
  29 C :    0.042976
  30 C :   -0.031976
  31 C :   -0.062737
  32 C :    0.145245
  33 N :   -0.220541
  34 C :    0.130261
  35 N :   -0.218978
  36 C :    0.097054
  37 C :   -0.104689
  38 C :    0.151766
  39 C :   -0.070953
  40 C :    0.019516
  41 C :    0.008547
  42 C :    0.031301
  43 C :   -0.006000
  44 C :   -0.021517
  45 C :   -0.046405
  46 C :    0.001440
  47 C :    0.017399
  48 C :   -0.027502
  49 C :    0.202710
  50 O :   -0.146521
  51 N :   -0.232473
  52 C :    0.196911
  53 O :   -0.141447
  54 C :    0.017263
  55 C :   -0.071585
  56 C :    0.054997
  57 C :    0.056149
  58 C :    0.033174
  59 O :   -0.124323
  60 S :    0.014012
  61 C :    0.045408
  62 O :   -0.115593
  63 C :    0.033465
  64 C :    0.006257
  65 C :    0.036857
  66 O :   -0.178768
  67 C :    0.083817
  68 C :    0.105723
  69 N :    0.281203
  70 O :   -0.239434
  71 O :   -0.266876
  72 C :   -0.021608
  73 N :   -0.004429
  74 H :    0.010164
  75 H :    0.032949
  76 H :    0.151921
  77 H :    0.011712
  78 H :    0.027031
  79 H :    0.003875
  80 H :   -0.063502
  81 H :   -0.029733
  82 H :   -0.013565
  83 H :   -0.001683
  84 H :    0.077520
  85 H :    0.080336
  86 H :    0.002512
  87 H :   -0.009471
  88 H :    0.098730
  89 H :    0.095190
  90 H :   -0.006715
  91 H :    0.042886
  92 H :    0.001315
  93 H :   -0.038638
  94 H :   -0.040769
  95 H :   -0.031292
  96 H :    0.002386
  97 H :    0.035990
  98 H :    0.020467
  99 H :    0.006165
 100 H :    0.018558
 101 H :    0.029583
 102 H :    0.135706
 103 H :    0.124177
Sum of atomic charges:   -0.0000000

LOEWDIN ATOMIC CHARGES
----------------------
   0 C :    0.012051
   1 O :    0.063167
   2 C :    0.083069
   3 C :   -0.094895
   4 N :    0.290843
   5 O :   -0.194156
   6 O :   -0.207618
   7 C :   -0.013760
   8 N :    0.045282
   9 C :    0.080920
  10 C :   -0.074889
  11 C :    0.108295
  12 O :   -0.163462
  13 N :   -0.009519
  14 C :    0.104548
  15 O :   -0.125192
  16 C :   -0.026032
  17 C :    0.015664
  18 C :   -0.041228
  19 C :   -0.085520
  20 C :   -0.053389
  21 O :   -0.131795
  22 S :    0.308703
  23 C :   -0.043683
  24 O :   -0.112201
  25 C :    0.022754
  26 C :   -0.035689
  27 C :   -0.030175
  28 C :   -0.013704
  29 C :   -0.020969
  30 C :   -0.029709
  31 C :   -0.041949
  32 C :    0.030708
  33 N :   -0.127955
  34 C :    0.027169
  35 N :   -0.106532
  36 C :   -0.015341
  37 C :    0.075773
  38 C :   -0.028803
  39 C :   -0.042770
  40 C :   -0.012498
  41 C :   -0.043574
  42 C :   -0.025890
  43 C :   -0.012383
  44 C :   -0.027201
  45 C :    0.031688
  46 C :   -0.037279
  47 C :    0.039170
  48 C :   -0.034244
  49 C :    0.103443
  50 O :   -0.135739
  51 N :   -0.011536
  52 C :    0.098719
  53 O :   -0.136621
  54 C :   -0.030337
  55 C :    0.039204
  56 C :   -0.051298
  57 C :   -0.055994
  58 C :   -0.042141
  59 O :   -0.109539
  60 S :    0.300378
  61 C :   -0.044435
  62 O :   -0.108238
  63 C :   -0.003062
  64 C :   -0.044086
  65 C :   -0.036519
  66 O :    0.043761
  67 C :    0.085032
  68 C :   -0.106325
  69 N :    0.293309
  70 O :   -0.201481
  71 O :   -0.218250
  72 C :    0.009538
  73 N :   -0.001870
  74 H :    0.029047
  75 H :    0.039184
  76 H :    0.089989
  77 H :    0.049093
  78 H :    0.029949
  79 H :    0.030153
  80 H :    0.018621
  81 H :    0.020628
  82 H :   -0.002408
  83 H :    0.017187
  84 H :    0.035445
  85 H :    0.048764
  86 H :    0.002121
  87 H :    0.015369
  88 H :    0.053411
  89 H :    0.044793
  90 H :    0.029548
  91 H :    0.062226
  92 H :    0.027454
  93 H :    0.029222
  94 H :    0.025756
  95 H :    0.024351
  96 H :    0.023637
  97 H :    0.039047
  98 H :    0.052561
  99 H :    0.023454
 100 H :    0.042093
 101 H :    0.038667
 102 H :    0.073392
 103 H :    0.075528

  Mayer bond orders larger than 0.100000
B(  0-C ,  1-O ) :   1.1212 B(  0-C ,  7-C ) :   1.5205 B(  0-C , 74-H ) :   1.0229
B(  1-O ,  2-C ) :   1.2339 B(  2-C ,  3-C ) :   1.4502 B(  2-C , 75-H ) :   1.0039
B(  3-C ,  4-N ) :   0.9463 B(  3-C ,  7-C ) :   1.2620 B(  4-N ,  5-O ) :   1.5640
B(  4-N ,  6-O ) :   1.4825 B(  5-O ,  6-O ) :   0.2531 B(  7-C ,  8-N ) :   1.0672
B(  8-N ,  9-C ) :   1.3255 B(  8-N , 76-H ) :   0.8507 B(  9-C , 10-C ) :   1.3311
B(  9-C , 19-C ) :   1.2850 B( 10-C , 11-C ) :   0.9138 B( 10-C , 16-C ) :   1.4039
B( 11-C , 12-O ) :   2.0273 B( 11-C , 13-N ) :   1.0858 B( 12-O , 76-H ) :   0.1022
B( 13-N , 14-C ) :   1.0133 B( 13-N , 25-C ) :   1.0000 B( 14-C , 15-O ) :   2.2356
B( 14-C , 16-C ) :   0.8754 B( 16-C , 17-C ) :   1.3200 B( 17-C , 18-C ) :   1.3255
B( 17-C , 77-H ) :   1.0309 B( 18-C , 19-C ) :   1.3681 B( 18-C , 23-C ) :   0.8458
B( 19-C , 20-C ) :   0.8458 B( 20-C , 21-O ) :   2.1507 B( 20-C , 22-S ) :   1.0391
B( 21-O , 22-S ) :   0.1009 B( 22-S , 23-C ) :   1.0260 B( 22-S , 24-O ) :   0.1070
B( 23-C , 24-O ) :   2.2214 B( 25-C , 26-C ) :   1.7338 B( 25-C , 78-H ) :   0.9594
B( 26-C , 27-C ) :   1.0438 B( 26-C , 79-H ) :   0.9778 B( 27-C , 28-C ) :   1.5352
B( 27-C , 44-C ) :   1.1290 B( 28-C , 29-C ) :   1.1540 B( 28-C , 80-H ) :   0.9786
B( 29-C , 30-C ) :   1.4660 B( 29-C , 42-C ) :   1.1211 B( 30-C , 31-C ) :   1.0217
B( 30-C , 36-C ) :   1.1246 B( 31-C , 32-C ) :   1.0213 B( 31-C , 34-C ) :   1.0521
B( 31-C , 81-H ) :   0.8752 B( 32-C , 33-N ) :   1.1143 B( 32-C , 82-H ) :   0.9226
B( 32-C , 83-H ) :   0.9519 B( 33-N , 84-H ) :   0.9474 B( 33-N , 85-H ) :   0.9674
B( 34-C , 35-N ) :   1.0897 B( 34-C , 86-H ) :   0.9373 B( 34-C , 87-H ) :   0.9319
B( 35-N , 88-H ) :   0.9649 B( 35-N , 89-H ) :   0.9661 B( 36-C , 37-C ) :   1.6939
B( 36-C , 41-C ) :   1.0459 B( 37-C , 38-C ) :   0.9553 B( 37-C , 90-H ) :   0.9572
B( 38-C , 39-C ) :   1.0164 B( 38-C , 45-C ) :   0.9660 B( 38-C , 91-H ) :   0.8522
B( 39-C , 40-C ) :   1.7102 B( 39-C , 92-H ) :   0.9656 B( 40-C , 41-C ) :   1.1292
B( 40-C , 93-H ) :   0.9938 B( 41-C , 42-C ) :   1.4234 B( 42-C , 43-C ) :   1.1513
B( 43-C , 44-C ) :   1.5908 B( 43-C , 94-H ) :   0.9913 B( 44-C , 95-H ) :   0.9908
B( 45-C , 46-C ) :   1.9137 B( 45-C , 96-H ) :   0.9680 B( 46-C , 47-C ) :   1.0324
B( 46-C , 97-H ) :   0.9124 B( 47-C , 48-C ) :   1.4032 B( 47-C , 57-C ) :   1.3773
B( 48-C , 49-C ) :   0.8947 B( 48-C , 54-C ) :   1.3612 B( 49-C , 50-O ) :   2.1485
B( 49-C , 51-N ) :   1.0484 B( 51-N , 52-C ) :   1.0280 B( 51-N , 63-C ) :   1.0070
B( 52-C , 53-O ) :   2.2213 B( 52-C , 54-C ) :   0.8787 B( 54-C , 55-C ) :   1.3487
B( 55-C , 56-C ) :   1.3252 B( 55-C , 98-H ) :   1.0284 B( 56-C , 57-C ) :   1.3377
B( 56-C , 61-C ) :   0.8395 B( 57-C , 58-C ) :   0.8573 B( 58-C , 59-O ) :   2.1721
B( 58-C , 60-S ) :   1.0301 B( 59-O , 60-S ) :   0.1070 B( 60-S , 61-C ) :   1.0242
B( 60-S , 62-O ) :   0.1084 B( 61-C , 62-O ) :   2.2274 B( 63-C , 64-C ) :   1.6999
B( 63-C , 99-H ) :   0.9714 B( 64-C , 65-C ) :   1.1386 B( 64-C ,100-H ) :   0.9464
B( 65-C , 66-O ) :   1.0590 B( 65-C , 72-C ) :   1.3945 B( 66-O , 67-C ) :   1.2203
B( 67-C , 68-C ) :   1.4141 B( 67-C ,101-H ) :   1.0065 B( 68-C , 69-N ) :   0.9513
B( 68-C , 72-C ) :   1.2378 B( 69-N , 70-O ) :   1.5549 B( 69-N , 71-O ) :   1.4853
B( 70-O , 71-O ) :   0.2584 B( 72-C , 73-N ) :   1.3490 B( 73-N ,102-H ) :   0.8999
B( 73-N ,103-H ) :   0.9306

-----------------------------------------------------------------------------
         ABSORPTION SPECTRUM VIA TRANSITION ELECTRIC DIPOLE MOMENTS
-----------------------------------------------------------------------------
State   Energy  Wavelength   fosc         T2         TX        TY        TZ
        (cm-1)    (nm)                  (au**2)     (au)      (au)      (au)
-----------------------------------------------------------------------------
   0   10077.6    992.3   0.000165617   0.00541   0.05082  -0.04955  -0.01931
   1   13345.0    749.3   0.030787492   0.75950   0.39743   0.58579  -0.50833
   2   14180.8    705.2   0.004190084   0.09727  -0.27128   0.13980  -0.06434
   3   17940.8    557.4   0.004292555   0.07877  -0.17076   0.11628   0.18997
   4   18835.6    530.9   0.008069888   0.14105   0.24366   0.21419  -0.18921
   5   22612.8    442.2   0.147706062   2.15040   1.17004  -0.76845   0.43691
   6   24737.5    404.2   0.063917907   0.85063   0.57271  -0.58601   0.42337
   7   24810.1    403.1   0.008724849   0.11577  -0.01893   0.28090  -0.19107
   8   25080.2    398.7   0.000497366   0.00653   0.08077   0.00007   0.00210
   9   25487.0    392.4   0.000498682   0.00644  -0.02722   0.05577  -0.05090
  10   25494.8    392.2   0.090182579   1.16452  -0.07587   0.92135  -0.55666
  11   25767.4    388.1   0.061970186   0.79175  -0.44081   0.62394  -0.45622
  12   26121.8    382.8   0.000489803   0.00617   0.06999   0.03177  -0.01627
  13   26632.1    375.5   0.010298126   0.12730  -0.33451   0.11000  -0.05744
  14   26662.9    375.1   0.000173396   0.00214  -0.00182  -0.04606  -0.00398
  15   27297.1    366.3   0.590096362   7.11676  -2.41745   1.11643  -0.16221
  16   27909.3    358.3   0.209901647   2.47595   0.09008  -0.85011   1.32104
  17   28082.6    356.1   0.229665103   2.69236   0.61478  -1.17562   0.96557
  18   28698.4    348.5   0.004200699   0.04819   0.21829  -0.02300  -0.00264
  19   29463.8    339.4   0.049494437   0.55302   0.07199   0.47763  -0.56542
  20   29686.6    336.9   0.000003659   0.00004  -0.00192  -0.00565   0.00223
  21   29989.3    333.5   0.000751259   0.00825   0.01085   0.05507  -0.07139
  22   30307.5    330.0   0.000331982   0.00361  -0.01624  -0.01482   0.05588
  23   30550.9    327.3   0.058175652   0.62689   0.76725   0.12874   0.14714
  24   30743.6    325.3   0.024934788   0.26701   0.06344   0.50470   0.09092
  25   31376.4    318.7   0.088667871   0.93033  -0.04593  -0.64890   0.71215
  26   32387.5    308.8   0.000590624   0.00600   0.03250   0.03894  -0.05857
  27   32423.5    308.4   0.009402088   0.09546  -0.29758   0.02751   0.07846
  28   32547.6    307.2   0.038870014   0.39316   0.40272  -0.47868  -0.04296
  29   32574.7    307.0   0.007887059   0.07971   0.10449   0.16750  -0.20183
  30   32918.3    303.8   0.026367225   0.26370   0.35932  -0.12897  -0.34344
  31   33024.8    302.8   0.043173333   0.43038  -0.60965   0.23631  -0.05351
  32   33229.0    300.9   0.216331695   2.14328   1.11051  -0.87725   0.37480
  33   33394.7    299.4   0.153624556   1.51446   0.63132  -0.97928   0.39612
  34   33841.7    295.5   0.045729782   0.44486   0.27310   0.43074  -0.42981
  35   33977.8    294.3   0.058151303   0.56343  -0.55599   0.42063  -0.27816
  36   34038.7    293.8   0.077026777   0.74498   0.76201  -0.31142   0.25949
  37   34231.0    292.1   0.009324905   0.08968   0.16962  -0.19103  -0.15626
  38   34786.2    287.5   0.000947053   0.00896   0.00232  -0.09227   0.02107
  39   34814.7    287.2   0.140868870   1.33207  -0.71779   0.38327  -0.81850
  40   35147.8    284.5   0.029041368   0.27202  -0.33217   0.38455  -0.11748
  41   35172.8    284.3   0.001685819   0.01578   0.09471  -0.04238   0.07080
  42   35296.8    283.3   0.572992250   5.34428  -1.58461   1.65406  -0.31206
  43   35353.3    282.9   0.000906507   0.00844   0.05959  -0.06984   0.00351
  44   35567.8    281.2   0.011310222   0.10469  -0.21888   0.22669  -0.07339
  45   35966.4    278.0   0.011989251   0.10974   0.10270   0.30980   0.05673
  46   36060.5    277.3   0.057694358   0.52672  -0.41311   0.52168  -0.28967
  47   36459.5    274.3   0.057280097   0.51721  -0.58718  -0.41503  -0.01352
  48   36797.2    271.8   0.000634561   0.00568   0.00025   0.07498   0.00743
  49   36987.2    270.4   0.191946293   1.70846  -0.57664   0.99521  -0.62089
  50   37254.0    268.4   0.091650257   0.80991  -0.21954   0.75634  -0.43550
  51   37588.9    266.0   0.020927500   0.18329   0.27730   0.09797  -0.31112
  52   37690.4    265.3   0.062596482   0.54676   0.35538  -0.37313   0.53032
  53   38376.8    260.6   0.006761642   0.05800  -0.08483   0.16273  -0.15597
  54   38393.9    260.5   0.000193125   0.00166   0.04045  -0.00428   0.00103
  55   38669.2    258.6   0.039725403   0.33820   0.26809   0.43126  -0.28346
  56   39022.5    256.3   0.009808276   0.08275  -0.27241   0.08432  -0.03778
  57   39189.4    255.2   0.000143193   0.00120   0.02332  -0.01956  -0.01663
  58   39269.1    254.7   0.008031179   0.06733   0.05875  -0.15580   0.19900
  59   39503.5    253.1   0.021478233   0.17899  -0.08637   0.30756  -0.27738
  60   39576.3    252.7   0.148328288   1.23386   0.97416   0.39771  -0.35594
  61   40101.4    249.4   0.025277088   0.20751   0.24524  -0.26158   0.28097
  62   40166.3    249.0   0.000527368   0.00432   0.00355   0.03702  -0.05422

FINAL SINGLE POINT ENERGY     -4206.356431469525

DIPOLE MOMENT
-------------
                                X             Y             Z
Electronic contribution:     41.00882       0.96593      17.63246
Nuclear contribution   :    -41.13887       0.87319     -19.32372
                        -----------------------------------------
Total Dipole Moment    :     -0.13004       1.83912      -1.69126
                        -----------------------------------------
Magnitude (a.u.)       :      2.50193
Magnitude (Debye)      :      6.35940

Rotational constants in cm-1:     0.001188     0.000286     0.000251
Rotational constants in MHz :    35.623884     8.588426     7.522866

                             ****ORCA TERMINATED NORMALLY****
TOTAL RUN TIME: 0 days 0 hours 10 minutes 30 seconds 985 msec
