                         Program Version 4.2.0 -  RELEASE  -
|  1> # ORCA input file
|  2> # SCF done       -180.738948351643          0.000919183718
|  3> ! CAM-B3LYP def2-SVP def2/J RIJCOSX Grid4 TightSCF
|  4> %maxcore 5000
|  5> %tddft
|  6>     Mode sTDDFT
|  7>     Ethresh 5.0
|  8>     maxcore 5000
|  9> end
| 10>
| 11> %pal
| 12>   nprocs 6
| 13>   end
| 14> * xyz 0 1
| 15>    C       -6.68759        -1.17861         2.53984
| 16>    S       -5.25245        -1.26161         3.43669
| 17>    C       -5.63716         0.15885         4.36713
| 18>    C       -6.88536         0.66930         3.95338
| 19>    C       -7.47604        -0.10041         2.90165
| 20>    C       -8.72113         0.27212         2.35851
| 21>    C       -9.37550         1.38556         2.83374
| 22>    C      -10.65719         1.75464         2.24718
| 23>    C      -11.37818         2.83457         2.52560
| 24>    C       -8.77657         2.13733         3.88029
| 25>    C       -7.57306         1.80058         4.43033
| 26>    C       -4.81449         0.68358         5.38551
| 27>    N       -5.26478         1.70887         6.11392
| 28>    C       -4.30397         1.99144         7.00162
| 29>    C       -3.14799         1.10249         6.84681
| 30>    C       -2.11385         1.44464         7.83643
| 31>    O       -1.02500         0.93026         8.01069
| 32>    C       -2.71849         2.56678         8.57008
| 33>    C       -4.05256         2.87166         8.03325
| 34>    N       -4.61601         3.90573         8.69939
| 35>    C       -3.72499         4.25413         9.60277
| 36>    C       -2.52002         3.46270         9.57687
| 37>    C       -3.45248         0.25408         5.80658
| 38>    C       -2.66611        -0.77899         5.22425
| 39>    C       -1.43198        -1.10107         5.67535
| 40>    C       -0.55641        -2.10869         5.14546
| 41>    C        0.71032        -2.21255         5.68684
| 42>    C        1.62628        -3.15924         5.19605
| 43>    C        2.94364        -3.44192         5.54411
| 44>    C        3.79299        -2.79977         6.58658
| 45>    C        4.05605        -1.31695         6.25334
| 46>    N        5.28879        -0.89843         6.89065
| 47>    C        3.18237        -2.96715         7.99053
| 48>    N        4.13927        -2.56835         9.01166
| 49>    C        3.38732        -4.49824         4.66844
| 50>    C        4.58148        -5.10954         4.55020
| 51>    C        4.79131        -6.21231         3.57560
| 52>    C        3.65055        -6.44714         2.63516
| 53>    C        2.45867        -5.83036         2.77194
| 54>    C        2.27377        -4.85318         3.77454
| 55>    C        1.21106        -4.03517         4.10763
| 56>    C       -0.09806        -3.92607         3.58520
| 57>    C       -0.94693        -2.99378         4.08648
| 58>    C        4.88666        -7.51397         4.33491
| 59>    C        5.89851        -8.37914         4.21655
| 60>    C        5.94991        -9.66269         4.85661
| 61>    N        7.10171       -10.16990         5.25148
| 62>    C        6.80464       -11.35023         5.84294
| 63>    C        5.36481       -11.61873         5.80222
| 64>    C        5.06770       -12.91005         6.42737
| 65>    O        3.98854       -13.45321         6.58285
| 66>    C        6.40148       -13.39306         6.82992
| 67>    C        7.43298       -12.40856         6.45802
| 68>    N        8.66583       -12.85098         6.80760
| 69>    C        8.46450       -14.02580         7.35579
| 70>    C        7.07557       -14.42850         7.39623
| 71>    C        4.79618       -10.54954         5.14097
| 72>    C        3.46459       -10.34465         4.70882
| 73>    C        2.45351       -11.19310         5.04011
| 74>    C        1.11584       -11.06314         4.63284
| 75>    S        0.53635        -9.72392         3.68106
| 76>    C       -1.05735       -10.32974         3.66007
| 77>    C       -1.18144       -11.51938         4.34671
| 78>    C        0.06229       -11.95040         4.91258
| 79>    C        0.12480       -13.14505         5.64261
| 80>    C       -1.01129       -13.90585         5.82045
| 81>    C       -1.01133       -15.15428         6.56837
| 82>    C        0.03772       -15.72809         7.14985
| 83>    C       -2.24148       -13.46371         5.25475
| 84>    C       -2.33827       -12.31175         4.53891
| 85>    H       -6.89157        -1.91660         1.78867
| 86>    H       -9.14571        -0.32475         1.56428
| 87>    H      -11.02614         1.05598         1.50590
| 88>    H      -11.07253         3.57621         3.24305
| 89>    H      -12.31648         3.01895         2.03149
| 90>    H       -9.29428         3.00449         4.25670
| 91>    H       -7.13081         2.37537         5.22713
| 92>    H       -3.92905         5.06704        10.27822
| 93>    H       -1.67569         3.58601        10.22625
| 94>    H       -3.08625        -1.30104         4.37904
| 95>    H       -1.03513        -0.54515         6.51462
| 96>    H        0.99516        -1.54228         6.48288
| 97>    H        4.77260        -3.28820         6.59301
| 98>    H        3.17956        -0.72014         6.54910
| 99>    H        4.18212        -1.21056         5.16998
|100>    H        5.19927        -1.04352         7.89308
|101>    H        5.46004         0.08636         6.72012
|102>    H        2.84517        -4.01292         8.09989
|103>    H        2.30587        -2.32486         8.09493
|104>    H        4.92787        -3.20838         9.02323
|105>    H        3.70556        -2.59175         9.92860
|106>    H        5.42302        -4.85964         5.18101
|107>    H        5.72589        -6.05506         3.02561
|108>    H        3.81459        -7.19102         1.87076
|109>    H        1.64519        -6.05179         2.09619
|110>    H       -0.40735        -4.58664         2.78811
|111>    H       -1.94595        -2.91305         3.68669
|112>    H        4.04364        -7.71650         4.97939
|113>    H        6.78591        -8.11456         3.65606
|114>    H        9.29461       -14.60032         7.72874
|115>    H        6.70427       -15.35170         7.79622
|116>    H        3.26043        -9.50142         4.06225
|117>    H        2.67871       -12.04671         5.66546
|118>    H       -1.82505        -9.78595         3.14564
|119>    H        1.06749       -13.45993         6.05872
|120>    H       -1.97801       -15.63869         6.63776
|121>    H        1.02770       -15.30745         7.12061
|122>    H       -0.06354       -16.65740         7.68374
|123>    H       -3.12007       -14.07484         5.40538
|124>    H       -3.27691       -11.98930         4.11371
|125> *
|126>
|127>                          ****END OF INPUT****

CARTESIAN COORDINATES (ANGSTROEM)
---------------------------------
  C     -6.687590   -1.178610    2.539840
  S     -5.252450   -1.261610    3.436690
  C     -5.637160    0.158850    4.367130
  C     -6.885360    0.669300    3.953380
  C     -7.476040   -0.100410    2.901650
  C     -8.721130    0.272120    2.358510
  C     -9.375500    1.385560    2.833740
  C    -10.657190    1.754640    2.247180
  C    -11.378180    2.834570    2.525600
  C     -8.776570    2.137330    3.880290
  C     -7.573060    1.800580    4.430330
  C     -4.814490    0.683580    5.385510
  N     -5.264780    1.708870    6.113920
  C     -4.303970    1.991440    7.001620
  C     -3.147990    1.102490    6.846810
  C     -2.113850    1.444640    7.836430
  O     -1.025000    0.930260    8.010690
  C     -2.718490    2.566780    8.570080
  C     -4.052560    2.871660    8.033250
  N     -4.616010    3.905730    8.699390
  C     -3.724990    4.254130    9.602770
  C     -2.520020    3.462700    9.576870
  C     -3.452480    0.254080    5.806580
  C     -2.666110   -0.778990    5.224250
  C     -1.431980   -1.101070    5.675350
  C     -0.556410   -2.108690    5.145460
  C      0.710320   -2.212550    5.686840
  C      1.626280   -3.159240    5.196050
  C      2.943640   -3.441920    5.544110
  C      3.792990   -2.799770    6.586580
  C      4.056050   -1.316950    6.253340
  N      5.288790   -0.898430    6.890650
  C      3.182370   -2.967150    7.990530
  N      4.139270   -2.568350    9.011660
  C      3.387320   -4.498240    4.668440
  C      4.581480   -5.109540    4.550200
  C      4.791310   -6.212310    3.575600
  C      3.650550   -6.447140    2.635160
  C      2.458670   -5.830360    2.771940
  C      2.273770   -4.853180    3.774540
  C      1.211060   -4.035170    4.107630
  C     -0.098060   -3.926070    3.585200
  C     -0.946930   -2.993780    4.086480
  C      4.886660   -7.513970    4.334910
  C      5.898510   -8.379140    4.216550
  C      5.949910   -9.662690    4.856610
  N      7.101710  -10.169900    5.251480
  C      6.804640  -11.350230    5.842940
  C      5.364810  -11.618730    5.802220
  C      5.067700  -12.910050    6.427370
  O      3.988540  -13.453210    6.582850
  C      6.401480  -13.393060    6.829920
  C      7.432980  -12.408560    6.458020
  N      8.665830  -12.850980    6.807600
  C      8.464500  -14.025800    7.355790
  C      7.075570  -14.428500    7.396230
  C      4.796180  -10.549540    5.140970
  C      3.464590  -10.344650    4.708820
  C      2.453510  -11.193100    5.040110
  C      1.115840  -11.063140    4.632840
  S      0.536350   -9.723920    3.681060
  C     -1.057350  -10.329740    3.660070
  C     -1.181440  -11.519380    4.346710
  C      0.062290  -11.950400    4.912580
  C      0.124800  -13.145050    5.642610
  C     -1.011290  -13.905850    5.820450
  C     -1.011330  -15.154280    6.568370
  C      0.037720  -15.728090    7.149850
  C     -2.241480  -13.463710    5.254750
  C     -2.338270  -12.311750    4.538910
  H     -6.891570   -1.916600    1.788670
  H     -9.145710   -0.324750    1.564280
  H    -11.026140    1.055980    1.505900
  H    -11.072530    3.576210    3.243050
  H    -12.316480    3.018950    2.031490
  H     -9.294280    3.004490    4.256700
  H     -7.130810    2.375370    5.227130
  H     -3.929050    5.067040   10.278220
  H     -1.675690    3.586010   10.226250
  H     -3.086250   -1.301040    4.379040
  H     -1.035130   -0.545150    6.514620
  H      0.995160   -1.542280    6.482880
  H      4.772600   -3.288200    6.593010
  H      3.179560   -0.720140    6.549100
  H      4.182120   -1.210560    5.169980
  H      5.199270   -1.043520    7.893080
  H      5.460040    0.086360    6.720120
  H      2.845170   -4.012920    8.099890
  H      2.305870   -2.324860    8.094930
  H      4.927870   -3.208380    9.023230
  H      3.705560   -2.591750    9.928600
  H      5.423020   -4.859640    5.181010
  H      5.725890   -6.055060    3.025610
  H      3.814590   -7.191020    1.870760
  H      1.645190   -6.051790    2.096190
  H     -0.407350   -4.586640    2.788110
  H     -1.945950   -2.913050    3.686690
  H      4.043640   -7.716500    4.979390
  H      6.785910   -8.114560    3.656060
  H      9.294610  -14.600320    7.728740
  H      6.704270  -15.351700    7.796220
  H      3.260430   -9.501420    4.062250
  H      2.678710  -12.046710    5.665460
  H     -1.825050   -9.785950    3.145640
  H      1.067490  -13.459930    6.058720
  H     -1.978010  -15.638690    6.637760
  H      1.027700  -15.307450    7.120610
  H     -0.063540  -16.657400    7.683740
  H     -3.120070  -14.074840    5.405380
  H     -3.276910  -11.989300    4.113710

 Total Charge           Charge          ....    0
 Multiplicity           Mult            ....    1
 Number of Electrons    NEL             ....  490
 Basis Dimension        Dim             .... 1188

ORBITAL ENERGIES
----------------

  NO   OCC          E(Eh)            E(eV)
   0   2.0000     -88.989097     -2421.5164
   1   2.0000     -88.968253     -2420.9493
   2   2.0000     -19.203596      -522.5564
   3   2.0000     -19.198933      -522.4295
   4   2.0000     -14.401286      -391.8789
   5   2.0000     -14.395655      -391.7257
   6   2.0000     -14.394002      -391.6807
   7   2.0000     -14.387959      -391.5163
   8   2.0000     -14.386341      -391.4723
   9   2.0000     -14.351328      -390.5195
  10   2.0000     -10.362195      -281.9697
  11   2.0000     -10.359124      -281.8861
  12   2.0000     -10.342080      -281.4223
  13   2.0000     -10.335287      -281.2375
  14   2.0000     -10.323302      -280.9113
  15   2.0000     -10.322475      -280.8888
  16   2.0000     -10.319483      -280.8074
  17   2.0000     -10.314768      -280.6791
  18   2.0000     -10.311205      -280.5822
  19   2.0000     -10.308185      -280.5000
  20   2.0000     -10.306527      -280.4549
  21   2.0000     -10.306213      -280.4463
  22   2.0000     -10.303959      -280.3850
  23   2.0000     -10.302694      -280.3505
  24   2.0000     -10.301931      -280.3298
  25   2.0000     -10.301200      -280.3099
  26   2.0000     -10.298588      -280.2388
  27   2.0000     -10.298502      -280.2365
  28   2.0000     -10.296859      -280.1918
  29   2.0000     -10.295689      -280.1599
  30   2.0000     -10.293851      -280.1099
  31   2.0000     -10.286240      -279.9028
  32   2.0000     -10.286095      -279.8989
  33   2.0000     -10.283654      -279.8325
  34   2.0000     -10.283227      -279.8208
  35   2.0000     -10.282971      -279.8139
  36   2.0000     -10.281459      -279.7727
  37   2.0000     -10.280468      -279.7458
  38   2.0000     -10.279524      -279.7201
  39   2.0000     -10.279429      -279.7175
  40   2.0000     -10.278172      -279.6833
  41   2.0000     -10.278131      -279.6822
  42   2.0000     -10.277170      -279.6560
  43   2.0000     -10.277101      -279.6541
  44   2.0000     -10.276409      -279.6353
  45   2.0000     -10.276214      -279.6300
  46   2.0000     -10.276213      -279.6300
  47   2.0000     -10.275241      -279.6035
  48   2.0000     -10.274919      -279.5948
  49   2.0000     -10.274035      -279.5707
  50   2.0000     -10.273344      -279.5519
  51   2.0000     -10.272346      -279.5247
  52   2.0000     -10.271908      -279.5128
  53   2.0000     -10.271903      -279.5127
  54   2.0000     -10.271650      -279.5058
  55   2.0000     -10.271265      -279.4953
  56   2.0000     -10.270591      -279.4770
  57   2.0000     -10.270154      -279.4651
  58   2.0000     -10.270084      -279.4632
  59   2.0000     -10.268921      -279.4315
  60   2.0000     -10.268653      -279.4242
  61   2.0000     -10.268255      -279.4134
  62   2.0000     -10.267431      -279.3910
  63   2.0000     -10.266999      -279.3792
  64   2.0000     -10.266649      -279.3697
  65   2.0000     -10.266469      -279.3648
  66   2.0000     -10.265908      -279.3496
  67   2.0000     -10.265564      -279.3402
  68   2.0000     -10.262146      -279.2472
  69   2.0000     -10.258444      -279.1465
  70   2.0000      -8.083459      -219.9621
  71   2.0000      -8.063357      -219.4151
  72   2.0000      -6.052369      -164.6933
  73   2.0000      -6.048016      -164.5749
  74   2.0000      -6.046793      -164.5416
  75   2.0000      -6.032220      -164.1450
  76   2.0000      -6.028065      -164.0320
  77   2.0000      -6.026501      -163.9894
  78   2.0000      -1.115427       -30.3523
  79   2.0000      -1.112228       -30.2653
  80   2.0000      -1.067704       -29.0537
  81   2.0000      -1.066301       -29.0155
  82   2.0000      -1.047537       -28.5049
  83   2.0000      -1.042420       -28.3657
  84   2.0000      -1.007448       -27.4140
  85   2.0000      -0.994357       -27.0578
  86   2.0000      -0.987126       -26.8611
  87   2.0000      -0.969137       -26.3716
  88   2.0000      -0.952653       -25.9230
  89   2.0000      -0.945227       -25.7209
  90   2.0000      -0.935121       -25.4459
  91   2.0000      -0.933653       -25.4060
  92   2.0000      -0.928515       -25.2662
  93   2.0000      -0.923155       -25.1203
  94   2.0000      -0.920364       -25.0444
  95   2.0000      -0.909810       -24.7572
  96   2.0000      -0.897941       -24.4342
  97   2.0000      -0.885042       -24.0832
  98   2.0000      -0.880508       -23.9598
  99   2.0000      -0.874099       -23.7854
 100   2.0000      -0.871606       -23.7176
 101   2.0000      -0.866315       -23.5736
 102   2.0000      -0.857963       -23.3464
 103   2.0000      -0.847908       -23.0727
 104   2.0000      -0.842217       -22.9179
 105   2.0000      -0.841955       -22.9107
 106   2.0000      -0.835137       -22.7252
 107   2.0000      -0.831225       -22.6188
 108   2.0000      -0.825743       -22.4696
 109   2.0000      -0.823552       -22.4100
 110   2.0000      -0.812267       -22.1029
 111   2.0000      -0.808058       -21.9884
 112   2.0000      -0.799831       -21.7645
 113   2.0000      -0.779675       -21.2160
 114   2.0000      -0.763192       -20.7675
 115   2.0000      -0.757061       -20.6007
 116   2.0000      -0.755338       -20.5538
 117   2.0000      -0.746422       -20.3112
 118   2.0000      -0.743918       -20.2430
 119   2.0000      -0.726178       -19.7603
 120   2.0000      -0.720031       -19.5930
 121   2.0000      -0.717414       -19.5218
 122   2.0000      -0.714474       -19.4418
 123   2.0000      -0.705871       -19.2077
 124   2.0000      -0.704950       -19.1827
 125   2.0000      -0.698179       -18.9984
 126   2.0000      -0.695354       -18.9215
 127   2.0000      -0.692466       -18.8430
 128   2.0000      -0.672569       -18.3015
 129   2.0000      -0.671966       -18.2851
 130   2.0000      -0.665461       -18.1081
 131   2.0000      -0.663981       -18.0679
 132   2.0000      -0.660414       -17.9708
 133   2.0000      -0.648192       -17.6382
 134   2.0000      -0.641989       -17.4694
 135   2.0000      -0.641635       -17.4598
 136   2.0000      -0.632250       -17.2044
 137   2.0000      -0.626158       -17.0386
 138   2.0000      -0.622000       -16.9255
 139   2.0000      -0.619890       -16.8681
 140   2.0000      -0.613534       -16.6951
 141   2.0000      -0.610037       -16.6000
 142   2.0000      -0.601799       -16.3758
 143   2.0000      -0.599918       -16.3246
 144   2.0000      -0.597463       -16.2578
 145   2.0000      -0.590242       -16.0613
 146   2.0000      -0.586872       -15.9696
 147   2.0000      -0.583493       -15.8776
 148   2.0000      -0.576711       -15.6931
 149   2.0000      -0.574098       -15.6220
 150   2.0000      -0.568734       -15.4760
 151   2.0000      -0.564097       -15.3499
 152   2.0000      -0.559733       -15.2311
 153   2.0000      -0.558103       -15.1867
 154   2.0000      -0.556283       -15.1372
 155   2.0000      -0.552494       -15.0341
 156   2.0000      -0.547753       -14.9051
 157   2.0000      -0.544236       -14.8094
 158   2.0000      -0.539834       -14.6896
 159   2.0000      -0.538252       -14.6466
 160   2.0000      -0.535718       -14.5776
 161   2.0000      -0.534091       -14.5333
 162   2.0000      -0.532340       -14.4857
 163   2.0000      -0.529383       -14.4053
 164   2.0000      -0.527121       -14.3437
 165   2.0000      -0.524678       -14.2772
 166   2.0000      -0.523564       -14.2469
 167   2.0000      -0.517676       -14.0867
 168   2.0000      -0.515252       -14.0207
 169   2.0000      -0.513774       -13.9805
 170   2.0000      -0.511249       -13.9118
 171   2.0000      -0.509898       -13.8750
 172   2.0000      -0.509688       -13.8693
 173   2.0000      -0.508521       -13.8376
 174   2.0000      -0.505018       -13.7422
 175   2.0000      -0.503425       -13.6989
 176   2.0000      -0.500557       -13.6209
 177   2.0000      -0.498088       -13.5537
 178   2.0000      -0.496841       -13.5197
 179   2.0000      -0.495679       -13.4881
 180   2.0000      -0.493801       -13.4370
 181   2.0000      -0.493617       -13.4320
 182   2.0000      -0.488053       -13.2806
 183   2.0000      -0.482098       -13.1186
 184   2.0000      -0.481273       -13.0961
 185   2.0000      -0.476127       -12.9561
 186   2.0000      -0.473606       -12.8875
 187   2.0000      -0.472296       -12.8518
 188   2.0000      -0.470931       -12.8147
 189   2.0000      -0.464785       -12.6474
 190   2.0000      -0.463695       -12.6178
 191   2.0000      -0.463408       -12.6100
 192   2.0000      -0.459894       -12.5143
 193   2.0000      -0.458930       -12.4881
 194   2.0000      -0.457861       -12.4590
 195   2.0000      -0.454554       -12.3690
 196   2.0000      -0.452364       -12.3095
 197   2.0000      -0.450403       -12.2561
 198   2.0000      -0.447921       -12.1885
 199   2.0000      -0.445740       -12.1292
 200   2.0000      -0.444490       -12.0952
 201   2.0000      -0.439290       -11.9537
 202   2.0000      -0.438460       -11.9311
 203   2.0000      -0.438116       -11.9217
 204   2.0000      -0.436127       -11.8676
 205   2.0000      -0.434394       -11.8205
 206   2.0000      -0.427959       -11.6454
 207   2.0000      -0.425237       -11.5713
 208   2.0000      -0.422856       -11.5065
 209   2.0000      -0.415286       -11.3005
 210   2.0000      -0.413089       -11.2407
 211   2.0000      -0.411235       -11.1903
 212   2.0000      -0.409395       -11.1402
 213   2.0000      -0.409134       -11.1331
 214   2.0000      -0.403378       -10.9765
 215   2.0000      -0.397880       -10.8269
 216   2.0000      -0.388915       -10.5829
 217   2.0000      -0.386328       -10.5125
 218   2.0000      -0.379350       -10.3226
 219   2.0000      -0.378952       -10.3118
 220   2.0000      -0.367389        -9.9972
 221   2.0000      -0.366460        -9.9719
 222   2.0000      -0.364961        -9.9311
 223   2.0000      -0.350799        -9.5457
 224   2.0000      -0.348729        -9.4894
 225   2.0000      -0.345156        -9.3922
 226   2.0000      -0.343093        -9.3360
 227   2.0000      -0.338053        -9.1989
 228   2.0000      -0.337658        -9.1881
 229   2.0000      -0.326403        -8.8819
 230   2.0000      -0.324661        -8.8345
 231   2.0000      -0.323335        -8.7984
 232   2.0000      -0.320916        -8.7326
 233   2.0000      -0.316308        -8.6072
 234   2.0000      -0.315293        -8.5795
 235   2.0000      -0.308981        -8.4078
 236   2.0000      -0.308042        -8.3822
 237   2.0000      -0.302591        -8.2339
 238   2.0000      -0.300821        -8.1857
 239   2.0000      -0.290536        -7.9059
 240   2.0000      -0.280594        -7.6354
 241   2.0000      -0.272649        -7.4191
 242   2.0000      -0.258890        -7.0447
 243   2.0000      -0.235398        -6.4055
 244   2.0000      -0.223015        -6.0686
 245   0.0000      -0.105519        -2.8713
 246   0.0000      -0.103471        -2.8156
 247   0.0000      -0.074214        -2.0195
 248   0.0000      -0.058835        -1.6010
 249   0.0000      -0.043937        -1.1956

MULLIKEN ATOMIC CHARGES
-----------------------
   0 C :   -0.076055
   1 S :    0.155154
   2 C :   -0.162718
   3 C :    0.112846
   4 C :    0.094975
   5 C :   -0.075265
   6 C :    0.111643
   7 C :   -0.002291
   8 C :   -0.012305
   9 C :    0.009987
  10 C :   -0.007340
  11 C :    0.058009
  12 N :   -0.067961
  13 C :    0.066908
  14 C :   -0.181375
  15 C :    0.215175
  16 O :   -0.159229
  17 C :   -0.010102
  18 C :   -0.042175
  19 N :   -0.062735
  20 C :    0.080083
  21 C :   -0.103534
  22 C :    0.049943
  23 C :   -0.040607
  24 C :    0.002669
  25 C :    0.124893
  26 C :   -0.104770
  27 C :    0.057540
  28 C :   -0.013597
  29 C :   -0.057082
  30 C :    0.154993
  31 N :   -0.227043
  32 C :    0.140474
  33 N :   -0.219012
  34 C :    0.110795
  35 C :   -0.136065
  36 C :    0.116684
  37 C :   -0.048353
  38 C :    0.024670
  39 C :    0.009854
  40 C :    0.037179
  41 C :   -0.003756
  42 C :   -0.005818
  43 C :   -0.031651
  44 C :   -0.001843
  45 C :    0.032528
  46 N :   -0.035785
  47 C :    0.068593
  48 C :   -0.179013
  49 C :    0.216340
  50 O :   -0.169265
  51 C :   -0.004488
  52 C :   -0.039751
  53 N :   -0.052089
  54 C :    0.081650
  55 C :   -0.102552
  56 C :    0.065194
  57 C :   -0.087635
  58 C :    0.023600
  59 C :   -0.127768
  60 S :    0.149722
  61 C :   -0.110001
  62 C :    0.084196
  63 C :    0.146249
  64 C :   -0.089279
  65 C :    0.110472
  66 C :   -0.011813
  67 C :   -0.009547
  68 C :   -0.016480
  69 C :    0.006492
  70 H :    0.031164
  71 H :   -0.033501
  72 H :   -0.016275
  73 H :    0.019787
  74 H :    0.024785
  75 H :   -0.020963
  76 H :    0.008278
  77 H :   -0.001151
  78 H :   -0.014418
  79 H :   -0.027184
  80 H :   -0.007553
  81 H :   -0.017483
  82 H :   -0.035335
  83 H :   -0.016535
  84 H :   -0.003970
  85 H :    0.081979
  86 H :    0.081981
  87 H :   -0.005012
  88 H :   -0.003017
  89 H :    0.100924
  90 H :    0.099372
  91 H :    0.005633
  92 H :    0.025680
  93 H :   -0.004334
  94 H :   -0.034618
  95 H :   -0.042862
  96 H :   -0.037171
  97 H :    0.033228
  98 H :    0.015038
  99 H :    0.002829
 100 H :   -0.011553
 101 H :   -0.022596
 102 H :    0.013715
 103 H :    0.016765
 104 H :   -0.017578
 105 H :   -0.020130
 106 H :    0.033013
 107 H :    0.021582
 108 H :   -0.023497
 109 H :   -0.030381
Sum of atomic charges:   -0.0000000

LOEWDIN ATOMIC CHARGES
----------------------
   0 C :   -0.156605
   1 S :    0.521150
   2 C :   -0.205238
   3 C :   -0.008476
   4 C :   -0.053870
   5 C :   -0.011070
   6 C :   -0.023876
   7 C :   -0.021042
   8 C :   -0.037877
   9 C :    0.005498
  10 C :   -0.001056
  11 C :    0.061127
  12 N :   -0.110973
  13 C :    0.049845
  14 C :   -0.058398
  15 C :    0.070515
  16 O :   -0.156101
  17 C :   -0.046520
  18 C :    0.000922
  19 N :   -0.103225
  20 C :    0.055366
  21 C :   -0.045543
  22 C :   -0.020125
  23 C :   -0.068348
  24 C :    0.031022
  25 C :   -0.032100
  26 C :    0.005199
  27 C :   -0.022453
  28 C :   -0.016209
  29 C :   -0.041581
  30 C :    0.033119
  31 N :   -0.131675
  32 C :    0.028405
  33 N :   -0.100795
  34 C :   -0.015271
  35 C :    0.066829
  36 C :   -0.026015
  37 C :   -0.036782
  38 C :   -0.011886
  39 C :   -0.042146
  40 C :   -0.023523
  41 C :   -0.010817
  42 C :   -0.021535
  43 C :    0.041592
  44 C :   -0.049264
  45 C :    0.072175
  46 N :   -0.099080
  47 C :    0.054083
  48 C :   -0.078221
  49 C :    0.073356
  50 O :   -0.163450
  51 C :   -0.042062
  52 C :    0.009366
  53 N :   -0.096444
  54 C :    0.061590
  55 C :   -0.038296
  56 C :   -0.017247
  57 C :   -0.068758
  58 C :    0.012237
  59 C :   -0.190787
  60 S :    0.481150
  61 C :   -0.178943
  62 C :   -0.055323
  63 C :   -0.028301
  64 C :   -0.002520
  65 C :   -0.022074
  66 C :   -0.026191
  67 C :   -0.028762
  68 C :   -0.020443
  69 C :   -0.012538
  70 H :    0.030437
  71 H :    0.028074
  72 H :    0.028450
  73 H :    0.022053
  74 H :    0.027639
  75 H :    0.031167
  76 H :    0.035835
  77 H :    0.019065
  78 H :    0.030335
  79 H :    0.000860
  80 H :    0.032467
  81 H :    0.028679
  82 H :    0.021086
  83 H :    0.000234
  84 H :    0.016110
  85 H :    0.034703
  86 H :    0.049663
  87 H :    0.003101
  88 H :    0.018591
  89 H :    0.056286
  90 H :    0.058822
  91 H :    0.034724
  92 H :    0.051652
  93 H :    0.026427
  94 H :    0.030109
  95 H :    0.025416
  96 H :    0.023051
  97 H :    0.035359
  98 H :    0.042316
  99 H :    0.020748
 100 H :    0.031610
 101 H :    0.018078
 102 H :    0.038201
 103 H :    0.024161
 104 H :    0.033632
 105 H :    0.026266
 106 H :    0.027189
 107 H :    0.026338
 108 H :    0.027526
 109 H :    0.028830

  Mayer bond orders larger than 0.100000
B(  0-C ,  1-S ) :   1.2519 B(  0-C ,  4-C ) :   1.3610 B(  0-C , 70-H ) :   0.9702
B(  1-S ,  2-C ) :   1.1343 B(  2-C ,  3-C ) :   1.2959 B(  2-C , 11-C ) :   1.1987
B(  3-C ,  4-C ) :   1.2075 B(  3-C , 10-C ) :   1.2492 B(  4-C ,  5-C ) :   1.1640
B(  5-C ,  6-C ) :   1.4891 B(  5-C , 71-H ) :   1.0082 B(  6-C ,  7-C ) :   1.0664
B(  6-C ,  9-C ) :   1.1852 B(  7-C ,  8-C ) :   1.9493 B(  7-C , 72-H ) :   0.9695
B(  8-C , 73-H ) :   0.9497 B(  8-C , 74-H ) :   0.9485 B(  9-C , 10-C ) :   1.5146
B(  9-C , 75-H ) :   0.9888 B( 10-C , 76-H ) :   0.9726 B( 11-C , 12-N ) :   1.5508
B( 11-C , 13-C ) :   0.1176 B( 11-C , 22-C ) :   1.0053 B( 12-N , 13-C ) :   1.3853
B( 13-C , 14-C ) :   1.0600 B( 13-C , 18-C ) :   1.3750 B( 14-C , 15-C ) :   0.8974
B( 14-C , 22-C ) :   1.5561 B( 15-C , 16-O ) :   2.1501 B( 15-C , 17-C ) :   0.9477
B( 16-O , 80-H ) :   0.1215 B( 17-C , 18-C ) :   1.0872 B( 17-C , 21-C ) :   1.5646
B( 18-C , 19-N ) :   1.3322 B( 19-N , 20-C ) :   1.6309 B( 20-C , 21-C ) :   1.1002
B( 20-C , 77-H ) :   0.9897 B( 21-C , 78-H ) :   1.0119 B( 22-C , 23-C ) :   1.1149
B( 23-C , 24-C ) :   1.6430 B( 23-C , 79-H ) :   0.9503 B( 24-C , 25-C ) :   1.0789
B( 24-C , 80-H ) :   0.9714 B( 25-C , 26-C ) :   1.4908 B( 25-C , 42-C ) :   1.1162
B( 26-C , 27-C ) :   1.1065 B( 26-C , 81-H ) :   1.0058 B( 27-C , 28-C ) :   1.4537
B( 27-C , 40-C ) :   1.1195 B( 28-C , 29-C ) :   1.0285 B( 28-C , 34-C ) :   1.1189
B( 29-C , 30-C ) :   1.0269 B( 29-C , 32-C ) :   1.0406 B( 29-C , 82-H ) :   0.8769
B( 30-C , 31-N ) :   1.1082 B( 30-C , 83-H ) :   0.9269 B( 30-C , 84-H ) :   0.9455
B( 31-N , 85-H ) :   0.9413 B( 31-N , 86-H ) :   0.9667 B( 32-C , 33-N ) :   1.0808
B( 32-C , 87-H ) :   0.9479 B( 32-C , 88-H ) :   0.9330 B( 33-N , 85-H ) :   0.1028
B( 33-N , 89-H ) :   0.9640 B( 33-N , 90-H ) :   0.9672 B( 34-C , 35-C ) :   1.6522
B( 34-C , 39-C ) :   1.0325 B( 35-C , 36-C ) :   0.9751 B( 35-C , 91-H ) :   0.9784
B( 36-C , 37-C ) :   0.9893 B( 36-C , 43-C ) :   0.9552 B( 36-C , 92-H ) :   0.8900
B( 37-C , 38-C ) :   1.6936 B( 37-C , 93-H ) :   0.9693 B( 38-C , 39-C ) :   1.1417
B( 38-C , 94-H ) :   0.9880 B( 39-C , 40-C ) :   1.4389 B( 40-C , 41-C ) :   1.1391
B( 41-C , 42-C ) :   1.6215 B( 41-C , 95-H ) :   0.9901 B( 42-C , 96-H ) :   0.9829
B( 43-C , 44-C ) :   1.7681 B( 43-C , 97-H ) :   0.9605 B( 44-C , 45-C ) :   1.0769
B( 44-C , 98-H ) :   0.9603 B( 45-C , 46-N ) :   1.6181 B( 45-C , 47-C ) :   0.1070
B( 45-C , 56-C ) :   1.0079 B( 46-N , 47-C ) :   1.3148 B( 47-C , 48-C ) :   1.0642
B( 47-C , 52-C ) :   1.4319 B( 48-C , 49-C ) :   0.9219 B( 48-C , 56-C ) :   1.5049
B( 49-C , 50-O ) :   2.1452 B( 49-C , 51-C ) :   0.9328 B( 50-O ,102-H ) :   0.1015
B( 51-C , 52-C ) :   1.0770 B( 51-C , 55-C ) :   1.5981 B( 52-C , 53-N ) :   1.3111
B( 53-N , 54-C ) :   1.6612 B( 54-C , 55-C ) :   1.0733 B( 54-C , 99-H ) :   0.9895
B( 55-C ,100-H ) :   1.0110 B( 56-C , 57-C ) :   1.1518 B( 57-C , 58-C ) :   1.5863
B( 57-C ,101-H ) :   0.9672 B( 58-C , 59-C ) :   1.2095 B( 58-C ,102-H ) :   0.9466
B( 59-C , 60-S ) :   1.1322 B( 59-C , 61-C ) :   0.1022 B( 59-C , 63-C ) :   1.2935
B( 60-S , 61-C ) :   1.2121 B( 61-C , 62-C ) :   1.4126 B( 61-C ,103-H ) :   0.9680
B( 62-C , 63-C ) :   1.1955 B( 62-C , 69-C ) :   1.1607 B( 63-C , 64-C ) :   1.2402
B( 64-C , 65-C ) :   1.4916 B( 64-C ,104-H ) :   0.9901 B( 65-C , 66-C ) :   1.0621
B( 65-C , 68-C ) :   1.1749 B( 66-C , 67-C ) :   1.9500 B( 66-C ,105-H ) :   0.9685
B( 67-C ,106-H ) :   0.9481 B( 67-C ,107-H ) :   0.9495 B( 68-C , 69-C ) :   1.5690
B( 68-C ,108-H ) :   0.9915 B( 69-C ,109-H ) :   0.9989

-----------------------------------------------------------------------------
         ABSORPTION SPECTRUM VIA TRANSITION ELECTRIC DIPOLE MOMENTS
-----------------------------------------------------------------------------
State   Energy  Wavelength   fosc         T2         TX        TY        TZ
        (cm-1)    (nm)                  (au**2)     (au)      (au)      (au)
-----------------------------------------------------------------------------
   0   12210.9    818.9   0.082759628   2.23125  -0.74747   1.27000   0.24421
   1   12532.8    797.9   0.195743677   5.14180  -2.20811   0.36402  -0.36543
   2   13704.7    729.7   0.129936490   3.12132   1.14826  -1.18065   0.63943
   3   14621.1    683.9   0.092481982   2.08235   0.02084  -1.26474  -0.69451
   4   18880.3    529.7   0.684416523  11.93403   2.09138   1.11507   2.51332
   5   19251.9    519.4   0.065391795   1.11821   0.40366   0.52810   0.82243
   6   20445.9    489.1   0.023091631   0.37181  -0.56637  -0.18591  -0.12838
   7   20960.1    477.1   0.411389188   6.46153   2.39395   0.71514   0.46807
   8   22290.1    448.6   0.000626296   0.00925   0.08943   0.03210  -0.01490
   9   22463.1    445.2   0.009454497   0.13856  -0.23957   0.26775  -0.09735
  10   22723.4    440.1   0.173964252   2.52036  -1.03507   1.18501   0.21153
  11   23007.8    434.6   0.002233879   0.03196  -0.13172   0.11668   0.03161
  12   23991.9    416.8   0.323109310   4.43363   1.09927  -1.53860  -0.92626
  13   24573.9    406.9   0.088282070   1.18270   0.86335  -0.65297  -0.10466
  14   24985.5    400.2   0.006470123   0.08525  -0.23344   0.16721   0.05289
  15   25035.2    399.4   0.631535387   8.30468  -2.27181   1.75659   0.24076
  16   25482.2    392.4   0.114107523   1.47419  -0.74967   0.92865   0.22314
  17   25644.8    389.9   0.283604442   3.64074   1.35814  -1.33990   0.02919
  18   25962.1    385.2   0.005020672   0.06366  -0.22144   0.05156  -0.10940
  19   26172.5    382.1   0.054461529   0.68505   0.59575  -0.34672   0.45815
  20   26405.7    378.7   0.008231142   0.10262   0.15715  -0.23003   0.15815
  21   26557.0    376.5   0.085468847   1.05951   0.75570   0.09075   0.69296
  22   27301.6    366.3   0.105061202   1.26686   0.72332  -0.75805   0.41113
  23   27936.8    358.0   0.107519305   1.26702  -0.48404   1.01544  -0.04019
  24   27952.4    357.8   0.056438365   0.66471  -0.21624   0.75410  -0.22199
  25   28053.9    356.5   0.023960598   0.28118   0.26399  -0.16836  -0.42795
  26   28121.9    355.6   0.022227960   0.26021  -0.13522   0.36672  -0.32779
  27   28163.3    355.1   0.100889935   1.17934  -0.18749  -0.71533  -0.79529
  28   28313.2    353.2   0.073981076   0.86022  -0.29914   0.58193  -0.65733
  29   28691.0    348.5   0.004348206   0.04989   0.08589  -0.13984  -0.15153
  30   28745.0    347.9   0.015438738   0.17682   0.03760  -0.33734  -0.24820
  31   29503.4    338.9   0.164301958   1.83336   0.53113  -1.13245   0.51847
  32   30944.7    323.2   0.165946770   1.76546   0.67325  -0.99854  -0.56134
  33   31059.6    322.0   0.000119380   0.00127  -0.02913   0.01386   0.01500
  34   31266.3    319.8   0.020884734   0.21990   0.07972  -0.39925  -0.23269
  35   31292.0    319.6   0.002316481   0.02437   0.04766  -0.08943   0.11875
  36   31794.4    314.5   0.019501395   0.20193  -0.36098   0.26227  -0.05320
  37   31823.6    314.2   0.003582473   0.03706  -0.11058  -0.14218   0.06794
  38   32337.6    309.2   0.194697428   1.98211   0.54037  -1.15673  -0.59337
  39   32483.5    307.8   0.225787962   2.28830  -0.72579   1.09449   0.75075
  40   32797.9    304.9   0.024903237   0.24997  -0.31919   0.35635   0.14527
  41   32968.1    303.3   0.017332030   0.17307  -0.04479  -0.20414  -0.35971
  42   33180.0    301.4   0.020310249   0.20152   0.05658   0.30366   0.32574
  43   33290.1    300.4   0.037299480   0.36886   0.13024  -0.37247   0.46170
  44   33424.8    299.2   0.000801645   0.00790   0.03972  -0.07948  -0.00074
  45   33819.7    295.7   0.108627911   1.05742   0.40358  -0.85070  -0.41335
  46   34444.9    290.3   0.048115097   0.45987  -0.05688   0.60238  -0.30621
  47   34632.8    288.7   0.024554606   0.23341   0.23711  -0.19543   0.37282
  48   34711.9    288.1   0.038898080   0.36891  -0.35754   0.24748  -0.42406
  49   34957.7    286.1   0.021924092   0.20647  -0.40827   0.09897  -0.17317
  50   35475.9    281.9   0.014076446   0.13063   0.10845   0.30806  -0.15481
  51   35627.8    280.7   0.033808302   0.31240  -0.52733  -0.18133  -0.03797
  52   35908.8    278.5   0.087115873   0.79868   0.87215  -0.17413   0.08783
  53   36141.2    276.7   0.106864169   0.97343   0.59415  -0.72224   0.31431
  54   36228.0    276.0   0.297421728   2.70274  -1.23680   0.72624  -0.80351
  55   36287.2    275.6   0.091058827   0.82612   0.25832   0.77608  -0.39635
  56   36454.0    274.3   0.172987618   1.56223   1.09873  -0.02900   0.59514
  57   36701.3    272.5   0.060080465   0.53892  -0.41753  -0.29337  -0.52775
  58   36815.1    271.6   0.141013301   1.26099   1.07461  -0.12119   0.30252
  59   37157.9    269.1   0.006974237   0.06179   0.22327  -0.07575   0.07875
  60   37250.6    268.5   0.006821032   0.06028   0.16621   0.03496   0.17730
  61   37508.9    266.6   0.005520163   0.04845  -0.20787   0.03298  -0.06444
  62   37795.3    264.6   0.000463667   0.00404   0.02291   0.01313   0.05781
  63   38231.3    261.6   0.276980399   2.38509  -0.69260   1.25508  -0.57460
  64   38389.1    260.5   0.032882347   0.28199  -0.29439   0.38257  -0.22127
  65   38667.3    258.6   0.025715582   0.21894  -0.29855  -0.36019   0.00851
  66   38821.7    257.6   0.032700039   0.27730  -0.52460  -0.00464   0.04557
  67   38951.5    256.7   0.002308363   0.01951   0.10609  -0.08244  -0.03818
  68   39051.4    256.1   0.020723491   0.17470   0.20805   0.33488  -0.13883
  69   39152.3    255.4   0.000287802   0.00242   0.01164  -0.01245   0.04615
  70   39279.2    254.6   0.000497563   0.00417  -0.05415  -0.03410   0.00865
  71   39377.3    254.0   0.003849726   0.03219  -0.13585  -0.09141   0.07332
  72   39575.4    252.7   0.086675695   0.72102   0.61948  -0.46729  -0.34482
  73   39993.3    250.0   0.087923618   0.72376   0.65664  -0.54081   0.01057
  74   40087.8    249.5   0.014112525   0.11590   0.10645   0.11314   0.30292
  75   40296.2    248.2   0.037738124   0.30831  -0.36870   0.41225  -0.04918

FINAL SINGLE POINT ENERGY     -3581.733992309898

DIPOLE MOMENT
-------------
                                X             Y             Z
Electronic contribution:     -4.79546      -5.76223      -4.73554
Nuclear contribution   :      2.63139       5.10437       3.21054
                        -----------------------------------------
Total Dipole Moment    :     -2.16407      -0.65786      -1.52500
                        -----------------------------------------
Magnitude (a.u.)       :      2.72793
Magnitude (Debye)      :      6.93384

Rotational constants in cm-1:     0.001333     0.000343     0.000295
Rotational constants in MHz :    39.948411    10.269817     8.854979

                             ****ORCA TERMINATED NORMALLY****
TOTAL RUN TIME: 0 days 0 hours 10 minutes 53 seconds 616 msec
