                         Program Version 4.2.0 -  RELEASE  -
|  1> # ORCA input file
|  2> # SCF done       -159.500753989140          0.000194955559
|  3> ! CAM-B3LYP def2-SVP def2/J RIJCOSX Grid4 TightSCF
|  4> %maxcore 5000
|  5> %tddft
|  6>     Mode sTDDFT
|  7>     Ethresh 5.0
|  8>     maxcore 5000
|  9> end
| 10>
| 11> %pal
| 12>   nprocs 6
| 13>   end
| 14> * xyz 0 1
| 15>    C       -2.60082        -1.25719        -2.88276
| 16>    S       -2.18179         0.33793        -3.41518
| 17>    C       -2.85348         1.11343        -2.00808
| 18>    C       -3.36835         0.13597        -1.14981
| 19>    C       -3.22078        -1.19964        -1.67220
| 20>    N       -3.73470        -2.07226        -0.75483
| 21>    C       -4.16865        -1.33433         0.32504
| 22>    N       -4.73088        -1.92586         1.44506
| 23>    O       -4.84663        -3.14685         1.45586
| 24>    O       -5.07894        -1.18078         2.36280
| 25>    C       -3.95624         0.01554         0.11735
| 26>    C       -2.84131         2.51407        -1.80777
| 27>    C       -3.64533         3.10272        -0.85443
| 28>    C       -3.64594         4.44899        -0.51844
| 29>    C       -2.85866         5.41448        -1.29955
| 30>    C       -2.03311         5.07359        -2.31142
| 31>    S       -1.74327         3.45450        -2.81790
| 32>    C       -3.21222         6.69002        -0.77904
| 33>    C       -4.14231         6.53802         0.25045
| 34>    C       -4.52074         7.77784         0.81241
| 35>    C       -3.88624         8.81505         0.20750
| 36>    S       -2.80547         8.33605        -1.05991
| 37>    C       -4.41054         5.13796         0.44881
| 38>    C       -5.28178         4.63501         1.44423
| 39>    C       -5.29016         3.36754         1.94573
| 40>    C       -6.22462         2.85057         2.87208
| 41>    N       -6.14757         1.54638         3.32227
| 42>    C       -7.18272         1.32349         4.16762
| 43>    C       -7.77935         0.36134         4.97196
| 44>    C       -8.89753         0.97674         5.55005
| 45>    N       -8.97690         2.28686         5.10937
| 46>    C       -7.93577         2.52507         4.26868
| 47>    C       -7.33668         3.48001         3.46159
| 48>    C       -9.87660         0.44780         6.42460
| 49>    C       -9.81004        -0.77910         7.00326
| 50>    C      -10.79826        -1.36240         7.84633
| 51>    C      -12.08276        -0.89810         8.00776
| 52>    C      -13.05106        -1.48214         8.82210
| 53>    C      -12.75478        -2.67696         9.61957
| 54>    C      -11.56649        -3.31902         9.61163
| 55>    S      -10.22554        -2.81214         8.67149
| 56>    C      -13.95922        -2.97117        10.31246
| 57>    C      -14.94970        -2.04870         9.96775
| 58>    C      -16.15785        -2.30898        10.65496
| 59>    C      -16.05586        -3.39141        11.46969
| 60>    S      -14.49904        -4.14426        11.44709
| 61>    C      -14.39627        -1.11086         9.02146
| 62>    C      -15.03520        -0.03541         8.36494
| 63>    C      -16.35492         0.27862         8.40533
| 64>    C      -16.93265         1.35689         7.69260
| 65>    S      -16.00193         2.47184         6.70689
| 66>    C      -17.37142         3.38651         6.22121
| 67>    C      -18.51921         2.87686         6.78041
| 68>    C      -18.26011         1.73168         7.61102
| 69>    N      -19.44937         1.29761         8.11400
| 70>    C      -20.43613         2.12439         7.62961
| 71>    N      -21.76938         1.88955         7.99836
| 72>    O      -21.97068         0.94143         8.74494
| 73>    O      -22.62907         2.62971         7.56142
| 74>    C      -19.91789         3.10393         6.81223
| 75>    H       -2.35509        -2.09947        -3.49469
| 76>    H       -3.78842        -3.07575        -0.80237
| 77>    H       -4.19219         0.77237         0.83429
| 78>    H       -4.36535         2.46020        -0.37857
| 79>    H       -1.47673         5.80321        -2.87833
| 80>    H       -5.22137         7.90059         1.61836
| 81>    H       -3.97951         9.86102         0.42564
| 82>    H       -5.98149         5.35179         1.85267
| 83>    H       -4.50288         2.68909         1.65156
| 84>    H       -5.50683         0.83184         3.00882
| 85>    H       -7.47078        -0.65364         5.11231
| 86>    H       -9.68437         2.94157         5.39444
| 87>    H       -7.63866         4.49512         3.30138
| 88>    H      -10.71833         1.09505         6.63490
| 89>    H       -8.92450        -1.37674         6.83989
| 90>    H      -12.35974        -0.02339         7.43727
| 91>    H      -11.38065        -4.20700        10.19499
| 92>    H      -17.06258        -1.73478        10.57609
| 93>    H      -16.81492        -3.80868        12.10229
| 94>    H      -14.40339         0.58627         7.74213
| 95>    H      -17.04390        -0.31706         8.98424
| 96>    H      -17.24679         4.22347         5.56646
| 97>    H      -19.63532         0.51870         8.72432
| 98>    H      -20.47695         3.86830         6.31345
| 99> *
|100>
|101>                          ****END OF INPUT****

CARTESIAN COORDINATES (ANGSTROEM)
---------------------------------
  C     -2.600820   -1.257190   -2.882760
  S     -2.181790    0.337930   -3.415180
  C     -2.853480    1.113430   -2.008080
  C     -3.368350    0.135970   -1.149810
  C     -3.220780   -1.199640   -1.672200
  N     -3.734700   -2.072260   -0.754830
  C     -4.168650   -1.334330    0.325040
  N     -4.730880   -1.925860    1.445060
  O     -4.846630   -3.146850    1.455860
  O     -5.078940   -1.180780    2.362800
  C     -3.956240    0.015540    0.117350
  C     -2.841310    2.514070   -1.807770
  C     -3.645330    3.102720   -0.854430
  C     -3.645940    4.448990   -0.518440
  C     -2.858660    5.414480   -1.299550
  C     -2.033110    5.073590   -2.311420
  S     -1.743270    3.454500   -2.817900
  C     -3.212220    6.690020   -0.779040
  C     -4.142310    6.538020    0.250450
  C     -4.520740    7.777840    0.812410
  C     -3.886240    8.815050    0.207500
  S     -2.805470    8.336050   -1.059910
  C     -4.410540    5.137960    0.448810
  C     -5.281780    4.635010    1.444230
  C     -5.290160    3.367540    1.945730
  C     -6.224620    2.850570    2.872080
  N     -6.147570    1.546380    3.322270
  C     -7.182720    1.323490    4.167620
  C     -7.779350    0.361340    4.971960
  C     -8.897530    0.976740    5.550050
  N     -8.976900    2.286860    5.109370
  C     -7.935770    2.525070    4.268680
  C     -7.336680    3.480010    3.461590
  C     -9.876600    0.447800    6.424600
  C     -9.810040   -0.779100    7.003260
  C    -10.798260   -1.362400    7.846330
  C    -12.082760   -0.898100    8.007760
  C    -13.051060   -1.482140    8.822100
  C    -12.754780   -2.676960    9.619570
  C    -11.566490   -3.319020    9.611630
  S    -10.225540   -2.812140    8.671490
  C    -13.959220   -2.971170   10.312460
  C    -14.949700   -2.048700    9.967750
  C    -16.157850   -2.308980   10.654960
  C    -16.055860   -3.391410   11.469690
  S    -14.499040   -4.144260   11.447090
  C    -14.396270   -1.110860    9.021460
  C    -15.035200   -0.035410    8.364940
  C    -16.354920    0.278620    8.405330
  C    -16.932650    1.356890    7.692600
  S    -16.001930    2.471840    6.706890
  C    -17.371420    3.386510    6.221210
  C    -18.519210    2.876860    6.780410
  C    -18.260110    1.731680    7.611020
  N    -19.449370    1.297610    8.114000
  C    -20.436130    2.124390    7.629610
  N    -21.769380    1.889550    7.998360
  O    -21.970680    0.941430    8.744940
  O    -22.629070    2.629710    7.561420
  C    -19.917890    3.103930    6.812230
  H     -2.355090   -2.099470   -3.494690
  H     -3.788420   -3.075750   -0.802370
  H     -4.192190    0.772370    0.834290
  H     -4.365350    2.460200   -0.378570
  H     -1.476730    5.803210   -2.878330
  H     -5.221370    7.900590    1.618360
  H     -3.979510    9.861020    0.425640
  H     -5.981490    5.351790    1.852670
  H     -4.502880    2.689090    1.651560
  H     -5.506830    0.831840    3.008820
  H     -7.470780   -0.653640    5.112310
  H     -9.684370    2.941570    5.394440
  H     -7.638660    4.495120    3.301380
  H    -10.718330    1.095050    6.634900
  H     -8.924500   -1.376740    6.839890
  H    -12.359740   -0.023390    7.437270
  H    -11.380650   -4.207000   10.194990
  H    -17.062580   -1.734780   10.576090
  H    -16.814920   -3.808680   12.102290
  H    -14.403390    0.586270    7.742130
  H    -17.043900   -0.317060    8.984240
  H    -17.246790    4.223470    5.566460
  H    -19.635320    0.518700    8.724320
  H    -20.476950    3.868300    6.313450

 Total Charge           Charge          ....    0
 Multiplicity           Mult            ....    1
 Number of Electrons    NEL             ....  458
 Basis Dimension        Dim             ....  984

ORBITAL ENERGIES
----------------

  NO   OCC          E(Eh)            E(eV)
   0   2.0000     -88.974542     -2421.1204
   1   2.0000     -88.969072     -2420.9715
   2   2.0000     -88.959203     -2420.7030
   3   2.0000     -88.956136     -2420.6195
   4   2.0000     -88.953968     -2420.5605
   5   2.0000     -88.945963     -2420.3427
   6   2.0000     -19.253362      -523.9106
   7   2.0000     -19.250502      -523.8328
   8   2.0000     -19.236032      -523.4390
   9   2.0000     -19.235622      -523.4279
  10   2.0000     -14.660685      -398.9375
  11   2.0000     -14.645468      -398.5235
  12   2.0000     -14.478710      -393.9857
  13   2.0000     -14.462501      -393.5446
  14   2.0000     -14.448115      -393.1532
  15   2.0000     -14.441243      -392.9662
  16   2.0000     -10.364813      -282.0409
  17   2.0000     -10.350018      -281.6383
  18   2.0000     -10.329997      -281.0935
  19   2.0000     -10.324318      -280.9390
  20   2.0000     -10.322380      -280.8863
  21   2.0000     -10.320195      -280.8268
  22   2.0000     -10.313596      -280.6472
  23   2.0000     -10.308619      -280.5118
  24   2.0000     -10.307637      -280.4851
  25   2.0000     -10.304380      -280.3964
  26   2.0000     -10.300963      -280.3035
  27   2.0000     -10.295760      -280.1619
  28   2.0000     -10.295355      -280.1508
  29   2.0000     -10.294239      -280.1205
  30   2.0000     -10.293858      -280.1101
  31   2.0000     -10.293552      -280.1018
  32   2.0000     -10.293134      -280.0904
  33   2.0000     -10.292283      -280.0673
  34   2.0000     -10.291705      -280.0515
  35   2.0000     -10.286233      -279.9026
  36   2.0000     -10.285459      -279.8816
  37   2.0000     -10.284275      -279.8494
  38   2.0000     -10.283963      -279.8409
  39   2.0000     -10.282850      -279.8106
  40   2.0000     -10.279869      -279.7295
  41   2.0000     -10.279300      -279.7140
  42   2.0000     -10.277955      -279.6774
  43   2.0000     -10.277533      -279.6659
  44   2.0000     -10.276512      -279.6381
  45   2.0000     -10.274469      -279.5825
  46   2.0000     -10.274361      -279.5796
  47   2.0000     -10.273398      -279.5534
  48   2.0000     -10.272807      -279.5373
  49   2.0000     -10.272255      -279.5223
  50   2.0000     -10.271601      -279.5045
  51   2.0000     -10.269110      -279.4367
  52   2.0000     -10.268142      -279.4104
  53   2.0000     -10.268112      -279.4095
  54   2.0000     -10.265850      -279.3480
  55   2.0000     -10.265561      -279.3401
  56   2.0000     -10.263137      -279.2741
  57   2.0000     -10.259354      -279.1712
  58   2.0000     -10.253195      -279.0036
  59   2.0000     -10.252335      -278.9802
  60   2.0000      -8.069212      -219.5744
  61   2.0000      -8.064463      -219.4452
  62   2.0000      -8.054894      -219.1848
  63   2.0000      -8.050823      -219.0740
  64   2.0000      -8.049336      -219.0336
  65   2.0000      -8.041498      -218.8203
  66   2.0000      -6.038591      -164.3184
  67   2.0000      -6.034169      -164.1981
  68   2.0000      -6.034144      -164.1974
  69   2.0000      -6.031644      -164.1294
  70   2.0000      -6.029675      -164.0758
  71   2.0000      -6.026067      -163.9776
  72   2.0000      -6.024398      -163.9322
  73   2.0000      -6.020040      -163.8136
  74   2.0000      -6.019960      -163.8115
  75   2.0000      -6.018757      -163.7787
  76   2.0000      -6.016754      -163.7242
  77   2.0000      -6.015852      -163.6997
  78   2.0000      -6.014564      -163.6646
  79   2.0000      -6.013399      -163.6329
  80   2.0000      -6.011374      -163.5778
  81   2.0000      -6.010912      -163.5652
  82   2.0000      -6.006713      -163.4510
  83   2.0000      -6.003521      -163.3641
  84   2.0000      -1.324297       -36.0359
  85   2.0000      -1.315155       -35.7872
  86   2.0000      -1.143812       -31.1247
  87   2.0000      -1.134458       -30.8702
  88   2.0000      -1.102838       -30.0097
  89   2.0000      -1.087491       -29.5921
  90   2.0000      -1.077367       -29.3166
  91   2.0000      -1.040683       -28.3184
  92   2.0000      -1.002964       -27.2920
  93   2.0000      -0.992575       -27.0094
  94   2.0000      -0.990907       -26.9640
  95   2.0000      -0.969102       -26.3706
  96   2.0000      -0.960793       -26.1445
  97   2.0000      -0.959051       -26.0971
  98   2.0000      -0.924696       -25.1623
  99   2.0000      -0.919487       -25.0205
 100   2.0000      -0.917640       -24.9702
 101   2.0000      -0.903062       -24.5736
 102   2.0000      -0.897753       -24.4291
 103   2.0000      -0.893333       -24.3088
 104   2.0000      -0.888288       -24.1715
 105   2.0000      -0.882362       -24.0103
 106   2.0000      -0.877930       -23.8897
 107   2.0000      -0.865787       -23.5593
 108   2.0000      -0.856507       -23.3067
 109   2.0000      -0.851897       -23.1813
 110   2.0000      -0.844301       -22.9746
 111   2.0000      -0.834963       -22.7205
 112   2.0000      -0.829376       -22.5685
 113   2.0000      -0.827939       -22.5294
 114   2.0000      -0.804971       -21.9044
 115   2.0000      -0.802141       -21.8274
 116   2.0000      -0.795065       -21.6348
 117   2.0000      -0.789407       -21.4809
 118   2.0000      -0.779645       -21.2152
 119   2.0000      -0.770362       -20.9626
 120   2.0000      -0.759524       -20.6677
 121   2.0000      -0.747737       -20.3470
 122   2.0000      -0.735956       -20.0264
 123   2.0000      -0.718213       -19.5436
 124   2.0000      -0.717144       -19.5145
 125   2.0000      -0.711781       -19.3685
 126   2.0000      -0.701707       -19.0944
 127   2.0000      -0.688539       -18.7361
 128   2.0000      -0.684484       -18.6258
 129   2.0000      -0.679232       -18.4828
 130   2.0000      -0.675760       -18.3884
 131   2.0000      -0.664364       -18.0783
 132   2.0000      -0.660507       -17.9733
 133   2.0000      -0.657257       -17.8849
 134   2.0000      -0.654661       -17.8142
 135   2.0000      -0.650438       -17.6993
 136   2.0000      -0.644677       -17.5426
 137   2.0000      -0.640603       -17.4317
 138   2.0000      -0.636878       -17.3303
 139   2.0000      -0.634268       -17.2593
 140   2.0000      -0.632930       -17.2229
 141   2.0000      -0.627841       -17.0844
 142   2.0000      -0.627507       -17.0753
 143   2.0000      -0.613529       -16.6950
 144   2.0000      -0.611735       -16.6462
 145   2.0000      -0.607137       -16.5210
 146   2.0000      -0.602964       -16.4075
 147   2.0000      -0.600755       -16.3474
 148   2.0000      -0.595657       -16.2087
 149   2.0000      -0.587886       -15.9972
 150   2.0000      -0.583640       -15.8817
 151   2.0000      -0.579579       -15.7711
 152   2.0000      -0.574604       -15.6358
 153   2.0000      -0.565245       -15.3811
 154   2.0000      -0.562536       -15.3074
 155   2.0000      -0.556022       -15.1301
 156   2.0000      -0.551158       -14.9978
 157   2.0000      -0.545902       -14.8547
 158   2.0000      -0.543146       -14.7798
 159   2.0000      -0.539476       -14.6799
 160   2.0000      -0.538301       -14.6479
 161   2.0000      -0.532851       -14.4996
 162   2.0000      -0.531249       -14.4560
 163   2.0000      -0.525608       -14.3025
 164   2.0000      -0.523293       -14.2395
 165   2.0000      -0.521773       -14.1982
 166   2.0000      -0.519324       -14.1315
 167   2.0000      -0.517336       -14.0774
 168   2.0000      -0.512048       -13.9335
 169   2.0000      -0.507084       -13.7985
 170   2.0000      -0.505498       -13.7553
 171   2.0000      -0.503242       -13.6939
 172   2.0000      -0.498137       -13.5550
 173   2.0000      -0.497639       -13.5414
 174   2.0000      -0.496120       -13.5001
 175   2.0000      -0.493796       -13.4369
 176   2.0000      -0.487732       -13.2718
 177   2.0000      -0.482260       -13.1230
 178   2.0000      -0.477242       -12.9864
 179   2.0000      -0.469440       -12.7741
 180   2.0000      -0.465605       -12.6698
 181   2.0000      -0.461685       -12.5631
 182   2.0000      -0.457838       -12.4584
 183   2.0000      -0.454366       -12.3639
 184   2.0000      -0.451797       -12.2940
 185   2.0000      -0.451209       -12.2780
 186   2.0000      -0.444791       -12.1034
 187   2.0000      -0.443854       -12.0779
 188   2.0000      -0.440089       -11.9754
 189   2.0000      -0.439909       -11.9705
 190   2.0000      -0.437214       -11.8972
 191   2.0000      -0.435811       -11.8590
 192   2.0000      -0.433501       -11.7962
 193   2.0000      -0.428203       -11.6520
 194   2.0000      -0.422486       -11.4964
 195   2.0000      -0.420771       -11.4498
 196   2.0000      -0.418746       -11.3946
 197   2.0000      -0.414078       -11.2676
 198   2.0000      -0.409095       -11.1320
 199   2.0000      -0.407920       -11.1001
 200   2.0000      -0.405560       -11.0359
 201   2.0000      -0.402410       -10.9501
 202   2.0000      -0.400657       -10.9024
 203   2.0000      -0.399363       -10.8672
 204   2.0000      -0.398328       -10.8390
 205   2.0000      -0.395595       -10.7647
 206   2.0000      -0.390534       -10.6270
 207   2.0000      -0.382982       -10.4215
 208   2.0000      -0.382015       -10.3952
 209   2.0000      -0.379625       -10.3301
 210   2.0000      -0.373621       -10.1667
 211   2.0000      -0.369601       -10.0574
 212   2.0000      -0.365864        -9.9557
 213   2.0000      -0.365424        -9.9437
 214   2.0000      -0.355258        -9.6671
 215   2.0000      -0.341981        -9.3058
 216   2.0000      -0.332892        -9.0584
 217   2.0000      -0.319407        -8.6915
 218   2.0000      -0.318077        -8.6553
 219   2.0000      -0.310359        -8.4453
 220   2.0000      -0.301003        -8.1907
 221   2.0000      -0.293710        -7.9923
 222   2.0000      -0.279992        -7.6190
 223   2.0000      -0.275199        -7.4886
 224   2.0000      -0.272846        -7.4245
 225   2.0000      -0.263156        -7.1608
 226   2.0000      -0.241520        -6.5721
 227   2.0000      -0.213593        -5.8122
 228   2.0000      -0.191511        -5.2113
 229   0.0000      -0.085967        -2.3393
 230   0.0000      -0.059831        -1.6281
 231   0.0000      -0.050751        -1.3810
 232   0.0000      -0.038072        -1.0360
 233   0.0000      -0.022224        -0.6047

MULLIKEN ATOMIC CHARGES
-----------------------
   0 C :   -0.227256
   1 S :    0.149922
   2 C :   -0.098731
   3 C :    0.084587
   4 C :    0.196463
   5 N :   -0.052545
   6 C :    0.110711
   7 N :    0.317146
   8 O :   -0.264211
   9 O :   -0.285039
  10 C :   -0.042692
  11 C :   -0.064423
  12 C :   -0.081529
  13 C :    0.038132
  14 C :    0.072289
  15 C :   -0.135905
  16 S :    0.119957
  17 C :   -0.109760
  18 C :    0.049616
  19 C :    0.010673
  20 C :   -0.071957
  21 S :    0.124908
  22 C :    0.100182
  23 C :   -0.047233
  24 C :   -0.015662
  25 C :    0.111850
  26 N :   -0.038402
  27 C :    0.104605
  28 C :   -0.167805
  29 C :    0.101404
  30 N :   -0.042217
  31 C :    0.126812
  32 C :   -0.189767
  33 C :    0.019090
  34 C :    0.017195
  35 C :   -0.068436
  36 C :   -0.048451
  37 C :    0.056206
  38 C :    0.062216
  39 C :   -0.133011
  40 S :    0.125559
  41 C :   -0.120266
  42 C :    0.055861
  43 C :   -0.007901
  44 C :   -0.069330
  45 S :    0.119793
  46 C :    0.092806
  47 C :   -0.038440
  48 C :   -0.013725
  49 C :   -0.157727
  50 S :    0.110341
  51 C :   -0.140146
  52 C :    0.119138
  53 C :    0.117176
  54 N :   -0.048285
  55 C :    0.137946
  56 N :    0.288973
  57 O :   -0.275234
  58 O :   -0.242913
  59 C :   -0.075354
  60 H :    0.012787
  61 H :    0.139383
  62 H :   -0.069419
  63 H :   -0.019742
  64 H :    0.033173
  65 H :   -0.017680
  66 H :    0.025668
  67 H :   -0.028116
  68 H :   -0.027875
  69 H :    0.125578
  70 H :   -0.027557
  71 H :    0.117506
  72 H :   -0.041416
  73 H :   -0.029416
  74 H :   -0.013857
  75 H :   -0.033377
  76 H :    0.029732
  77 H :   -0.021537
  78 H :    0.021560
  79 H :   -0.037322
  80 H :   -0.054176
  81 H :    0.019585
  82 H :    0.137071
  83 H :   -0.007760
Sum of atomic charges:   -0.0000000

LOEWDIN ATOMIC CHARGES
----------------------
   0 C :   -0.243697
   1 S :    0.462488
   2 C :   -0.184938
   3 C :   -0.073856
   4 C :   -0.000444
   5 N :    0.055452
   6 C :   -0.010019
   7 N :    0.290720
   8 O :   -0.220450
   9 O :   -0.236743
  10 C :   -0.025833
  11 C :   -0.195897
  12 C :   -0.013727
  13 C :   -0.037030
  14 C :   -0.047808
  15 C :   -0.143239
  16 S :    0.422884
  17 C :   -0.199834
  18 C :   -0.041287
  19 C :   -0.062787
  20 C :   -0.166678
  21 S :    0.419545
  22 C :   -0.035928
  23 C :   -0.031369
  24 C :   -0.037342
  25 C :   -0.001960
  26 N :    0.071966
  27 C :   -0.015064
  28 C :   -0.084577
  29 C :   -0.006977
  30 N :    0.064254
  31 C :   -0.018950
  32 C :   -0.098725
  33 C :   -0.022045
  34 C :   -0.061694
  35 C :   -0.160830
  36 C :   -0.032379
  37 C :   -0.017306
  38 C :   -0.051621
  39 C :   -0.146953
  40 S :    0.443019
  41 C :   -0.203672
  42 C :   -0.036982
  43 C :   -0.070006
  44 C :   -0.169800
  45 S :    0.416756
  46 C :   -0.062528
  47 C :   -0.024738
  48 C :   -0.066266
  49 C :   -0.204489
  50 S :    0.453189
  51 C :   -0.199708
  52 C :   -0.073682
  53 C :   -0.011439
  54 N :    0.056482
  55 C :   -0.005491
  56 N :    0.281237
  57 O :   -0.231313
  58 O :   -0.204214
  59 C :   -0.029418
  60 H :    0.024413
  61 H :    0.094941
  62 H :    0.027619
  63 H :    0.036993
  64 H :    0.034873
  65 H :    0.030124
  66 H :    0.022771
  67 H :    0.026725
  68 H :    0.021996
  69 H :    0.075578
  70 H :    0.026404
  71 H :    0.086338
  72 H :    0.020193
  73 H :    0.024897
  74 H :    0.025292
  75 H :    0.030913
  76 H :    0.033654
  77 H :    0.024526
  78 H :    0.021858
  79 H :    0.016192
  80 H :    0.023813
  81 H :    0.023873
  82 H :    0.090593
  83 H :    0.039161

  Mayer bond orders larger than 0.100000
B(  0-C ,  1-S ) :   1.1131 B(  0-C ,  2-C ) :   0.1104 B(  0-C ,  4-C ) :   1.4553
B(  0-C , 60-H ) :   0.9920 B(  1-S ,  2-C ) :   1.1732 B(  2-C ,  3-C ) :   1.3631
B(  2-C , 11-C ) :   1.1682 B(  3-C ,  4-C ) :   1.2106 B(  3-C , 10-C ) :   1.1766
B(  4-C ,  5-N ) :   1.1383 B(  5-N ,  6-C ) :   1.1656 B(  5-N , 61-H ) :   0.9196
B(  6-C ,  7-N ) :   0.9753 B(  6-C , 10-C ) :   1.4860 B(  7-N ,  8-O ) :   1.4662
B(  7-N ,  9-O ) :   1.4506 B(  8-O ,  9-O ) :   0.2512 B( 10-C , 62-H ) :   1.0052
B( 11-C , 12-C ) :   1.5224 B( 11-C , 16-S ) :   1.0279 B( 12-C , 13-C ) :   1.2439
B( 12-C , 63-H ) :   0.9672 B( 13-C , 14-C ) :   1.0474 B( 13-C , 22-C ) :   1.3693
B( 14-C , 15-C ) :   1.6272 B( 14-C , 17-C ) :   1.1727 B( 15-C , 16-S ) :   1.1205
B( 15-C , 64-H ) :   0.9407 B( 17-C , 18-C ) :   1.4408 B( 17-C , 21-S ) :   1.0772
B( 18-C , 19-C ) :   1.2188 B( 18-C , 22-C ) :   1.1008 B( 19-C , 20-C ) :   1.5835
B( 19-C , 65-H ) :   0.9990 B( 20-C , 21-S ) :   1.1518 B( 20-C , 66-H ) :   0.9672
B( 22-C , 23-C ) :   1.1619 B( 23-C , 24-C ) :   1.6175 B( 23-C , 67-H ) :   0.9636
B( 24-C , 25-C ) :   1.1283 B( 24-C , 68-H ) :   0.9601 B( 25-C , 26-N ) :   1.1742
B( 25-C , 32-C ) :   1.3788 B( 26-N , 27-C ) :   1.1897 B( 26-N , 69-H ) :   0.9118
B( 27-C , 28-C ) :   1.2750 B( 27-C , 31-C ) :   1.2939 B( 28-C , 29-C ) :   1.3882
B( 28-C , 70-H ) :   1.0325 B( 29-C , 30-N ) :   1.1573 B( 29-C , 33-C ) :   1.1325
B( 30-N , 31-C ) :   1.1639 B( 30-N , 71-H ) :   0.9378 B( 31-C , 32-C ) :   1.2697
B( 32-C , 72-H ) :   1.0302 B( 33-C , 34-C ) :   1.6815 B( 33-C , 73-H ) :   0.9545
B( 34-C , 35-C ) :   1.1034 B( 34-C , 74-H ) :   0.9629 B( 35-C , 36-C ) :   1.5377
B( 35-C , 40-S ) :   1.0526 B( 36-C , 37-C ) :   1.2441 B( 36-C , 75-H ) :   0.9638
B( 37-C , 38-C ) :   1.0452 B( 37-C , 46-C ) :   1.3745 B( 38-C , 39-C ) :   1.6124
B( 38-C , 41-C ) :   1.1823 B( 39-C , 40-S ) :   1.1334 B( 39-C , 76-H ) :   0.9413
B( 41-C , 42-C ) :   1.4523 B( 41-C , 45-S ) :   1.0722 B( 42-C , 43-C ) :   1.2102
B( 42-C , 46-C ) :   1.0802 B( 43-C , 44-C ) :   1.5850 B( 43-C , 77-H ) :   0.9978
B( 44-C , 45-S ) :   1.1562 B( 44-C , 78-H ) :   0.9650 B( 46-C , 47-C ) :   1.1743
B( 47-C , 48-C ) :   1.6120 B( 47-C , 79-H ) :   0.9612 B( 48-C , 49-C ) :   1.1631
B( 48-C , 80-H ) :   0.9797 B( 49-C , 50-S ) :   1.1093 B( 49-C , 51-C ) :   0.1176
B( 49-C , 53-C ) :   1.4040 B( 50-S , 51-C ) :   1.1830 B( 51-C , 52-C ) :   1.4111
B( 51-C , 81-H ) :   0.9747 B( 52-C , 53-C ) :   1.2208 B( 52-C , 59-C ) :   1.1067
B( 53-C , 54-N ) :   1.1660 B( 54-N , 55-C ) :   1.1618 B( 54-N , 82-H ) :   0.9139
B( 55-C , 56-N ) :   0.9308 B( 55-C , 59-C ) :   1.5343 B( 56-N , 57-O ) :   1.4711
B( 56-N , 58-O ) :   1.5413 B( 57-O , 58-O ) :   0.2669 B( 59-C , 83-H ) :   1.0252

-----------------------------------------------------------------------------
         ABSORPTION SPECTRUM VIA TRANSITION ELECTRIC DIPOLE MOMENTS
-----------------------------------------------------------------------------
State   Energy  Wavelength   fosc         T2         TX        TY        TZ
        (cm-1)    (nm)                  (au**2)     (au)      (au)      (au)
-----------------------------------------------------------------------------
   0    8774.4   1139.7   0.244297490   9.16590  -2.07259   1.01600   1.95908
   1   15131.5    660.9   1.039847210  22.62367  -4.18068  -0.45434   2.22242
   2   16382.8    610.4   0.108612675   2.18257  -0.42433  -1.36003  -0.39094
   3   17274.9    578.9   0.482211629   9.18963  -1.41579  -1.47577   2.23770
   4   18932.8    528.2   0.190964285   3.32057  -1.23835  -1.15285   0.67675
   5   19899.1    502.5   0.065738904   1.08759  -0.73105   0.73868  -0.08662
   6   20424.0    489.6   0.463732830   7.47485   1.26063   1.99039  -1.38709
   7   21902.1    456.6   0.085115443   1.27938  -0.51060   0.77069  -0.65169
   8   22284.0    448.8   0.119702478   1.76842  -0.45227   0.55257  -1.12185
   9   24134.8    414.3   0.026899032   0.36692   0.22514  -0.51969  -0.21484
  10   24391.0    410.0   0.016473887   0.22235  -0.27988  -0.17516   0.33666
  11   25541.0    391.5   0.227883776   2.93732  -0.01609   1.54520  -0.74122
  12   25878.4    386.4   0.111801963   1.42229   0.24106  -1.14550   0.22806
  13   27337.0    365.8   0.222494719   2.67944   1.09917  -1.13067   0.43917
  14   27676.7    361.3   0.307061772   3.65247   1.29473   1.05779  -0.92587
  15   28272.8    353.7   0.019937611   0.23216  -0.32090  -0.11746   0.33968
  16   28921.0    345.8   0.104551966   1.19013   0.23122  -0.95277   0.47843
  17   29512.2    338.8   0.368714483   4.11305   1.01418  -1.49832   0.91626
  18   30198.0    331.1   0.158502900   1.72797  -0.57183   1.05478  -0.53704
  19   30536.3    327.5   0.057510046   0.62002   0.03715   0.46478  -0.63452
  20   31116.7    321.4   0.192942310   2.04131  -0.81530  -0.97347   0.65494
  21   31957.9    312.9   0.070793101   0.72927  -0.43105   0.72790  -0.11674
  22   32070.2    311.8   0.034993225   0.35922   0.16506   0.50424  -0.27877
  23   32330.0    309.3   0.059720168   0.60812  -0.70473  -0.32982   0.05190
  24   32517.1    307.5   0.006304210   0.06383   0.24068   0.04950  -0.05870
  25   32913.4    303.8   0.002861074   0.02862   0.11781   0.09686  -0.07318
  26   32953.4    303.5   0.565686469   5.65134   0.91296   1.20503  -1.83460
  27   33315.1    300.2   0.043996021   0.43476   0.14436   0.55172   0.33094
  28   33646.1    297.2   0.043874719   0.42929   0.35565   0.23741  -0.49643
  29   34588.4    289.1   0.113080387   1.07630   1.02047  -0.16300   0.09151
  30   35173.2    284.3   0.432325742   4.04646   1.87529  -0.14830  -0.71258
  31   35406.6    282.4   0.068432480   0.63629  -0.25323  -0.68912  -0.31188
  32   35573.0    281.1   0.182948854   1.69311   0.34573  -0.98073  -0.78214
  33   35860.3    278.9   0.027817397   0.25537  -0.10771   0.31796   0.37772
  34   35989.5    277.9   0.050660105   0.46341   0.28171   0.44935   0.42677
  35   36046.7    277.4   0.017294283   0.15795  -0.36840  -0.10237   0.10838
  36   36317.6    275.3   0.067116040   0.60839   0.61889  -0.39479  -0.26365
  37   36362.0    275.0   0.022134699   0.20040  -0.10338   0.36249   0.24148
  38   36489.4    274.1   0.192828082   1.73972   0.95264  -0.85177  -0.32664
  39   37859.5    264.1   0.202613598   1.76185  -0.31723   1.15311   0.57581
  40   38089.2    262.5   0.084570105   0.73095  -0.43234   0.27945   0.68260
  41   38250.2    261.4   0.017458539   0.15026  -0.02280  -0.36145   0.13818
  42   38673.7    258.6   0.054623667   0.46499  -0.07063  -0.67733  -0.03489
  43   38835.1    257.5   0.108007690   0.91560  -0.31636   0.66711   0.60868
  44   39185.9    255.2   0.031510136   0.26473  -0.45093  -0.17381   0.17657
  45   39346.8    254.2   0.223663112   1.87138   0.96944   0.48237  -0.83599
  46   39577.5    252.7   0.099272121   0.82576  -0.40700  -0.72480   0.36713
  47   40116.2    249.3   0.072222844   0.59269   0.63562  -0.07847  -0.42722

FINAL SINGLE POINT ENERGY     -4705.769458344342

DIPOLE MOMENT
-------------
                                X             Y             Z
Electronic contribution:      8.52561      -5.73657     -11.10033
Nuclear contribution   :     -5.26265       6.08297       9.16151
                        -----------------------------------------
Total Dipole Moment    :      3.26296       0.34640      -1.93882
                        -----------------------------------------
Magnitude (a.u.)       :      3.81129
Magnitude (Debye)      :      9.68753

Rotational constants in cm-1:     0.001513     0.000308     0.000274
Rotational constants in MHz :    45.363210     9.221535     8.205605

                             ****ORCA TERMINATED NORMALLY****
TOTAL RUN TIME: 0 days 0 hours 7 minutes 6 seconds 945 msec
