                         Program Version 4.2.0 -  RELEASE  -
|  1> # ORCA input file
|  2> # SCF done       -187.368942812597          0.000693738897
|  3> ! CAM-B3LYP def2-SVP def2/J RIJCOSX Grid4 TightSCF
|  4> %maxcore 5000
|  5> %tddft
|  6>     Mode sTDDFT
|  7>     Ethresh 5.0
|  8>     maxcore 5000
|  9> end
| 10>
| 11> %pal
| 12>   nprocs 6
| 13>   end
| 14> * xyz 0 1
| 15>    C        0.75124         7.77042         5.66045
| 16>    S        1.08103         6.91319         4.20917
| 17>    C       -0.53752         7.08468         3.58636
| 18>    C       -1.30003         7.80139         4.51482
| 19>    C       -0.55237         8.18245         5.67971
| 20>    N       -1.38465         8.87326         6.50456
| 21>    C       -2.61623         8.93529         5.89381
| 22>    N       -3.66521         9.60944         6.55256
| 23>    O       -3.39078        10.09520         7.63990
| 24>    O       -4.74734         9.66340         6.01115
| 25>    C       -2.61136         8.29204         4.67370
| 26>    C       -1.02127         6.59520         2.35493
| 27>    N       -2.30762         6.79616         2.06684
| 28>    C       -2.50211         6.25425         0.85484
| 29>    C       -1.26456         5.67345         0.31964
| 30>    C       -1.50820         5.09094        -1.00956
| 31>    O       -0.72028         4.54231        -1.75377
| 32>    C       -2.94417         5.34099        -1.21727
| 33>    C       -3.51331         6.05504        -0.05993
| 34>    N       -4.83481         6.28396        -0.23900
| 35>    C       -5.11542         5.76587        -1.41304
| 36>    C       -3.98264         5.15878        -2.07602
| 37>    C       -0.29907         5.87561         1.27837
| 38>    C        1.07460         5.50696         1.29456
| 39>    C        1.68626         4.89087         0.25793
| 40>    C        3.06500         4.48282         0.21070
| 41>    C        3.88979         4.47236         1.31865
| 42>    C        5.22169         4.04150         1.20160
| 43>    C        6.22848         3.91527         2.16011
| 44>    C        6.10182         4.30418         3.59473
| 45>    C        5.96839         3.08412         4.53330
| 46>    N        7.09784         2.17686         4.42054
| 47>    C        7.23954         5.23643         4.04552
| 48>    N        7.20257         6.44992         3.24974
| 49>    C        7.39180         3.40523         1.47664
| 50>    C        8.60675         3.02001         1.92066
| 51>    C        9.67245         2.58907         0.97947
| 52>    C        9.23325         2.40490        -0.43995
| 53>    C        7.99930         2.75418        -0.86177
| 54>    C        7.05009         3.25778         0.05039
| 55>    C        5.72444         3.62839        -0.09689
| 56>    C        4.86457         3.64886        -1.21700
| 57>    C        3.57811         4.05287        -1.05717
| 58>    C       10.67276         3.70729         0.84612
| 59>    C       11.99583         3.52428         0.70950
| 60>    C       12.89073         4.62252         0.54160
| 61>    N       12.48280         5.87950         0.65811
| 62>    C       13.57489         6.64203         0.46034
| 63>    C       14.76078         5.81958         0.18755
| 64>    C       15.93527         6.67017        -0.03337
| 65>    O       17.07586         6.33360        -0.29639
| 66>    C       15.39250         8.02714         0.13697
| 67>    C       13.94939         7.96678         0.43492
| 68>    N       13.44066         9.21173         0.59411
| 69>    C       14.45925        10.02207         0.41850
| 70>    C       15.70595         9.35035         0.12929
| 71>    C       14.33571         4.51142         0.24040
| 72>    C       15.05813         3.30799         0.02769
| 73>    C       16.37533         3.31204        -0.29255
| 74>    C       17.16936         2.17413        -0.54788
| 75>    S       16.59297         0.51760        -0.47421
| 76>    C       18.10407        -0.15482        -0.91328
| 77>    C       19.04375         0.82925        -1.11817
| 78>    C       18.50541         2.14498        -0.90762
| 79>    N       19.49019         3.05102        -1.13176
| 80>    C       20.62498         2.35338        -1.47588
| 81>    N       21.81422         3.05139        -1.76991
| 82>    O       21.76595         4.26706        -1.70136
| 83>    O       22.79506         2.40129        -2.06906
| 84>    C       20.40467         0.99562        -1.48135
| 85>    H        1.52799         7.91107         6.38394
| 86>    H       -1.19364         9.28968         7.40245
| 87>    H       -3.42675         8.18409         3.98879
| 88>    H       -6.11814         5.81330        -1.80076
| 89>    H       -4.00255         4.68147        -3.03579
| 90>    H        1.63293         5.75393         2.18552
| 91>    H        1.10614         4.68800        -0.63316
| 92>    H        3.51383         4.77442         2.28412
| 93>    H        5.17632         4.87943         3.69769
| 94>    H        5.00543         2.59427         4.31572
| 95>    H        5.93409         3.45417         5.56109
| 96>    H        7.00799         1.61329         3.58170
| 97>    H        7.12364         1.54726         5.21419
| 98>    H        8.19805         4.70314         4.00069
| 99>    H        7.06474         5.52201         5.08688
|100>    H        7.36707         6.23481         2.27166
|101>    H        7.92064         7.09814         3.55218
|102>    H        8.86425         3.03368         2.96880
|103>    H       10.17775         1.69223         1.35501
|104>    H        9.97606         2.02339        -1.12255
|105>    H        7.71649         2.62663        -1.89659
|106>    H        5.23523         3.33733        -2.18218
|107>    H        2.90171         4.06560        -1.89883
|108>    H       10.27641         4.71008         0.78889
|109>    H       12.42117         2.53032         0.72912
|110>    H       14.32357        11.08713         0.49258
|111>    H       16.64873         9.83000        -0.04562
|112>    H       14.53222         2.36622         0.11181
|113>    H       16.89146         4.26075        -0.37502
|114>    H       18.20991        -1.21724        -0.99403
|115>    H       19.44236         4.05735        -1.07119
|116>    H       21.12619         0.24054        -1.71568
|117> *
|118>
|119>                          ****END OF INPUT****

CARTESIAN COORDINATES (ANGSTROEM)
---------------------------------
  C      0.751240    7.770420    5.660450
  S      1.081030    6.913190    4.209170
  C     -0.537520    7.084680    3.586360
  C     -1.300030    7.801390    4.514820
  C     -0.552370    8.182450    5.679710
  N     -1.384650    8.873260    6.504560
  C     -2.616230    8.935290    5.893810
  N     -3.665210    9.609440    6.552560
  O     -3.390780   10.095200    7.639900
  O     -4.747340    9.663400    6.011150
  C     -2.611360    8.292040    4.673700
  C     -1.021270    6.595200    2.354930
  N     -2.307620    6.796160    2.066840
  C     -2.502110    6.254250    0.854840
  C     -1.264560    5.673450    0.319640
  C     -1.508200    5.090940   -1.009560
  O     -0.720280    4.542310   -1.753770
  C     -2.944170    5.340990   -1.217270
  C     -3.513310    6.055040   -0.059930
  N     -4.834810    6.283960   -0.239000
  C     -5.115420    5.765870   -1.413040
  C     -3.982640    5.158780   -2.076020
  C     -0.299070    5.875610    1.278370
  C      1.074600    5.506960    1.294560
  C      1.686260    4.890870    0.257930
  C      3.065000    4.482820    0.210700
  C      3.889790    4.472360    1.318650
  C      5.221690    4.041500    1.201600
  C      6.228480    3.915270    2.160110
  C      6.101820    4.304180    3.594730
  C      5.968390    3.084120    4.533300
  N      7.097840    2.176860    4.420540
  C      7.239540    5.236430    4.045520
  N      7.202570    6.449920    3.249740
  C      7.391800    3.405230    1.476640
  C      8.606750    3.020010    1.920660
  C      9.672450    2.589070    0.979470
  C      9.233250    2.404900   -0.439950
  C      7.999300    2.754180   -0.861770
  C      7.050090    3.257780    0.050390
  C      5.724440    3.628390   -0.096890
  C      4.864570    3.648860   -1.217000
  C      3.578110    4.052870   -1.057170
  C     10.672760    3.707290    0.846120
  C     11.995830    3.524280    0.709500
  C     12.890730    4.622520    0.541600
  N     12.482800    5.879500    0.658110
  C     13.574890    6.642030    0.460340
  C     14.760780    5.819580    0.187550
  C     15.935270    6.670170   -0.033370
  O     17.075860    6.333600   -0.296390
  C     15.392500    8.027140    0.136970
  C     13.949390    7.966780    0.434920
  N     13.440660    9.211730    0.594110
  C     14.459250   10.022070    0.418500
  C     15.705950    9.350350    0.129290
  C     14.335710    4.511420    0.240400
  C     15.058130    3.307990    0.027690
  C     16.375330    3.312040   -0.292550
  C     17.169360    2.174130   -0.547880
  S     16.592970    0.517600   -0.474210
  C     18.104070   -0.154820   -0.913280
  C     19.043750    0.829250   -1.118170
  C     18.505410    2.144980   -0.907620
  N     19.490190    3.051020   -1.131760
  C     20.624980    2.353380   -1.475880
  N     21.814220    3.051390   -1.769910
  O     21.765950    4.267060   -1.701360
  O     22.795060    2.401290   -2.069060
  C     20.404670    0.995620   -1.481350
  H      1.527990    7.911070    6.383940
  H     -1.193640    9.289680    7.402450
  H     -3.426750    8.184090    3.988790
  H     -6.118140    5.813300   -1.800760
  H     -4.002550    4.681470   -3.035790
  H      1.632930    5.753930    2.185520
  H      1.106140    4.688000   -0.633160
  H      3.513830    4.774420    2.284120
  H      5.176320    4.879430    3.697690
  H      5.005430    2.594270    4.315720
  H      5.934090    3.454170    5.561090
  H      7.007990    1.613290    3.581700
  H      7.123640    1.547260    5.214190
  H      8.198050    4.703140    4.000690
  H      7.064740    5.522010    5.086880
  H      7.367070    6.234810    2.271660
  H      7.920640    7.098140    3.552180
  H      8.864250    3.033680    2.968800
  H     10.177750    1.692230    1.355010
  H      9.976060    2.023390   -1.122550
  H      7.716490    2.626630   -1.896590
  H      5.235230    3.337330   -2.182180
  H      2.901710    4.065600   -1.898830
  H     10.276410    4.710080    0.788890
  H     12.421170    2.530320    0.729120
  H     14.323570   11.087130    0.492580
  H     16.648730    9.830000   -0.045620
  H     14.532220    2.366220    0.111810
  H     16.891460    4.260750   -0.375020
  H     18.209910   -1.217240   -0.994030
  H     19.442360    4.057350   -1.071190
  H     21.126190    0.240540   -1.715680

 Total Charge           Charge          ....    0
 Multiplicity           Mult            ....    1
 Number of Electrons    NEL             ....  494
 Basis Dimension        Dim             .... 1148

ORBITAL ENERGIES
----------------

  NO   OCC          E(Eh)            E(eV)
   0   2.0000     -88.991931     -2421.5936
   1   2.0000     -88.976515     -2421.1741
   2   2.0000     -19.251191      -523.8516
   3   2.0000     -19.250240      -523.8257
   4   2.0000     -19.246511      -523.7242
   5   2.0000     -19.245253      -523.6900
   6   2.0000     -19.208759      -522.6969
   7   2.0000     -19.203646      -522.5578
   8   2.0000     -14.660577      -398.9346
   9   2.0000     -14.656049      -398.8114
  10   2.0000     -14.486414      -394.1954
  11   2.0000     -14.478598      -393.9827
  12   2.0000     -14.403909      -391.9503
  13   2.0000     -14.403109      -391.9285
  14   2.0000     -14.397458      -391.7747
  15   2.0000     -14.394072      -391.6826
  16   2.0000     -14.391937      -391.6245
  17   2.0000     -14.370988      -391.0545
  18   2.0000     -10.370548      -282.1969
  19   2.0000     -10.367788      -282.1219
  20   2.0000     -10.363911      -282.0164
  21   2.0000     -10.363610      -282.0082
  22   2.0000     -10.346228      -281.5352
  23   2.0000     -10.340523      -281.3799
  24   2.0000     -10.339526      -281.3528
  25   2.0000     -10.330394      -281.1043
  26   2.0000     -10.328194      -281.0444
  27   2.0000     -10.327163      -281.0164
  28   2.0000     -10.324536      -280.9449
  29   2.0000     -10.324456      -280.9427
  30   2.0000     -10.318206      -280.7727
  31   2.0000     -10.314270      -280.6656
  32   2.0000     -10.313417      -280.6423
  33   2.0000     -10.312048      -280.6051
  34   2.0000     -10.311366      -280.5865
  35   2.0000     -10.310437      -280.5613
  36   2.0000     -10.309554      -280.5372
  37   2.0000     -10.305837      -280.4361
  38   2.0000     -10.305253      -280.4202
  39   2.0000     -10.304123      -280.3894
  40   2.0000     -10.302322      -280.3404
  41   2.0000     -10.302222      -280.3377
  42   2.0000     -10.299642      -280.2675
  43   2.0000     -10.297227      -280.2018
  44   2.0000     -10.295565      -280.1566
  45   2.0000     -10.292856      -280.0829
  46   2.0000     -10.290468      -280.0179
  47   2.0000     -10.289452      -279.9902
  48   2.0000     -10.283547      -279.8296
  49   2.0000     -10.282071      -279.7894
  50   2.0000     -10.281975      -279.7868
  51   2.0000     -10.281804      -279.7821
  52   2.0000     -10.281333      -279.7693
  53   2.0000     -10.280581      -279.7488
  54   2.0000     -10.280147      -279.7370
  55   2.0000     -10.279373      -279.7159
  56   2.0000     -10.278700      -279.6977
  57   2.0000     -10.278573      -279.6942
  58   2.0000     -10.278254      -279.6855
  59   2.0000     -10.277912      -279.6762
  60   2.0000     -10.276607      -279.6407
  61   2.0000     -10.276103      -279.6270
  62   2.0000     -10.273085      -279.5448
  63   2.0000     -10.270441      -279.4729
  64   2.0000     -10.269501      -279.4473
  65   2.0000     -10.269442      -279.4457
  66   2.0000     -10.267302      -279.3875
  67   2.0000     -10.267232      -279.3856
  68   2.0000     -10.266726      -279.3718
  69   2.0000     -10.265948      -279.3507
  70   2.0000      -8.085791      -220.0256
  71   2.0000      -8.071373      -219.6332
  72   2.0000      -6.055089      -164.7674
  73   2.0000      -6.050652      -164.6466
  74   2.0000      -6.048481      -164.5875
  75   2.0000      -6.040551      -164.3717
  76   2.0000      -6.036323      -164.2567
  77   2.0000      -6.033997      -164.1934
  78   2.0000      -1.331545       -36.2332
  79   2.0000      -1.327080       -36.1117
  80   2.0000      -1.151584       -31.3362
  81   2.0000      -1.146607       -31.2008
  82   2.0000      -1.121343       -30.5133
  83   2.0000      -1.117495       -30.4086
  84   2.0000      -1.110980       -30.2313
  85   2.0000      -1.104558       -30.0566
  86   2.0000      -1.071880       -29.1673
  87   2.0000      -1.071859       -29.1668
  88   2.0000      -1.050997       -28.5991
  89   2.0000      -1.048990       -28.5445
  90   2.0000      -0.998263       -27.1641
  91   2.0000      -0.991313       -26.9750
  92   2.0000      -0.989136       -26.9158
  93   2.0000      -0.971604       -26.4387
  94   2.0000      -0.956451       -26.0263
  95   2.0000      -0.950986       -25.8777
  96   2.0000      -0.933215       -25.3941
  97   2.0000      -0.929011       -25.2797
  98   2.0000      -0.924567       -25.1587
  99   2.0000      -0.921671       -25.0799
 100   2.0000      -0.916577       -24.9413
 101   2.0000      -0.910863       -24.7858
 102   2.0000      -0.902091       -24.5471
 103   2.0000      -0.891273       -24.2528
 104   2.0000      -0.887447       -24.1487
 105   2.0000      -0.882487       -24.0137
 106   2.0000      -0.871045       -23.7023
 107   2.0000      -0.861056       -23.4305
 108   2.0000      -0.854481       -23.2516
 109   2.0000      -0.850533       -23.1442
 110   2.0000      -0.845180       -22.9985
 111   2.0000      -0.840109       -22.8605
 112   2.0000      -0.835569       -22.7370
 113   2.0000      -0.827953       -22.5297
 114   2.0000      -0.807507       -21.9734
 115   2.0000      -0.803347       -21.8602
 116   2.0000      -0.796486       -21.6735
 117   2.0000      -0.779809       -21.2197
 118   2.0000      -0.769843       -20.9485
 119   2.0000      -0.763216       -20.7682
 120   2.0000      -0.759832       -20.6761
 121   2.0000      -0.753301       -20.4984
 122   2.0000      -0.745241       -20.2790
 123   2.0000      -0.733845       -19.9689
 124   2.0000      -0.722409       -19.6578
 125   2.0000      -0.721539       -19.6341
 126   2.0000      -0.713982       -19.4284
 127   2.0000      -0.707045       -19.2397
 128   2.0000      -0.705234       -19.1904
 129   2.0000      -0.691511       -18.8170
 130   2.0000      -0.688567       -18.7368
 131   2.0000      -0.682379       -18.5685
 132   2.0000      -0.678105       -18.4522
 133   2.0000      -0.677218       -18.4281
 134   2.0000      -0.672150       -18.2901
 135   2.0000      -0.657074       -17.8799
 136   2.0000      -0.655046       -17.8247
 137   2.0000      -0.650979       -17.7140
 138   2.0000      -0.649547       -17.6751
 139   2.0000      -0.646806       -17.6005
 140   2.0000      -0.643298       -17.5050
 141   2.0000      -0.639332       -17.3971
 142   2.0000      -0.638822       -17.3832
 143   2.0000      -0.631327       -17.1793
 144   2.0000      -0.624870       -17.0036
 145   2.0000      -0.620746       -16.8914
 146   2.0000      -0.615856       -16.7583
 147   2.0000      -0.609470       -16.5845
 148   2.0000      -0.606998       -16.5173
 149   2.0000      -0.606238       -16.4966
 150   2.0000      -0.601044       -16.3552
 151   2.0000      -0.597123       -16.2485
 152   2.0000      -0.593427       -16.1480
 153   2.0000      -0.593170       -16.1410
 154   2.0000      -0.586496       -15.9594
 155   2.0000      -0.582771       -15.8580
 156   2.0000      -0.580556       -15.7977
 157   2.0000      -0.577462       -15.7136
 158   2.0000      -0.572799       -15.5867
 159   2.0000      -0.565257       -15.3814
 160   2.0000      -0.561824       -15.2880
 161   2.0000      -0.555636       -15.1196
 162   2.0000      -0.552879       -15.0446
 163   2.0000      -0.549418       -14.9504
 164   2.0000      -0.547612       -14.9013
 165   2.0000      -0.543371       -14.7859
 166   2.0000      -0.541051       -14.7227
 167   2.0000      -0.540450       -14.7064
 168   2.0000      -0.538577       -14.6554
 169   2.0000      -0.538184       -14.6447
 170   2.0000      -0.536106       -14.5882
 171   2.0000      -0.535444       -14.5702
 172   2.0000      -0.535002       -14.5582
 173   2.0000      -0.529208       -14.4005
 174   2.0000      -0.527257       -14.3474
 175   2.0000      -0.524696       -14.2777
 176   2.0000      -0.520981       -14.1766
 177   2.0000      -0.520008       -14.1501
 178   2.0000      -0.514837       -14.0094
 179   2.0000      -0.508746       -13.8437
 180   2.0000      -0.507191       -13.8014
 181   2.0000      -0.505789       -13.7632
 182   2.0000      -0.504122       -13.7179
 183   2.0000      -0.501981       -13.6596
 184   2.0000      -0.497534       -13.5386
 185   2.0000      -0.493759       -13.4359
 186   2.0000      -0.489865       -13.3299
 187   2.0000      -0.486615       -13.2415
 188   2.0000      -0.485729       -13.2174
 189   2.0000      -0.484651       -13.1880
 190   2.0000      -0.482222       -13.1219
 191   2.0000      -0.476880       -12.9766
 192   2.0000      -0.470808       -12.8113
 193   2.0000      -0.468526       -12.7492
 194   2.0000      -0.466307       -12.6889
 195   2.0000      -0.464490       -12.6394
 196   2.0000      -0.459490       -12.5034
 197   2.0000      -0.459159       -12.4943
 198   2.0000      -0.456950       -12.4342
 199   2.0000      -0.456447       -12.4205
 200   2.0000      -0.452886       -12.3236
 201   2.0000      -0.452237       -12.3060
 202   2.0000      -0.451348       -12.2818
 203   2.0000      -0.449650       -12.2356
 204   2.0000      -0.448875       -12.2145
 205   2.0000      -0.442383       -12.0379
 206   2.0000      -0.438074       -11.9206
 207   2.0000      -0.434165       -11.8142
 208   2.0000      -0.427448       -11.6315
 209   2.0000      -0.426300       -11.6002
 210   2.0000      -0.423843       -11.5334
 211   2.0000      -0.415242       -11.2993
 212   2.0000      -0.414057       -11.2671
 213   2.0000      -0.401836       -10.9345
 214   2.0000      -0.397114       -10.8060
 215   2.0000      -0.393667       -10.7122
 216   2.0000      -0.392560       -10.6821
 217   2.0000      -0.391713       -10.6590
 218   2.0000      -0.388640       -10.5754
 219   2.0000      -0.385973       -10.5029
 220   2.0000      -0.384839       -10.4720
 221   2.0000      -0.383522       -10.4362
 222   2.0000      -0.380026       -10.3410
 223   2.0000      -0.375533       -10.2188
 224   2.0000      -0.374160       -10.1814
 225   2.0000      -0.369315       -10.0496
 226   2.0000      -0.356011        -9.6876
 227   2.0000      -0.355772        -9.6810
 228   2.0000      -0.347010        -9.4426
 229   2.0000      -0.343745        -9.3538
 230   2.0000      -0.338831        -9.2201
 231   2.0000      -0.337295        -9.1783
 232   2.0000      -0.329983        -8.9793
 233   2.0000      -0.328596        -8.9416
 234   2.0000      -0.326155        -8.8751
 235   2.0000      -0.325654        -8.8615
 236   2.0000      -0.322642        -8.7795
 237   2.0000      -0.321792        -8.7564
 238   2.0000      -0.321477        -8.7478
 239   2.0000      -0.316910        -8.6235
 240   2.0000      -0.313517        -8.5312
 241   2.0000      -0.300745        -8.1837
 242   2.0000      -0.292792        -7.9673
 243   2.0000      -0.279523        -7.6062
 244   2.0000      -0.267312        -7.2739
 245   2.0000      -0.251671        -6.8483
 246   2.0000      -0.224820        -6.1177
 247   0.0000      -0.113490        -3.0882
 248   0.0000      -0.108670        -2.9571
 249   0.0000      -0.081168        -2.2087
 250   0.0000      -0.068559        -1.8656
 251   0.0000      -0.059807        -1.6274

MULLIKEN ATOMIC CHARGES
-----------------------
   0 C :   -0.158872
   1 S :    0.149237
   2 C :   -0.155360
   3 C :    0.096338
   4 C :    0.164392
   5 N :   -0.037888
   6 C :    0.162432
   7 N :    0.285470
   8 O :   -0.270910
   9 O :   -0.221244
  10 C :   -0.079030
  11 C :    0.047662
  12 N :   -0.062008
  13 C :    0.081803
  14 C :   -0.184873
  15 C :    0.216667
  16 O :   -0.149793
  17 C :   -0.008158
  18 C :   -0.047117
  19 N :   -0.058596
  20 C :    0.085209
  21 C :   -0.100926
  22 C :    0.051520
  23 C :   -0.030271
  24 C :   -0.003715
  25 C :    0.111956
  26 C :   -0.081097
  27 C :    0.070338
  28 C :   -0.099391
  29 C :    0.014750
  30 C :    0.136623
  31 N :   -0.230928
  32 C :    0.135912
  33 N :   -0.223118
  34 C :    0.075148
  35 C :   -0.149027
  36 C :    0.137280
  37 C :   -0.030498
  38 C :    0.021122
  39 C :    0.013656
  40 C :    0.040515
  41 C :   -0.001777
  42 C :   -0.012409
  43 C :    0.014614
  44 C :   -0.034975
  45 C :    0.036039
  46 N :   -0.046796
  47 C :    0.079232
  48 C :   -0.181249
  49 C :    0.224225
  50 O :   -0.170794
  51 C :   -0.008837
  52 C :   -0.049789
  53 N :   -0.058765
  54 C :    0.081978
  55 C :   -0.099483
  56 C :    0.074676
  57 C :   -0.072998
  58 C :    0.018365
  59 C :   -0.159607
  60 S :    0.138337
  61 C :   -0.125232
  62 C :    0.110772
  63 C :    0.129742
  64 N :   -0.038551
  65 C :    0.145943
  66 N :    0.283210
  67 O :   -0.259206
  68 O :   -0.239037
  69 C :   -0.068620
  70 H :    0.029157
  71 H :    0.144608
  72 H :    0.020757
  73 H :    0.003082
  74 H :   -0.011694
  75 H :   -0.022467
  76 H :    0.000438
  77 H :   -0.044815
  78 H :   -0.021975
  79 H :   -0.009943
  80 H :   -0.008294
  81 H :    0.104282
  82 H :    0.097527
  83 H :   -0.012365
  84 H :   -0.018427
  85 H :    0.098811
  86 H :    0.093181
  87 H :    0.025922
  88 H :    0.020062
  89 H :   -0.007592
  90 H :   -0.028680
  91 H :   -0.036337
  92 H :   -0.009720
  93 H :    0.042480
  94 H :   -0.015253
  95 H :    0.005313
  96 H :   -0.010104
  97 H :   -0.032729
  98 H :   -0.005842
  99 H :    0.032381
 100 H :    0.156431
 101 H :   -0.002410
Sum of atomic charges:   -0.0000000

LOEWDIN ATOMIC CHARGES
----------------------
   0 C :   -0.195270
   1 S :    0.505249
   2 C :   -0.199932
   3 C :   -0.029073
   4 C :   -0.012550
   5 N :    0.064079
   6 C :    0.009357
   7 N :    0.278835
   8 O :   -0.225531
   9 O :   -0.183610
  10 C :   -0.011302
  11 C :    0.057819
  12 N :   -0.112262
  13 C :    0.047211
  14 C :   -0.054615
  15 C :    0.069450
  16 O :   -0.149703
  17 C :   -0.044129
  18 C :    0.009845
  19 N :   -0.099449
  20 C :    0.063442
  21 C :   -0.041047
  22 C :   -0.022259
  23 C :   -0.052724
  24 C :    0.029894
  25 C :   -0.029552
  26 C :   -0.000158
  27 C :   -0.013404
  28 C :   -0.043164
  29 C :   -0.039576
  30 C :    0.028012
  31 N :   -0.112161
  32 C :    0.027802
  33 N :   -0.120449
  34 C :   -0.025465
  35 C :    0.067525
  36 C :   -0.030962
  37 C :   -0.030586
  38 C :   -0.008916
  39 C :   -0.036416
  40 C :   -0.026554
  41 C :   -0.011259
  42 C :   -0.016354
  43 C :    0.091106
  44 C :   -0.073591
  45 C :    0.076739
  46 N :   -0.111114
  47 C :    0.053111
  48 C :   -0.068118
  49 C :    0.072529
  50 O :   -0.165095
  51 C :   -0.043410
  52 C :    0.008201
  53 N :   -0.098460
  54 C :    0.061975
  55 C :   -0.038572
  56 C :   -0.020058
  57 C :   -0.065984
  58 C :    0.008129
  59 C :   -0.220010
  60 S :    0.466949
  61 C :   -0.171728
  62 C :   -0.076240
  63 C :    0.010272
  64 N :    0.068524
  65 C :    0.000316
  66 N :    0.278968
  67 O :   -0.216996
  68 O :   -0.200256
  69 C :   -0.026724
  70 H :    0.032139
  71 H :    0.096125
  72 H :    0.049643
  73 H :    0.021018
  74 H :    0.031807
  75 H :    0.005448
  76 H :    0.032719
  77 H :    0.022292
  78 H :    0.027664
  79 H :    0.003038
  80 H :    0.016136
  81 H :    0.054470
  82 H :    0.057668
  83 H :   -0.001419
  84 H :    0.014071
  85 H :    0.052102
  86 H :    0.055539
  87 H :    0.031103
  88 H :    0.048642
  89 H :    0.025690
  90 H :    0.033162
  91 H :    0.027611
  92 H :    0.033116
  93 H :    0.042409
  94 H :    0.027968
  95 H :    0.021365
  96 H :    0.032456
  97 H :    0.017125
  98 H :    0.034410
  99 H :    0.029753
 100 H :    0.102562
 101 H :    0.041620

  Mayer bond orders larger than 0.100000
B(  0-C ,  1-S ) :   1.1825 B(  0-C ,  2-C ) :   0.1043 B(  0-C ,  4-C ) :   1.4147
B(  0-C , 70-H ) :   0.9886 B(  1-S ,  2-C ) :   1.1448 B(  2-C ,  3-C ) :   1.3135
B(  2-C , 11-C ) :   1.1832 B(  3-C ,  4-C ) :   1.2109 B(  3-C , 10-C ) :   1.1931
B(  4-C ,  5-N ) :   1.1542 B(  5-N ,  6-C ) :   1.1782 B(  5-N , 71-H ) :   0.9134
B(  6-C ,  7-N ) :   0.9166 B(  6-C , 10-C ) :   1.4542 B(  7-N ,  8-O ) :   1.4669
B(  7-N ,  9-O ) :   1.5584 B(  8-O ,  9-O ) :   0.2763 B( 10-C , 72-H ) :   1.0334
B( 11-C , 12-N ) :   1.5888 B( 11-C , 13-C ) :   0.1197 B( 11-C , 22-C ) :   1.0148
B( 12-N , 13-C ) :   1.3682 B( 13-C , 14-C ) :   1.0585 B( 13-C , 18-C ) :   1.3855
B( 14-C , 15-C ) :   0.8968 B( 14-C , 22-C ) :   1.5468 B( 15-C , 16-O ) :   2.1672
B( 15-C , 17-C ) :   0.9387 B( 16-O , 76-H ) :   0.1130 B( 17-C , 18-C ) :   1.0815
B( 17-C , 21-C ) :   1.5817 B( 18-C , 19-N ) :   1.3262 B( 19-N , 20-C ) :   1.6414
B( 20-C , 21-C ) :   1.0857 B( 20-C , 73-H ) :   0.9897 B( 21-C , 74-H ) :   1.0109
B( 22-C , 23-C ) :   1.1143 B( 23-C , 24-C ) :   1.6790 B( 23-C , 75-H ) :   0.9487
B( 24-C , 25-C ) :   1.0563 B( 24-C , 76-H ) :   0.9656 B( 25-C , 26-C ) :   1.5065
B( 25-C , 42-C ) :   1.1228 B( 26-C , 27-C ) :   1.1634 B( 26-C , 77-H ) :   0.9866
B( 27-C , 28-C ) :   1.4545 B( 27-C , 40-C ) :   1.1273 B( 28-C , 29-C ) :   1.0429
B( 28-C , 34-C ) :   1.1007 B( 29-C , 30-C ) :   1.0335 B( 29-C , 32-C ) :   1.0321
B( 29-C , 78-H ) :   0.8741 B( 30-C , 31-N ) :   1.1041 B( 30-C , 79-H ) :   0.9443
B( 30-C , 80-H ) :   0.9395 B( 31-N , 81-H ) :   0.9581 B( 31-N , 82-H ) :   0.9692
B( 32-C , 33-N ) :   1.0936 B( 32-C , 83-H ) :   0.9394 B( 32-C , 84-H ) :   0.9350
B( 33-N , 85-H ) :   0.9715 B( 33-N , 86-H ) :   0.9677 B( 34-C , 35-C ) :   1.6442
B( 34-C , 39-C ) :   1.0424 B( 35-C , 36-C ) :   0.9571 B( 35-C , 87-H ) :   0.9596
B( 36-C , 37-C ) :   0.9779 B( 36-C , 43-C ) :   0.9286 B( 36-C , 88-H ) :   0.8899
B( 37-C , 38-C ) :   1.6875 B( 37-C , 89-H ) :   0.9660 B( 38-C , 39-C ) :   1.1540
B( 38-C , 90-H ) :   0.9890 B( 39-C , 40-C ) :   1.4112 B( 40-C , 41-C ) :   1.1483
B( 41-C , 42-C ) :   1.5896 B( 41-C , 91-H ) :   0.9922 B( 42-C , 92-H ) :   0.9946
B( 43-C , 44-C ) :   1.7334 B( 43-C , 93-H ) :   0.9598 B( 44-C , 45-C ) :   1.1260
B( 44-C , 94-H ) :   0.9614 B( 45-C , 46-N ) :   1.6005 B( 45-C , 47-C ) :   0.1084
B( 45-C , 56-C ) :   0.9929 B( 46-N , 47-C ) :   1.3527 B( 47-C , 48-C ) :   1.0551
B( 47-C , 52-C ) :   1.4096 B( 48-C , 49-C ) :   0.9146 B( 48-C , 56-C ) :   1.5275
B( 49-C , 50-O ) :   2.1314 B( 49-C , 51-C ) :   0.9464 B( 50-O , 98-H ) :   0.1297
B( 51-C , 52-C ) :   1.0804 B( 51-C , 55-C ) :   1.5837 B( 52-C , 53-N ) :   1.3192
B( 53-N , 54-C ) :   1.6477 B( 54-C , 55-C ) :   1.0830 B( 54-C , 95-H ) :   0.9896
B( 55-C , 96-H ) :   1.0124 B( 56-C , 57-C ) :   1.1427 B( 57-C , 58-C ) :   1.6101
B( 57-C , 97-H ) :   0.9715 B( 58-C , 59-C ) :   1.1793 B( 58-C , 98-H ) :   0.9467
B( 59-C , 60-S ) :   1.0896 B( 59-C , 61-C ) :   0.1096 B( 59-C , 63-C ) :   1.3844
B( 60-S , 61-C ) :   1.2148 B( 61-C , 62-C ) :   1.4032 B( 61-C , 99-H ) :   0.9738
B( 62-C , 63-C ) :   1.2195 B( 62-C , 69-C ) :   1.1023 B( 63-C , 64-N ) :   1.2033
B( 64-N , 65-C ) :   1.1586 B( 64-N ,100-H ) :   0.9063 B( 65-C , 66-N ) :   0.9210
B( 65-C , 69-C ) :   1.5487 B( 66-N , 67-O ) :   1.4853 B( 66-N , 68-O ) :   1.5453
B( 67-O , 68-O ) :   0.2724 B( 69-C ,101-H ) :   1.0241

-----------------------------------------------------------------------------
         ABSORPTION SPECTRUM VIA TRANSITION ELECTRIC DIPOLE MOMENTS
-----------------------------------------------------------------------------
State   Energy  Wavelength   fosc         T2         TX        TY        TZ
        (cm-1)    (nm)                  (au**2)     (au)      (au)      (au)
-----------------------------------------------------------------------------
   0   11135.2    898.1   0.167366741   4.94821   2.16948   0.08750   0.48366
   1   12301.0    812.9   0.091324665   2.44413  -1.44908  -0.55833   0.18043
   2   13926.5    718.1   0.095875296   2.26642   1.30647  -0.02489  -0.74763
   3   14526.6    688.4   0.148610064   3.36792  -0.44417   1.77403   0.15316
   4   18322.0    545.8   0.016088312   0.28908  -0.48867   0.11595  -0.19193
   5   19355.4    516.7   0.783283832  13.32272  -0.75146  -1.43305  -3.27176
   6   21885.1    456.9   0.001344326   0.02022  -0.11378  -0.01087   0.08460
   7   22630.4    441.9   0.315890709   4.59537  -1.96168   0.86121  -0.07413
   8   22655.1    441.4   0.304275831   4.42158   1.72918  -1.19219  -0.10110
   9   22778.0    439.0   0.143561830   2.07491   0.73814   1.16025   0.42881
  10   24091.6    415.1   0.002075449   0.02836   0.14450   0.08647  -0.00206
  11   24171.8    413.7   0.545322144   7.42712   2.70154   0.17730   0.31204
  12   24367.1    410.4   0.179086182   2.41955  -0.93818  -1.24040   0.02774
  13   24822.6    402.9   0.197419701   2.61829   1.31795  -0.92092  -0.18221
  14   24895.0    401.7   0.019744000   0.26110   0.39348   0.05890   0.32063
  15   25105.9    398.3   0.055313800   0.72533  -0.70562   0.29755  -0.37268
  16   25505.5    392.1   0.227336152   2.93433   1.55673  -0.67622  -0.23166
  17   25637.0    390.1   0.151545225   1.94603   0.68763  -1.17212  -0.31517
  18   25967.9    385.1   0.000211292   0.00268   0.02676   0.04411  -0.00404
  19   26053.7    383.8   0.009698861   0.12255  -0.07030  -0.33915  -0.05090
  20   26218.9    381.4   0.004821320   0.06054   0.13403   0.20515  -0.02202
  21   26364.3    379.3   0.109405056   1.36614  -1.13486  -0.19511  -0.20043
  22   26676.8    374.9   0.179952780   2.22075  -0.07176  -1.48766  -0.04980
  23   27156.7    368.2   0.008433609   0.10224   0.04829   0.16601   0.26897
  24   27297.1    366.3   0.077825043   0.93860  -0.53741   0.12435  -0.79645
  25   28087.5    356.0   0.002284833   0.02678  -0.07206  -0.14398   0.02925
  26   28321.5    353.1   0.003009799   0.03499  -0.00399   0.09982  -0.15814
  27   28412.5    352.0   0.001909138   0.02212  -0.10792   0.07739   0.06697
  28   29155.2    343.0   0.055036705   0.62146  -0.15546  -0.77249  -0.02355
  29   29266.5    341.7   0.000672969   0.00757   0.02880  -0.08103   0.01321
  30   29524.4    338.7   0.080538635   0.89805  -0.65097  -0.68834   0.02180
  31   29579.8    338.1   0.046113935   0.51323   0.55748  -0.38135  -0.23879
  32   30184.4    331.3   0.138422013   1.50973  -1.08968   0.48113  -0.30141
  33   30407.6    328.9   0.027285478   0.29541  -0.05611  -0.14369  -0.52117
  34   30691.5    325.8   0.291688099   3.12879  -1.73230   0.18813  -0.30417
  35   30849.2    324.2   0.006184486   0.06600  -0.24907   0.06296   0.00102
  36   31067.2    321.9   0.344169016   3.64708  -1.81320   0.46895   0.37344
  37   31320.2    319.3   0.089891822   0.94487   0.24419  -0.93815  -0.07146
  38   31670.4    315.8   0.000939818   0.00977   0.00823  -0.08583   0.04832
  39   31702.5    315.4   0.033021465   0.34291  -0.43699   0.33078  -0.20624
  40   32103.1    311.5   0.080572927   0.82626  -0.86397   0.09939  -0.26445
  41   32761.5    305.2   0.107944669   1.08471  -1.00390   0.27654   0.02019
  42   32895.3    304.0   0.014836564   0.14848  -0.23451  -0.09377  -0.29102
  43   33079.3    302.3   0.033635712   0.33475   0.38588   0.07046   0.42530
  44   33823.0    295.7   0.121940901   1.18690  -0.90742   0.43093   0.42164
  45   33971.6    294.4   0.057503919   0.55726  -0.70161   0.20227   0.15522
  46   34314.6    291.4   0.110375676   1.05894  -1.00143   0.22318  -0.07919
  47   34756.2    287.7   0.002874830   0.02723  -0.02531  -0.14377   0.07695
  48   34793.3    287.4   0.009512996   0.09001  -0.17126  -0.24585   0.01543
  49   35126.9    284.7   0.317743097   2.97791   1.49962   0.76464  -0.37997
  50   35585.9    281.0   0.022689840   0.20991  -0.21554  -0.39813  -0.07028
  51   35674.1    280.3   0.004964095   0.04581   0.05578   0.15243   0.13951
  52   35946.0    278.2   0.109204785   1.00015   0.54123   0.30963  -0.78189
  53   36317.3    275.4   0.258074132   2.33941   0.92453   0.92915   0.78825
  54   36948.0    270.7   0.111775077   0.99593   0.83959   0.53821   0.03688
  55   37074.3    269.7   0.025665375   0.22790   0.12276   0.13048  -0.44250
  56   37563.1    266.2   0.031494509   0.27603  -0.34279  -0.08168  -0.38968
  57   38005.1    263.1   0.000541947   0.00469  -0.01183  -0.06686  -0.00918
  58   38060.2    262.7   0.492949614   4.26390   1.69032  -0.90180  -0.77037
  59   38142.0    262.2   0.004912759   0.04240  -0.00616  -0.04536   0.20077
  60   38493.6    259.8   0.243371417   2.08140  -1.23679  -0.72137   0.17714
  61   38505.6    259.7   0.097443324   0.83311  -0.59296  -0.66485   0.19874
  62   38506.5    259.7   0.008540723   0.07302   0.13013   0.23093  -0.05249
  63   38770.8    257.9   0.092683684   0.78700  -0.88108   0.06941  -0.07672
  64   38950.3    256.7   0.029216880   0.24694   0.32118  -0.35892  -0.12232
  65   39367.9    254.0   0.000057107   0.00048  -0.01526  -0.01044  -0.01165
  66   39562.2    252.8   0.005346503   0.04449  -0.20215  -0.05193  -0.03048
  67   39759.3    251.5   0.000749898   0.00621   0.06116  -0.03309   0.03706
  68   39845.3    251.0   0.035179536   0.29066   0.52163  -0.09887   0.09378
  69   39911.6    250.6   0.025671511   0.21175  -0.45801  -0.00285  -0.04436
  70   40026.5    249.8   0.022099146   0.18176   0.09795  -0.39119   0.13834
  71   40073.5    249.5   0.002573432   0.02114   0.01386   0.04342  -0.13807
  72   40114.1    249.3   0.032380081   0.26574  -0.45492   0.20761   0.12523
  73   40326.6    248.0   0.017779867   0.14515  -0.29191   0.18504   0.16030

FINAL SINGLE POINT ENERGY     -3791.633177771210

DIPOLE MOMENT
-------------
                                X             Y             Z
Electronic contribution:     -2.86043      16.11360      -9.05292
Nuclear contribution   :      4.07258     -18.79839      10.50462
                        -----------------------------------------
Total Dipole Moment    :      1.21216      -2.68479       1.45170
                        -----------------------------------------
Magnitude (a.u.)       :      3.28403
Magnitude (Debye)      :      8.34734

Rotational constants in cm-1:     0.002002     0.000231     0.000221
Rotational constants in MHz :    60.006779     6.927174     6.622043

                             ****ORCA TERMINATED NORMALLY****
TOTAL RUN TIME: 0 days 0 hours 9 minutes 43 seconds 726 msec
