                         Program Version 4.2.0 -  RELEASE  -
|  1> # ORCA input file
|  2> # SCF done       -189.440411765871          0.000271878306
|  3> ! CAM-B3LYP def2-SVP def2/J RIJCOSX Grid4 TightSCF
|  4> %maxcore 5000
|  5> %tddft
|  6>     Mode sTDDFT
|  7>     Ethresh 5.0
|  8>     maxcore 5000
|  9> end
| 10>
| 11> %pal
| 12>   nprocs 6
| 13>   end
| 14> * xyz 0 1
| 15>    C        1.18733        -0.95921        -0.28164
| 16>    S        1.64117        -1.22744        -1.91924
| 17>    C        1.13000        -2.89600        -1.89689
| 18>    C        1.30216        -3.77774        -3.08377
| 19>    C        2.74320        -4.28007        -3.19710
| 20>    C        0.64841        -3.19392        -0.66513
| 21>    C        0.66921        -2.09326         0.27173
| 22>    N        0.17999        -2.38078         1.50114
| 23>    C       -0.21429        -3.60116         1.59457
| 24>    S       -0.02062        -4.59759         0.10218
| 25>    C       -0.77078        -4.22264         2.74290
| 26>    C       -0.95915        -3.55019         3.90388
| 27>    C       -1.49474        -4.07612         5.11435
| 28>    C       -1.88871        -5.37795         5.30849
| 29>    C       -2.38685        -5.89861         6.50210
| 30>    C       -2.42979        -5.07551         7.72369
| 31>    C       -2.12054        -3.76154         7.76367
| 32>    S       -1.60705        -2.86539         6.39531
| 33>    C       -2.83780        -5.95777         8.75830
| 34>    C       -3.04311        -7.23348         8.23063
| 35>    C       -3.45154        -8.15885         9.21731
| 36>    C       -3.53796        -7.57734        10.44137
| 37>    S       -3.13884        -5.89017        10.45065
| 38>    C       -2.79359        -7.20653         6.81559
| 39>    C       -2.96862        -8.34176         5.97550
| 40>    C       -3.21452        -8.33239         4.64583
| 41>    C       -3.39624        -9.50273         3.82637
| 42>    C       -2.95363       -10.74930         4.20560
| 43>    C       -3.19124       -11.87349         3.38981
| 44>    C       -2.87942       -13.21424         3.55411
| 45>    C       -2.25069       -13.90673         4.71915
| 46>    C       -0.85290       -13.35916         5.05332
| 47>    N       -0.05454       -14.40027         5.67955
| 48>    C       -3.19044       -13.84582         5.93861
| 49>    N       -4.48458       -14.42158         5.60087
| 50>    C       -3.44642       -13.91366         2.42582
| 51>    C       -3.46914       -15.22392         2.12274
| 52>    C       -4.28698       -15.74394         0.99658
| 53>    C       -4.85975       -14.68150         0.10413
| 54>    C       -4.77284       -13.36961         0.38687
| 55>    C       -4.10649       -12.93115         1.55807
| 56>    C       -3.92602       -11.69412         2.13897
| 57>    C       -4.32913       -10.39340         1.75131
| 58>    C       -4.06336        -9.34235         2.56349
| 59>    C       -5.45149       -16.54335         1.54451
| 60>    C       -5.84030       -16.48459         2.82110
| 61>    C       -6.95853       -17.17021         3.41055
| 62>    C       -7.24343       -17.00323         4.73839
| 63>    C       -8.30422       -17.60704         5.42354
| 64>    C       -9.14585       -18.60618         4.74708
| 65>    C       -9.04947       -18.91812         3.43695
| 66>    S       -7.91910       -18.20225         2.36113
| 67>    C      -10.01706       -19.11013         5.75179
| 68>    C       -9.75353       -18.46953         6.96017
| 69>    C      -10.59815       -18.91917         7.99848
| 70>    C      -11.46095       -19.87349         7.56174
| 71>    S      -11.29001       -20.26061         5.88161
| 72>    C       -8.69930       -17.50419         6.76608
| 73>    C       -8.24482       -16.65021         7.80246
| 74>    C       -7.55275       -15.49104         7.65601
| 75>    C       -7.13295       -14.70147         8.75237
| 76>    S       -6.26963       -13.20029         8.49903
| 77>    C       -6.13509       -12.84747        10.20388
| 78>    C       -5.50513       -11.58895        10.68561
| 79>    C       -6.39280       -10.37788        10.39053
| 80>    C       -6.73213       -13.84333        10.90816
| 81>    C       -7.29405       -14.90231        10.11416
| 82>    N       -7.87761       -15.89282        10.82203
| 83>    C       -7.81800       -15.69341        12.08947
| 84>    S       -6.99243       -14.17815        12.59190
| 85>    C       -8.34331       -16.55996        13.10503
| 86>    C       -8.94516       -17.71633        12.83491
| 87>    H        1.32817         0.00232         0.16603
| 88>    H        1.03917        -3.22750        -3.98989
| 89>    H        0.62386        -4.62852        -2.98366
| 90>    H        3.42745        -3.44058        -3.29820
| 91>    H        2.84911        -4.92379        -4.06654
| 92>    H        3.01653        -4.84598        -2.30941
| 93>    H       -1.03031        -5.26506         2.63371
| 94>    H       -0.67527        -2.50621         3.91850
| 95>    H       -1.76388        -6.05519         4.47710
| 96>    H       -2.18049        -3.17885         8.66959
| 97>    H       -3.67031        -9.19537         9.03506
| 98>    H       -3.81338        -8.03538        11.37169
| 99>    H       -2.96591        -9.29077         6.49711
|100>    H       -3.36757        -7.38466         4.14728
|101>    H       -2.40706       -10.87033         5.12766
|102>    H       -2.11907       -14.96078         4.46213
|103>    H       -0.94257       -12.45187         5.67280
|104>    H       -0.35141       -13.07925         4.12262
|105>    H       -0.45792       -14.66746         6.57118
|106>    H        0.88756       -14.06831         5.85390
|107>    H       -3.27070       -12.80144         6.28161
|108>    H       -2.77172       -14.44171         6.75452
|109>    H       -4.92983       -13.84037         4.89503
|110>    H       -5.07860       -14.40981         6.42409
|111>    H       -2.96070       -15.96144         2.72807
|112>    H       -3.67729       -16.42974         0.39015
|113>    H       -5.38634       -15.03217        -0.77057
|114>    H       -5.21532       -12.63504        -0.27106
|115>    H       -4.84358       -10.25490         0.81129
|116>    H       -4.36869        -8.34465         2.28028
|117>    H       -5.99281       -17.13728         0.82094
|118>    H       -5.28689       -15.87255         3.52186
|119>    H       -6.56078       -16.37441         5.29129
|120>    H       -9.69385       -19.64275         2.96447
|121>    H      -10.57391       -18.55895         9.01105
|122>    H      -12.21050       -20.39232         8.12701
|123>    H       -8.51941       -16.93861         8.80859
|124>    H       -7.32929       -15.09739         6.67590
|125>    H       -4.53419       -11.45389        10.20120
|126>    H       -5.34239       -11.67697        11.76241
|127>    H       -6.55735       -10.28359         9.31912
|128>    H       -5.92384        -9.46618        10.75088
|129>    H       -7.35759       -10.49079        10.87970
|130>    H       -8.21808       -16.21383        14.12181
|131>    H       -9.05858       -18.05273        11.81913
|132>    H       -9.33092       -18.34873        13.61486
|133> *
|134>
|135>                          ****END OF INPUT****

CARTESIAN COORDINATES (ANGSTROEM)
---------------------------------
  C      1.187330   -0.959210   -0.281640
  S      1.641170   -1.227440   -1.919240
  C      1.130000   -2.896000   -1.896890
  C      1.302160   -3.777740   -3.083770
  C      2.743200   -4.280070   -3.197100
  C      0.648410   -3.193920   -0.665130
  C      0.669210   -2.093260    0.271730
  N      0.179990   -2.380780    1.501140
  C     -0.214290   -3.601160    1.594570
  S     -0.020620   -4.597590    0.102180
  C     -0.770780   -4.222640    2.742900
  C     -0.959150   -3.550190    3.903880
  C     -1.494740   -4.076120    5.114350
  C     -1.888710   -5.377950    5.308490
  C     -2.386850   -5.898610    6.502100
  C     -2.429790   -5.075510    7.723690
  C     -2.120540   -3.761540    7.763670
  S     -1.607050   -2.865390    6.395310
  C     -2.837800   -5.957770    8.758300
  C     -3.043110   -7.233480    8.230630
  C     -3.451540   -8.158850    9.217310
  C     -3.537960   -7.577340   10.441370
  S     -3.138840   -5.890170   10.450650
  C     -2.793590   -7.206530    6.815590
  C     -2.968620   -8.341760    5.975500
  C     -3.214520   -8.332390    4.645830
  C     -3.396240   -9.502730    3.826370
  C     -2.953630  -10.749300    4.205600
  C     -3.191240  -11.873490    3.389810
  C     -2.879420  -13.214240    3.554110
  C     -2.250690  -13.906730    4.719150
  C     -0.852900  -13.359160    5.053320
  N     -0.054540  -14.400270    5.679550
  C     -3.190440  -13.845820    5.938610
  N     -4.484580  -14.421580    5.600870
  C     -3.446420  -13.913660    2.425820
  C     -3.469140  -15.223920    2.122740
  C     -4.286980  -15.743940    0.996580
  C     -4.859750  -14.681500    0.104130
  C     -4.772840  -13.369610    0.386870
  C     -4.106490  -12.931150    1.558070
  C     -3.926020  -11.694120    2.138970
  C     -4.329130  -10.393400    1.751310
  C     -4.063360   -9.342350    2.563490
  C     -5.451490  -16.543350    1.544510
  C     -5.840300  -16.484590    2.821100
  C     -6.958530  -17.170210    3.410550
  C     -7.243430  -17.003230    4.738390
  C     -8.304220  -17.607040    5.423540
  C     -9.145850  -18.606180    4.747080
  C     -9.049470  -18.918120    3.436950
  S     -7.919100  -18.202250    2.361130
  C    -10.017060  -19.110130    5.751790
  C     -9.753530  -18.469530    6.960170
  C    -10.598150  -18.919170    7.998480
  C    -11.460950  -19.873490    7.561740
  S    -11.290010  -20.260610    5.881610
  C     -8.699300  -17.504190    6.766080
  C     -8.244820  -16.650210    7.802460
  C     -7.552750  -15.491040    7.656010
  C     -7.132950  -14.701470    8.752370
  S     -6.269630  -13.200290    8.499030
  C     -6.135090  -12.847470   10.203880
  C     -5.505130  -11.588950   10.685610
  C     -6.392800  -10.377880   10.390530
  C     -6.732130  -13.843330   10.908160
  C     -7.294050  -14.902310   10.114160
  N     -7.877610  -15.892820   10.822030
  C     -7.818000  -15.693410   12.089470
  S     -6.992430  -14.178150   12.591900
  C     -8.343310  -16.559960   13.105030
  C     -8.945160  -17.716330   12.834910
  H      1.328170    0.002320    0.166030
  H      1.039170   -3.227500   -3.989890
  H      0.623860   -4.628520   -2.983660
  H      3.427450   -3.440580   -3.298200
  H      2.849110   -4.923790   -4.066540
  H      3.016530   -4.845980   -2.309410
  H     -1.030310   -5.265060    2.633710
  H     -0.675270   -2.506210    3.918500
  H     -1.763880   -6.055190    4.477100
  H     -2.180490   -3.178850    8.669590
  H     -3.670310   -9.195370    9.035060
  H     -3.813380   -8.035380   11.371690
  H     -2.965910   -9.290770    6.497110
  H     -3.367570   -7.384660    4.147280
  H     -2.407060  -10.870330    5.127660
  H     -2.119070  -14.960780    4.462130
  H     -0.942570  -12.451870    5.672800
  H     -0.351410  -13.079250    4.122620
  H     -0.457920  -14.667460    6.571180
  H      0.887560  -14.068310    5.853900
  H     -3.270700  -12.801440    6.281610
  H     -2.771720  -14.441710    6.754520
  H     -4.929830  -13.840370    4.895030
  H     -5.078600  -14.409810    6.424090
  H     -2.960700  -15.961440    2.728070
  H     -3.677290  -16.429740    0.390150
  H     -5.386340  -15.032170   -0.770570
  H     -5.215320  -12.635040   -0.271060
  H     -4.843580  -10.254900    0.811290
  H     -4.368690   -8.344650    2.280280
  H     -5.992810  -17.137280    0.820940
  H     -5.286890  -15.872550    3.521860
  H     -6.560780  -16.374410    5.291290
  H     -9.693850  -19.642750    2.964470
  H    -10.573910  -18.558950    9.011050
  H    -12.210500  -20.392320    8.127010
  H     -8.519410  -16.938610    8.808590
  H     -7.329290  -15.097390    6.675900
  H     -4.534190  -11.453890   10.201200
  H     -5.342390  -11.676970   11.762410
  H     -6.557350  -10.283590    9.319120
  H     -5.923840   -9.466180   10.750880
  H     -7.357590  -10.490790   10.879700
  H     -8.218080  -16.213830   14.121810
  H     -9.058580  -18.052730   11.819130
  H     -9.330920  -18.348730   13.614860

 Total Charge           Charge          ....    0
 Multiplicity           Mult            ....    1
 Number of Electrons    NEL             ....  562
 Basis Dimension        Dim             .... 1270

ORBITAL ENERGIES
----------------

  NO   OCC          E(Eh)            E(eV)
   0   2.0000     -88.966644     -2420.9055
   1   2.0000     -88.957423     -2420.6546
   2   2.0000     -88.952828     -2420.5295
   3   2.0000     -88.952341     -2420.5163
   4   2.0000     -88.947184     -2420.3759
   5   2.0000     -88.947079     -2420.3731
   6   2.0000     -88.943074     -2420.2641
   7   2.0000     -88.940975     -2420.2070
   8   2.0000     -14.404893      -391.9771
   9   2.0000     -14.396515      -391.7491
  10   2.0000     -14.378299      -391.2534
  11   2.0000     -14.371443      -391.0668
  12   2.0000     -10.335759      -281.2503
  13   2.0000     -10.332973      -281.1745
  14   2.0000     -10.321604      -280.8651
  15   2.0000     -10.312641      -280.6212
  16   2.0000     -10.312212      -280.6096
  17   2.0000     -10.301634      -280.3217
  18   2.0000     -10.294689      -280.1327
  19   2.0000     -10.294554      -280.1291
  20   2.0000     -10.294173      -280.1187
  21   2.0000     -10.293574      -280.1024
  22   2.0000     -10.292559      -280.0748
  23   2.0000     -10.291533      -280.0469
  24   2.0000     -10.291021      -280.0329
  25   2.0000     -10.290882      -280.0291
  26   2.0000     -10.290160      -280.0095
  27   2.0000     -10.290115      -280.0083
  28   2.0000     -10.289148      -279.9819
  29   2.0000     -10.286122      -279.8996
  30   2.0000     -10.283966      -279.8410
  31   2.0000     -10.283350      -279.8242
  32   2.0000     -10.282393      -279.7981
  33   2.0000     -10.282332      -279.7965
  34   2.0000     -10.281976      -279.7868
  35   2.0000     -10.280805      -279.7549
  36   2.0000     -10.280075      -279.7351
  37   2.0000     -10.279262      -279.7129
  38   2.0000     -10.278688      -279.6973
  39   2.0000     -10.278032      -279.6795
  40   2.0000     -10.276256      -279.6311
  41   2.0000     -10.275647      -279.6146
  42   2.0000     -10.274419      -279.5812
  43   2.0000     -10.274033      -279.5706
  44   2.0000     -10.273935      -279.5680
  45   2.0000     -10.272821      -279.5377
  46   2.0000     -10.270910      -279.4857
  47   2.0000     -10.268755      -279.4270
  48   2.0000     -10.268159      -279.4108
  49   2.0000     -10.267967      -279.4056
  50   2.0000     -10.267770      -279.4002
  51   2.0000     -10.267046      -279.3805
  52   2.0000     -10.266921      -279.3771
  53   2.0000     -10.264375      -279.3078
  54   2.0000     -10.263704      -279.2896
  55   2.0000     -10.263481      -279.2835
  56   2.0000     -10.262161      -279.2476
  57   2.0000     -10.261613      -279.2327
  58   2.0000     -10.261437      -279.2279
  59   2.0000     -10.260594      -279.2050
  60   2.0000     -10.258915      -279.1593
  61   2.0000     -10.258142      -279.1382
  62   2.0000     -10.257995      -279.1342
  63   2.0000     -10.257482      -279.1203
  64   2.0000     -10.256769      -279.1009
  65   2.0000     -10.256012      -279.0803
  66   2.0000     -10.255139      -279.0565
  67   2.0000     -10.254594      -279.0417
  68   2.0000     -10.254375      -279.0357
  69   2.0000     -10.253340      -279.0076
  70   2.0000     -10.252920      -278.9961
  71   2.0000     -10.247665      -278.8532
  72   2.0000      -8.062090      -219.3806
  73   2.0000      -8.052731      -219.1260
  74   2.0000      -8.048213      -219.0030
  75   2.0000      -8.047110      -218.9730
  76   2.0000      -8.043075      -218.8632
  77   2.0000      -8.042508      -218.8478
  78   2.0000      -8.038348      -218.7346
  79   2.0000      -8.036939      -218.6962
  80   2.0000      -6.031573      -164.1274
  81   2.0000      -6.027153      -164.0072
  82   2.0000      -6.024018      -163.9219
  83   2.0000      -6.022226      -163.8731
  84   2.0000      -6.017791      -163.7524
  85   2.0000      -6.017692      -163.7497
  86   2.0000      -6.016467      -163.7164
  87   2.0000      -6.014735      -163.6692
  88   2.0000      -6.013470      -163.6348
  89   2.0000      -6.012573      -163.6104
  90   2.0000      -6.012413      -163.6061
  91   2.0000      -6.011884      -163.5917
  92   2.0000      -6.010149      -163.5445
  93   2.0000      -6.009230      -163.5195
  94   2.0000      -6.008902      -163.5105
  95   2.0000      -6.007797      -163.4805
  96   2.0000      -6.007508      -163.4726
  97   2.0000      -6.006461      -163.4441
  98   2.0000      -6.004807      -163.3991
  99   2.0000      -6.004200      -163.3826
 100   2.0000      -6.003610      -163.3665
 101   2.0000      -6.002829      -163.3453
 102   2.0000      -6.000374      -163.2785
 103   2.0000      -5.997960      -163.2128
 104   2.0000      -1.058767       -28.8105
 105   2.0000      -1.051620       -28.6160
 106   2.0000      -0.999957       -27.2102
 107   2.0000      -0.989286       -26.9198
 108   2.0000      -0.976095       -26.5609
 109   2.0000      -0.968737       -26.3607
 110   2.0000      -0.967255       -26.3203
 111   2.0000      -0.962219       -26.1833
 112   2.0000      -0.959860       -26.1191
 113   2.0000      -0.956173       -26.0188
 114   2.0000      -0.946813       -25.7641
 115   2.0000      -0.936469       -25.4826
 116   2.0000      -0.924037       -25.1443
 117   2.0000      -0.914706       -24.8904
 118   2.0000      -0.907899       -24.7052
 119   2.0000      -0.901834       -24.5401
 120   2.0000      -0.898463       -24.4484
 121   2.0000      -0.884096       -24.0575
 122   2.0000      -0.882782       -24.0217
 123   2.0000      -0.879042       -23.9200
 124   2.0000      -0.869298       -23.6548
 125   2.0000      -0.867901       -23.6168
 126   2.0000      -0.862783       -23.4775
 127   2.0000      -0.860580       -23.4176
 128   2.0000      -0.856077       -23.2950
 129   2.0000      -0.851600       -23.1732
 130   2.0000      -0.840335       -22.8667
 131   2.0000      -0.828887       -22.5552
 132   2.0000      -0.827870       -22.5275
 133   2.0000      -0.825081       -22.4516
 134   2.0000      -0.817221       -22.2377
 135   2.0000      -0.813269       -22.1302
 136   2.0000      -0.800477       -21.7821
 137   2.0000      -0.799736       -21.7619
 138   2.0000      -0.789705       -21.4890
 139   2.0000      -0.788086       -21.4449
 140   2.0000      -0.777871       -21.1670
 141   2.0000      -0.775844       -21.1118
 142   2.0000      -0.762572       -20.7506
 143   2.0000      -0.750669       -20.4267
 144   2.0000      -0.748729       -20.3740
 145   2.0000      -0.736969       -20.0540
 146   2.0000      -0.731423       -19.9030
 147   2.0000      -0.723150       -19.6779
 148   2.0000      -0.716689       -19.5021
 149   2.0000      -0.714311       -19.4374
 150   2.0000      -0.705454       -19.1964
 151   2.0000      -0.704569       -19.1723
 152   2.0000      -0.698295       -19.0016
 153   2.0000      -0.692225       -18.8364
 154   2.0000      -0.678116       -18.4525
 155   2.0000      -0.671083       -18.2611
 156   2.0000      -0.664472       -18.0812
 157   2.0000      -0.662008       -18.0142
 158   2.0000      -0.659563       -17.9476
 159   2.0000      -0.654166       -17.8008
 160   2.0000      -0.646671       -17.5968
 161   2.0000      -0.643160       -17.5013
 162   2.0000      -0.630797       -17.1649
 163   2.0000      -0.626088       -17.0367
 164   2.0000      -0.623000       -16.9527
 165   2.0000      -0.621552       -16.9133
 166   2.0000      -0.618521       -16.8308
 167   2.0000      -0.614358       -16.7175
 168   2.0000      -0.613083       -16.6828
 169   2.0000      -0.607059       -16.5189
 170   2.0000      -0.602745       -16.4015
 171   2.0000      -0.591935       -16.1074
 172   2.0000      -0.584179       -15.8963
 173   2.0000      -0.583144       -15.8682
 174   2.0000      -0.581205       -15.8154
 175   2.0000      -0.577285       -15.7087
 176   2.0000      -0.570787       -15.5319
 177   2.0000      -0.567134       -15.4325
 178   2.0000      -0.560866       -15.2619
 179   2.0000      -0.558614       -15.2007
 180   2.0000      -0.556272       -15.1369
 181   2.0000      -0.555866       -15.1259
 182   2.0000      -0.552729       -15.0405
 183   2.0000      -0.551755       -15.0140
 184   2.0000      -0.545987       -14.8571
 185   2.0000      -0.543970       -14.8022
 186   2.0000      -0.541567       -14.7368
 187   2.0000      -0.537118       -14.6157
 188   2.0000      -0.534579       -14.5466
 189   2.0000      -0.529539       -14.4095
 190   2.0000      -0.525704       -14.3051
 191   2.0000      -0.524521       -14.2730
 192   2.0000      -0.519949       -14.1485
 193   2.0000      -0.516167       -14.0456
 194   2.0000      -0.514652       -14.0044
 195   2.0000      -0.513513       -13.9734
 196   2.0000      -0.512599       -13.9485
 197   2.0000      -0.510124       -13.8812
 198   2.0000      -0.508689       -13.8421
 199   2.0000      -0.506192       -13.7742
 200   2.0000      -0.503527       -13.7017
 201   2.0000      -0.503089       -13.6897
 202   2.0000      -0.502643       -13.6776
 203   2.0000      -0.498410       -13.5624
 204   2.0000      -0.495289       -13.4775
 205   2.0000      -0.493037       -13.4162
 206   2.0000      -0.492535       -13.4026
 207   2.0000      -0.490564       -13.3489
 208   2.0000      -0.484949       -13.1961
 209   2.0000      -0.482463       -13.1285
 210   2.0000      -0.479131       -13.0378
 211   2.0000      -0.477121       -12.9831
 212   2.0000      -0.472914       -12.8686
 213   2.0000      -0.472016       -12.8442
 214   2.0000      -0.468093       -12.7375
 215   2.0000      -0.466611       -12.6971
 216   2.0000      -0.465244       -12.6599
 217   2.0000      -0.462772       -12.5927
 218   2.0000      -0.458606       -12.4793
 219   2.0000      -0.458002       -12.4629
 220   2.0000      -0.456939       -12.4339
 221   2.0000      -0.452595       -12.3157
 222   2.0000      -0.451309       -12.2808
 223   2.0000      -0.450623       -12.2621
 224   2.0000      -0.450459       -12.2576
 225   2.0000      -0.443286       -12.0624
 226   2.0000      -0.441006       -12.0004
 227   2.0000      -0.438568       -11.9340
 228   2.0000      -0.436248       -11.8709
 229   2.0000      -0.435199       -11.8424
 230   2.0000      -0.434301       -11.8179
 231   2.0000      -0.430547       -11.7158
 232   2.0000      -0.429636       -11.6910
 233   2.0000      -0.427069       -11.6211
 234   2.0000      -0.426381       -11.6024
 235   2.0000      -0.425918       -11.5898
 236   2.0000      -0.424269       -11.5449
 237   2.0000      -0.422721       -11.5028
 238   2.0000      -0.418997       -11.4015
 239   2.0000      -0.415173       -11.2974
 240   2.0000      -0.412323       -11.2199
 241   2.0000      -0.411712       -11.2033
 242   2.0000      -0.410069       -11.1585
 243   2.0000      -0.406799       -11.0696
 244   2.0000      -0.405453       -11.0329
 245   2.0000      -0.403365       -10.9761
 246   2.0000      -0.402921       -10.9640
 247   2.0000      -0.401027       -10.9125
 248   2.0000      -0.399817       -10.8796
 249   2.0000      -0.398440       -10.8421
 250   2.0000      -0.396890       -10.7999
 251   2.0000      -0.394383       -10.7317
 252   2.0000      -0.392662       -10.6849
 253   2.0000      -0.390991       -10.6394
 254   2.0000      -0.380275       -10.3478
 255   2.0000      -0.378887       -10.3100
 256   2.0000      -0.376337       -10.2407
 257   2.0000      -0.362802        -9.8723
 258   2.0000      -0.359760        -9.7896
 259   2.0000      -0.356975        -9.7138
 260   2.0000      -0.354180        -9.6377
 261   2.0000      -0.342267        -9.3136
 262   2.0000      -0.341969        -9.3055
 263   2.0000      -0.341029        -9.2799
 264   2.0000      -0.337608        -9.1868
 265   2.0000      -0.329352        -8.9621
 266   2.0000      -0.323031        -8.7901
 267   2.0000      -0.317747        -8.6463
 268   2.0000      -0.310477        -8.4485
 269   2.0000      -0.305872        -8.3232
 270   2.0000      -0.295072        -8.0293
 271   2.0000      -0.290590        -7.9073
 272   2.0000      -0.289458        -7.8766
 273   2.0000      -0.287610        -7.8263
 274   2.0000      -0.272346        -7.4109
 275   2.0000      -0.269097        -7.3225
 276   2.0000      -0.260787        -7.0964
 277   2.0000      -0.256651        -6.9838
 278   2.0000      -0.229161        -6.2358
 279   2.0000      -0.210685        -5.7330
 280   2.0000      -0.206006        -5.6057
 281   0.0000      -0.070919        -1.9298
 282   0.0000      -0.054292        -1.4774
 283   0.0000      -0.050968        -1.3869
 284   0.0000      -0.031588        -0.8596
 285   0.0000      -0.021723        -0.5911

MULLIKEN ATOMIC CHARGES
-----------------------
   0 C :   -0.180566
   1 S :    0.110343
   2 C :   -0.333875
   3 C :    0.085689
   4 C :    0.017214
   5 C :    0.033335
   6 C :    0.130748
   7 N :   -0.030411
   8 C :   -0.105308
   9 S :    0.065646
  10 C :    0.050930
  11 C :    0.068499
  12 C :   -0.092393
  13 C :   -0.032252
  14 C :    0.035908
  15 C :    0.059871
  16 C :   -0.134038
  17 S :    0.137248
  18 C :   -0.112019
  19 C :    0.052733
  20 C :    0.010010
  21 C :   -0.072741
  22 S :    0.125350
  23 C :    0.083106
  24 C :   -0.014112
  25 C :   -0.030760
  26 C :    0.112445
  27 C :   -0.092484
  28 C :    0.056065
  29 C :   -0.097474
  30 C :   -0.003974
  31 C :    0.128249
  32 N :   -0.212175
  33 C :    0.141055
  34 N :   -0.218170
  35 C :    0.091760
  36 C :   -0.142435
  37 C :    0.162020
  38 C :   -0.027931
  39 C :    0.016955
  40 C :    0.021120
  41 C :    0.021831
  42 C :    0.000726
  43 C :   -0.018304
  44 C :   -0.111080
  45 C :    0.030234
  46 C :   -0.034029
  47 C :   -0.063623
  48 C :    0.055390
  49 C :    0.063888
  50 C :   -0.132020
  51 S :    0.107490
  52 C :   -0.111609
  53 C :    0.050168
  54 C :    0.009566
  55 C :   -0.072576
  56 S :    0.116625
  57 C :    0.089090
  58 C :   -0.029885
  59 C :    0.011951
  60 C :   -0.158005
  61 S :    0.097736
  62 C :   -0.341905
  63 C :    0.084812
  64 C :    0.015298
  65 C :    0.054449
  66 C :    0.079713
  67 N :   -0.018463
  68 C :   -0.099610
  69 S :    0.068338
  70 C :    0.026385
  71 C :    0.020928
  72 H :    0.010864
  73 H :    0.013007
  74 H :    0.012214
  75 H :    0.012906
  76 H :    0.016853
  77 H :    0.019959
  78 H :   -0.010606
  79 H :    0.010323
  80 H :   -0.016207
  81 H :    0.033751
  82 H :   -0.029157
  83 H :    0.029050
  84 H :   -0.025599
  85 H :   -0.022758
  86 H :   -0.052087
  87 H :   -0.023058
  88 H :   -0.016268
  89 H :    0.001705
  90 H :    0.083899
  91 H :    0.090059
  92 H :   -0.026821
  93 H :   -0.010845
  94 H :    0.119527
  95 H :    0.096406
  96 H :    0.010806
  97 H :    0.025452
  98 H :   -0.014401
  99 H :   -0.039944
 100 H :   -0.039261
 101 H :   -0.033385
 102 H :    0.005854
 103 H :    0.003044
 104 H :   -0.026189
 105 H :    0.029462
 106 H :   -0.021125
 107 H :    0.020455
 108 H :   -0.014749
 109 H :   -0.040740
 110 H :    0.012658
 111 H :    0.008800
 112 H :    0.020144
 113 H :    0.010620
 114 H :    0.020016
 115 H :   -0.004559
 116 H :    0.043237
 117 H :    0.029997
Sum of atomic charges:   -0.0000000

LOEWDIN ATOMIC CHARGES
----------------------
   0 C :   -0.207819
   1 S :    0.435394
   2 C :   -0.200561
   3 C :   -0.043320
   4 C :   -0.050862
   5 C :   -0.216878
   6 C :   -0.065072
   7 N :   -0.101382
   8 C :   -0.093925
   9 S :    0.332372
  10 C :   -0.064489
  11 C :    0.001895
  12 C :   -0.178875
  13 C :   -0.005740
  14 C :   -0.026029
  15 C :   -0.050586
  16 C :   -0.141886
  17 S :    0.449388
  18 C :   -0.201409
  19 C :   -0.040160
  20 C :   -0.064302
  21 C :   -0.167822
  22 S :    0.416481
  23 C :   -0.047109
  24 C :   -0.016603
  25 C :   -0.027512
  26 C :   -0.028835
  27 C :   -0.024116
  28 C :   -0.021355
  29 C :   -0.049312
  30 C :   -0.038659
  31 C :    0.027366
  32 N :   -0.119612
  33 C :    0.029705
  34 N :   -0.116225
  35 C :   -0.021749
  36 C :    0.072979
  37 C :   -0.029568
  38 C :   -0.025834
  39 C :   -0.021559
  40 C :   -0.036274
  41 C :   -0.031372
  42 C :   -0.010384
  43 C :   -0.029876
  44 C :   -0.019405
  45 C :   -0.046102
  46 C :   -0.165063
  47 C :   -0.021838
  48 C :   -0.024727
  49 C :   -0.047857
  50 C :   -0.143610
  51 S :    0.438556
  52 C :   -0.206560
  53 C :   -0.039538
  54 C :   -0.064173
  55 C :   -0.171172
  56 S :    0.411483
  57 C :   -0.052161
  58 C :   -0.002574
  59 C :   -0.064102
  60 C :   -0.173332
  61 S :    0.427780
  62 C :   -0.204139
  63 C :   -0.044084
  64 C :   -0.052369
  65 C :   -0.208553
  66 C :   -0.068561
  67 N :   -0.084618
  68 C :   -0.098516
  69 S :    0.341160
  70 C :   -0.061386
  71 C :    0.007569
  72 H :    0.025190
  73 H :    0.030617
  74 H :    0.032475
  75 H :    0.021844
  76 H :    0.023579
  77 H :    0.026686
  78 H :    0.027039
  79 H :    0.035373
  80 H :    0.036896
  81 H :    0.035360
  82 H :    0.027040
  83 H :    0.020168
  84 H :    0.025526
  85 H :    0.023031
  86 H :    0.016214
  87 H :    0.027421
  88 H :   -0.003132
  89 H :    0.021786
  90 H :    0.047816
  91 H :    0.054297
  92 H :   -0.002756
  93 H :    0.013091
  94 H :    0.055915
  95 H :    0.036911
  96 H :    0.034371
  97 H :    0.053097
  98 H :    0.022558
  99 H :    0.028120
 100 H :    0.026335
 101 H :    0.023421
 102 H :    0.016340
 103 H :    0.033976
 104 H :    0.036477
 105 H :    0.033244
 106 H :    0.029792
 107 H :    0.020587
 108 H :    0.029542
 109 H :    0.019900
 110 H :    0.027574
 111 H :    0.031923
 112 H :    0.022802
 113 H :    0.021907
 114 H :    0.028018
 115 H :    0.030229
 116 H :    0.031552
 117 H :    0.029237

  Mayer bond orders larger than 0.100000
B(  0-C ,  1-S ) :   1.1463 B(  0-C ,  2-C ) :   0.1001 B(  0-C ,  6-C ) :   1.4949
B(  0-C , 72-H ) :   0.9795 B(  1-S ,  2-C ) :   1.1534 B(  2-C ,  3-C ) :   1.0590
B(  2-C ,  5-C ) :   1.6054 B(  3-C ,  4-C ) :   1.1004 B(  3-C , 73-H ) :   0.9254
B(  3-C , 74-H ) :   0.9332 B(  4-C , 75-H ) :   0.9708 B(  4-C , 76-H ) :   0.9689
B(  4-C , 77-H ) :   0.9719 B(  5-C ,  6-C ) :   1.1814 B(  5-C ,  9-S ) :   1.0193
B(  6-C ,  7-N ) :   1.2695 B(  7-N ,  8-C ) :   1.7874 B(  7-N ,  9-S ) :   0.1054
B(  8-C ,  9-S ) :   1.0111 B(  8-C , 10-C ) :   1.0969 B( 10-C , 11-C ) :   1.7322
B( 10-C , 78-H ) :   0.9406 B( 11-C , 12-C ) :   1.0972 B( 11-C , 79-H ) :   0.9616
B( 12-C , 13-C ) :   1.5371 B( 12-C , 17-S ) :   1.0454 B( 13-C , 14-C ) :   1.2467
B( 13-C , 80-H ) :   0.9618 B( 14-C , 15-C ) :   1.0447 B( 14-C , 23-C ) :   1.3938
B( 15-C , 16-C ) :   1.6030 B( 15-C , 18-C ) :   1.1904 B( 16-C , 17-S ) :   1.1447
B( 16-C , 81-H ) :   0.9416 B( 18-C , 19-C ) :   1.4311 B( 18-C , 22-S ) :   1.0707
B( 19-C , 20-C ) :   1.2183 B( 19-C , 23-C ) :   1.1149 B( 20-C , 21-C ) :   1.5834
B( 20-C , 82-H ) :   0.9940 B( 21-C , 22-S ) :   1.1509 B( 21-C , 83-H ) :   0.9620
B( 23-C , 24-C ) :   1.1285 B( 24-C , 25-C ) :   1.6671 B( 24-C , 84-H ) :   0.9586
B( 25-C , 26-C ) :   1.0656 B( 25-C , 85-H ) :   0.9771 B( 26-C , 27-C ) :   1.5290
B( 26-C , 43-C ) :   1.1089 B( 27-C , 28-C ) :   1.1397 B( 27-C , 86-H ) :   0.9828
B( 28-C , 29-C ) :   1.4492 B( 28-C , 41-C ) :   1.1194 B( 29-C , 30-C ) :   1.0403
B( 29-C , 35-C ) :   1.1239 B( 30-C , 31-C ) :   1.0378 B( 30-C , 33-C ) :   1.0337
B( 30-C , 87-H ) :   0.8691 B( 31-C , 32-N ) :   1.1021 B( 31-C , 88-H ) :   0.9288
B( 31-C , 89-H ) :   0.9453 B( 32-N , 90-H ) :   0.9708 B( 32-N , 91-H ) :   0.9677
B( 33-C , 34-N ) :   1.0898 B( 33-C , 92-H ) :   0.9293 B( 33-C , 93-H ) :   0.9383
B( 34-N , 94-H ) :   0.9446 B( 34-N , 95-H ) :   0.9459 B( 35-C , 36-C ) :   1.6534
B( 35-C , 40-C ) :   1.0573 B( 36-C , 37-C ) :   1.0002 B( 36-C , 96-H ) :   0.9642
B( 37-C , 38-C ) :   0.9828 B( 37-C , 44-C ) :   0.9501 B( 37-C , 97-H ) :   0.8644
B( 38-C , 39-C ) :   1.7447 B( 38-C , 98-H ) :   0.9647 B( 39-C , 40-C ) :   1.1226
B( 39-C , 99-H ) :   0.9873 B( 40-C , 41-C ) :   1.4381 B( 41-C , 42-C ) :   1.1387
B( 42-C , 43-C ) :   1.6087 B( 42-C ,100-H ) :   0.9909 B( 43-C ,101-H ) :   0.9894
B( 44-C , 45-C ) :   1.8146 B( 44-C ,102-H ) :   0.9609 B( 45-C , 46-C ) :   1.1144
B( 45-C ,103-H ) :   0.9374 B( 46-C , 47-C ) :   1.5517 B( 46-C , 51-S ) :   1.0362
B( 47-C , 48-C ) :   1.1697 B( 47-C ,104-H ) :   0.9726 B( 48-C , 49-C ) :   1.0564
B( 48-C , 57-C ) :   1.4055 B( 49-C , 50-C ) :   1.6116 B( 49-C , 52-C ) :   1.1710
B( 50-C , 51-S ) :   1.1341 B( 50-C ,105-H ) :   0.9421 B( 52-C , 53-C ) :   1.4506
B( 52-C , 56-S ) :   1.0695 B( 53-C , 54-C ) :   1.2228 B( 53-C , 57-C ) :   1.0945
B( 54-C , 55-C ) :   1.5807 B( 54-C ,106-H ) :   0.9978 B( 55-C , 56-S ) :   1.1526
B( 55-C ,107-H ) :   0.9667 B( 57-C , 58-C ) :   1.1403 B( 58-C , 59-C ) :   1.6394
B( 58-C ,108-H ) :   0.9531 B( 59-C , 60-C ) :   1.1473 B( 59-C ,109-H ) :   0.9481
B( 60-C , 61-S ) :   1.1038 B( 60-C , 62-C ) :   0.1017 B( 60-C , 66-C ) :   1.4334
B( 61-S , 62-C ) :   1.1177 B( 62-C , 63-C ) :   1.0568 B( 62-C , 65-C ) :   1.6153
B( 63-C , 64-C ) :   1.1011 B( 63-C ,110-H ) :   0.9241 B( 63-C ,111-H ) :   0.9296
B( 64-C ,112-H ) :   0.9695 B( 64-C ,113-H ) :   0.9659 B( 64-C ,114-H ) :   0.9678
B( 65-C , 66-C ) :   1.1999 B( 65-C , 69-S ) :   1.0181 B( 66-C , 67-N ) :   1.2958
B( 67-N , 68-C ) :   1.7801 B( 67-N , 69-S ) :   0.1081 B( 68-C , 69-S ) :   1.0195
B( 68-C , 70-C ) :   1.0650 B( 70-C , 71-C ) :   1.9566 B( 70-C ,115-H ) :   0.9498
B( 71-C ,116-H ) :   0.9514 B( 71-C ,117-H ) :   0.9466

-----------------------------------------------------------------------------
         ABSORPTION SPECTRUM VIA TRANSITION ELECTRIC DIPOLE MOMENTS
-----------------------------------------------------------------------------
State   Energy  Wavelength   fosc         T2         TX        TY        TZ
        (cm-1)    (nm)                  (au**2)     (au)      (au)      (au)
-----------------------------------------------------------------------------
   0   14169.4    705.7   0.102505744   2.38162  -0.21077   1.36987  -0.67872
   1   17610.6    567.8   0.451655587   8.44321  -1.10203  -2.03640   1.75551
   2   17933.2    557.6   0.289908287   5.32204   0.87952   0.91701  -1.92551
   3   18346.3    545.1   0.572026183  10.26460   0.93307   2.60026   1.62253
   4   19833.5    504.2   0.070262617   1.16628   0.21536   1.00680  -0.32596
   5   20663.8    483.9   0.096026831   1.52988   0.38711   0.87270   0.78640
   6   21152.8    472.8   0.004385147   0.06825   0.11132   0.11857  -0.20444
   7   22677.5    441.0   0.101388125   1.47186   0.55528   0.66688   0.84782
   8   24041.0    416.0   0.099231374   1.35885   0.09089  -0.36062  -1.10478
   9   24852.6    402.4   0.450317774   5.96517   0.34935  -0.66159  -2.32496
  10   26638.7    375.4   0.090744119   1.12145   0.16139  -0.21568  -1.02415
  11   26820.2    372.9   0.200827299   2.46511  -0.51535  -0.02016   1.48294
  12   27268.9    366.7   0.185568615   2.24033  -0.88718  -1.05028  -0.59175
  13   27752.4    360.3   0.007191194   0.08531   0.00826   0.13122   0.26081
  14   27884.8    358.6   0.010524123   0.12425  -0.24547  -0.14818   0.20503
  15   28123.7    355.6   0.286308072   3.35149   0.15355  -1.25721  -1.32187
  16   28855.8    346.6   0.023846431   0.27206  -0.04977  -0.30667  -0.41897
  17   29558.4    338.3   0.160626832   1.78901  -0.07067  -0.51389  -1.23285
  18   30034.8    332.9   0.022796798   0.24988  -0.13553  -0.46335   0.12968
  19   30258.7    330.5   0.151147175   1.64447   0.10753   0.06565  -1.27616
  20   31006.8    322.5   0.045231487   0.48024   0.06040   0.59391   0.35194
  21   31123.5    321.3   0.110308387   1.16680  -0.26352  -1.04421  -0.08361
  22   31746.3    315.0   0.114403488   1.18637   0.48378   0.42819  -0.87692
  23   32119.3    311.3   0.411682132   4.21960   0.81016   1.70889  -0.80184
  24   32576.2    307.0   0.004940046   0.04992  -0.18256  -0.03449  -0.12413
  25   32959.4    303.4   0.224692932   2.24433   0.13992  -0.92269  -1.17192
  26   33230.1    300.9   0.062335622   0.61756   0.09350  -0.30472  -0.71831
  27   33429.3    299.1   0.246083103   2.42343   0.39813  -0.23671  -1.48623
  28   33933.2    294.7   0.151137251   1.46630  -0.44135  -0.60012  -0.95466
  29   34675.4    288.4   0.181640260   1.72451  -0.56749  -1.06597   0.51593
  30   34843.9    287.0   0.103317357   0.97616   0.35753   0.48141  -0.78522
  31   35212.3    284.0   0.099552592   0.93075   0.34680   0.84511  -0.31028
  32   35247.5    283.7   0.014470876   0.13516  -0.15158   0.02384   0.33409
  33   35737.3    279.8   0.134971161   1.24335   0.55886   0.89128   0.36967
  34   35834.0    279.1   0.236498714   2.17274  -0.36221  -0.84723  -1.15054
  35   35980.5    277.9   0.132983489   1.21676  -0.44752  -0.85941   0.52716
  36   36476.1    274.2   0.052131198   0.47051   0.03269   0.44578   0.52031
  37   36689.5    272.6   0.111667338   1.00198   0.30582   0.89160   0.33690
  38   36696.2    272.5   0.010032198   0.09000   0.01798  -0.16903  -0.24720
  39   37122.8    269.4   0.123533692   1.09552  -0.17661  -0.76402   0.69325
  40   37160.6    269.1   0.016620792   0.14725  -0.06641  -0.37006   0.07674
  41   37551.9    266.3   0.006333601   0.05553  -0.00206   0.16678   0.16645
  42   37793.0    264.6   0.008256039   0.07192  -0.04019  -0.07819   0.25335
  43   38120.8    262.3   0.072437470   0.62557  -0.25840  -0.72994   0.16119
  44   38436.2    260.2   0.068522572   0.58691  -0.40485  -0.56935   0.31439
  45   38690.7    258.5   0.070375798   0.59881   0.14483   0.04436  -0.75886
  46   38891.9    257.1   0.296615998   2.51079  -0.98085  -1.09999   0.58203
  47   39026.3    256.2   0.173922105   1.46714   0.51914   1.09323   0.04999
  48   39176.7    255.3   0.033957332   0.28535   0.20781   0.44826  -0.20305
  49   39306.1    254.4   0.043819509   0.36701   0.32357   0.50923  -0.05480
  50   39550.6    252.8   0.046656125   0.38836  -0.41887   0.00060   0.46142
  51   39670.2    252.1   0.063243347   0.52484   0.47308   0.20535  -0.50879
  52   39896.7    250.6   0.490035977   4.04359   1.30107   0.72891  -1.34889
  53   40003.5    250.0   0.007590794   0.06247  -0.01092   0.09085   0.23259
  54   40124.0    249.2   0.165346083   1.35664   0.69940   0.74023  -0.56528

FINAL SINGLE POINT ENERGY     -5714.215877650205

DIPOLE MOMENT
-------------
                                X             Y             Z
Electronic contribution:    -20.34716      19.21258       8.41845
Nuclear contribution   :     20.35025     -19.35447      -7.74333
                        -----------------------------------------
Total Dipole Moment    :      0.00310      -0.14189       0.67512
                        -----------------------------------------
Magnitude (a.u.)       :      0.68988
Magnitude (Debye)      :      1.75354

Rotational constants in cm-1:     0.001046     0.000317     0.000255
Rotational constants in MHz :    31.371135     9.492563     7.633392

                             ****ORCA TERMINATED NORMALLY****
TOTAL RUN TIME: 0 days 0 hours 17 minutes 18 seconds 138 msec
