                         Program Version 4.2.0 -  RELEASE  -
|  1> # ORCA input file
|  2> # SCF done       -174.420671035399          0.000803758994
|  3> ! CAM-B3LYP def2-SVP def2/J RIJCOSX Grid4 TightSCF
|  4> %maxcore 5000
|  5> %tddft
|  6>     Mode sTDDFT
|  7>     Ethresh 5.0
|  8>     maxcore 5000
|  9> end
| 10>
| 11> %pal
| 12>   nprocs 6
| 13>   end
| 14> * xyz 0 1
| 15>    C       -1.74163        -9.75962         6.31255
| 16>    S       -3.02595       -10.54565         7.12648
| 17>    C       -3.02327       -11.81021         5.94268
| 18>    C       -3.76806       -12.98278         5.76107
| 19>    C       -3.36645       -13.66739         4.64465
| 20>    C       -3.95077       -14.93448         4.17830
| 21>    O       -4.85457       -15.46802         4.76264
| 22>    O       -3.42739       -15.47058         3.06362
| 23>    S       -2.05593       -12.85753         3.80636
| 24>    C       -2.05254       -11.58801         4.96957
| 25>    C       -1.29607       -10.39745         5.17487
| 26>    C       -0.23379        -9.92188         4.34043
| 27>    C        0.13517       -10.52155         3.05538
| 28>    N        1.13864        -9.94779         2.45960
| 29>    C        1.51460        -8.93220         3.28459
| 30>    C        0.65266        -8.87509         4.48002
| 31>    C        1.10704        -7.81010         5.34422
| 32>    S        0.53103        -7.39209         6.83031
| 33>    C        2.22966        -7.22413         4.65218
| 34>    C        2.46224        -7.95122         3.39268
| 35>    N        3.55928        -7.46496         2.74574
| 36>    C        4.03159        -6.53476         3.52228
| 37>    C        3.25880        -6.31203         4.74860
| 38>    C        3.58245        -5.32316         5.74026
| 39>    C        4.89737        -4.94460         5.93266
| 40>    C        5.21447        -4.00708         6.92849
| 41>    C        6.44358        -3.48786         7.33131
| 42>    C        7.77834        -3.86175         6.79418
| 43>    C        8.50353        -2.65249         6.16643
| 44>    N        9.42349        -3.13276         5.15934
| 45>    C        8.63539        -4.54339         7.87874
| 46>    N        9.84303        -5.10484         7.29155
| 47>    C        6.16816        -2.55470         8.39853
| 48>    C        6.97778        -1.77584         9.14125
| 49>    C        6.45579        -0.94716        10.25854
| 50>    C        4.96277        -0.92753        10.38062
| 51>    C        4.16328        -1.70347         9.62278
| 52>    C        4.71592        -2.54147         8.62815
| 53>    C        4.14752        -3.42520         7.72723
| 54>    C        2.81084        -3.81297         7.49010
| 55>    C        2.54369        -4.73480         6.52821
| 56>    C        6.95861        -1.48122        11.58343
| 57>    C        7.23815        -2.77452        11.78255
| 58>    C        7.68338        -3.34390        13.01425
| 59>    C        7.92139        -2.68331        14.30010
| 60>    N        8.32854        -3.47988        15.24761
| 61>    C        8.39502        -4.71898        14.67976
| 62>    C        7.99982        -4.65874        13.26675
| 63>    C        8.06425        -5.96936        12.67451
| 64>    S        7.74506        -6.33796        11.10113
| 65>    C        8.47949        -6.83088        13.75323
| 66>    C        8.68639        -6.02589        14.97354
| 67>    N        9.07714        -6.81223        16.01521
| 68>    C        9.11738        -8.02151        15.54142
| 69>    C        8.74922        -8.13228        14.12565
| 70>    C        8.69330        -9.35593        13.41201
| 71>    S        9.08341       -10.86230        14.23571
| 72>    C        8.76158       -11.75464        12.79763
| 73>    C        8.79069       -13.10751        12.44651
| 74>    C        8.42913       -13.29791        11.13588
| 75>    C        8.35772       -14.61005        10.47253
| 76>    O        8.63381       -15.62704        11.04924
| 77>    O        7.96945       -14.61912         9.18747
| 78>    S        8.04901       -11.79488        10.31331
| 79>    C        8.37796       -10.90378        11.75212
| 80>    C        8.33975        -9.55249        12.09311
| 81>    H       -1.35328        -8.84228         6.71416
| 82>    H       -4.55853       -13.32694         6.40135
| 83>    H       -2.70589       -14.94854         2.68727
| 84>    H       -0.35985       -11.35866         2.59581
| 85>    H        4.89752        -5.96903         3.22475
| 86>    H        5.68501        -5.39314         5.34624
| 87>    H        7.63936        -4.58329         5.98323
| 88>    H        8.98854        -2.06496         6.96288
| 89>    H        7.76664        -2.00722         5.67504
| 90>    H       10.09977        -3.75076         5.59953
| 91>    H        9.91368        -2.36488         4.71575
| 92>    H        8.01475        -5.29636         8.39148
| 93>    H        8.94569        -3.80908         8.62630
| 94>    H        9.59952        -5.86539         6.66376
| 95>    H       10.43353        -5.49029         8.02111
| 96>    H        8.04772        -1.75291         8.99537
| 97>    H        6.83087         0.07949        10.14724
| 98>    H        4.55720        -0.28689        11.14839
| 99>    H        3.09161        -1.68449         9.75631
|100>    H        2.01350        -3.37448         8.07084
|101>    H        1.52748        -5.03406         6.33002
|102>    H        7.02503        -0.76344        12.38756
|103>    H        7.13932        -3.47772        10.96499
|104>    H        7.78730        -1.63506        14.50102
|105>    H        9.40047        -8.85169        16.16541
|106>    H        9.05535       -13.91983        13.09744
|107>    H        7.77432       -13.73902         8.83815
|108>    H        8.06783        -8.75225        11.42850
|109> *
|110>
|111>                          ****END OF INPUT****

CARTESIAN COORDINATES (ANGSTROEM)
---------------------------------
  C     -1.741630   -9.759620    6.312550
  S     -3.025950  -10.545650    7.126480
  C     -3.023270  -11.810210    5.942680
  C     -3.768060  -12.982780    5.761070
  C     -3.366450  -13.667390    4.644650
  C     -3.950770  -14.934480    4.178300
  O     -4.854570  -15.468020    4.762640
  O     -3.427390  -15.470580    3.063620
  S     -2.055930  -12.857530    3.806360
  C     -2.052540  -11.588010    4.969570
  C     -1.296070  -10.397450    5.174870
  C     -0.233790   -9.921880    4.340430
  C      0.135170  -10.521550    3.055380
  N      1.138640   -9.947790    2.459600
  C      1.514600   -8.932200    3.284590
  C      0.652660   -8.875090    4.480020
  C      1.107040   -7.810100    5.344220
  S      0.531030   -7.392090    6.830310
  C      2.229660   -7.224130    4.652180
  C      2.462240   -7.951220    3.392680
  N      3.559280   -7.464960    2.745740
  C      4.031590   -6.534760    3.522280
  C      3.258800   -6.312030    4.748600
  C      3.582450   -5.323160    5.740260
  C      4.897370   -4.944600    5.932660
  C      5.214470   -4.007080    6.928490
  C      6.443580   -3.487860    7.331310
  C      7.778340   -3.861750    6.794180
  C      8.503530   -2.652490    6.166430
  N      9.423490   -3.132760    5.159340
  C      8.635390   -4.543390    7.878740
  N      9.843030   -5.104840    7.291550
  C      6.168160   -2.554700    8.398530
  C      6.977780   -1.775840    9.141250
  C      6.455790   -0.947160   10.258540
  C      4.962770   -0.927530   10.380620
  C      4.163280   -1.703470    9.622780
  C      4.715920   -2.541470    8.628150
  C      4.147520   -3.425200    7.727230
  C      2.810840   -3.812970    7.490100
  C      2.543690   -4.734800    6.528210
  C      6.958610   -1.481220   11.583430
  C      7.238150   -2.774520   11.782550
  C      7.683380   -3.343900   13.014250
  C      7.921390   -2.683310   14.300100
  N      8.328540   -3.479880   15.247610
  C      8.395020   -4.718980   14.679760
  C      7.999820   -4.658740   13.266750
  C      8.064250   -5.969360   12.674510
  S      7.745060   -6.337960   11.101130
  C      8.479490   -6.830880   13.753230
  C      8.686390   -6.025890   14.973540
  N      9.077140   -6.812230   16.015210
  C      9.117380   -8.021510   15.541420
  C      8.749220   -8.132280   14.125650
  C      8.693300   -9.355930   13.412010
  S      9.083410  -10.862300   14.235710
  C      8.761580  -11.754640   12.797630
  C      8.790690  -13.107510   12.446510
  C      8.429130  -13.297910   11.135880
  C      8.357720  -14.610050   10.472530
  O      8.633810  -15.627040   11.049240
  O      7.969450  -14.619120    9.187470
  S      8.049010  -11.794880   10.313310
  C      8.377960  -10.903780   11.752120
  C      8.339750   -9.552490   12.093110
  H     -1.353280   -8.842280    6.714160
  H     -4.558530  -13.326940    6.401350
  H     -2.705890  -14.948540    2.687270
  H     -0.359850  -11.358660    2.595810
  H      4.897520   -5.969030    3.224750
  H      5.685010   -5.393140    5.346240
  H      7.639360   -4.583290    5.983230
  H      8.988540   -2.064960    6.962880
  H      7.766640   -2.007220    5.675040
  H     10.099770   -3.750760    5.599530
  H      9.913680   -2.364880    4.715750
  H      8.014750   -5.296360    8.391480
  H      8.945690   -3.809080    8.626300
  H      9.599520   -5.865390    6.663760
  H     10.433530   -5.490290    8.021110
  H      8.047720   -1.752910    8.995370
  H      6.830870    0.079490   10.147240
  H      4.557200   -0.286890   11.148390
  H      3.091610   -1.684490    9.756310
  H      2.013500   -3.374480    8.070840
  H      1.527480   -5.034060    6.330020
  H      7.025030   -0.763440   12.387560
  H      7.139320   -3.477720   10.964990
  H      7.787300   -1.635060   14.501020
  H      9.400470   -8.851690   16.165410
  H      9.055350  -13.919830   13.097440
  H      7.774320  -13.739020    8.838150
  H      8.067830   -8.752250   11.428500

 Total Charge           Charge          ....    0
 Multiplicity           Mult            ....    1
 Number of Electrons    NEL             ....  498
 Basis Dimension        Dim             .... 1088

ORBITAL ENERGIES
----------------

  NO   OCC          E(Eh)            E(eV)
   0   2.0000     -88.983458     -2421.3630
   1   2.0000     -88.980590     -2421.2849
   2   2.0000     -88.979483     -2421.2548
   3   2.0000     -88.972401     -2421.0621
   4   2.0000     -88.913186     -2419.4508
   5   2.0000     -88.901418     -2419.1306
   6   2.0000     -19.265876      -524.2511
   7   2.0000     -19.260668      -524.1094
   8   2.0000     -19.200309      -522.4670
   9   2.0000     -19.194178      -522.3001
  10   2.0000     -14.428180      -392.6107
  11   2.0000     -14.425748      -392.5445
  12   2.0000     -14.417422      -392.3180
  13   2.0000     -14.416605      -392.2958
  14   2.0000     -14.394173      -391.6854
  15   2.0000     -14.362010      -390.8102
  16   2.0000     -10.411310      -283.3062
  17   2.0000     -10.405509      -283.1483
  18   2.0000     -10.354787      -281.7681
  19   2.0000     -10.346737      -281.5490
  20   2.0000     -10.346698      -281.5480
  21   2.0000     -10.344556      -281.4897
  22   2.0000     -10.340420      -281.3771
  23   2.0000     -10.338270      -281.3186
  24   2.0000     -10.335183      -281.2346
  25   2.0000     -10.335010      -281.2299
  26   2.0000     -10.331302      -281.1290
  27   2.0000     -10.330613      -281.1103
  28   2.0000     -10.328117      -281.0423
  29   2.0000     -10.324749      -280.9507
  30   2.0000     -10.324315      -280.9389
  31   2.0000     -10.323215      -280.9090
  32   2.0000     -10.322941      -280.9015
  33   2.0000     -10.320736      -280.8415
  34   2.0000     -10.314475      -280.6711
  35   2.0000     -10.314191      -280.6634
  36   2.0000     -10.313052      -280.6324
  37   2.0000     -10.312066      -280.6056
  38   2.0000     -10.311346      -280.5860
  39   2.0000     -10.309843      -280.5451
  40   2.0000     -10.308117      -280.4981
  41   2.0000     -10.307849      -280.4908
  42   2.0000     -10.307210      -280.4735
  43   2.0000     -10.306796      -280.4622
  44   2.0000     -10.306780      -280.4617
  45   2.0000     -10.305935      -280.4388
  46   2.0000     -10.300932      -280.3026
  47   2.0000     -10.300276      -280.2848
  48   2.0000     -10.299660      -280.2680
  49   2.0000     -10.296724      -280.1881
  50   2.0000     -10.293285      -280.0945
  51   2.0000     -10.292911      -280.0843
  52   2.0000     -10.291010      -280.0326
  53   2.0000     -10.289789      -279.9994
  54   2.0000     -10.285580      -279.8849
  55   2.0000     -10.283808      -279.8366
  56   2.0000     -10.280412      -279.7442
  57   2.0000     -10.279722      -279.7255
  58   2.0000     -10.278405      -279.6896
  59   2.0000     -10.274029      -279.5705
  60   2.0000     -10.272579      -279.5311
  61   2.0000     -10.271864      -279.5116
  62   2.0000     -10.269725      -279.4534
  63   2.0000     -10.269452      -279.4460
  64   2.0000     -10.268206      -279.4121
  65   2.0000     -10.268025      -279.4072
  66   2.0000      -8.078975      -219.8401
  67   2.0000      -8.075496      -219.7454
  68   2.0000      -8.074746      -219.7250
  69   2.0000      -8.068150      -219.5455
  70   2.0000      -8.008315      -217.9173
  71   2.0000      -7.997229      -217.6157
  72   2.0000      -6.048430      -164.5862
  73   2.0000      -6.044977      -164.4922
  74   2.0000      -6.044477      -164.4786
  75   2.0000      -6.044238      -164.4721
  76   2.0000      -6.040999      -164.3839
  77   2.0000      -6.040631      -164.3739
  78   2.0000      -6.040242      -164.3633
  79   2.0000      -6.037511      -164.2890
  80   2.0000      -6.037270      -164.2825
  81   2.0000      -6.036331      -164.2569
  82   2.0000      -6.033230      -164.1725
  83   2.0000      -6.030208      -164.0903
  84   2.0000      -5.977114      -162.6455
  85   2.0000      -5.976510      -162.6291
  86   2.0000      -5.968060      -162.3992
  87   2.0000      -5.966061      -162.3448
  88   2.0000      -5.965497      -162.3294
  89   2.0000      -5.956728      -162.0908
  90   2.0000      -1.188185       -32.3322
  91   2.0000      -1.182531       -32.1783
  92   2.0000      -1.101019       -29.9603
  93   2.0000      -1.095167       -29.8010
  94   2.0000      -1.094418       -29.7806
  95   2.0000      -1.085053       -29.5258
  96   2.0000      -1.075444       -29.2643
  97   2.0000      -1.066300       -29.0155
  98   2.0000      -1.028224       -27.9794
  99   2.0000      -1.022573       -27.8256
 100   2.0000      -0.992656       -27.0115
 101   2.0000      -0.976951       -26.5842
 102   2.0000      -0.973921       -26.5017
 103   2.0000      -0.966856       -26.3095
 104   2.0000      -0.964471       -26.2446
 105   2.0000      -0.958660       -26.0865
 106   2.0000      -0.956909       -26.0388
 107   2.0000      -0.943878       -25.6842
 108   2.0000      -0.930572       -25.3222
 109   2.0000      -0.908061       -24.7096
 110   2.0000      -0.904133       -24.6027
 111   2.0000      -0.897661       -24.4266
 112   2.0000      -0.883816       -24.0499
 113   2.0000      -0.879212       -23.9246
 114   2.0000      -0.873162       -23.7599
 115   2.0000      -0.862902       -23.4808
 116   2.0000      -0.859230       -23.3808
 117   2.0000      -0.850622       -23.1466
 118   2.0000      -0.844426       -22.9780
 119   2.0000      -0.839683       -22.8489
 120   2.0000      -0.833221       -22.6731
 121   2.0000      -0.825419       -22.4608
 122   2.0000      -0.824282       -22.4299
 123   2.0000      -0.818709       -22.2782
 124   2.0000      -0.809050       -22.0154
 125   2.0000      -0.804875       -21.9018
 126   2.0000      -0.785791       -21.3825
 127   2.0000      -0.777847       -21.1663
 128   2.0000      -0.762271       -20.7425
 129   2.0000      -0.758154       -20.6304
 130   2.0000      -0.748414       -20.3654
 131   2.0000      -0.736611       -20.0442
 132   2.0000      -0.733824       -19.9684
 133   2.0000      -0.728236       -19.8163
 134   2.0000      -0.725911       -19.7530
 135   2.0000      -0.714730       -19.4488
 136   2.0000      -0.709018       -19.2934
 137   2.0000      -0.705379       -19.1943
 138   2.0000      -0.695491       -18.9253
 139   2.0000      -0.693305       -18.8658
 140   2.0000      -0.682742       -18.5783
 141   2.0000      -0.680290       -18.5116
 142   2.0000      -0.677586       -18.4380
 143   2.0000      -0.673428       -18.3249
 144   2.0000      -0.667208       -18.1556
 145   2.0000      -0.661608       -18.0033
 146   2.0000      -0.647764       -17.6266
 147   2.0000      -0.642335       -17.4788
 148   2.0000      -0.640296       -17.4233
 149   2.0000      -0.637159       -17.3380
 150   2.0000      -0.631645       -17.1879
 151   2.0000      -0.621618       -16.9151
 152   2.0000      -0.613285       -16.6883
 153   2.0000      -0.610766       -16.6198
 154   2.0000      -0.603103       -16.4113
 155   2.0000      -0.597018       -16.2457
 156   2.0000      -0.592986       -16.1360
 157   2.0000      -0.587379       -15.9834
 158   2.0000      -0.585846       -15.9417
 159   2.0000      -0.583238       -15.8707
 160   2.0000      -0.573116       -15.5953
 161   2.0000      -0.570112       -15.5135
 162   2.0000      -0.569688       -15.5020
 163   2.0000      -0.566836       -15.4244
 164   2.0000      -0.560604       -15.2548
 165   2.0000      -0.555109       -15.1053
 166   2.0000      -0.552187       -15.0258
 167   2.0000      -0.548320       -14.9205
 168   2.0000      -0.545904       -14.8548
 169   2.0000      -0.545415       -14.8415
 170   2.0000      -0.542518       -14.7627
 171   2.0000      -0.539328       -14.6759
 172   2.0000      -0.535046       -14.5593
 173   2.0000      -0.532470       -14.4893
 174   2.0000      -0.528196       -14.3729
 175   2.0000      -0.526965       -14.3394
 176   2.0000      -0.522953       -14.2303
 177   2.0000      -0.522060       -14.2060
 178   2.0000      -0.520150       -14.1540
 179   2.0000      -0.518532       -14.1100
 180   2.0000      -0.515481       -14.0270
 181   2.0000      -0.513390       -13.9700
 182   2.0000      -0.510669       -13.8960
 183   2.0000      -0.509326       -13.8595
 184   2.0000      -0.506322       -13.7777
 185   2.0000      -0.504479       -13.7276
 186   2.0000      -0.501839       -13.6557
 187   2.0000      -0.500833       -13.6284
 188   2.0000      -0.497988       -13.5509
 189   2.0000      -0.497296       -13.5321
 190   2.0000      -0.496157       -13.5011
 191   2.0000      -0.492073       -13.3900
 192   2.0000      -0.486549       -13.2397
 193   2.0000      -0.485168       -13.2021
 194   2.0000      -0.481233       -13.0950
 195   2.0000      -0.477587       -12.9958
 196   2.0000      -0.475616       -12.9422
 197   2.0000      -0.473015       -12.8714
 198   2.0000      -0.472425       -12.8553
 199   2.0000      -0.469096       -12.7648
 200   2.0000      -0.464350       -12.6356
 201   2.0000      -0.457641       -12.4530
 202   2.0000      -0.457125       -12.4390
 203   2.0000      -0.456346       -12.4178
 204   2.0000      -0.453186       -12.3318
 205   2.0000      -0.451199       -12.2778
 206   2.0000      -0.445777       -12.1302
 207   2.0000      -0.444157       -12.0861
 208   2.0000      -0.441249       -12.0070
 209   2.0000      -0.438851       -11.9417
 210   2.0000      -0.436108       -11.8671
 211   2.0000      -0.434065       -11.8115
 212   2.0000      -0.432673       -11.7736
 213   2.0000      -0.426951       -11.6179
 214   2.0000      -0.426003       -11.5921
 215   2.0000      -0.422886       -11.5073
 216   2.0000      -0.418373       -11.3845
 217   2.0000      -0.415510       -11.3066
 218   2.0000      -0.407430       -11.0867
 219   2.0000      -0.402531       -10.9534
 220   2.0000      -0.398218       -10.8361
 221   2.0000      -0.393421       -10.7055
 222   2.0000      -0.391931       -10.6650
 223   2.0000      -0.387386       -10.5413
 224   2.0000      -0.384401       -10.4601
 225   2.0000      -0.372737       -10.1427
 226   2.0000      -0.366898        -9.9838
 227   2.0000      -0.362900        -9.8750
 228   2.0000      -0.357572        -9.7300
 229   2.0000      -0.357269        -9.7218
 230   2.0000      -0.357121        -9.7178
 231   2.0000      -0.356636        -9.7045
 232   2.0000      -0.352182        -9.5833
 233   2.0000      -0.350487        -9.5372
 234   2.0000      -0.337047        -9.1715
 235   2.0000      -0.335955        -9.1418
 236   2.0000      -0.328695        -8.9442
 237   2.0000      -0.319354        -8.6901
 238   2.0000      -0.317434        -8.6378
 239   2.0000      -0.316854        -8.6220
 240   2.0000      -0.310408        -8.4466
 241   2.0000      -0.302664        -8.2359
 242   2.0000      -0.300012        -8.1637
 243   2.0000      -0.295725        -8.0471
 244   2.0000      -0.290597        -7.9075
 245   2.0000      -0.285251        -7.7621
 246   2.0000      -0.281502        -7.6601
 247   2.0000      -0.279184        -7.5970
 248   2.0000      -0.227641        -6.1944
 249   0.0000      -0.121991        -3.3195
 250   0.0000      -0.113196        -3.0802
 251   0.0000      -0.094114        -2.5610
 252   0.0000      -0.086516        -2.3542
 253   0.0000      -0.066830        -1.8185

MULLIKEN ATOMIC CHARGES
-----------------------
   0 C :   -0.100450
   1 S :    0.168870
   2 C :   -0.036362
   3 C :   -0.003700
   4 C :   -0.159126
   5 C :    0.181505
   6 O :   -0.171345
   7 O :   -0.157873
   8 S :    0.082935
   9 C :   -0.077069
  10 C :    0.079903
  11 C :    0.005600
  12 C :    0.036881
  13 N :   -0.019055
  14 C :   -0.000695
  15 C :   -0.030452
  16 C :   -0.004308
  17 S :   -0.126612
  18 C :   -0.020734
  19 C :    0.005349
  20 N :   -0.023631
  21 C :    0.052121
  22 C :    0.000092
  23 C :    0.074302
  24 C :   -0.104174
  25 C :    0.051871
  26 C :   -0.009906
  27 C :   -0.062816
  28 C :    0.156570
  29 N :   -0.224803
  30 C :    0.130949
  31 N :   -0.214751
  32 C :    0.107576
  33 C :   -0.161653
  34 C :    0.164748
  35 C :   -0.030515
  36 C :    0.025125
  37 C :    0.006568
  38 C :    0.047050
  39 C :   -0.011467
  40 C :    0.026406
  41 C :   -0.086009
  42 C :    0.013667
  43 C :    0.016583
  44 C :    0.053647
  45 N :   -0.024087
  46 C :    0.023467
  47 C :   -0.007421
  48 C :    0.008677
  49 S :   -0.132890
  50 C :   -0.034032
  51 C :   -0.010282
  52 N :   -0.017395
  53 C :    0.040577
  54 C :    0.047436
  55 C :   -0.102527
  56 S :    0.138237
  57 C :   -0.000279
  58 C :    0.000368
  59 C :   -0.180364
  60 C :    0.182050
  61 O :   -0.169248
  62 O :   -0.155338
  63 S :    0.117419
  64 C :   -0.021681
  65 C :    0.004291
  66 H :    0.017153
  67 H :    0.014676
  68 H :    0.179618
  69 H :    0.003155
  70 H :    0.015673
  71 H :   -0.033508
  72 H :   -0.029981
  73 H :   -0.031243
  74 H :   -0.001036
  75 H :    0.082349
  76 H :    0.082799
  77 H :    0.010068
  78 H :   -0.016401
  79 H :    0.101194
  80 H :    0.097890
  81 H :    0.003178
  82 H :    0.027433
  83 H :   -0.012968
  84 H :   -0.031865
  85 H :   -0.035409
  86 H :   -0.027506
  87 H :    0.006370
  88 H :    0.019865
  89 H :    0.008895
  90 H :    0.021050
  91 H :    0.016857
  92 H :    0.180655
  93 H :   -0.026755
Sum of atomic charges:   -0.0000000

LOEWDIN ATOMIC CHARGES
----------------------
   0 C :   -0.138768
   1 S :    0.461488
   2 C :   -0.209091
   3 C :   -0.012517
   4 C :   -0.232895
   5 C :    0.062991
   6 O :   -0.159155
   7 O :   -0.032330
   8 S :    0.413677
   9 C :   -0.185145
  10 C :   -0.087327
  11 C :   -0.026710
  12 C :    0.068232
  13 N :   -0.073722
  14 C :    0.029023
  15 C :   -0.041548
  16 C :   -0.130168
  17 S :    0.077624
  18 C :   -0.052790
  19 C :    0.042202
  20 N :   -0.078066
  21 C :    0.088799
  22 C :   -0.017161
  23 C :   -0.030771
  24 C :    0.006665
  25 C :   -0.023955
  26 C :   -0.011161
  27 C :   -0.041638
  28 C :    0.031206
  29 N :   -0.127542
  30 C :    0.025028
  31 N :   -0.103286
  32 C :   -0.016371
  33 C :    0.070686
  34 C :   -0.030362
  35 C :   -0.032537
  36 C :   -0.014024
  37 C :   -0.040441
  38 C :   -0.023734
  39 C :   -0.008820
  40 C :   -0.015462
  41 C :    0.022052
  42 C :   -0.029211
  43 C :   -0.027858
  44 C :    0.088237
  45 N :   -0.076412
  46 C :    0.037047
  47 C :   -0.044098
  48 C :   -0.131926
  49 S :    0.065711
  50 C :   -0.043494
  51 C :    0.036611
  52 N :   -0.069473
  53 C :    0.077642
  54 C :   -0.044962
  55 C :   -0.159290
  56 S :    0.429827
  57 C :   -0.195691
  58 C :   -0.018245
  59 C :   -0.222282
  60 C :    0.062622
  61 O :   -0.156082
  62 O :   -0.030404
  63 S :    0.414986
  64 C :   -0.190636
  65 C :   -0.038133
  66 H :   -0.001816
  67 H :    0.046897
  68 H :    0.078763
  69 H :    0.011005
  70 H :    0.027042
  71 H :    0.025535
  72 H :    0.023675
  73 H :   -0.006196
  74 H :    0.017398
  75 H :    0.035938
  76 H :    0.049894
  77 H :   -0.001153
  78 H :    0.012111
  79 H :    0.056789
  80 H :    0.058446
  81 H :    0.028111
  82 H :    0.054601
  83 H :    0.024014
  84 H :    0.031962
  85 H :    0.028648
  86 H :    0.016111
  87 H :    0.025343
  88 H :    0.032665
  89 H :    0.024372
  90 H :    0.023474
  91 H :    0.047552
  92 H :    0.079428
  93 H :    0.012725

  Mayer bond orders larger than 0.100000
B(  0-C ,  1-S ) :   1.1789 B(  0-C , 10-C ) :   1.5392 B(  0-C , 66-H ) :   0.9130
B(  1-S ,  2-C ) :   1.0734 B(  2-C ,  3-C ) :   1.2191 B(  2-C ,  9-C ) :   1.4479
B(  3-C ,  4-C ) :   1.5791 B(  3-C , 67-H ) :   1.0127 B(  4-C ,  5-C ) :   0.9372
B(  4-C ,  8-S ) :   1.0563 B(  5-C ,  6-O ) :   2.2028 B(  5-C ,  7-O ) :   1.2366
B(  7-O , 68-H ) :   0.9507 B(  8-S ,  9-C ) :   1.1161 B(  9-C , 10-C ) :   1.2060
B( 10-C , 11-C ) :   1.0556 B( 11-C , 12-C ) :   1.0359 B( 11-C , 15-C ) :   1.5320
B( 12-C , 13-N ) :   1.7259 B( 12-C , 69-H ) :   0.9835 B( 13-N , 14-C ) :   1.2735
B( 14-C , 15-C ) :   1.0671 B( 14-C , 19-C ) :   1.5213 B( 15-C , 16-C ) :   1.0452
B( 16-C , 17-S ) :   1.6711 B( 16-C , 18-C ) :   1.0407 B( 17-S , 66-H ) :   0.1343
B( 18-C , 19-C ) :   1.0648 B( 18-C , 22-C ) :   1.5322 B( 19-C , 20-N ) :   1.2616
B( 20-N , 21-C ) :   1.7255 B( 21-C , 22-C ) :   1.0359 B( 21-C , 70-H ) :   0.9866
B( 22-C , 23-C ) :   1.0161 B( 23-C , 24-C ) :   1.4906 B( 23-C , 40-C ) :   1.1434
B( 24-C , 25-C ) :   1.1516 B( 24-C , 71-H ) :   0.9938 B( 25-C , 26-C ) :   1.4788
B( 25-C , 38-C ) :   1.1113 B( 26-C , 27-C ) :   1.0365 B( 26-C , 32-C ) :   1.0811
B( 27-C , 28-C ) :   1.0209 B( 27-C , 30-C ) :   1.0449 B( 27-C , 72-H ) :   0.8731
B( 28-C , 29-N ) :   1.1128 B( 28-C , 73-H ) :   0.9218 B( 28-C , 74-H ) :   0.9471
B( 29-N , 75-H ) :   0.9423 B( 29-N , 76-H ) :   0.9670 B( 30-C , 31-N ) :   1.0829
B( 30-C , 77-H ) :   0.9469 B( 30-C , 78-H ) :   0.9295 B( 31-N , 75-H ) :   0.1006
B( 31-N , 79-H ) :   0.9627 B( 31-N , 80-H ) :   0.9668 B( 32-C , 33-C ) :   1.6437
B( 32-C , 37-C ) :   1.0519 B( 33-C , 34-C ) :   0.9790 B( 33-C , 81-H ) :   0.9743
B( 34-C , 35-C ) :   0.9843 B( 34-C , 41-C ) :   0.9614 B( 34-C , 82-H ) :   0.8698
B( 35-C , 36-C ) :   1.7287 B( 35-C , 83-H ) :   0.9648 B( 36-C , 37-C ) :   1.1391
B( 36-C , 84-H ) :   0.9868 B( 37-C , 38-C ) :   1.4393 B( 38-C , 39-C ) :   1.1384
B( 39-C , 40-C ) :   1.6109 B( 39-C , 85-H ) :   0.9941 B( 40-C , 86-H ) :   0.9708
B( 41-C , 42-C ) :   1.7768 B( 41-C , 87-H ) :   0.9706 B( 42-C , 43-C ) :   1.0919
B( 42-C , 88-H ) :   0.9539 B( 43-C , 44-C ) :   1.0084 B( 43-C , 47-C ) :   1.5281
B( 44-C , 45-N ) :   1.7312 B( 44-C , 89-H ) :   0.9905 B( 45-N , 46-C ) :   1.2603
B( 46-C , 47-C ) :   1.0673 B( 46-C , 51-C ) :   1.5223 B( 47-C , 48-C ) :   1.0304
B( 48-C , 49-S ) :   1.6774 B( 48-C , 50-C ) :   1.0552 B( 49-S , 93-H ) :   0.1204
B( 50-C , 51-C ) :   1.0762 B( 50-C , 54-C ) :   1.5181 B( 51-C , 52-N ) :   1.2628
B( 52-N , 53-C ) :   1.7354 B( 53-C , 54-C ) :   1.0252 B( 53-C , 90-H ) :   0.9840
B( 54-C , 55-C ) :   1.1390 B( 55-C , 56-S ) :   1.0828 B( 55-C , 65-C ) :   1.5056
B( 56-S , 57-C ) :   1.0766 B( 57-C , 58-C ) :   1.2267 B( 57-C , 64-C ) :   1.4002
B( 58-C , 59-C ) :   1.5622 B( 58-C , 91-H ) :   1.0120 B( 59-C , 60-C ) :   0.9383
B( 59-C , 63-S ) :   1.0777 B( 60-C , 61-O ) :   2.2019 B( 60-C , 62-O ) :   1.2399
B( 62-O , 92-H ) :   0.9498 B( 63-S , 64-C ) :   1.0933 B( 64-C , 65-C ) :   1.2591
B( 65-C , 93-H ) :   0.9678

-----------------------------------------------------------------------------
         ABSORPTION SPECTRUM VIA TRANSITION ELECTRIC DIPOLE MOMENTS
-----------------------------------------------------------------------------
State   Energy  Wavelength   fosc         T2         TX        TY        TZ
        (cm-1)    (nm)                  (au**2)     (au)      (au)      (au)
-----------------------------------------------------------------------------
   0    9693.5   1031.6   0.085351234   2.89870   1.30839   0.24979   1.06039
   1   10328.1    968.2   0.058531655   1.86571  -0.77902  -1.12198  -0.00177
   2   13526.1    739.3   0.033135992   0.80650   0.30086  -0.47090  -0.70302
   3   14279.3    700.3   0.027867161   0.64248  -0.36546   0.23817  -0.67246
   4   16567.3    603.6   0.010430994   0.20728  -0.29323  -0.24637  -0.24615
   5   17039.1    586.9   0.100333171   1.93853  -0.43872   1.30852  -0.18390
   6   17321.5    577.3   0.000159151   0.00302  -0.05198  -0.00530  -0.01718
   7   17427.2    573.8   0.148722425   2.80947  -0.27803  -1.40770  -0.86635
   8   17960.9    556.8   0.099267902   1.81952  -1.01876  -0.88257   0.05213
   9   19144.6    522.3   0.049987736   0.85959  -0.55069  -0.60172  -0.44076
  10   19366.3    516.4   0.001926923   0.03276   0.05732  -0.07296   0.15540
  11   19398.9    515.5   0.007454605   0.12651  -0.12357   0.19713  -0.26904
  12   20592.2    485.6   0.019895773   0.31808  -0.41457  -0.27521  -0.26545
  13   22927.8    436.2   0.371226933   5.33031  -0.40639   2.25333   0.29604
  14   24478.3    408.5   0.279023038   3.75261   1.48970   1.21980   0.21328
  15   24524.9    407.7   0.042020656   0.56407  -0.50805  -0.52349   0.17865
  16   24689.8    405.0   0.008427839   0.11238  -0.31348  -0.11733   0.01851
  17   25073.8    398.8   0.066484422   0.87292  -0.86765  -0.23147  -0.25792
  18   25185.9    397.0   0.137079176   1.79180  -0.54153  -1.19774  -0.25293
  19   25349.9    394.5   0.051272902   0.66587  -0.07298   0.78870   0.19621
  20   25887.0    386.3   0.002170772   0.02761  -0.15681  -0.05468  -0.00515
  21   26018.5    384.3   0.005808556   0.07350  -0.14440   0.08163  -0.21443
  22   26297.9    380.3   0.123197953   1.54226   0.21986  -1.21466   0.13608
  23   26425.9    378.4   0.001224567   0.01526   0.01238  -0.11888  -0.03115
  24   26536.0    376.8   0.001160362   0.01440   0.11516  -0.02363  -0.02400
  25   26536.0    376.8   0.001765953   0.02191   0.05153   0.12945  -0.04996
  26   26907.9    371.6   0.015323446   0.18748   0.26494  -0.15669   0.30452
  27   26964.6    370.9   0.297409296   3.63108   1.48240   0.62769   1.01960
  28   27347.5    365.7   0.231768940   2.79006   1.33446   0.98660   0.18945
  29   27648.9    361.7   0.002593885   0.03089  -0.15921   0.05611  -0.04888
  30   28182.3    354.8   0.605453250   7.07262   0.07618  -2.64067   0.30611
  31   28531.9    350.5   0.041123966   0.47450   0.09955   0.68108  -0.02701
  32   28774.4    347.5   0.003483717   0.03986   0.06416  -0.18892   0.00697
  33   28889.3    346.1   0.015678910   0.17867  -0.16457   0.37043   0.11988
  34   29058.9    344.1   0.030424853   0.34469  -0.09346  -0.52996  -0.23472
  35   29182.4    342.7   0.008781659   0.09907  -0.00304  -0.30914   0.05908
  36   29757.1    336.1   0.005306887   0.05871   0.22424   0.05215   0.07556
  37   30016.6    333.1   0.001821289   0.01998   0.09621  -0.06873  -0.07743
  38   30636.9    326.4   0.083313547   0.89525   0.50542   0.68524   0.41262
  39   30746.0    325.2   0.020348246   0.21788   0.22036   0.30435   0.27693
  40   31200.7    320.5   0.032835936   0.34647  -0.39340  -0.43293  -0.06536
  41   31474.3    317.7   0.016807158   0.17580   0.16945   0.29337   0.24702
  42   31567.2    316.8   0.002161216   0.02254   0.13066   0.05882  -0.04480
  43   31785.8    314.6   0.167886328   1.73883   0.67642   0.99366   0.54214
  44   31842.7    314.0   0.014044077   0.14520   0.00758  -0.29169   0.24506
  45   32266.6    309.9   0.004160799   0.04245  -0.12930  -0.11488   0.11196
  46   32452.9    308.1   0.002821253   0.02862   0.12027   0.10955   0.04641
  47   32614.3    306.6   0.000299249   0.00302   0.04591   0.03016  -0.00179
  48   32667.9    306.1   0.001591420   0.01604   0.07174  -0.10293  -0.01722
  49   32738.0    305.5   0.011681522   0.11747   0.23319   0.24216  -0.06670
  50   32862.5    304.3   0.031791641   0.31848   0.32325   0.25002   0.38921
  51   33027.8    302.8   0.004535353   0.04521   0.06972   0.11028  -0.16789
  52   33330.0    300.0   0.116834128   1.15401   0.74403   0.58586   0.50715
  53   33611.7    297.5   0.037513548   0.36743   0.18443   0.55753   0.15024
  54   33663.4    297.1   0.023586719   0.23067   0.02271  -0.44294   0.18428
  55   34423.3    290.5   0.077844477   0.74448  -0.34584   0.70738  -0.35282
  56   34603.8    289.0   0.202888420   1.93023  -0.11280  -1.33112  -0.38161
  57   34659.3    288.5   0.201317837   1.91222  -0.04343   1.36591   0.21127
  58   34953.8    286.1   0.058015952   0.54642   0.46550   0.56047   0.12491
  59   34990.0    285.8   0.001181520   0.01112   0.01572  -0.10404  -0.00671
  60   35143.2    284.6   0.031616768   0.29618   0.24503   0.42530   0.23507
  61   35357.2    282.8   0.110939055   1.03296   0.53749   0.71756   0.47872
  62   35416.8    282.4   0.009602042   0.08925   0.15178   0.23351  -0.10812
  63   35599.5    280.9   0.008383389   0.07753   0.11331  -0.19783   0.15984
  64   35850.3    278.9   0.099451808   0.91326  -0.50903  -0.79345  -0.15682
  65   36029.1    277.6   0.078048424   0.71316  -0.17538  -0.69307  -0.44951
  66   36298.8    275.5   0.104282657   0.94579  -0.26047   0.61153   0.70992
  67   36384.5    274.8   0.003054060   0.02763   0.12670   0.08624   0.06437
  68   36493.1    274.0   0.116254144   1.04875  -0.56376  -0.81263  -0.26562
  69   36684.1    272.6   0.018793013   0.16865  -0.14041  -0.14382  -0.35813
  70   36739.2    272.2   0.001450056   0.01299  -0.06248  -0.03193   0.08983
  71   36767.2    272.0   0.159421592   1.42746  -0.68512  -0.14591   0.96787
  72   37109.1    269.5   0.021055592   0.18679   0.10875  -0.02322  -0.41765
  73   37601.7    265.9   0.001890785   0.01655  -0.11114  -0.06473   0.00355
  74   37890.7    263.9   0.021376448   0.18573  -0.06043   0.25897   0.33913
  75   37959.4    263.4   0.005334395   0.04626  -0.01921   0.12348   0.17506
  76   38420.4    260.3   0.598093192   5.12487  -0.65706  -1.03589  -1.90265
  77   38513.0    259.7   0.111328009   0.95164   0.55664   0.48819  -0.63519
  78   38595.0    259.1   0.030384071   0.25917   0.02171   0.32635   0.39013
  79   38959.2    256.7   0.000436657   0.00369   0.03566   0.02622   0.04160
  80   39015.8    256.3   0.068207156   0.57553   0.02151  -0.09149  -0.75279
  81   39406.9    253.8   0.057851688   0.48330  -0.04221   0.43192   0.54311
  82   39490.6    253.2   0.000877133   0.00731  -0.02397   0.03227   0.07547
  83   39533.0    253.0   0.076522105   0.63724  -0.46908   0.13541   0.63156
  84   39723.4    251.7   0.182854611   1.51543   0.13416  -0.74325  -0.97211
  85   39882.7    250.7   0.038576026   0.31843  -0.04062  -0.30975  -0.46993
  86   39932.1    250.4   0.000166469   0.00137   0.01975  -0.02243  -0.02189
  87   39960.4    250.2   0.011623885   0.09576  -0.01015   0.19486   0.24018
  88   40260.1    248.4   0.002875962   0.02352   0.04520  -0.06360  -0.13202

FINAL SINGLE POINT ENERGY     -4936.607007969765

DIPOLE MOMENT
-------------
                                X             Y             Z
Electronic contribution:    -36.01757     -57.03733      10.35423
Nuclear contribution   :     37.88033      61.14817      -9.15569
                        -----------------------------------------
Total Dipole Moment    :      1.86276       4.11084       1.19854
                        -----------------------------------------
Magnitude (a.u.)       :      4.66962
Magnitude (Debye)      :     11.86923

Rotational constants in cm-1:     0.000971     0.000457     0.000362
Rotational constants in MHz :    29.115547    13.690659    10.865821

                             ****ORCA TERMINATED NORMALLY****
TOTAL RUN TIME: 0 days 0 hours 10 minutes 8 seconds 728 msec
