                         Program Version 4.2.0 -  RELEASE  -
|  1> # ORCA input file
|  2> # SCF done       -177.073665554846          0.000624265229
|  3> ! CAM-B3LYP def2-SVP def2/J RIJCOSX Grid4 TightSCF
|  4> %maxcore 5000
|  5> %tddft
|  6>     Mode sTDDFT
|  7>     Ethresh 5.0
|  8>     maxcore 5000
|  9> end
| 10>
| 11> %pal
| 12>   nprocs 6
| 13>   end
| 14> * xyz 0 1
| 15>    C       12.65912         6.79138         2.88004
| 16>    C       13.02454         8.03811         2.47866
| 17>    S       13.57474         8.03131         0.84192
| 18>    C       13.30737         6.30994         0.69155
| 19>   Cl       13.64147         5.48693        -0.75069
| 20>    C       12.82024         5.80099         1.85759
| 21>    C       12.40439         4.49479         2.37294
| 22>    O       12.40736         3.43129         1.78274
| 23>    C       11.98048         4.74131         3.76468
| 24>    C       12.13987         6.15269         4.07523
| 25>    C       11.86812         6.81188         5.24563
| 26>    C       12.07925         8.20159         5.36766
| 27>    N       12.24300         9.33096         5.48633
| 28>    C       11.36749         6.23588         6.42927
| 29>    N       10.96206         5.83178         7.42505
| 30>    C       11.50482         3.79275         4.63113
| 31>    C       11.28586         2.41664         4.45318
| 32>    C       10.76639         1.62442         5.47945
| 33>    C       10.60536         0.30634         5.09793
| 34>    C       11.00471         0.06483         3.76886
| 35>    S       11.58456         1.48533         2.98971
| 36>    C       10.81318        -1.27300         3.41438
| 37>    C       10.27136        -2.03871         4.45583
| 38>    S        9.99915        -1.11696         5.90534
| 39>    C       10.05060        -3.37542         4.12321
| 40>    C       10.42288        -3.64501         2.82232
| 41>    S       11.06199        -2.22791         2.00305
| 42>    C       10.34375        -4.87657         2.11060
| 43>    C        9.68298        -6.04541         2.46813
| 44>    C        8.92789        -6.16501         3.64501
| 45>    N        8.30425        -6.23530         4.60496
| 46>    C        9.82324        -7.06997         1.48961
| 47>    C       10.59027        -6.63572         0.41399
| 48>    S       11.14752        -5.01645         0.56372
| 49>    S       10.81867        -7.79664        -0.85220
| 50>    C        9.85911        -8.90310         0.07378
| 51>    C        9.39130        -8.41563         1.28839
| 52>    C        8.61754        -9.39641         1.97235
| 53>    C        8.03865        -9.21936         3.23906
| 54>    N        7.57651        -9.09649         4.28144
| 55>    C        8.51461       -10.58436         1.26224
| 56>    S        9.37942       -10.52025        -0.26060
| 57>    C        7.82013       -11.77983         1.59963
| 58>    C        7.82748       -12.94760         0.86176
| 59>    C        7.03357       -13.93478         1.44193
| 60>    C        6.40992       -13.52282         2.62710
| 61>    S        6.81850       -11.89854         3.03417
| 62>    C        5.61374       -14.52863         3.18193
| 63>    C        5.63369       -15.70386         2.41273
| 64>    S        6.64742       -15.57370         1.00358
| 65>    C        4.82314       -16.71463         2.91449
| 66>    C        4.17573       -16.33187         4.07795
| 67>    S        4.60857       -14.69685         4.56155
| 68>    C        3.31724       -17.07109         4.92130
| 69>    C        2.59575       -18.19920         4.66978
| 70>    C        2.12388       -19.00480         5.84120
| 71>    O        2.14112       -18.66351         6.99889
| 72>    C        1.69973       -20.28350         5.25909
| 73>    C        1.25176       -21.48967         5.70688
| 74>    S        0.94590       -22.56650         4.36368
| 75>    C        1.41515       -21.36727         3.21315
| 76>    C        1.79084       -20.21595         3.82991
| 77>    C        2.22332       -18.88287         3.44805
| 78>    C        2.05788       -18.35320         2.19395
| 79>    C        1.61936       -19.14705         1.11443
| 80>    N        1.28309       -19.78519         0.22204
| 81>    C        2.22081       -16.99376         1.87105
| 82>    N        2.31117       -15.88868         1.57358
| 83>   Cl        0.99058       -21.98024         7.30692
| 84>    H       13.01142         8.96129         3.02312
| 85>    H       11.23833         4.13535         5.62420
| 86>    H       10.52057         2.01684         6.44953
| 87>    H        9.64500        -4.10567         4.79666
| 88>    H        8.38316       -13.06945        -0.05025
| 89>    H        4.74584       -17.69496         2.48138
| 90>    H        3.26740       -16.72993         5.95165
| 91>    H        1.38782       -21.60233         2.16770
| 92> *
| 93>
| 94>                          ****END OF INPUT****

CARTESIAN COORDINATES (ANGSTROEM)
---------------------------------
  C     12.659120    6.791380    2.880040
  C     13.024540    8.038110    2.478660
  S     13.574740    8.031310    0.841920
  C     13.307370    6.309940    0.691550
  Cl    13.641470    5.486930   -0.750690
  C     12.820240    5.800990    1.857590
  C     12.404390    4.494790    2.372940
  O     12.407360    3.431290    1.782740
  C     11.980480    4.741310    3.764680
  C     12.139870    6.152690    4.075230
  C     11.868120    6.811880    5.245630
  C     12.079250    8.201590    5.367660
  N     12.243000    9.330960    5.486330
  C     11.367490    6.235880    6.429270
  N     10.962060    5.831780    7.425050
  C     11.504820    3.792750    4.631130
  C     11.285860    2.416640    4.453180
  C     10.766390    1.624420    5.479450
  C     10.605360    0.306340    5.097930
  C     11.004710    0.064830    3.768860
  S     11.584560    1.485330    2.989710
  C     10.813180   -1.273000    3.414380
  C     10.271360   -2.038710    4.455830
  S      9.999150   -1.116960    5.905340
  C     10.050600   -3.375420    4.123210
  C     10.422880   -3.645010    2.822320
  S     11.061990   -2.227910    2.003050
  C     10.343750   -4.876570    2.110600
  C      9.682980   -6.045410    2.468130
  C      8.927890   -6.165010    3.645010
  N      8.304250   -6.235300    4.604960
  C      9.823240   -7.069970    1.489610
  C     10.590270   -6.635720    0.413990
  S     11.147520   -5.016450    0.563720
  S     10.818670   -7.796640   -0.852200
  C      9.859110   -8.903100    0.073780
  C      9.391300   -8.415630    1.288390
  C      8.617540   -9.396410    1.972350
  C      8.038650   -9.219360    3.239060
  N      7.576510   -9.096490    4.281440
  C      8.514610  -10.584360    1.262240
  S      9.379420  -10.520250   -0.260600
  C      7.820130  -11.779830    1.599630
  C      7.827480  -12.947600    0.861760
  C      7.033570  -13.934780    1.441930
  C      6.409920  -13.522820    2.627100
  S      6.818500  -11.898540    3.034170
  C      5.613740  -14.528630    3.181930
  C      5.633690  -15.703860    2.412730
  S      6.647420  -15.573700    1.003580
  C      4.823140  -16.714630    2.914490
  C      4.175730  -16.331870    4.077950
  S      4.608570  -14.696850    4.561550
  C      3.317240  -17.071090    4.921300
  C      2.595750  -18.199200    4.669780
  C      2.123880  -19.004800    5.841200
  O      2.141120  -18.663510    6.998890
  C      1.699730  -20.283500    5.259090
  C      1.251760  -21.489670    5.706880
  S      0.945900  -22.566500    4.363680
  C      1.415150  -21.367270    3.213150
  C      1.790840  -20.215950    3.829910
  C      2.223320  -18.882870    3.448050
  C      2.057880  -18.353200    2.193950
  C      1.619360  -19.147050    1.114430
  N      1.283090  -19.785190    0.222040
  C      2.220810  -16.993760    1.871050
  N      2.311170  -15.888680    1.573580
  Cl     0.990580  -21.980240    7.306920
  H     13.011420    8.961290    3.023120
  H     11.238330    4.135350    5.624200
  H     10.520570    2.016840    6.449530
  H      9.645000   -4.105670    4.796660
  H      8.383160  -13.069450   -0.050250
  H      4.745840  -17.694960    2.481380
  H      3.267400  -16.729930    5.951650
  H      1.387820  -21.602330    2.167700

 Total Charge           Charge          ....    0
 Multiplicity           Mult            ....    1
 Number of Electrons    NEL             ....  564
 Basis Dimension        Dim             .... 1058

ORBITAL ENERGIES
----------------

  NO   OCC          E(Eh)            E(eV)
   0   2.0000    -101.617916     -2765.1641
   1   2.0000    -101.615734     -2765.1047
   2   2.0000     -88.998655     -2421.7765
   3   2.0000     -88.997417     -2421.7428
   4   2.0000     -88.996820     -2421.7266
   5   2.0000     -88.992332     -2421.6045
   6   2.0000     -88.991156     -2421.5725
   7   2.0000     -88.981857     -2421.3194
   8   2.0000     -88.980064     -2421.2706
   9   2.0000     -88.978007     -2421.2147
  10   2.0000     -88.973574     -2421.0940
  11   2.0000     -88.973436     -2421.0903
  12   2.0000     -88.971807     -2421.0459
  13   2.0000     -19.225661      -523.1568
  14   2.0000     -19.216823      -522.9163
  15   2.0000     -14.420813      -392.4103
  16   2.0000     -14.419880      -392.3849
  17   2.0000     -14.419174      -392.3657
  18   2.0000     -14.416790      -392.3008
  19   2.0000     -14.415077      -392.2542
  20   2.0000     -14.414935      -392.2503
  21   2.0000     -10.379646      -282.4445
  22   2.0000     -10.376029      -282.3461
  23   2.0000     -10.374467      -282.3036
  24   2.0000     -10.373492      -282.2771
  25   2.0000     -10.351695      -281.6840
  26   2.0000     -10.351561      -281.6803
  27   2.0000     -10.349296      -281.6187
  28   2.0000     -10.348716      -281.6029
  29   2.0000     -10.348519      -281.5975
  30   2.0000     -10.347743      -281.5764
  31   2.0000     -10.346824      -281.5514
  32   2.0000     -10.344133      -281.4782
  33   2.0000     -10.336685      -281.2755
  34   2.0000     -10.336299      -281.2650
  35   2.0000     -10.334423      -281.2139
  36   2.0000     -10.334290      -281.2103
  37   2.0000     -10.329087      -281.0687
  38   2.0000     -10.328803      -281.0610
  39   2.0000     -10.328722      -281.0588
  40   2.0000     -10.327724      -281.0317
  41   2.0000     -10.326240      -280.9913
  42   2.0000     -10.325167      -280.9621
  43   2.0000     -10.325159      -280.9619
  44   2.0000     -10.324864      -280.9538
  45   2.0000     -10.323535      -280.9177
  46   2.0000     -10.323244      -280.9097
  47   2.0000     -10.323193      -280.9084
  48   2.0000     -10.322769      -280.8968
  49   2.0000     -10.322259      -280.8830
  50   2.0000     -10.321857      -280.8720
  51   2.0000     -10.321719      -280.8682
  52   2.0000     -10.321303      -280.8569
  53   2.0000     -10.320078      -280.8236
  54   2.0000     -10.320010      -280.8217
  55   2.0000     -10.319587      -280.8102
  56   2.0000     -10.318021      -280.7676
  57   2.0000     -10.314524      -280.6725
  58   2.0000     -10.313238      -280.6375
  59   2.0000     -10.311683      -280.5952
  60   2.0000     -10.311508      -280.5904
  61   2.0000     -10.310635      -280.5666
  62   2.0000     -10.309800      -280.5439
  63   2.0000     -10.307227      -280.4739
  64   2.0000     -10.303864      -280.3824
  65   2.0000     -10.303283      -280.3666
  66   2.0000     -10.302947      -280.3575
  67   2.0000     -10.299548      -280.2649
  68   2.0000     -10.298476      -280.2358
  69   2.0000      -9.572692      -260.4862
  70   2.0000      -9.570543      -260.4277
  71   2.0000      -8.093627      -220.2388
  72   2.0000      -8.092866      -220.2181
  73   2.0000      -8.092040      -220.1956
  74   2.0000      -8.088094      -220.0882
  75   2.0000      -8.086966      -220.0575
  76   2.0000      -8.077132      -219.7899
  77   2.0000      -8.074454      -219.7171
  78   2.0000      -8.073265      -219.6847
  79   2.0000      -8.068694      -219.5603
  80   2.0000      -8.067029      -219.5150
  81   2.0000      -8.066530      -219.5014
  82   2.0000      -7.343323      -199.8220
  83   2.0000      -7.341168      -199.7633
  84   2.0000      -7.332729      -199.5337
  85   2.0000      -7.332202      -199.5194
  86   2.0000      -7.330576      -199.4751
  87   2.0000      -7.330053      -199.4609
  88   2.0000      -6.063622      -164.9996
  89   2.0000      -6.062515      -164.9694
  90   2.0000      -6.061687      -164.9469
  91   2.0000      -6.059357      -164.8835
  92   2.0000      -6.058214      -164.8524
  93   2.0000      -6.057515      -164.8334
  94   2.0000      -6.057471      -164.8322
  95   2.0000      -6.056373      -164.8023
  96   2.0000      -6.054481      -164.7508
  97   2.0000      -6.054326      -164.7466
  98   2.0000      -6.053470      -164.7233
  99   2.0000      -6.052892      -164.7076
 100   2.0000      -6.051777      -164.6772
 101   2.0000      -6.050268      -164.6362
 102   2.0000      -6.049128      -164.6051
 103   2.0000      -6.046755      -164.5406
 104   2.0000      -6.044107      -164.4685
 105   2.0000      -6.042747      -164.4315
 106   2.0000      -6.042590      -164.4272
 107   2.0000      -6.039794      -164.3511
 108   2.0000      -6.038657      -164.3202
 109   2.0000      -6.038601      -164.3187
 110   2.0000      -6.038465      -164.3150
 111   2.0000      -6.036823      -164.2703
 112   2.0000      -6.036323      -164.2567
 113   2.0000      -6.035971      -164.2471
 114   2.0000      -6.034921      -164.2186
 115   2.0000      -6.034598      -164.2097
 116   2.0000      -6.032912      -164.1639
 117   2.0000      -6.031644      -164.1294
 118   2.0000      -6.029565      -164.0728
 119   2.0000      -6.028154      -164.0344
 120   2.0000      -6.027871      -164.0267
 121   2.0000      -1.143023       -31.1032
 122   2.0000      -1.134258       -30.8647
 123   2.0000      -1.054150       -28.6849
 124   2.0000      -1.038767       -28.2663
 125   2.0000      -1.037845       -28.2412
 126   2.0000      -1.036649       -28.2087
 127   2.0000      -1.035397       -28.1746
 128   2.0000      -1.022402       -27.8210
 129   2.0000      -1.016752       -27.6672
 130   2.0000      -1.016560       -27.6620
 131   2.0000      -1.004098       -27.3229
 132   2.0000      -0.999574       -27.1998
 133   2.0000      -0.997774       -27.1508
 134   2.0000      -0.997044       -27.1310
 135   2.0000      -0.994797       -27.0698
 136   2.0000      -0.990852       -26.9625
 137   2.0000      -0.987377       -26.8679
 138   2.0000      -0.986199       -26.8358
 139   2.0000      -0.963445       -26.2167
 140   2.0000      -0.954951       -25.9855
 141   2.0000      -0.952764       -25.9260
 142   2.0000      -0.942427       -25.6447
 143   2.0000      -0.936447       -25.4820
 144   2.0000      -0.908329       -24.7169
 145   2.0000      -0.907858       -24.7041
 146   2.0000      -0.907010       -24.6810
 147   2.0000      -0.894321       -24.3357
 148   2.0000      -0.893370       -24.3098
 149   2.0000      -0.886646       -24.1269
 150   2.0000      -0.875653       -23.8277
 151   2.0000      -0.873063       -23.7573
 152   2.0000      -0.854535       -23.2531
 153   2.0000      -0.852057       -23.1857
 154   2.0000      -0.842937       -22.9375
 155   2.0000      -0.841826       -22.9073
 156   2.0000      -0.832182       -22.6448
 157   2.0000      -0.831252       -22.6195
 158   2.0000      -0.816573       -22.2201
 159   2.0000      -0.811010       -22.0687
 160   2.0000      -0.805677       -21.9236
 161   2.0000      -0.796109       -21.6632
 162   2.0000      -0.783252       -21.3134
 163   2.0000      -0.765838       -20.8395
 164   2.0000      -0.756207       -20.5774
 165   2.0000      -0.752907       -20.4876
 166   2.0000      -0.738530       -20.0964
 167   2.0000      -0.726933       -19.7808
 168   2.0000      -0.710494       -19.3335
 169   2.0000      -0.704951       -19.1827
 170   2.0000      -0.696895       -18.9635
 171   2.0000      -0.689314       -18.7572
 172   2.0000      -0.681250       -18.5378
 173   2.0000      -0.679077       -18.4786
 174   2.0000      -0.676561       -18.4101
 175   2.0000      -0.674433       -18.3523
 176   2.0000      -0.670025       -18.2323
 177   2.0000      -0.663837       -18.0639
 178   2.0000      -0.657052       -17.8793
 179   2.0000      -0.649013       -17.6605
 180   2.0000      -0.641480       -17.4556
 181   2.0000      -0.639650       -17.4058
 182   2.0000      -0.638086       -17.3632
 183   2.0000      -0.627657       -17.0794
 184   2.0000      -0.622090       -16.9279
 185   2.0000      -0.614986       -16.7346
 186   2.0000      -0.611070       -16.6281
 187   2.0000      -0.607067       -16.5191
 188   2.0000      -0.604037       -16.4367
 189   2.0000      -0.594187       -16.1686
 190   2.0000      -0.580629       -15.7997
 191   2.0000      -0.575919       -15.6716
 192   2.0000      -0.571100       -15.5404
 193   2.0000      -0.560277       -15.2459
 194   2.0000      -0.554350       -15.0846
 195   2.0000      -0.552950       -15.0465
 196   2.0000      -0.551833       -15.0161
 197   2.0000      -0.549150       -14.9431
 198   2.0000      -0.543858       -14.7991
 199   2.0000      -0.541795       -14.7430
 200   2.0000      -0.538160       -14.6441
 201   2.0000      -0.537191       -14.6177
 202   2.0000      -0.536127       -14.5887
 203   2.0000      -0.532641       -14.4939
 204   2.0000      -0.531931       -14.4746
 205   2.0000      -0.529865       -14.4183
 206   2.0000      -0.529498       -14.4084
 207   2.0000      -0.523957       -14.2576
 208   2.0000      -0.521588       -14.1931
 209   2.0000      -0.517474       -14.0812
 210   2.0000      -0.515661       -14.0318
 211   2.0000      -0.509691       -13.8694
 212   2.0000      -0.505079       -13.7439
 213   2.0000      -0.504595       -13.7307
 214   2.0000      -0.500487       -13.6190
 215   2.0000      -0.498255       -13.5582
 216   2.0000      -0.498119       -13.5545
 217   2.0000      -0.495602       -13.4860
 218   2.0000      -0.494957       -13.4685
 219   2.0000      -0.490295       -13.3416
 220   2.0000      -0.488518       -13.2933
 221   2.0000      -0.484451       -13.1826
 222   2.0000      -0.482253       -13.1228
 223   2.0000      -0.481455       -13.1011
 224   2.0000      -0.479714       -13.0537
 225   2.0000      -0.476980       -12.9793
 226   2.0000      -0.474750       -12.9186
 227   2.0000      -0.469423       -12.7736
 228   2.0000      -0.466809       -12.7025
 229   2.0000      -0.464849       -12.6492
 230   2.0000      -0.459357       -12.4997
 231   2.0000      -0.456250       -12.4152
 232   2.0000      -0.454697       -12.3729
 233   2.0000      -0.454359       -12.3637
 234   2.0000      -0.452503       -12.3132
 235   2.0000      -0.452230       -12.3058
 236   2.0000      -0.448685       -12.2093
 237   2.0000      -0.447373       -12.1736
 238   2.0000      -0.445782       -12.1303
 239   2.0000      -0.445441       -12.1211
 240   2.0000      -0.445359       -12.1188
 241   2.0000      -0.443010       -12.0549
 242   2.0000      -0.442347       -12.0369
 243   2.0000      -0.439441       -11.9578
 244   2.0000      -0.438219       -11.9245
 245   2.0000      -0.435155       -11.8412
 246   2.0000      -0.433354       -11.7921
 247   2.0000      -0.431711       -11.7475
 248   2.0000      -0.431060       -11.7297
 249   2.0000      -0.430072       -11.7029
 250   2.0000      -0.428986       -11.6733
 251   2.0000      -0.426798       -11.6138
 252   2.0000      -0.418141       -11.3782
 253   2.0000      -0.417710       -11.3665
 254   2.0000      -0.415756       -11.3133
 255   2.0000      -0.412204       -11.2166
 256   2.0000      -0.411371       -11.1940
 257   2.0000      -0.406798       -11.0695
 258   2.0000      -0.404974       -11.0199
 259   2.0000      -0.402540       -10.9537
 260   2.0000      -0.401665       -10.9299
 261   2.0000      -0.391015       -10.6401
 262   2.0000      -0.388785       -10.5794
 263   2.0000      -0.385938       -10.5019
 264   2.0000      -0.380921       -10.3654
 265   2.0000      -0.365030        -9.9330
 266   2.0000      -0.350923        -9.5491
 267   2.0000      -0.349424        -9.5083
 268   2.0000      -0.348247        -9.4763
 269   2.0000      -0.342443        -9.3183
 270   2.0000      -0.341031        -9.2799
 271   2.0000      -0.337255        -9.1772
 272   2.0000      -0.334039        -9.0897
 273   2.0000      -0.331126        -9.0104
 274   2.0000      -0.316669        -8.6170
 275   2.0000      -0.314961        -8.5705
 276   2.0000      -0.305683        -8.3181
 277   2.0000      -0.302855        -8.2411
 278   2.0000      -0.297689        -8.1005
 279   2.0000      -0.297101        -8.0845
 280   2.0000      -0.262243        -7.1360
 281   2.0000      -0.261532        -7.1167
 282   0.0000      -0.102133        -2.7792
 283   0.0000      -0.100596        -2.7374
 284   0.0000      -0.062580        -1.7029
 285   0.0000      -0.059937        -1.6310
 286   0.0000      -0.049650        -1.3511

MULLIKEN ATOMIC CHARGES
-----------------------
   0 C :    0.027623
   1 C :   -0.130766
   2 S :    0.182726
   3 C :   -0.173898
   4 Cl:   -0.003491
   5 C :    0.082145
   6 C :    0.169324
   7 O :   -0.168837
   8 C :   -0.112622
   9 C :    0.312560
  10 C :   -0.344636
  11 C :   -0.196015
  12 N :    0.152878
  13 C :   -0.182211
  14 N :    0.149511
  15 C :   -0.024494
  16 C :   -0.053103
  17 C :   -0.047755
  18 C :    0.001853
  19 C :   -0.052360
  20 S :    0.213282
  21 C :   -0.074063
  22 C :   -0.021457
  23 S :    0.181893
  24 C :   -0.039151
  25 C :   -0.088468
  26 S :    0.156472
  27 C :   -0.063654
  28 C :   -0.014201
  29 C :   -0.323899
  30 N :    0.207965
  31 C :    0.143347
  32 C :   -0.234785
  33 S :    0.178509
  34 S :    0.197633
  35 C :   -0.227743
  36 C :    0.141034
  37 C :   -0.002750
  38 C :   -0.368873
  39 N :    0.231603
  40 C :   -0.057268
  41 S :    0.166603
  42 C :   -0.088899
  43 C :   -0.067131
  44 C :   -0.006082
  45 C :   -0.068970
  46 S :    0.199220
  47 C :   -0.055227
  48 C :   -0.041608
  49 S :    0.175885
  50 C :    0.012468
  51 C :   -0.111960
  52 S :    0.188139
  53 C :    0.083384
  54 C :   -0.154219
  55 C :    0.132386
  56 O :   -0.132473
  57 C :    0.094475
  58 C :   -0.173974
  59 S :    0.181847
  60 C :   -0.131248
  61 C :    0.014033
  62 C :    0.268043
  63 C :   -0.334238
  64 C :   -0.181471
  65 N :    0.152837
  66 C :   -0.205111
  67 N :    0.183301
  68 Cl:   -0.000886
  69 H :    0.054033
  70 H :    0.010481
  71 H :    0.011513
  72 H :    0.012664
  73 H :    0.000403
  74 H :    0.004840
  75 H :    0.029777
  76 H :    0.053307
Sum of atomic charges:   -0.0000000

LOEWDIN ATOMIC CHARGES
----------------------
   0 C :   -0.058269
   1 C :   -0.147684
   2 S :    0.471321
   3 C :   -0.272983
   4 Cl:    0.189546
   5 C :   -0.115775
   6 C :    0.082347
   7 O :   -0.160693
   8 C :   -0.109429
   9 C :    0.076874
  10 C :   -0.144868
  11 C :   -0.015645
  12 N :   -0.055939
  13 C :   -0.022703
  14 N :   -0.052760
  15 C :    0.058524
  16 C :   -0.177980
  17 C :   -0.020036
  18 C :   -0.194573
  19 C :   -0.202599
  20 S :    0.497973
  21 C :   -0.216927
  22 C :   -0.176325
  23 S :    0.419078
  24 C :   -0.045237
  25 C :   -0.177433
  26 S :    0.429062
  27 C :   -0.143546
  28 C :   -0.098310
  29 C :   -0.035110
  30 N :   -0.031204
  31 C :   -0.059697
  32 C :   -0.333694
  33 S :    0.450827
  34 S :    0.430527
  35 C :   -0.332268
  36 C :   -0.061037
  37 C :   -0.103522
  38 C :   -0.059198
  39 N :   -0.022137
  40 C :   -0.137121
  41 S :    0.454953
  42 C :   -0.179670
  43 C :   -0.065795
  44 C :   -0.180592
  45 C :   -0.215877
  46 S :    0.483740
  47 C :   -0.195678
  48 C :   -0.186168
  49 S :    0.417995
  50 C :   -0.019809
  51 C :   -0.176829
  52 S :    0.460501
  53 C :    0.050480
  54 C :   -0.095827
  55 C :    0.079947
  56 O :   -0.135727
  57 C :   -0.117837
  58 C :   -0.272842
  59 S :    0.470449
  60 C :   -0.153483
  61 C :   -0.057413
  62 C :    0.065326
  63 C :   -0.143783
  64 C :   -0.018149
  65 N :   -0.053671
  66 C :   -0.021951
  67 N :   -0.037335
  68 Cl:    0.191178
  69 H :    0.037835
  70 H :    0.052086
  71 H :    0.043367
  72 H :    0.044504
  73 H :    0.030711
  74 H :    0.038820
  75 H :    0.048097
  76 H :    0.037074

  Mayer bond orders larger than 0.100000
B(  0-C ,  1-C ) :   1.5496 B(  0-C ,  5-C ) :   1.2256 B(  0-C ,  9-C ) :   0.9911
B(  1-C ,  2-S ) :   1.1585 B(  1-C , 69-H ) :   0.9544 B(  2-S ,  3-C ) :   1.1470
B(  3-C ,  4-Cl) :   1.1260 B(  3-C ,  5-C ) :   1.4755 B(  5-C ,  6-C ) :   0.9678
B(  6-C ,  7-O ) :   2.1390 B(  6-C ,  8-C ) :   0.9729 B(  8-C ,  9-C ) :   1.0911
B(  8-C , 15-C ) :   1.5074 B(  9-C , 10-C ) :   1.6316 B( 10-C , 11-C ) :   1.1520
B( 10-C , 13-C ) :   1.1432 B( 11-C , 12-N ) :   2.9887 B( 13-C , 14-N ) :   2.9595
B( 15-C , 16-C ) :   1.2694 B( 15-C , 70-H ) :   0.9394 B( 16-C , 17-C ) :   1.3713
B( 16-C , 20-S ) :   1.0711 B( 17-C , 18-C ) :   1.3289 B( 17-C , 71-H ) :   1.0116
B( 18-C , 19-C ) :   1.3802 B( 18-C , 23-S ) :   1.0362 B( 19-C , 20-S ) :   1.0611
B( 19-C , 21-C ) :   1.3172 B( 21-C , 22-C ) :   1.4439 B( 21-C , 26-S ) :   1.0728
B( 22-C , 23-S ) :   1.0579 B( 22-C , 24-C ) :   1.2688 B( 24-C , 25-C ) :   1.5254
B( 24-C , 72-H ) :   0.9884 B( 25-C , 26-S ) :   1.0843 B( 25-C , 27-C ) :   1.1551
B( 27-C , 28-C ) :   1.5329 B( 27-C , 33-S ) :   1.1321 B( 28-C , 29-C ) :   1.1779
B( 28-C , 31-C ) :   1.2550 B( 29-C , 30-N ) :   2.9382 B( 31-C , 32-C ) :   1.4163
B( 31-C , 36-C ) :   1.0688 B( 32-C , 33-S ) :   1.0875 B( 32-C , 34-S ) :   1.0853
B( 34-S , 35-C ) :   1.0855 B( 35-C , 36-C ) :   1.4263 B( 35-C , 41-S ) :   1.0848
B( 36-C , 37-C ) :   1.2462 B( 37-C , 38-C ) :   1.1604 B( 37-C , 40-C ) :   1.5003
B( 38-C , 39-N ) :   2.9705 B( 40-C , 41-S ) :   1.1383 B( 40-C , 42-C ) :   1.1948
B( 42-C , 43-C ) :   1.4823 B( 42-C , 46-S ) :   1.1092 B( 43-C , 44-C ) :   1.2923
B( 43-C , 73-H ) :   0.9915 B( 44-C , 45-C ) :   1.4484 B( 44-C , 49-S ) :   1.0553
B( 45-C , 46-S ) :   1.0723 B( 45-C , 47-C ) :   1.3043 B( 47-C , 48-C ) :   1.4294
B( 47-C , 52-S ) :   1.1014 B( 48-C , 49-S ) :   1.0449 B( 48-C , 50-C ) :   1.3394
B( 50-C , 51-C ) :   1.4437 B( 50-C , 74-H ) :   0.9885 B( 51-C , 52-S ) :   1.0808
B( 51-C , 53-C ) :   1.1465 B( 53-C , 54-C ) :   1.6668 B( 53-C , 75-H ) :   0.9241
B( 54-C , 55-C ) :   0.9435 B( 54-C , 62-C ) :   1.0494 B( 55-C , 56-O ) :   2.2703
B( 55-C , 57-C ) :   0.9249 B( 57-C , 58-C ) :   1.4872 B( 57-C , 61-C ) :   1.2229
B( 58-C , 59-S ) :   1.1481 B( 58-C , 68-Cl) :   1.1285 B( 59-S , 60-C ) :   1.1559
B( 60-C , 61-C ) :   1.5554 B( 60-C , 76-H ) :   0.9561 B( 61-C , 62-C ) :   1.0069
B( 62-C , 63-C ) :   1.6486 B( 63-C , 64-C ) :   1.1311 B( 63-C , 66-C ) :   1.1650
B( 64-C , 65-N ) :   2.9986 B( 66-C , 67-N ) :   3.0051

-----------------------------------------------------------------------------
         ABSORPTION SPECTRUM VIA TRANSITION ELECTRIC DIPOLE MOMENTS
-----------------------------------------------------------------------------
State   Energy  Wavelength   fosc         T2         TX        TY        TZ
        (cm-1)    (nm)                  (au**2)     (au)      (au)      (au)
-----------------------------------------------------------------------------
   0   18890.2    529.4   2.358455795  41.10246   3.05665   5.62727  -0.30520
   1   19907.8    502.3   0.813983192  13.46071   0.15141  -3.58844  -0.74892
   2   25728.3    388.7   0.007039016   0.09007   0.06314  -0.15073  -0.25172
   3   25884.1    386.3   0.078198712   0.99458  -0.00978   0.62441   0.77756
   4   26381.7    379.1   0.047520238   0.59300   0.37786   0.51005  -0.43596
   5   27008.7    370.3   0.020505720   0.24995   0.03523   0.44640   0.22234
   6   27365.6    365.4   0.479294183   5.76597  -1.09666  -1.95602   0.85865
   7   28398.1    352.1   0.068373734   0.79264  -0.13693  -0.81658   0.32724
   8   28545.4    350.3   0.162817417   1.87776   0.21235   1.30905  -0.34505
   9   28741.2    347.9   0.000977186   0.01119   0.09172  -0.03193   0.04197
  10   29158.6    343.0   0.043877146   0.49539  -0.08760   0.25792   0.64899
  11   29650.6    337.3   0.030129026   0.33452   0.12040   0.56428   0.04024
  12   30406.0    328.9   0.212978719   2.30597  -0.23855   0.76999   1.28693
  13   30988.8    322.7   0.040033684   0.42530  -0.33752  -0.28542  -0.47950
  14   31669.6    315.8   0.121115316   1.25902  -0.43240  -0.44279   0.93594
  15   31880.9    313.7   0.031478960   0.32506  -0.07624  -0.34395   0.44828
  16   33171.4    301.5   0.002693914   0.02674  -0.05117  -0.11334  -0.10617
  17   33663.0    297.1   0.018422335   0.18016   0.09400  -0.06950  -0.40804
  18   33713.8    296.6   0.164658453   1.60787  -0.29432  -0.95997   0.77441
  19   33816.4    295.7   0.126007781   1.22672  -0.39302  -0.32991   0.98154
  20   34011.0    294.0   0.067556757   0.65392   0.40320  -0.22509  -0.66384
  21   34816.5    287.2   0.000972714   0.00920   0.04985   0.05493  -0.06078
  22   34837.5    287.0   0.010882812   0.10284   0.07044   0.19108  -0.24773
  23   35443.4    282.1   0.017385979   0.16149   0.18700   0.20778  -0.28870
  24   35661.9    280.4   0.010559156   0.09748   0.04529  -0.30747   0.02978
  25   35967.1    278.0   0.114556800   1.04855   0.12391   0.45006  -0.91140
  26   36140.5    276.7   0.016191836   0.14749   0.17246   0.11911  -0.32182
  27   36265.6    275.7   0.004432199   0.04023   0.01454  -0.17075  -0.10425
  28   36763.5    272.0   0.123138988   1.10269   0.40656   0.32061  -0.91357
  29   37105.5    269.5   0.028882455   0.25625  -0.11319  -0.42073   0.25773
  30   37325.5    267.9   0.014033022   0.12377  -0.06971  -0.34409   0.02264
  31   37694.3    265.3   0.500718319   4.37314   0.61221  -0.16386  -1.99286
  32   37840.2    264.3   0.074460786   0.64781   0.03680   0.09936  -0.79786
  33   38405.9    260.4   0.338465783   2.90130  -0.35792  -1.47653   0.77009
  34   38632.0    258.9   0.249946421   2.12998   0.47463   0.67877  -1.20166
  35   39327.2    254.3   0.017374073   0.14544   0.15790  -0.19333   0.28832
  36   39502.9    253.1   0.004679143   0.03900  -0.09548  -0.16472   0.05242
  37   39679.0    252.0   0.040671056   0.33744  -0.07596  -0.29765  -0.49303
  38   39802.3    251.2   0.130469220   1.07913   0.29077   0.96975  -0.23274

FINAL SINGLE POINT ENERGY     -7608.706848534660

DIPOLE MOMENT
-------------
                                X             Y             Z
Electronic contribution:      3.04360      -4.33414      -8.48522
Nuclear contribution   :     -0.75776       2.58805       5.75593
                        -----------------------------------------
Total Dipole Moment    :      2.28583      -1.74610      -2.72929
                        -----------------------------------------
Magnitude (a.u.)       :      3.96522
Magnitude (Debye)      :     10.07878

Rotational constants in cm-1:     0.002416     0.000137     0.000131
Rotational constants in MHz :    72.415430     4.103411     3.934321

                             ****ORCA TERMINATED NORMALLY****
TOTAL RUN TIME: 0 days 0 hours 7 minutes 14 seconds 242 msec
