                         Program Version 4.2.0 -  RELEASE  -
|  1> # ORCA input file
|  2> # SCF done       -150.091649365083          0.000820341859
|  3> ! CAM-B3LYP def2-SVP def2/J RIJCOSX Grid4 TightSCF
|  4> %maxcore 5000
|  5> %tddft
|  6>     Mode sTDDFT
|  7>     Ethresh 5.0
|  8>     maxcore 5000
|  9> end
| 10>
| 11> %pal
| 12>   nprocs 6
| 13>   end
| 14> * xyz 0 1
| 15>    C        0.63525         1.23845        -2.53385
| 16>    C       -0.18091         1.98470        -3.32607
| 17>    S        0.68500         3.27896        -4.07167
| 18>    C        2.18132         2.80461        -3.30167
| 19>   Cl        3.61793         3.66368        -3.56272
| 20>    C        1.98657         1.70672        -2.51926
| 21>    C        2.80394         0.85351        -1.64910
| 22>    O        3.98895         0.97897        -1.42687
| 23>    C        1.86028        -0.16655        -1.11500
| 24>    C        0.53745         0.07034        -1.68021
| 25>    C       -0.61934        -0.64374        -1.50104
| 26>    C       -1.81890        -0.25793        -2.13702
| 27>    N       -2.80741         0.03775        -2.63919
| 28>    C       -0.79449        -1.80355        -0.72060
| 29>    N       -1.02535        -2.75326        -0.11706
| 30>    C        2.10791        -1.16850        -0.21435
| 31>    C        3.28313        -1.58861         0.43759
| 32>    C        4.60439        -1.17239         0.36372
| 33>    C        5.42532        -1.91728         1.19785
| 34>    C        4.76261        -2.91668         1.93257
| 35>    S        3.08263        -2.93269         1.57382
| 36>    C        5.59838        -3.65920         2.76633
| 37>    C        6.91134        -3.24866         2.68309
| 38>    S        7.11474        -1.91381         1.55151
| 39>    C        8.06063        -3.77007         3.36965
| 40>    C        9.33556        -3.31928         3.04827
| 41>    C       10.48513        -3.79456         3.66066
| 42>    C       10.43314        -4.76297         4.65368
| 43>    C        9.14273        -5.23771         5.02663
| 44>    N        9.06801        -6.15859         5.99749
| 45>    C        7.89717        -6.60848         6.35814
| 46>    C        6.72776        -6.13238         5.74081
| 47>    N        6.76512        -5.23512         4.79158
| 48>    C        7.95912        -4.75796         4.39728
| 49>    C       11.59778        -5.29277         5.29939
| 50>    C       12.91490        -4.97004         5.02864
| 51>    C       13.79792        -5.68103         5.83506
| 52>    C       13.16784        -6.54670         6.73998
| 53>    S       11.44393        -6.48507         6.56843
| 54>    C       14.05603        -7.23527         7.55980
| 55>    C       15.37703        -6.94658         7.26454
| 56>    S       15.51433        -5.74568         5.98338
| 57>    C       16.50418        -7.44257         7.96073
| 58>    C       17.80854        -7.48057         7.57363
| 59>    C       18.87677        -7.57413         8.61525
| 60>    O       18.72468        -7.84684         9.78180
| 61>    C       20.10786        -7.20355         7.90338
| 62>    C       21.41704        -6.98598         8.21064
| 63>    S       22.32222        -6.56084         6.77617
| 64>    C       20.92079        -6.69534         5.77524
| 65>    C       19.82780        -7.03522         6.50662
| 66>    C       18.42912        -7.34082         6.27088
| 67>    C       17.90247        -7.69436         5.05641
| 68>    C       18.65106        -7.58053         3.86829
| 69>    N       19.24755        -7.47362         2.89379
| 70>    C       16.63495        -8.28740         4.89348
| 71>    N       15.63372        -8.82656         4.73615
| 72>   Cl       22.16725        -7.08727         9.72659
| 73>    H       -1.22756         1.87246        -3.52699
| 74>    H        1.24594        -1.76350         0.06598
| 75>    H        4.93030        -0.36758        -0.26851
| 76>    H        5.28142        -4.46024         3.40577
| 77>    H        9.43820        -2.56796         2.27859
| 78>    H       11.43673        -3.39650         3.34740
| 79>    H        7.87540        -7.35017         7.14351
| 80>    H        5.74849        -6.48928         6.02922
| 81>    H       13.22489        -4.26468         4.28075
| 82>    H       13.76962        -7.94289         8.31608
| 83>    H       16.31661        -7.76307         8.98160
| 84>    H       21.00263        -6.50453         4.72367
| 85> *
| 86>
| 87>                          ****END OF INPUT****

CARTESIAN COORDINATES (ANGSTROEM)
---------------------------------
  C      0.635250    1.238450   -2.533850
  C     -0.180910    1.984700   -3.326070
  S      0.685000    3.278960   -4.071670
  C      2.181320    2.804610   -3.301670
  Cl     3.617930    3.663680   -3.562720
  C      1.986570    1.706720   -2.519260
  C      2.803940    0.853510   -1.649100
  O      3.988950    0.978970   -1.426870
  C      1.860280   -0.166550   -1.115000
  C      0.537450    0.070340   -1.680210
  C     -0.619340   -0.643740   -1.501040
  C     -1.818900   -0.257930   -2.137020
  N     -2.807410    0.037750   -2.639190
  C     -0.794490   -1.803550   -0.720600
  N     -1.025350   -2.753260   -0.117060
  C      2.107910   -1.168500   -0.214350
  C      3.283130   -1.588610    0.437590
  C      4.604390   -1.172390    0.363720
  C      5.425320   -1.917280    1.197850
  C      4.762610   -2.916680    1.932570
  S      3.082630   -2.932690    1.573820
  C      5.598380   -3.659200    2.766330
  C      6.911340   -3.248660    2.683090
  S      7.114740   -1.913810    1.551510
  C      8.060630   -3.770070    3.369650
  C      9.335560   -3.319280    3.048270
  C     10.485130   -3.794560    3.660660
  C     10.433140   -4.762970    4.653680
  C      9.142730   -5.237710    5.026630
  N      9.068010   -6.158590    5.997490
  C      7.897170   -6.608480    6.358140
  C      6.727760   -6.132380    5.740810
  N      6.765120   -5.235120    4.791580
  C      7.959120   -4.757960    4.397280
  C     11.597780   -5.292770    5.299390
  C     12.914900   -4.970040    5.028640
  C     13.797920   -5.681030    5.835060
  C     13.167840   -6.546700    6.739980
  S     11.443930   -6.485070    6.568430
  C     14.056030   -7.235270    7.559800
  C     15.377030   -6.946580    7.264540
  S     15.514330   -5.745680    5.983380
  C     16.504180   -7.442570    7.960730
  C     17.808540   -7.480570    7.573630
  C     18.876770   -7.574130    8.615250
  O     18.724680   -7.846840    9.781800
  C     20.107860   -7.203550    7.903380
  C     21.417040   -6.985980    8.210640
  S     22.322220   -6.560840    6.776170
  C     20.920790   -6.695340    5.775240
  C     19.827800   -7.035220    6.506620
  C     18.429120   -7.340820    6.270880
  C     17.902470   -7.694360    5.056410
  C     18.651060   -7.580530    3.868290
  N     19.247550   -7.473620    2.893790
  C     16.634950   -8.287400    4.893480
  N     15.633720   -8.826560    4.736150
  Cl    22.167250   -7.087270    9.726590
  H     -1.227560    1.872460   -3.526990
  H      1.245940   -1.763500    0.065980
  H      4.930300   -0.367580   -0.268510
  H      5.281420   -4.460240    3.405770
  H      9.438200   -2.567960    2.278590
  H     11.436730   -3.396500    3.347400
  H      7.875400   -7.350170    7.143510
  H      5.748490   -6.489280    6.029220
  H     13.224890   -4.264680    4.280750
  H     13.769620   -7.942890    8.316080
  H     16.316610   -7.763070    8.981600
  H     21.002630   -6.504530    4.723670

 Total Charge           Charge          ....    0
 Multiplicity           Mult            ....    1
 Number of Electrons    NEL             ....  452
 Basis Dimension        Dim             ....  904

ORBITAL ENERGIES
----------------

  NO   OCC          E(Eh)            E(eV)
   0   2.0000    -101.614789     -2765.0790
   1   2.0000    -101.613000     -2765.0303
   2   2.0000     -88.989555     -2421.5289
   3   2.0000     -88.987966     -2421.4857
   4   2.0000     -88.970358     -2421.0065
   5   2.0000     -88.969509     -2420.9834
   6   2.0000     -88.966240     -2420.8945
   7   2.0000     -88.962979     -2420.8057
   8   2.0000     -19.220516      -523.0168
   9   2.0000     -19.212931      -522.8104
  10   2.0000     -14.449843      -393.2002
  11   2.0000     -14.446494      -393.1091
  12   2.0000     -14.417766      -392.3274
  13   2.0000     -14.415289      -392.2600
  14   2.0000     -14.414251      -392.2317
  15   2.0000     -14.410516      -392.1301
  16   2.0000     -10.377185      -282.3776
  17   2.0000     -10.372569      -282.2520
  18   2.0000     -10.371048      -282.2106
  19   2.0000     -10.370265      -282.1893
  20   2.0000     -10.344927      -281.4998
  21   2.0000     -10.342961      -281.4463
  22   2.0000     -10.342487      -281.4334
  23   2.0000     -10.342210      -281.4258
  24   2.0000     -10.341449      -281.4051
  25   2.0000     -10.341307      -281.4013
  26   2.0000     -10.340829      -281.3883
  27   2.0000     -10.339530      -281.3529
  28   2.0000     -10.326961      -281.0109
  29   2.0000     -10.326161      -280.9891
  30   2.0000     -10.325818      -280.9798
  31   2.0000     -10.323986      -280.9299
  32   2.0000     -10.322155      -280.8801
  33   2.0000     -10.321256      -280.8557
  34   2.0000     -10.321049      -280.8500
  35   2.0000     -10.320480      -280.8345
  36   2.0000     -10.318298      -280.7752
  37   2.0000     -10.317995      -280.7669
  38   2.0000     -10.317515      -280.7539
  39   2.0000     -10.317216      -280.7457
  40   2.0000     -10.316069      -280.7145
  41   2.0000     -10.315166      -280.6899
  42   2.0000     -10.312999      -280.6310
  43   2.0000     -10.312421      -280.6153
  44   2.0000     -10.311158      -280.5809
  45   2.0000     -10.308281      -280.5026
  46   2.0000     -10.307858      -280.4911
  47   2.0000     -10.305900      -280.4378
  48   2.0000     -10.305333      -280.4224
  49   2.0000     -10.303378      -280.3692
  50   2.0000     -10.302272      -280.3391
  51   2.0000     -10.297794      -280.2172
  52   2.0000     -10.297712      -280.2150
  53   2.0000     -10.297603      -280.2120
  54   2.0000     -10.295928      -280.1664
  55   2.0000     -10.295302      -280.1494
  56   2.0000     -10.294648      -280.1316
  57   2.0000     -10.289237      -279.9844
  58   2.0000      -9.569577      -260.4014
  59   2.0000      -9.567790      -260.3528
  60   2.0000      -8.085338      -220.0132
  61   2.0000      -8.083658      -219.9675
  62   2.0000      -8.065689      -219.4786
  63   2.0000      -8.064787      -219.4540
  64   2.0000      -8.061118      -219.3542
  65   2.0000      -8.055856      -219.2110
  66   2.0000      -7.340200      -199.7370
  67   2.0000      -7.338432      -199.6889
  68   2.0000      -7.329600      -199.4486
  69   2.0000      -7.329105      -199.4351
  70   2.0000      -7.327815      -199.4000
  71   2.0000      -7.327300      -199.3860
  72   2.0000      -6.054759      -164.7584
  73   2.0000      -6.053097      -164.7131
  74   2.0000      -6.050117      -164.6321
  75   2.0000      -6.048464      -164.5871
  76   2.0000      -6.047530      -164.5617
  77   2.0000      -6.045840      -164.5157
  78   2.0000      -6.035050      -164.2221
  79   2.0000      -6.034318      -164.2021
  80   2.0000      -6.031152      -164.1160
  81   2.0000      -6.030682      -164.1032
  82   2.0000      -6.030339      -164.0939
  83   2.0000      -6.027389      -164.0136
  84   2.0000      -6.026685      -163.9944
  85   2.0000      -6.026265      -163.9830
  86   2.0000      -6.025684      -163.9672
  87   2.0000      -6.022598      -163.8832
  88   2.0000      -6.021023      -163.8404
  89   2.0000      -6.017579      -163.7466
  90   2.0000      -1.137034       -30.9403
  91   2.0000      -1.130034       -30.7498
  92   2.0000      -1.106542       -30.1105
  93   2.0000      -1.034741       -28.1567
  94   2.0000      -1.033103       -28.1122
  95   2.0000      -1.031785       -28.0763
  96   2.0000      -1.021093       -27.7853
  97   2.0000      -1.015908       -27.6443
  98   2.0000      -1.013982       -27.5918
  99   2.0000      -1.009599       -27.4726
 100   2.0000      -0.994962       -27.0743
 101   2.0000      -0.991641       -26.9839
 102   2.0000      -0.986172       -26.8351
 103   2.0000      -0.983901       -26.7733
 104   2.0000      -0.982149       -26.7256
 105   2.0000      -0.963735       -26.2246
 106   2.0000      -0.954319       -25.9683
 107   2.0000      -0.948629       -25.8135
 108   2.0000      -0.943607       -25.6769
 109   2.0000      -0.905904       -24.6509
 110   2.0000      -0.902672       -24.5629
 111   2.0000      -0.897102       -24.4114
 112   2.0000      -0.884711       -24.0742
 113   2.0000      -0.883314       -24.0362
 114   2.0000      -0.876027       -23.8379
 115   2.0000      -0.869130       -23.6502
 116   2.0000      -0.862891       -23.4805
 117   2.0000      -0.829463       -22.5708
 118   2.0000      -0.827652       -22.5215
 119   2.0000      -0.825795       -22.4710
 120   2.0000      -0.814551       -22.1650
 121   2.0000      -0.809938       -22.0395
 122   2.0000      -0.807603       -21.9760
 123   2.0000      -0.788856       -21.4659
 124   2.0000      -0.776614       -21.1327
 125   2.0000      -0.770632       -20.9700
 126   2.0000      -0.758140       -20.6300
 127   2.0000      -0.752234       -20.4693
 128   2.0000      -0.746773       -20.3207
 129   2.0000      -0.727596       -19.7989
 130   2.0000      -0.700508       -19.0618
 131   2.0000      -0.692108       -18.8332
 132   2.0000      -0.681412       -18.5422
 133   2.0000      -0.678321       -18.4581
 134   2.0000      -0.674244       -18.3471
 135   2.0000      -0.670362       -18.2415
 136   2.0000      -0.669643       -18.2219
 137   2.0000      -0.666125       -18.1262
 138   2.0000      -0.657169       -17.8825
 139   2.0000      -0.652794       -17.7634
 140   2.0000      -0.636649       -17.3241
 141   2.0000      -0.632356       -17.2073
 142   2.0000      -0.623122       -16.9560
 143   2.0000      -0.620640       -16.8885
 144   2.0000      -0.616045       -16.7634
 145   2.0000      -0.607683       -16.5359
 146   2.0000      -0.604500       -16.4493
 147   2.0000      -0.601092       -16.3566
 148   2.0000      -0.592298       -16.1173
 149   2.0000      -0.585709       -15.9380
 150   2.0000      -0.584449       -15.9037
 151   2.0000      -0.572647       -15.5825
 152   2.0000      -0.567628       -15.4460
 153   2.0000      -0.559209       -15.2168
 154   2.0000      -0.556862       -15.1530
 155   2.0000      -0.550628       -14.9833
 156   2.0000      -0.547464       -14.8973
 157   2.0000      -0.543330       -14.7848
 158   2.0000      -0.541297       -14.7294
 159   2.0000      -0.537424       -14.6241
 160   2.0000      -0.533064       -14.5054
 161   2.0000      -0.527600       -14.3567
 162   2.0000      -0.526118       -14.3164
 163   2.0000      -0.522786       -14.2257
 164   2.0000      -0.518917       -14.1205
 165   2.0000      -0.518170       -14.1001
 166   2.0000      -0.515122       -14.0172
 167   2.0000      -0.513617       -13.9762
 168   2.0000      -0.507137       -13.7999
 169   2.0000      -0.502230       -13.6664
 170   2.0000      -0.500939       -13.6312
 171   2.0000      -0.496887       -13.5210
 172   2.0000      -0.495565       -13.4850
 173   2.0000      -0.492786       -13.4094
 174   2.0000      -0.490725       -13.3533
 175   2.0000      -0.487473       -13.2648
 176   2.0000      -0.485589       -13.2136
 177   2.0000      -0.483166       -13.1476
 178   2.0000      -0.478517       -13.0211
 179   2.0000      -0.477687       -12.9985
 180   2.0000      -0.473458       -12.8834
 181   2.0000      -0.468291       -12.7428
 182   2.0000      -0.464221       -12.6321
 183   2.0000      -0.457963       -12.4618
 184   2.0000      -0.451862       -12.2958
 185   2.0000      -0.451033       -12.2732
 186   2.0000      -0.449266       -12.2252
 187   2.0000      -0.448497       -12.2042
 188   2.0000      -0.446834       -12.1590
 189   2.0000      -0.444679       -12.1003
 190   2.0000      -0.442883       -12.0515
 191   2.0000      -0.441037       -12.0012
 192   2.0000      -0.440628       -11.9901
 193   2.0000      -0.439643       -11.9633
 194   2.0000      -0.436935       -11.8896
 195   2.0000      -0.434750       -11.8302
 196   2.0000      -0.431102       -11.7309
 197   2.0000      -0.427554       -11.6343
 198   2.0000      -0.426891       -11.6163
 199   2.0000      -0.426190       -11.5972
 200   2.0000      -0.422715       -11.5027
 201   2.0000      -0.418180       -11.3793
 202   2.0000      -0.411081       -11.1861
 203   2.0000      -0.408712       -11.1216
 204   2.0000      -0.406340       -11.0571
 205   2.0000      -0.400551       -10.8995
 206   2.0000      -0.399966       -10.8836
 207   2.0000      -0.396043       -10.7769
 208   2.0000      -0.382276       -10.4023
 209   2.0000      -0.377191       -10.2639
 210   2.0000      -0.375076       -10.2063
 211   2.0000      -0.369627       -10.0581
 212   2.0000      -0.355522        -9.6742
 213   2.0000      -0.352985        -9.6052
 214   2.0000      -0.341874        -9.3029
 215   2.0000      -0.338892        -9.2217
 216   2.0000      -0.335566        -9.1312
 217   2.0000      -0.333406        -9.0724
 218   2.0000      -0.330371        -8.9899
 219   2.0000      -0.324884        -8.8405
 220   2.0000      -0.310991        -8.4625
 221   2.0000      -0.306167        -8.3312
 222   2.0000      -0.305310        -8.3079
 223   2.0000      -0.298872        -8.1327
 224   2.0000      -0.280317        -7.6278
 225   2.0000      -0.253580        -6.9003
 226   0.0000      -0.107605        -2.9281
 227   0.0000      -0.091276        -2.4838
 228   0.0000      -0.071304        -1.9403
 229   0.0000      -0.049733        -1.3533
 230   0.0000      -0.043922        -1.1952

MULLIKEN ATOMIC CHARGES
-----------------------
   0 C :    0.026968
   1 C :   -0.129905
   2 S :    0.181362
   3 C :   -0.173610
   4 Cl:   -0.005943
   5 C :    0.083440
   6 C :    0.159798
   7 O :   -0.148669
   8 C :   -0.111459
   9 C :    0.303193
  10 C :   -0.351104
  11 C :   -0.194918
  12 N :    0.152166
  13 C :   -0.177803
  14 N :    0.150319
  15 C :    0.048970
  16 C :   -0.119605
  17 C :   -0.000899
  18 C :   -0.012432
  19 C :    0.017066
  20 S :    0.156787
  21 C :   -0.040306
  22 C :   -0.111322
  23 S :    0.119248
  24 C :    0.160352
  25 C :   -0.053352
  26 C :   -0.054488
  27 C :    0.159255
  28 C :   -0.038496
  29 N :   -0.071660
  30 C :    0.051071
  31 C :    0.036980
  32 N :   -0.023008
  33 C :   -0.030800
  34 C :   -0.086593
  35 C :   -0.047432
  36 C :    0.000375
  37 C :    0.019261
  38 S :    0.173029
  39 C :    0.005803
  40 C :   -0.100704
  41 S :    0.149423
  42 C :    0.053434
  43 C :   -0.153832
  44 C :    0.135193
  45 O :   -0.132816
  46 C :    0.089431
  47 C :   -0.173801
  48 S :    0.177628
  49 C :   -0.130935
  50 C :    0.019754
  51 C :    0.252654
  52 C :   -0.310738
  53 C :   -0.182791
  54 N :    0.149112
  55 C :   -0.207975
  56 N :    0.177520
  57 Cl:   -0.004426
  58 H :    0.054167
  59 H :    0.002832
  60 H :    0.019665
  61 H :    0.002799
  62 H :    0.004202
  63 H :   -0.016202
  64 H :    0.021990
  65 H :    0.020090
  66 H :   -0.014872
  67 H :   -0.003031
  68 H :    0.029196
  69 H :    0.051394
Sum of atomic charges:   -0.0000000

LOEWDIN ATOMIC CHARGES
----------------------
   0 C :   -0.059605
   1 C :   -0.148977
   2 S :    0.470505
   3 C :   -0.274069
   4 Cl:    0.187613
   5 C :   -0.115448
   6 C :    0.085238
   7 O :   -0.140115
   8 C :   -0.099764
   9 C :    0.076889
  10 C :   -0.145699
  11 C :   -0.014620
  12 N :   -0.057862
  13 C :   -0.026030
  14 N :   -0.050771
  15 C :    0.049261
  16 C :   -0.173606
  17 C :   -0.012912
  18 C :   -0.202117
  19 C :   -0.180828
  20 S :    0.443038
  21 C :   -0.058146
  22 C :   -0.134660
  23 S :    0.423373
  24 C :   -0.036508
  25 C :   -0.008169
  26 C :    0.000679
  27 C :   -0.030028
  28 C :   -0.004119
  29 N :   -0.044122
  30 C :    0.019854
  31 C :    0.014855
  32 N :   -0.024534
  33 C :    0.003851
  34 C :   -0.146020
  35 C :   -0.062990
  36 C :   -0.178346
  37 C :   -0.211913
  38 S :    0.468206
  39 C :   -0.015887
  40 C :   -0.174928
  41 S :    0.442769
  42 C :    0.054993
  43 C :   -0.101373
  44 C :    0.079533
  45 O :   -0.138801
  46 C :   -0.117174
  47 C :   -0.273572
  48 S :    0.467313
  49 C :   -0.154247
  50 C :   -0.055754
  51 C :    0.060003
  52 C :   -0.141710
  53 C :   -0.016886
  54 N :   -0.055380
  55 C :   -0.037151
  56 N :   -0.047079
  57 Cl:    0.188237
  58 H :    0.037224
  59 H :    0.043518
  60 H :    0.038164
  61 H :    0.033001
  62 H :    0.027435
  63 H :    0.034730
  64 H :    0.031549
  65 H :    0.030036
  66 H :    0.031811
  67 H :    0.039048
  68 H :    0.052226
  69 H :    0.036971

  Mayer bond orders larger than 0.100000
B(  0-C ,  1-C ) :   1.5512 B(  0-C ,  5-C ) :   1.2240 B(  0-C ,  9-C ) :   0.9864
B(  1-C ,  2-S ) :   1.1584 B(  1-C , 58-H ) :   0.9524 B(  2-S ,  3-C ) :   1.1465
B(  3-C ,  4-Cl) :   1.1219 B(  3-C ,  5-C ) :   1.4796 B(  5-C ,  6-C ) :   0.9623
B(  6-C ,  7-O ) :   2.1723 B(  6-C ,  8-C ) :   0.9388 B(  8-C ,  9-C ) :   1.0971
B(  8-C , 15-C ) :   1.5883 B(  9-C , 10-C ) :   1.6255 B( 10-C , 11-C ) :   1.1556
B( 10-C , 13-C ) :   1.1355 B( 11-C , 12-N ) :   2.9866 B( 13-C , 14-N ) :   2.9610
B( 15-C , 16-C ) :   1.2422 B( 15-C , 59-H ) :   0.9072 B( 16-C , 17-C ) :   1.4308
B( 16-C , 20-S ) :   1.0750 B( 17-C , 18-C ) :   1.2793 B( 17-C , 60-H ) :   0.9820
B( 18-C , 19-C ) :   1.3682 B( 18-C , 23-S ) :   1.0589 B( 19-C , 20-S ) :   1.1023
B( 19-C , 21-C ) :   1.2065 B( 21-C , 22-C ) :   1.5341 B( 21-C , 61-H ) :   0.9905
B( 22-C , 23-S ) :   1.0957 B( 22-C , 24-C ) :   1.1215 B( 24-C , 25-C ) :   1.3863
B( 24-C , 27-C ) :   0.1096 B( 24-C , 33-C ) :   1.2198 B( 25-C , 26-C ) :   1.2909
B( 25-C , 62-H ) :   0.9858 B( 26-C , 27-C ) :   1.4004 B( 26-C , 63-H ) :   0.9977
B( 27-C , 28-C ) :   1.1994 B( 27-C , 34-C ) :   1.1080 B( 28-C , 29-N ) :   1.4231
B( 28-C , 33-C ) :   1.2343 B( 29-N , 30-C ) :   1.6168 B( 30-C , 31-C ) :   1.2404
B( 30-C , 64-H ) :   0.9746 B( 31-C , 32-N ) :   1.6350 B( 31-C , 65-H ) :   0.9756
B( 32-N , 33-C ) :   1.4722 B( 34-C , 35-C ) :   1.4891 B( 34-C , 38-S ) :   1.1237
B( 35-C , 36-C ) :   1.2798 B( 35-C , 66-H ) :   0.9958 B( 36-C , 37-C ) :   1.3814
B( 36-C , 41-S ) :   1.0818 B( 37-C , 38-S ) :   1.0040 B( 37-C , 39-C ) :   1.2798
B( 39-C , 40-C ) :   1.4390 B( 39-C , 67-H ) :   1.0076 B( 40-C , 41-S ) :   1.0845
B( 40-C , 42-C ) :   1.1523 B( 42-C , 43-C ) :   1.6382 B( 42-C , 68-H ) :   0.9457
B( 43-C , 44-C ) :   0.9434 B( 43-C , 51-C ) :   1.0439 B( 44-C , 45-O ) :   2.2772
B( 44-C , 46-C ) :   0.9233 B( 46-C , 47-C ) :   1.4891 B( 46-C , 50-C ) :   1.2232
B( 47-C , 48-S ) :   1.1479 B( 47-C , 57-Cl) :   1.1256 B( 48-S , 49-C ) :   1.1536
B( 49-C , 50-C ) :   1.5576 B( 49-C , 69-H ) :   0.9570 B( 50-C , 51-C ) :   1.0095
B( 51-C , 52-C ) :   1.6631 B( 52-C , 53-C ) :   1.1404 B( 52-C , 55-C ) :   1.1464
B( 53-C , 54-N ) :   2.9997 B( 55-C , 56-N ) :   3.0291

-----------------------------------------------------------------------------
         ABSORPTION SPECTRUM VIA TRANSITION ELECTRIC DIPOLE MOMENTS
-----------------------------------------------------------------------------
State   Energy  Wavelength   fosc         T2         TX        TY        TZ
        (cm-1)    (nm)                  (au**2)     (au)      (au)      (au)
-----------------------------------------------------------------------------
   0   16904.6    591.6   2.327676484  45.33078  -5.81351   2.39377  -2.40910
   1   20999.1    476.2   0.268561199   4.21034  -0.47933   0.69357  -1.87071
   2   24027.1    416.2   0.073137312   1.00211   0.87423  -0.43919   0.21201
   3   25060.9    399.0   0.006273102   0.08241   0.16666   0.14953   0.17964
   4   25292.5    395.4   0.046245013   0.60193  -0.65245  -0.28623   0.30710
   5   27150.3    368.3   0.032693127   0.39642   0.14976   0.44866  -0.41557
   6   27661.9    361.5   0.002785998   0.03316   0.09879  -0.01538  -0.15219
   7   28003.8    357.1   0.021289769   0.25028   0.21058   0.15184   0.42765
   8   28678.1    348.7   0.021043805   0.24157   0.12823  -0.34127   0.32964
   9   28954.9    345.4   0.001799956   0.02047  -0.02313   0.06282  -0.12643
  10   29546.7    338.4   0.122793711   1.36818   0.07167   0.68471  -0.94563
  11   29585.7    338.0   0.004062625   0.04521   0.19233   0.07515   0.05066
  12   29950.0    333.9   0.005958630   0.06550   0.07997  -0.15313   0.18882
  13   30550.5    327.3   0.181713459   1.95814  -1.13962  -0.79255  -0.17685
  14   30999.6    322.6   0.280175773   2.97543  -1.29649   0.65442  -0.93074
  15   32079.5    311.7   0.005467921   0.05611  -0.15263   0.11616   0.13902
  16   32445.7    308.2   0.012903180   0.13092  -0.15885  -0.11809  -0.30289
  17   32772.5    305.1   0.015368165   0.15438  -0.13505  -0.24015   0.28012
  18   32970.3    303.3   0.049221626   0.49148   0.50672   0.05889   0.48088
  19   33385.1    299.5   0.104823637   1.03367  -0.71013  -0.70820   0.16689
  20   34442.4    290.3   0.322664558   3.08413   1.41344  -0.67400   0.79502
  21   34893.7    286.6   0.174336313   1.64481  -0.94098   0.12400  -0.86255
  22   35169.3    284.3   0.001556671   0.01457   0.08824  -0.05843   0.05807
  23   35890.4    278.6   0.057519955   0.52761   0.59291  -0.31602   0.27604
  24   36729.4    272.3   0.098666088   0.88436   0.80868   0.23253   0.41992
  25   36868.3    271.2   0.101521763   0.90653  -0.71241  -0.62418  -0.09696
  26   37156.2    269.1   0.005748646   0.05093   0.12206   0.02912  -0.18758
  27   37478.4    266.8   0.360365003   3.16546   0.53161   1.33100  -1.05417
  28   37933.9    263.6   0.176563733   1.53232  -0.44933   0.14568  -1.14420
  29   38139.1    262.2   0.308090981   2.65941   1.44076   0.76353   0.02552
  30   38423.0    260.3   0.021069045   0.18052   0.02921   0.38647  -0.17410
  31   38790.0    257.8   0.113355659   0.96205  -0.79971  -0.56106   0.08792
  32   38858.7    257.3   0.001622592   0.01375  -0.04828  -0.07864  -0.07233
  33   38950.9    256.7   0.003589326   0.03034  -0.06150  -0.12869   0.09997
  34   39031.4    256.2   0.015176734   0.12801  -0.22304  -0.02466  -0.27866
  35   39322.5    254.3   0.066365878   0.55562   0.31573   0.03753   0.67419
  36   39675.6    252.0   0.092053730   0.76383  -0.48323  -0.54206   0.48630
  37   39885.8    250.7   0.185084765   1.52767  -0.79176  -0.80789   0.49810

FINAL SINGLE POINT ENERGY     -5392.446015799686

DIPOLE MOMENT
-------------
                                X             Y             Z
Electronic contribution:     16.99930      12.53554      -5.53412
Nuclear contribution   :    -16.06490     -11.20612       6.66953
                        -----------------------------------------
Total Dipole Moment    :      0.93440       1.32942       1.13541
                        -----------------------------------------
Magnitude (a.u.)       :      1.98233
Magnitude (Debye)      :      5.03868

Rotational constants in cm-1:     0.003237     0.000234     0.000222
Rotational constants in MHz :    97.029275     7.016461     6.667660

                             ****ORCA TERMINATED NORMALLY****
TOTAL RUN TIME: 0 days 0 hours 5 minutes 55 seconds 712 msec
