                         Program Version 4.2.0 -  RELEASE  -
|  1> # ORCA input file
|  2> # SCF done       -199.724759860568          0.000809283431
|  3> ! CAM-B3LYP def2-SVP def2/J RIJCOSX Grid4 TightSCF
|  4> %maxcore 5000
|  5> %tddft
|  6>     Mode sTDDFT
|  7>     Ethresh 5.0
|  8>     maxcore 5000
|  9> end
| 10>
| 11> %pal
| 12>   nprocs 6
| 13>   end
| 14> * xyz 0 1
| 15>    C       10.41247        -0.19356         0.86067
| 16>    C        9.39368        -0.77488         0.13986
| 17>    C        8.22225         0.06882         0.05808
| 18>    N        7.15757        -0.29365        -0.65799
| 19>    C        7.20943        -1.46267        -1.25717
| 20>    C        6.05299        -1.82596        -2.11236
| 21>    O        5.16161        -1.04730        -2.37234
| 22>    C        6.08527        -3.19892        -2.65072
| 23>    C        7.11836        -4.03089        -2.49044
| 24>    C        8.34574        -3.68300        -1.74999
| 25>    O        9.28089        -4.44605        -1.65816
| 26>    C        8.34241        -2.33210        -1.11974
| 27>    N        9.40982        -1.98589        -0.44668
| 28>    C        8.38271         1.27978         0.74571
| 29>    S        9.96835         1.35037         1.43972
| 30>    C        7.42638         2.31030         0.86106
| 31>    C        6.08567         2.22150         0.50746
| 32>    C        5.41761         3.41897         0.72612
| 33>    C        6.25577         4.44055         1.22708
| 34>    S        7.85739         3.90328         1.47209
| 35>    C        5.50884         5.63188         1.34452
| 36>    C        4.18603         5.36526         0.92330
| 37>    C        4.07857         3.96118         0.55923
| 38>    C        2.94974         3.28878         0.19661
| 39>    C        2.92469         1.89207        -0.01401
| 40>    N        2.86736         0.75458        -0.14047
| 41>    C        1.70363         3.93896         0.06423
| 42>    N        0.69014         4.46228        -0.05259
| 43>    C        3.37311         6.48627         0.96889
| 44>    C        4.06034         7.61287         1.41233
| 45>    S        5.73624         7.26546         1.79978
| 46>    C        3.54236         8.92843         1.51604
| 47>    C        4.34346        10.01275         1.94350
| 48>    C        3.88346        11.37243         1.97730
| 49>    N        4.72934        12.33384         2.40155
| 50>    C        5.93070        12.02040         2.76484
| 51>    C        6.38863        10.67825         2.72088
| 52>    N        5.60590         9.72900         2.32175
| 53>    F        7.62399        10.35452         3.08743
| 54>    F        6.72681        12.99552         3.18445
| 55>    C        2.57087        11.71812         1.56940
| 56>    C        1.75086        10.62653         1.19942
| 57>    C        2.21210         9.26195         1.16949
| 58>    N        1.24698         8.43079         0.77511
| 59>    S       -0.09047         9.25953         0.47672
| 60>    N        0.47523        10.72312         0.82438
| 61>    C        2.07254        13.04512         1.48464
| 62>    C        2.73397        14.24142         1.74660
| 63>    C        1.93785        15.34684         1.48840
| 64>    C        0.64656        14.99816         1.03164
| 65>    S        0.42385        13.30761         0.92727
| 66>    C       -0.06681        16.18558         0.76749
| 67>    C        0.76580        17.29216         1.04555
| 68>    C        2.03835        16.79763         1.54832
| 69>    C        3.07592        17.53640         2.03172
| 70>    C        4.27183        16.94587         2.49634
| 71>    N        5.25422        16.48451         2.86464
| 72>    C        3.01458        18.94183         2.16453
| 73>    N        2.96958        20.07477         2.33033
| 74>    C        0.17195        18.51159         0.74693
| 75>    C       -1.12119        18.34874         0.26632
| 76>    S       -1.60066        16.65746         0.18401
| 77>    C       -1.99045        19.38207        -0.14167
| 78>    C       -1.64705        20.72401        -0.35589
| 79>    C       -2.77834        21.52789        -0.76178
| 80>    N       -2.63644        22.84597        -0.99311
| 81>    C       -1.43109        23.34121        -0.87513
| 82>    C       -1.27324        24.80539        -1.10697
| 83>    O       -2.20027        25.52471        -1.40415
| 84>    C        0.09870        25.32071        -0.94034
| 85>    C        1.15522        24.54877        -0.67014
| 86>    C        1.07602        23.08390        -0.51480
| 87>    O        2.06182        22.38839        -0.40265
| 88>    C       -0.29870        22.52646        -0.53972
| 89>    N       -0.42303        21.24589        -0.26991
| 90>    C       -3.93794        20.79302        -0.86381
| 91>    S       -3.67526        19.15154        -0.47252
| 92>    H       11.38141        -0.59816         1.07077
| 93>    H        5.20886        -3.48944        -3.21431
| 94>    H        7.11217        -5.02498        -2.91723
| 95>    H        5.66329         1.32072         0.09958
| 96>    H        2.33581         6.52559         0.69211
| 97>    H        3.74827        14.26689         2.09743
| 98>    H        0.62480        19.48212         0.84238
| 99>    H        0.20058        26.39014        -1.06810
|100>    H        2.14851        24.96572        -0.57214
|101>    H       -4.91145        21.13870        -1.14558
|102> *
|103>
|104>                          ****END OF INPUT****

CARTESIAN COORDINATES (ANGSTROEM)
---------------------------------
  C     10.412470   -0.193560    0.860670
  C      9.393680   -0.774880    0.139860
  C      8.222250    0.068820    0.058080
  N      7.157570   -0.293650   -0.657990
  C      7.209430   -1.462670   -1.257170
  C      6.052990   -1.825960   -2.112360
  O      5.161610   -1.047300   -2.372340
  C      6.085270   -3.198920   -2.650720
  C      7.118360   -4.030890   -2.490440
  C      8.345740   -3.683000   -1.749990
  O      9.280890   -4.446050   -1.658160
  C      8.342410   -2.332100   -1.119740
  N      9.409820   -1.985890   -0.446680
  C      8.382710    1.279780    0.745710
  S      9.968350    1.350370    1.439720
  C      7.426380    2.310300    0.861060
  C      6.085670    2.221500    0.507460
  C      5.417610    3.418970    0.726120
  C      6.255770    4.440550    1.227080
  S      7.857390    3.903280    1.472090
  C      5.508840    5.631880    1.344520
  C      4.186030    5.365260    0.923300
  C      4.078570    3.961180    0.559230
  C      2.949740    3.288780    0.196610
  C      2.924690    1.892070   -0.014010
  N      2.867360    0.754580   -0.140470
  C      1.703630    3.938960    0.064230
  N      0.690140    4.462280   -0.052590
  C      3.373110    6.486270    0.968890
  C      4.060340    7.612870    1.412330
  S      5.736240    7.265460    1.799780
  C      3.542360    8.928430    1.516040
  C      4.343460   10.012750    1.943500
  C      3.883460   11.372430    1.977300
  N      4.729340   12.333840    2.401550
  C      5.930700   12.020400    2.764840
  C      6.388630   10.678250    2.720880
  N      5.605900    9.729000    2.321750
  F      7.623990   10.354520    3.087430
  F      6.726810   12.995520    3.184450
  C      2.570870   11.718120    1.569400
  C      1.750860   10.626530    1.199420
  C      2.212100    9.261950    1.169490
  N      1.246980    8.430790    0.775110
  S     -0.090470    9.259530    0.476720
  N      0.475230   10.723120    0.824380
  C      2.072540   13.045120    1.484640
  C      2.733970   14.241420    1.746600
  C      1.937850   15.346840    1.488400
  C      0.646560   14.998160    1.031640
  S      0.423850   13.307610    0.927270
  C     -0.066810   16.185580    0.767490
  C      0.765800   17.292160    1.045550
  C      2.038350   16.797630    1.548320
  C      3.075920   17.536400    2.031720
  C      4.271830   16.945870    2.496340
  N      5.254220   16.484510    2.864640
  C      3.014580   18.941830    2.164530
  N      2.969580   20.074770    2.330330
  C      0.171950   18.511590    0.746930
  C     -1.121190   18.348740    0.266320
  S     -1.600660   16.657460    0.184010
  C     -1.990450   19.382070   -0.141670
  C     -1.647050   20.724010   -0.355890
  C     -2.778340   21.527890   -0.761780
  N     -2.636440   22.845970   -0.993110
  C     -1.431090   23.341210   -0.875130
  C     -1.273240   24.805390   -1.106970
  O     -2.200270   25.524710   -1.404150
  C      0.098700   25.320710   -0.940340
  C      1.155220   24.548770   -0.670140
  C      1.076020   23.083900   -0.514800
  O      2.061820   22.388390   -0.402650
  C     -0.298700   22.526460   -0.539720
  N     -0.423030   21.245890   -0.269910
  C     -3.937940   20.793020   -0.863810
  S     -3.675260   19.151540   -0.472520
  H     11.381410   -0.598160    1.070770
  H      5.208860   -3.489440   -3.214310
  H      7.112170   -5.024980   -2.917230
  H      5.663290    1.320720    0.099580
  H      2.335810    6.525590    0.692110
  H      3.748270   14.266890    2.097430
  H      0.624800   19.482120    0.842380
  H      0.200580   26.390140   -1.068100
  H      2.148510   24.965720   -0.572140
  H     -4.911450   21.138700   -1.145580

 Total Charge           Charge          ....    0
 Multiplicity           Mult            ....    1
 Number of Electrons    NEL             ....  568
 Basis Dimension        Dim             .... 1156

ORBITAL ENERGIES
----------------

  NO   OCC          E(Eh)            E(eV)
   0   2.0000     -89.049843     -2423.1694
   1   2.0000     -88.998547     -2421.7736
   2   2.0000     -88.998450     -2421.7709
   3   2.0000     -88.990692     -2421.5598
   4   2.0000     -88.990475     -2421.5539
   5   2.0000     -88.982300     -2421.3315
   6   2.0000     -88.981616     -2421.3129
   7   2.0000     -24.824830      -675.5180
   8   2.0000     -24.817911      -675.3297
   9   2.0000     -19.222419      -523.0686
  10   2.0000     -19.222131      -523.0608
  11   2.0000     -19.220940      -523.0284
  12   2.0000     -19.220675      -523.0212
  13   2.0000     -14.465698      -393.6317
  14   2.0000     -14.460177      -393.4814
  15   2.0000     -14.459224      -393.4555
  16   2.0000     -14.458626      -393.4392
  17   2.0000     -14.444587      -393.0572
  18   2.0000     -14.444378      -393.0515
  19   2.0000     -14.440758      -392.9530
  20   2.0000     -14.440546      -392.9472
  21   2.0000     -14.425686      -392.5429
  22   2.0000     -14.423766      -392.4906
  23   2.0000     -14.421508      -392.4292
  24   2.0000     -14.420817      -392.4104
  25   2.0000     -10.440509      -284.1007
  26   2.0000     -10.436864      -284.0015
  27   2.0000     -10.371676      -282.2277
  28   2.0000     -10.371436      -282.2211
  29   2.0000     -10.370022      -282.1827
  30   2.0000     -10.369699      -282.1739
  31   2.0000     -10.359769      -281.9037
  32   2.0000     -10.359178      -281.8876
  33   2.0000     -10.353418      -281.7308
  34   2.0000     -10.351691      -281.6838
  35   2.0000     -10.347262      -281.5633
  36   2.0000     -10.346193      -281.5342
  37   2.0000     -10.346020      -281.5295
  38   2.0000     -10.345349      -281.5112
  39   2.0000     -10.336605      -281.2733
  40   2.0000     -10.336381      -281.2672
  41   2.0000     -10.335267      -281.2369
  42   2.0000     -10.335196      -281.2350
  43   2.0000     -10.335166      -281.2342
  44   2.0000     -10.334964      -281.2287
  45   2.0000     -10.331835      -281.1435
  46   2.0000     -10.331699      -281.1398
  47   2.0000     -10.328994      -281.0662
  48   2.0000     -10.328936      -281.0646
  49   2.0000     -10.328799      -281.0609
  50   2.0000     -10.328710      -281.0585
  51   2.0000     -10.328374      -281.0493
  52   2.0000     -10.328150      -281.0433
  53   2.0000     -10.326049      -280.9861
  54   2.0000     -10.323774      -280.9242
  55   2.0000     -10.323282      -280.9108
  56   2.0000     -10.322995      -280.9030
  57   2.0000     -10.322583      -280.8918
  58   2.0000     -10.322256      -280.8829
  59   2.0000     -10.322160      -280.8802
  60   2.0000     -10.321941      -280.8743
  61   2.0000     -10.320870      -280.8452
  62   2.0000     -10.320174      -280.8262
  63   2.0000     -10.316253      -280.7195
  64   2.0000     -10.316093      -280.7152
  65   2.0000     -10.304555      -280.4012
  66   2.0000     -10.304325      -280.3949
  67   2.0000     -10.303680      -280.3774
  68   2.0000     -10.303460      -280.3714
  69   2.0000     -10.301537      -280.3191
  70   2.0000     -10.301237      -280.3109
  71   2.0000     -10.296771      -280.1894
  72   2.0000     -10.296704      -280.1876
  73   2.0000     -10.296172      -280.1731
  74   2.0000     -10.295855      -280.1645
  75   2.0000     -10.293422      -280.0983
  76   2.0000     -10.292804      -280.0814
  77   2.0000      -8.140794      -221.5223
  78   2.0000      -8.093499      -220.2353
  79   2.0000      -8.093402      -220.2327
  80   2.0000      -8.085420      -220.0155
  81   2.0000      -8.085219      -220.0100
  82   2.0000      -8.074929      -219.7300
  83   2.0000      -8.074738      -219.7248
  84   2.0000      -6.111916      -166.3137
  85   2.0000      -6.104134      -166.1019
  86   2.0000      -6.103525      -166.0853
  87   2.0000      -6.062403      -164.9664
  88   2.0000      -6.062297      -164.9635
  89   2.0000      -6.058054      -164.8480
  90   2.0000      -6.057968      -164.8457
  91   2.0000      -6.056749      -164.8125
  92   2.0000      -6.056643      -164.8096
  93   2.0000      -6.054658      -164.7556
  94   2.0000      -6.054497      -164.7512
  95   2.0000      -6.050556      -164.6440
  96   2.0000      -6.050362      -164.6387
  97   2.0000      -6.047739      -164.5674
  98   2.0000      -6.047500      -164.5608
  99   2.0000      -6.044444      -164.4777
 100   2.0000      -6.044224      -164.4717
 101   2.0000      -6.039716      -164.3490
 102   2.0000      -6.039560      -164.3448
 103   2.0000      -6.037396      -164.2859
 104   2.0000      -6.037130      -164.2787
 105   2.0000      -1.351002       -36.7626
 106   2.0000      -1.335675       -36.3456
 107   2.0000      -1.147719       -31.2310
 108   2.0000      -1.139536       -31.0084
 109   2.0000      -1.139290       -31.0017
 110   2.0000      -1.134789       -30.8792
 111   2.0000      -1.134544       -30.8725
 112   2.0000      -1.122185       -30.5362
 113   2.0000      -1.093910       -29.7668
 114   2.0000      -1.093683       -29.7606
 115   2.0000      -1.048709       -28.5368
 116   2.0000      -1.040102       -28.3026
 117   2.0000      -1.039322       -28.2814
 118   2.0000      -1.020928       -27.7809
 119   2.0000      -1.020680       -27.7741
 120   2.0000      -1.016084       -27.6491
 121   2.0000      -1.015168       -27.6241
 122   2.0000      -1.009263       -27.4634
 123   2.0000      -1.006830       -27.3972
 124   2.0000      -1.002382       -27.2762
 125   2.0000      -1.000493       -27.2248
 126   2.0000      -0.999327       -27.1931
 127   2.0000      -0.993463       -27.0335
 128   2.0000      -0.984280       -26.7836
 129   2.0000      -0.973732       -26.4966
 130   2.0000      -0.952990       -25.9322
 131   2.0000      -0.948826       -25.8189
 132   2.0000      -0.933823       -25.4106
 133   2.0000      -0.933554       -25.4033
 134   2.0000      -0.915966       -24.9247
 135   2.0000      -0.907449       -24.6929
 136   2.0000      -0.893170       -24.3044
 137   2.0000      -0.886214       -24.1151
 138   2.0000      -0.872383       -23.7387
 139   2.0000      -0.872009       -23.7286
 140   2.0000      -0.867608       -23.6088
 141   2.0000      -0.867043       -23.5935
 142   2.0000      -0.855098       -23.2684
 143   2.0000      -0.849978       -23.1291
 144   2.0000      -0.849212       -23.1082
 145   2.0000      -0.844985       -22.9932
 146   2.0000      -0.822744       -22.3880
 147   2.0000      -0.807989       -21.9865
 148   2.0000      -0.796975       -21.6868
 149   2.0000      -0.789909       -21.4945
 150   2.0000      -0.786660       -21.4061
 151   2.0000      -0.786343       -21.3975
 152   2.0000      -0.782535       -21.2939
 153   2.0000      -0.773126       -21.0378
 154   2.0000      -0.772444       -21.0193
 155   2.0000      -0.765435       -20.8285
 156   2.0000      -0.760199       -20.6861
 157   2.0000      -0.746280       -20.3073
 158   2.0000      -0.736436       -20.0394
 159   2.0000      -0.727697       -19.8017
 160   2.0000      -0.715739       -19.4762
 161   2.0000      -0.703191       -19.1348
 162   2.0000      -0.697928       -18.9916
 163   2.0000      -0.689728       -18.7685
 164   2.0000      -0.686903       -18.6916
 165   2.0000      -0.684213       -18.6184
 166   2.0000      -0.681100       -18.5337
 167   2.0000      -0.676493       -18.4083
 168   2.0000      -0.674624       -18.3575
 169   2.0000      -0.671183       -18.2638
 170   2.0000      -0.668033       -18.1781
 171   2.0000      -0.661818       -18.0090
 172   2.0000      -0.659865       -17.9558
 173   2.0000      -0.653624       -17.7860
 174   2.0000      -0.640538       -17.4299
 175   2.0000      -0.639938       -17.4136
 176   2.0000      -0.635571       -17.2948
 177   2.0000      -0.633094       -17.2274
 178   2.0000      -0.625802       -17.0289
 179   2.0000      -0.623161       -16.9571
 180   2.0000      -0.621108       -16.9012
 181   2.0000      -0.617978       -16.8160
 182   2.0000      -0.609513       -16.5857
 183   2.0000      -0.608860       -16.5679
 184   2.0000      -0.604346       -16.4451
 185   2.0000      -0.597853       -16.2684
 186   2.0000      -0.594612       -16.1802
 187   2.0000      -0.591817       -16.1042
 188   2.0000      -0.576906       -15.6984
 189   2.0000      -0.573979       -15.6188
 190   2.0000      -0.567134       -15.4325
 191   2.0000      -0.566103       -15.4044
 192   2.0000      -0.562455       -15.3052
 193   2.0000      -0.560586       -15.2543
 194   2.0000      -0.558768       -15.2048
 195   2.0000      -0.555910       -15.1271
 196   2.0000      -0.555773       -15.1233
 197   2.0000      -0.554018       -15.0756
 198   2.0000      -0.552455       -15.0331
 199   2.0000      -0.549138       -14.9428
 200   2.0000      -0.546500       -14.8710
 201   2.0000      -0.542862       -14.7720
 202   2.0000      -0.541881       -14.7453
 203   2.0000      -0.530268       -14.4293
 204   2.0000      -0.527984       -14.3672
 205   2.0000      -0.526403       -14.3242
 206   2.0000      -0.522346       -14.2138
 207   2.0000      -0.521433       -14.1889
 208   2.0000      -0.519692       -14.1415
 209   2.0000      -0.517625       -14.0853
 210   2.0000      -0.516574       -14.0567
 211   2.0000      -0.515807       -14.0358
 212   2.0000      -0.512380       -13.9426
 213   2.0000      -0.508406       -13.8344
 214   2.0000      -0.502310       -13.6685
 215   2.0000      -0.501599       -13.6492
 216   2.0000      -0.500322       -13.6145
 217   2.0000      -0.497240       -13.5306
 218   2.0000      -0.493600       -13.4315
 219   2.0000      -0.493477       -13.4282
 220   2.0000      -0.492140       -13.3918
 221   2.0000      -0.491801       -13.3826
 222   2.0000      -0.491283       -13.3685
 223   2.0000      -0.489530       -13.3208
 224   2.0000      -0.487429       -13.2636
 225   2.0000      -0.486663       -13.2428
 226   2.0000      -0.485536       -13.2121
 227   2.0000      -0.482787       -13.1373
 228   2.0000      -0.479674       -13.0526
 229   2.0000      -0.473463       -12.8836
 230   2.0000      -0.471466       -12.8293
 231   2.0000      -0.466460       -12.6930
 232   2.0000      -0.464223       -12.6322
 233   2.0000      -0.463389       -12.6095
 234   2.0000      -0.461649       -12.5621
 235   2.0000      -0.455826       -12.4037
 236   2.0000      -0.453535       -12.3413
 237   2.0000      -0.452880       -12.3235
 238   2.0000      -0.452195       -12.3048
 239   2.0000      -0.447397       -12.1743
 240   2.0000      -0.445996       -12.1362
 241   2.0000      -0.445917       -12.1340
 242   2.0000      -0.439998       -11.9730
 243   2.0000      -0.439271       -11.9532
 244   2.0000      -0.438341       -11.9279
 245   2.0000      -0.434436       -11.8216
 246   2.0000      -0.433619       -11.7994
 247   2.0000      -0.432647       -11.7729
 248   2.0000      -0.432240       -11.7619
 249   2.0000      -0.431210       -11.7338
 250   2.0000      -0.429407       -11.6848
 251   2.0000      -0.426252       -11.5989
 252   2.0000      -0.420653       -11.4466
 253   2.0000      -0.419555       -11.4167
 254   2.0000      -0.409084       -11.1317
 255   2.0000      -0.404541       -11.0081
 256   2.0000      -0.402324       -10.9478
 257   2.0000      -0.402044       -10.9402
 258   2.0000      -0.401574       -10.9274
 259   2.0000      -0.400526       -10.8989
 260   2.0000      -0.381703       -10.3867
 261   2.0000      -0.375349       -10.2138
 262   2.0000      -0.375024       -10.2049
 263   2.0000      -0.369835       -10.0637
 264   2.0000      -0.368652       -10.0315
 265   2.0000      -0.368349       -10.0233
 266   2.0000      -0.358748        -9.7620
 267   2.0000      -0.358496        -9.7552
 268   2.0000      -0.350738        -9.5441
 269   2.0000      -0.348185        -9.4746
 270   2.0000      -0.346489        -9.4284
 271   2.0000      -0.343980        -9.3602
 272   2.0000      -0.342192        -9.3115
 273   2.0000      -0.341299        -9.2872
 274   2.0000      -0.341011        -9.2794
 275   2.0000      -0.340132        -9.2555
 276   2.0000      -0.329991        -8.9795
 277   2.0000      -0.329732        -8.9725
 278   2.0000      -0.321570        -8.7504
 279   2.0000      -0.317125        -8.6294
 280   2.0000      -0.315588        -8.5876
 281   2.0000      -0.288936        -7.8624
 282   2.0000      -0.259471        -7.0606
 283   2.0000      -0.231094        -6.2884
 284   0.0000      -0.126763        -3.4494
 285   0.0000      -0.101716        -2.7678
 286   0.0000      -0.094531        -2.5723
 287   0.0000      -0.084734        -2.3057
 288   0.0000      -0.084221        -2.2918

MULLIKEN ATOMIC CHARGES
-----------------------
   0 C :   -0.147831
   1 C :    0.066576
   2 C :    0.022603
   3 N :    0.054787
   4 C :   -0.113121
   5 C :    0.141430
   6 O :   -0.101621
   7 C :   -0.013189
   8 C :   -0.013286
   9 C :    0.137666
  10 O :   -0.099802
  11 C :   -0.131003
  12 N :    0.061681
  13 C :   -0.128559
  14 S :    0.199514
  15 C :   -0.092311
  16 C :   -0.051204
  17 C :    0.022867
  18 C :   -0.103379
  19 S :    0.183889
  20 C :   -0.063660
  21 C :    0.036118
  22 C :    0.310712
  23 C :   -0.298171
  24 C :   -0.195247
  25 N :    0.190575
  26 C :   -0.187815
  27 N :    0.166299
  28 C :   -0.066218
  29 C :   -0.177574
  30 S :    0.202291
  31 C :    0.174804
  32 C :   -0.060927
  33 C :   -0.065737
  34 N :    0.003061
  35 C :    0.149202
  36 C :    0.153617
  37 N :   -0.059837
  38 F :   -0.133999
  39 F :   -0.127600
  40 C :    0.199451
  41 C :   -0.027795
  42 C :    0.002241
  43 N :   -0.283166
  44 S :    0.567176
  45 N :   -0.342074
  46 C :   -0.184899
  47 C :   -0.065935
  48 C :    0.042466
  49 C :   -0.071388
  50 S :    0.201283
  51 C :   -0.097760
  52 C :    0.023856
  53 C :    0.309875
  54 C :   -0.300435
  55 C :   -0.191753
  56 N :    0.178519
  57 C :   -0.195037
  58 N :    0.187501
  59 C :   -0.053748
  60 C :   -0.090815
  61 S :    0.181206
  62 C :   -0.130191
  63 C :    0.024396
  64 C :    0.067108
  65 N :    0.062955
  66 C :   -0.133242
  67 C :    0.140794
  68 O :   -0.100292
  69 C :   -0.016582
  70 C :   -0.011592
  71 C :    0.138778
  72 O :   -0.100689
  73 C :   -0.112806
  74 N :    0.056998
  75 C :   -0.149648
  76 S :    0.197798
  77 H :    0.029832
  78 H :    0.018766
  79 H :    0.015647
  80 H :    0.029455
  81 H :    0.019795
  82 H :    0.022899
  83 H :    0.030062
  84 H :    0.016917
  85 H :    0.019203
  86 H :    0.029272
Sum of atomic charges:   -0.0000000

LOEWDIN ATOMIC CHARGES
----------------------
   0 C :   -0.189457
   1 C :   -0.049984
   2 C :   -0.050037
   3 N :    0.008019
   4 C :   -0.044662
   5 C :    0.054620
   6 O :   -0.095669
   7 C :   -0.010991
   8 C :   -0.015998
   9 C :    0.056699
  10 O :   -0.096593
  11 C :   -0.041704
  12 N :    0.003149
  13 C :   -0.192898
  14 S :    0.514157
  15 C :   -0.185552
  16 C :   -0.006479
  17 C :   -0.064015
  18 C :   -0.175848
  19 S :    0.462809
  20 C :   -0.184034
  21 C :   -0.071286
  22 C :    0.078430
  23 C :   -0.097015
  24 C :   -0.022554
  25 N :   -0.019357
  26 C :   -0.014399
  27 N :   -0.036210
  28 C :   -0.012628
  29 C :   -0.166847
  30 S :    0.506364
  31 C :   -0.044363
  32 C :   -0.016781
  33 C :   -0.007646
  34 N :   -0.028175
  35 C :    0.061088
  36 C :    0.063910
  37 N :   -0.059682
  38 F :   -0.023931
  39 F :   -0.017371
  40 C :   -0.048034
  41 C :   -0.047512
  42 C :   -0.038678
  43 N :   -0.269466
  44 S :    0.684608
  45 N :   -0.307116
  46 C :   -0.163495
  47 C :   -0.013314
  48 C :   -0.070496
  49 C :   -0.184438
  50 S :    0.507401
  51 C :   -0.175982
  52 C :   -0.063593
  53 C :    0.077069
  54 C :   -0.095499
  55 C :   -0.017425
  56 N :   -0.030164
  57 C :   -0.021711
  58 N :   -0.019877
  59 C :   -0.006567
  60 C :   -0.185338
  61 S :    0.460230
  62 C :   -0.192771
  63 C :   -0.050061
  64 C :   -0.049977
  65 N :    0.003051
  66 C :   -0.041639
  67 C :    0.056905
  68 O :   -0.097007
  69 C :   -0.016300
  70 C :   -0.010630
  71 C :    0.054487
  72 O :   -0.095277
  73 C :   -0.044502
  74 N :    0.007971
  75 C :   -0.189686
  76 S :    0.513205
  77 H :    0.035041
  78 H :    0.045689
  79 H :    0.044703
  80 H :    0.044336
  81 H :    0.037306
  82 H :    0.037471
  83 H :    0.044500
  84 H :    0.044858
  85 H :    0.045762
  86 H :    0.034887

  Mayer bond orders larger than 0.100000
B(  0-C ,  1-C ) :   1.4051 B(  0-C , 13-C ) :   0.1277 B(  0-C , 14-S ) :   1.1878
B(  0-C , 77-H ) :   0.9754 B(  1-C ,  2-C ) :   1.1664 B(  1-C , 12-N ) :   1.3755
B(  2-C ,  3-N ) :   1.4344 B(  2-C , 13-C ) :   1.3367 B(  3-N ,  4-C ) :   1.7196
B(  4-C ,  5-C ) :   0.8953 B(  4-C , 11-C ) :   1.0857 B(  5-C ,  6-O ) :   2.2400
B(  5-C ,  7-C ) :   1.0203 B(  7-C ,  8-C ) :   1.6872 B(  7-C , 78-H ) :   0.9950
B(  8-C ,  9-C ) :   1.0228 B(  8-C , 79-H ) :   0.9956 B(  9-C , 10-O ) :   2.2614
B(  9-C , 11-C ) :   0.8866 B( 11-C , 12-N ) :   1.7502 B( 13-C , 14-S ) :   1.2043
B( 13-C , 15-C ) :   1.1750 B( 15-C , 16-C ) :   1.4601 B( 15-C , 19-S ) :   1.0842
B( 16-C , 17-C ) :   1.2749 B( 16-C , 80-H ) :   0.9856 B( 17-C , 18-C ) :   1.4132
B( 17-C , 22-C ) :   0.9893 B( 18-C , 19-S ) :   1.1223 B( 18-C , 20-C ) :   1.2130
B( 20-C , 21-C ) :   1.3963 B( 20-C , 30-S ) :   1.0851 B( 21-C , 22-C ) :   0.9896
B( 21-C , 28-C ) :   1.2861 B( 22-C , 23-C ) :   1.7135 B( 23-C , 24-C ) :   1.1304
B( 23-C , 26-C ) :   1.1407 B( 24-C , 25-N ) :   3.0020 B( 26-C , 27-N ) :   2.9841
B( 28-C , 29-C ) :   1.4113 B( 28-C , 81-H ) :   0.9807 B( 29-C , 30-S ) :   1.0851
B( 29-C , 31-C ) :   1.2021 B( 31-C , 32-C ) :   1.2852 B( 31-C , 40-C ) :   0.1253
B( 31-C , 42-C ) :   1.1955 B( 32-C , 33-C ) :   1.1174 B( 32-C , 37-N ) :   1.3762
B( 33-C , 34-N ) :   1.4408 B( 33-C , 40-C ) :   1.2874 B( 34-N , 35-C ) :   1.6556
B( 35-C , 36-C ) :   1.1075 B( 35-C , 39-F ) :   1.1875 B( 36-C , 37-N ) :   1.6479
B( 36-C , 38-F ) :   1.1902 B( 40-C , 41-C ) :   1.1850 B( 40-C , 46-C ) :   1.1934
B( 41-C , 42-C ) :   1.1159 B( 41-C , 45-N ) :   1.4685 B( 42-C , 43-N ) :   1.5095
B( 43-N , 44-S ) :   1.2857 B( 43-N , 45-N ) :   0.1504 B( 44-S , 45-N ) :   1.2652
B( 46-C , 47-C ) :   1.4038 B( 46-C , 50-S ) :   1.0961 B( 47-C , 48-C ) :   1.2792
B( 47-C , 82-H ) :   0.9855 B( 48-C , 49-C ) :   1.3927 B( 48-C , 53-C ) :   0.9895
B( 49-C , 50-S ) :   1.0943 B( 49-C , 51-C ) :   1.2114 B( 51-C , 52-C ) :   1.4151
B( 51-C , 61-S ) :   1.1215 B( 52-C , 53-C ) :   0.9875 B( 52-C , 59-C ) :   1.2721
B( 53-C , 54-C ) :   1.7163 B( 54-C , 55-C ) :   1.1404 B( 54-C , 57-C ) :   1.1304
B( 55-C , 56-N ) :   2.9912 B( 57-C , 58-N ) :   3.0010 B( 59-C , 60-C ) :   1.4590
B( 59-C , 83-H ) :   0.9873 B( 60-C , 61-S ) :   1.0826 B( 60-C , 62-C ) :   1.1762
B( 62-C , 63-C ) :   1.3355 B( 62-C , 75-C ) :   0.1278 B( 62-C , 76-S ) :   1.2043
B( 63-C , 64-C ) :   1.1693 B( 63-C , 74-N ) :   1.4336 B( 64-C , 65-N ) :   1.3762
B( 64-C , 75-C ) :   1.4025 B( 65-N , 66-C ) :   1.7499 B( 66-C , 67-C ) :   0.8878
B( 66-C , 73-C ) :   1.0870 B( 67-C , 68-O ) :   2.2598 B( 67-C , 69-C ) :   1.0217
B( 69-C , 70-C ) :   1.6856 B( 69-C , 84-H ) :   0.9967 B( 70-C , 71-C ) :   1.0192
B( 70-C , 85-H ) :   0.9958 B( 71-C , 72-O ) :   2.2417 B( 71-C , 73-C ) :   0.8948
B( 73-C , 74-N ) :   1.7203 B( 75-C , 76-S ) :   1.1872 B( 75-C , 86-H ) :   0.9766

-----------------------------------------------------------------------------
         ABSORPTION SPECTRUM VIA TRANSITION ELECTRIC DIPOLE MOMENTS
-----------------------------------------------------------------------------
State   Energy  Wavelength   fosc         T2         TX        TY        TZ
        (cm-1)    (nm)                  (au**2)     (au)      (au)      (au)
-----------------------------------------------------------------------------
   0    8395.8   1191.1   1.042139004  40.86393   2.52933  -5.87077   0.02184
   1   12118.1    825.2   0.009957042   0.27050   0.04689  -0.16636   0.49054
   2   13138.0    761.2   0.005472858   0.13714  -0.13723  -0.32934  -0.09922
   3   16133.2    619.8   0.019427851   0.39644   0.04050  -0.08673  -0.62232
   4   17640.2    566.9   0.552423926  10.30966   1.64607  -2.75664  -0.03235
   5   17761.5    563.0   0.066291719   1.22873   0.30116  -0.71707   0.78984
   6   20891.3    478.7   0.035397289   0.55780  -0.19831   0.71920   0.03511
   7   21118.7    473.5   0.021593366   0.33661  -0.26357  -0.22348  -0.46605
   8   21180.3    472.1   0.052430709   0.81495   0.66562   0.60426   0.08224
   9   22656.2    441.4   0.001056650   0.01535  -0.12178  -0.00024   0.02290
  10   23243.8    430.2   0.121425952   1.71981   0.61845  -1.15584   0.03682
  11   24844.1    402.5   0.003638141   0.04821   0.12260   0.06967  -0.16830
  12   24861.1    402.2   0.002920919   0.03868   0.02622   0.04082   0.19059
  13   25501.6    392.1   0.008770422   0.11322  -0.18164   0.28169  -0.02964
  14   25943.5    385.5   0.003554687   0.04511   0.12626  -0.17018  -0.01435
  15   25954.5    385.3   0.000234630   0.00298   0.00945  -0.00572  -0.05342
  16   25990.3    384.8   0.010710648   0.13567  -0.23485   0.25396  -0.12658
  17   26053.3    383.8   0.029206053   0.36905  -0.58117  -0.09186  -0.15117
  18   26586.0    376.1   0.051365265   0.63605  -0.26953  -0.73253  -0.16372
  19   26656.8    375.1   0.001646069   0.02033  -0.02929   0.11213  -0.08305
  20   26713.6    374.3   0.008242843   0.10158  -0.15326  -0.27873  -0.02009
  21   26740.0    374.0   0.007830790   0.09641  -0.04884   0.23783   0.19355
  22   27467.4    364.1   0.004598031   0.05511  -0.13847  -0.05118   0.18253
  23   28712.2    348.3   0.038955469   0.44666   0.25565  -0.61749  -0.00338
  24   29121.1    343.4   0.032499164   0.36740  -0.29913   0.49916   0.16958
  25   29196.9    342.5   0.155073948   1.74855   0.09913   1.31742   0.05597
  26   29368.1    340.5   0.020492440   0.22972   0.41260   0.16969   0.17516
  27   29633.5    337.5   1.115835361  12.39633   1.07880  -3.35022  -0.09261
  28   30198.4    331.1   0.137469595   1.49865   0.92056  -0.79107   0.15946
  29   30920.3    323.4   0.000599177   0.00638   0.07746  -0.01577  -0.01145
  30   30930.3    323.3   0.007724237   0.08221  -0.24898   0.10462  -0.09632
  31   31037.2    322.2   0.007313167   0.07757  -0.23279   0.05480  -0.14275
  32   31149.4    321.0   0.260247753   2.75051   1.56843  -0.35508   0.40553
  33   31303.5    319.5   0.007641304   0.08036   0.09506  -0.17348  -0.20305
  34   31604.9    316.4   0.002111207   0.02199   0.02202   0.14053   0.04192
  35   31800.2    314.5   0.142028960   1.47036  -1.04851  -0.54367  -0.27460
  36   31947.8    313.0   0.047086344   0.48521  -0.62173  -0.31177  -0.03822
  37   32277.3    309.8   0.166512498   1.69834   0.88608   0.35205   0.88841
  38   33343.8    299.9   0.232071697   2.29131   0.87650   1.14774   0.45361
  39   33563.3    297.9   0.070551090   0.69201   0.70571   0.28392   0.33670
  40   33649.7    297.2   0.044658824   0.43692   0.03408   0.63213   0.19018
  41   33766.1    296.2   0.031370391   0.30585  -0.21475  -0.44444  -0.24943
  42   33802.1    295.8   0.004729668   0.04606  -0.08656  -0.13098  -0.14634
  43   34125.0    293.0   0.063736025   0.61488   0.74335  -0.00376   0.24959
  44   34220.5    292.2   0.131488885   1.26496  -0.99786  -0.42508  -0.29757
  45   34403.1    290.7   0.023438604   0.22429   0.41247   0.18653   0.13915
  46   34427.3    290.5   0.006618368   0.06329   0.16244   0.18582   0.04870
  47   34674.7    288.4   0.066621539   0.63252  -0.44355  -0.65987   0.01898
  48   34831.1    287.1   0.068256890   0.64514   0.70206  -0.38184   0.08033
  49   35108.2    284.8   0.234154920   2.19569  -1.04288  -0.73460  -0.75395
  50   35232.0    283.8   0.032781996   0.30632  -0.39855  -0.38297  -0.02849
  51   35385.6    282.6   0.017747751   0.16512   0.06944  -0.20928   0.34131
  52   35551.4    281.3   0.010588338   0.09805  -0.25075  -0.11851  -0.14537
  53   35585.3    281.0   0.006868542   0.06354   0.19667   0.05879   0.14632
  54   35935.7    278.3   0.400918526   3.67287   1.55044   1.09326   0.27164
  55   36027.4    277.6   0.163885444   1.49756   0.02778  -1.16870  -0.36183
  56   36155.0    276.6   0.056556000   0.51498  -0.03951   0.67431  -0.24232
  57   36391.7    274.8   0.211898902   1.91691  -0.99101   0.95754  -0.13391
  58   36553.6    273.6   0.378474127   3.40864   1.79670   0.06921   0.41920
  59   36716.5    272.4   0.103223960   0.92554   0.82963  -0.01143   0.48696
  60   37442.7    267.1   0.001026440   0.00902  -0.08064   0.04352  -0.02508
  61   37549.2    266.3   0.000634354   0.00556   0.03566  -0.06543  -0.00302
  62   37775.2    264.7   0.027462867   0.23934  -0.06780   0.46639   0.13123
  63   37778.8    264.7   0.020992696   0.18293  -0.04507   0.41793  -0.07898
  64   37804.8    264.5   0.009949989   0.08665   0.24676   0.15132   0.05348
  65   38226.8    261.6   0.024146542   0.20795   0.15967   0.41474   0.10223
  66   38246.3    261.5   0.018833550   0.16211   0.15722   0.14267   0.34211
  67   38260.5    261.4   0.006486313   0.05581   0.06496   0.22385  -0.03849
  68   38339.9    260.8   0.039872783   0.34237   0.27868   0.17308   0.48452
  69   38491.7    259.8   0.179615174   1.53621   0.90462   0.80330   0.26941
  70   38604.0    259.0   0.101330250   0.86414   0.80537   0.38979   0.25214
  71   38857.5    257.4   0.017664214   0.14966  -0.03713   0.38253  -0.04415
  72   38981.5    256.5   0.006500772   0.05490   0.18929  -0.02401  -0.13599
  73   39124.4    255.6   0.007880730   0.06631   0.24253   0.08237   0.02656
  74   39163.1    255.3   0.003232447   0.02717  -0.03914  -0.12636   0.09835
  75   39247.3    254.8   0.006613961   0.05548   0.16210   0.16424  -0.04723
  76   39313.6    254.4   0.052286924   0.43785  -0.51752  -0.35624  -0.20764
  77   39343.9    254.2   0.004986607   0.04173   0.19906   0.01608   0.04291
  78   39827.3    251.1   0.007203504   0.05954  -0.03172   0.23910   0.03697
  79   40187.0    248.8   0.087301705   0.71518   0.73701   0.24835   0.33214
  80   40244.7    248.5   0.013296698   0.10877  -0.11947  -0.07567   0.29795

FINAL SINGLE POINT ENERGY     -5927.600449443111

DIPOLE MOMENT
-------------
                                X             Y             Z
Electronic contribution:      6.14365       1.25153      14.01711
Nuclear contribution   :     -6.58765      -1.58525     -13.99181
                        -----------------------------------------
Total Dipole Moment    :     -0.44400      -0.33371       0.02530
                        -----------------------------------------
Magnitude (a.u.)       :      0.55600
Magnitude (Debye)      :      1.41325

Rotational constants in cm-1:     0.002217     0.000183     0.000173
Rotational constants in MHz :    66.455137     5.474575     5.198313

                             ****ORCA TERMINATED NORMALLY****
TOTAL RUN TIME: 0 days 0 hours 9 minutes 46 seconds 503 msec
