                         Program Version 4.2.0 -  RELEASE  -
|  1> # ORCA input file
|  2> # SCF done       -159.562814249094          0.000461056744
|  3> ! CAM-B3LYP def2-SVP def2/J RIJCOSX Grid4 TightSCF
|  4> %maxcore 5000
|  5> %tddft
|  6>     Mode sTDDFT
|  7>     Ethresh 5.0
|  8>     maxcore 5000
|  9> end
| 10>
| 11> %pal
| 12>   nprocs 6
| 13>   end
| 14> * xyz 0 1
| 15>    C       -6.95230         0.74160        -2.73632
| 16>    S       -6.47965        -0.36049        -1.49335
| 17>    C       -4.90917        -0.44999        -2.15841
| 18>    C       -4.77169         0.34690        -3.29457
| 19>    C       -5.95269         1.02953        -3.62122
| 20>    C       -3.38899         0.22262        -3.82478
| 21>    O       -2.89957         0.75024        -4.79164
| 22>    C       -2.74723        -0.72912        -2.87459
| 23>    C       -3.67328        -1.11453        -1.89348
| 24>    S       -3.01771        -2.19995        -0.76122
| 25>    C       -1.48193        -2.18237        -1.61885
| 26>    C       -1.50828        -1.33062        -2.71534
| 27>    C       -0.45252        -2.97275        -1.05711
| 28>    N       -0.61508        -3.41901         0.18295
| 29>    C        0.51158        -4.08668         0.49016
| 30>    C        1.45613        -4.07922        -0.63217
| 31>    C        2.67608        -4.81954        -0.27825
| 32>    O        3.66890        -5.01155        -0.95171
| 33>    C        2.39790        -5.26545         1.09783
| 34>    C        1.06850        -4.79600         1.52994
| 35>    N        0.79850        -5.21221         2.78985
| 36>    C        1.85523        -5.89948         3.15634
| 37>    C        2.88885        -5.97684         2.14699
| 38>    C        0.84006        -3.39068        -1.65369
| 39>    C        1.25193        -3.18104        -2.99537
| 40>    C        2.47747        -3.53913        -3.46115
| 41>    C        2.93056        -3.37394        -4.79136
| 42>    N        2.18466        -2.80644        -5.80494
| 43>    C        2.92925        -2.80952        -6.94059
| 44>    C        2.92465        -2.45374        -8.27776
| 45>    C        4.18375        -2.83097        -8.78606
| 46>    N        4.92826        -3.40229        -7.77127
| 47>    C        4.19015        -3.40072        -6.63453
| 48>    C        4.18738        -3.74997        -5.29096
| 49>    C        4.70380        -2.69632       -10.08592
| 50>    C        4.04932        -2.12888       -11.14147
| 51>    C        4.64351        -2.02528       -12.41492
| 52>    N        5.86934        -2.49209       -12.66464
| 53>    C        6.11161        -2.22024       -13.95318
| 54>    C        4.97673        -1.52874       -14.58568
| 55>    C        5.27245        -1.24210       -15.99681
| 56>    O        4.57253        -0.68024       -16.81723
| 57>    C        6.62247        -1.80045       -16.16597
| 58>    C        7.10021        -2.38486       -14.90171
| 59>    N        8.34124        -2.90230       -15.05028
| 60>    C        8.65556        -2.67938       -16.30827
| 61>    C        7.63068        -1.99787       -17.05982
| 62>    C        4.02010        -1.39953       -13.60882
| 63>    C        2.72559        -0.81593       -13.64690
| 64>    C        2.21042        -0.22537       -14.75369
| 65>    C        0.92622         0.37256       -14.82246
| 66>    S        0.44047         1.15392       -16.31853
| 67>    C       -1.06046         1.58119       -15.63510
| 68>    C       -1.18953         1.13965       -14.31529
| 69>    C       -0.06817         0.45875       -13.85716
| 70>    C       -2.52265         1.54653       -13.78500
| 71>    O       -2.98532         1.33483       -12.69086
| 72>    C       -3.13780         2.26918       -14.92693
| 73>    C       -2.25502         2.27280       -16.00373
| 74>    S       -2.89254         3.09184       -17.35992
| 75>    C       -4.34567         3.43161       -16.48265
| 76>    C       -4.33941         2.93845       -15.21144
| 77>    H       -7.95684         1.11608        -2.73649
| 78>    H       -6.06223         1.69388        -4.45833
| 79>    H       -0.65955        -1.11659        -3.33706
| 80>    H        1.89975        -6.34507         4.13492
| 81>    H        3.82323        -6.49285         2.24766
| 82>    H        0.52264        -2.74738        -3.66359
| 83>    H        3.18634        -3.99170        -2.78107
| 84>    H        1.24789        -2.45588        -5.71101
| 85>    H        2.13750        -1.98801        -8.83439
| 86>    H        5.86520        -3.75038        -7.88441
| 87>    H        4.96142        -4.21482        -4.71503
| 88>    H        5.70357        -3.06569       -10.27243
| 89>    H        3.05145        -1.73945       -11.01141
| 90>    H        9.60904        -2.99850       -16.69246
| 91>    H        7.69007        -1.72475       -18.09499
| 92>    H        2.14209        -0.85040       -12.73797
| 93>    H        2.80668        -0.19138       -15.65653
| 94>    H        0.02146         0.04340       -12.87075
| 95>    H       -5.12253         3.98340       -16.97334
| 96>    H       -5.15281         3.05097       -14.51851
| 97> *
| 98>
| 99>                          ****END OF INPUT****

CARTESIAN COORDINATES (ANGSTROEM)
---------------------------------
  C     -6.952300    0.741600   -2.736320
  S     -6.479650   -0.360490   -1.493350
  C     -4.909170   -0.449990   -2.158410
  C     -4.771690    0.346900   -3.294570
  C     -5.952690    1.029530   -3.621220
  C     -3.388990    0.222620   -3.824780
  O     -2.899570    0.750240   -4.791640
  C     -2.747230   -0.729120   -2.874590
  C     -3.673280   -1.114530   -1.893480
  S     -3.017710   -2.199950   -0.761220
  C     -1.481930   -2.182370   -1.618850
  C     -1.508280   -1.330620   -2.715340
  C     -0.452520   -2.972750   -1.057110
  N     -0.615080   -3.419010    0.182950
  C      0.511580   -4.086680    0.490160
  C      1.456130   -4.079220   -0.632170
  C      2.676080   -4.819540   -0.278250
  O      3.668900   -5.011550   -0.951710
  C      2.397900   -5.265450    1.097830
  C      1.068500   -4.796000    1.529940
  N      0.798500   -5.212210    2.789850
  C      1.855230   -5.899480    3.156340
  C      2.888850   -5.976840    2.146990
  C      0.840060   -3.390680   -1.653690
  C      1.251930   -3.181040   -2.995370
  C      2.477470   -3.539130   -3.461150
  C      2.930560   -3.373940   -4.791360
  N      2.184660   -2.806440   -5.804940
  C      2.929250   -2.809520   -6.940590
  C      2.924650   -2.453740   -8.277760
  C      4.183750   -2.830970   -8.786060
  N      4.928260   -3.402290   -7.771270
  C      4.190150   -3.400720   -6.634530
  C      4.187380   -3.749970   -5.290960
  C      4.703800   -2.696320  -10.085920
  C      4.049320   -2.128880  -11.141470
  C      4.643510   -2.025280  -12.414920
  N      5.869340   -2.492090  -12.664640
  C      6.111610   -2.220240  -13.953180
  C      4.976730   -1.528740  -14.585680
  C      5.272450   -1.242100  -15.996810
  O      4.572530   -0.680240  -16.817230
  C      6.622470   -1.800450  -16.165970
  C      7.100210   -2.384860  -14.901710
  N      8.341240   -2.902300  -15.050280
  C      8.655560   -2.679380  -16.308270
  C      7.630680   -1.997870  -17.059820
  C      4.020100   -1.399530  -13.608820
  C      2.725590   -0.815930  -13.646900
  C      2.210420   -0.225370  -14.753690
  C      0.926220    0.372560  -14.822460
  S      0.440470    1.153920  -16.318530
  C     -1.060460    1.581190  -15.635100
  C     -1.189530    1.139650  -14.315290
  C     -0.068170    0.458750  -13.857160
  C     -2.522650    1.546530  -13.785000
  O     -2.985320    1.334830  -12.690860
  C     -3.137800    2.269180  -14.926930
  C     -2.255020    2.272800  -16.003730
  S     -2.892540    3.091840  -17.359920
  C     -4.345670    3.431610  -16.482650
  C     -4.339410    2.938450  -15.211440
  H     -7.956840    1.116080   -2.736490
  H     -6.062230    1.693880   -4.458330
  H     -0.659550   -1.116590   -3.337060
  H      1.899750   -6.345070    4.134920
  H      3.823230   -6.492850    2.247660
  H      0.522640   -2.747380   -3.663590
  H      3.186340   -3.991700   -2.781070
  H      1.247890   -2.455880   -5.711010
  H      2.137500   -1.988010   -8.834390
  H      5.865200   -3.750380   -7.884410
  H      4.961420   -4.214820   -4.715030
  H      5.703570   -3.065690  -10.272430
  H      3.051450   -1.739450  -11.011410
  H      9.609040   -2.998500  -16.692460
  H      7.690070   -1.724750  -18.094990
  H      2.142090   -0.850400  -12.737970
  H      2.806680   -0.191380  -15.656530
  H      0.021460    0.043400  -12.870750
  H     -5.122530    3.983400  -16.973340
  H     -5.152810    3.050970  -14.518510

 Total Charge           Charge          ....    0
 Multiplicity           Mult            ....    1
 Number of Electrons    NEL             ....  446
 Basis Dimension        Dim             ....  984

ORBITAL ENERGIES
----------------

  NO   OCC          E(Eh)            E(eV)
   0   2.0000     -88.992636     -2421.6127
   1   2.0000     -88.991266     -2421.5755
   2   2.0000     -88.973582     -2421.0943
   3   2.0000     -88.972466     -2421.0639
   4   2.0000     -19.232282      -523.3370
   5   2.0000     -19.214734      -522.8595
   6   2.0000     -19.208956      -522.7023
   7   2.0000     -19.193078      -522.2702
   8   2.0000     -14.473823      -393.8528
   9   2.0000     -14.470533      -393.7632
  10   2.0000     -14.409180      -392.0937
  11   2.0000     -14.398608      -391.8060
  12   2.0000     -14.387314      -391.4987
  13   2.0000     -14.381348      -391.3364
  14   2.0000     -10.383162      -282.5402
  15   2.0000     -10.368543      -282.1424
  16   2.0000     -10.365186      -282.0511
  17   2.0000     -10.352538      -281.7069
  18   2.0000     -10.350760      -281.6585
  19   2.0000     -10.341877      -281.4168
  20   2.0000     -10.332058      -281.1496
  21   2.0000     -10.329865      -281.0899
  22   2.0000     -10.325713      -280.9769
  23   2.0000     -10.325583      -280.9734
  24   2.0000     -10.321824      -280.8711
  25   2.0000     -10.321045      -280.8499
  26   2.0000     -10.318307      -280.7754
  27   2.0000     -10.315895      -280.7098
  28   2.0000     -10.315647      -280.7030
  29   2.0000     -10.315348      -280.6949
  30   2.0000     -10.314950      -280.6841
  31   2.0000     -10.314101      -280.6610
  32   2.0000     -10.312753      -280.6243
  33   2.0000     -10.312595      -280.6200
  34   2.0000     -10.311961      -280.6027
  35   2.0000     -10.309280      -280.5298
  36   2.0000     -10.304450      -280.3983
  37   2.0000     -10.303329      -280.3678
  38   2.0000     -10.300649      -280.2949
  39   2.0000     -10.299165      -280.2545
  40   2.0000     -10.296877      -280.1923
  41   2.0000     -10.294925      -280.1391
  42   2.0000     -10.294664      -280.1321
  43   2.0000     -10.294093      -280.1165
  44   2.0000     -10.291498      -280.0459
  45   2.0000     -10.290710      -280.0245
  46   2.0000     -10.289485      -279.9911
  47   2.0000     -10.285227      -279.8753
  48   2.0000     -10.285150      -279.8732
  49   2.0000     -10.284600      -279.8582
  50   2.0000     -10.284084      -279.8441
  51   2.0000     -10.282996      -279.8145
  52   2.0000     -10.281208      -279.7659
  53   2.0000     -10.280523      -279.7473
  54   2.0000     -10.279861      -279.7292
  55   2.0000     -10.279813      -279.7279
  56   2.0000     -10.275844      -279.6199
  57   2.0000     -10.274649      -279.5874
  58   2.0000     -10.273364      -279.5525
  59   2.0000     -10.269018      -279.4342
  60   2.0000     -10.264927      -279.3229
  61   2.0000     -10.263453      -279.2827
  62   2.0000      -8.086755      -220.0518
  63   2.0000      -8.086448      -220.0434
  64   2.0000      -8.068706      -219.5606
  65   2.0000      -8.067212      -219.5200
  66   2.0000      -6.055985      -164.7917
  67   2.0000      -6.055659      -164.7829
  68   2.0000      -6.051553      -164.6711
  69   2.0000      -6.051219      -164.6620
  70   2.0000      -6.049351      -164.6112
  71   2.0000      -6.049096      -164.6043
  72   2.0000      -6.037939      -164.3007
  73   2.0000      -6.036327      -164.2568
  74   2.0000      -6.033542      -164.1810
  75   2.0000      -6.032163      -164.1435
  76   2.0000      -6.031312      -164.1203
  77   2.0000      -6.029846      -164.0804
  78   2.0000      -1.144879       -31.1537
  79   2.0000      -1.126667       -30.6582
  80   2.0000      -1.122664       -30.5492
  81   2.0000      -1.106431       -30.1075
  82   2.0000      -1.105424       -30.0801
  83   2.0000      -1.078361       -29.3437
  84   2.0000      -1.068456       -29.0742
  85   2.0000      -1.056348       -28.7447
  86   2.0000      -1.054085       -28.6831
  87   2.0000      -1.034376       -28.1468
  88   2.0000      -1.033319       -28.1180
  89   2.0000      -1.013887       -27.5893
  90   2.0000      -0.997860       -27.1532
  91   2.0000      -0.979243       -26.6465
  92   2.0000      -0.936754       -25.4904
  93   2.0000      -0.924602       -25.1597
  94   2.0000      -0.922626       -25.1059
  95   2.0000      -0.916279       -24.9332
  96   2.0000      -0.915718       -24.9179
  97   2.0000      -0.903719       -24.5915
  98   2.0000      -0.892084       -24.2749
  99   2.0000      -0.884326       -24.0637
 100   2.0000      -0.878247       -23.8983
 101   2.0000      -0.871878       -23.7250
 102   2.0000      -0.857571       -23.3357
 103   2.0000      -0.854281       -23.2462
 104   2.0000      -0.851923       -23.1820
 105   2.0000      -0.849860       -23.1259
 106   2.0000      -0.834653       -22.7120
 107   2.0000      -0.833985       -22.6939
 108   2.0000      -0.831392       -22.6233
 109   2.0000      -0.822860       -22.3912
 110   2.0000      -0.806667       -21.9505
 111   2.0000      -0.775156       -21.0931
 112   2.0000      -0.773339       -21.0436
 113   2.0000      -0.766443       -20.8560
 114   2.0000      -0.749255       -20.3883
 115   2.0000      -0.741476       -20.1766
 116   2.0000      -0.738392       -20.0927
 117   2.0000      -0.727366       -19.7926
 118   2.0000      -0.723025       -19.6745
 119   2.0000      -0.718363       -19.5477
 120   2.0000      -0.707417       -19.2498
 121   2.0000      -0.704505       -19.1705
 122   2.0000      -0.703731       -19.1495
 123   2.0000      -0.693674       -18.8758
 124   2.0000      -0.673331       -18.3223
 125   2.0000      -0.670873       -18.2554
 126   2.0000      -0.660753       -17.9800
 127   2.0000      -0.658501       -17.9187
 128   2.0000      -0.651579       -17.7304
 129   2.0000      -0.644417       -17.5355
 130   2.0000      -0.638646       -17.3784
 131   2.0000      -0.635804       -17.3011
 132   2.0000      -0.631665       -17.1885
 133   2.0000      -0.627906       -17.0862
 134   2.0000      -0.626633       -17.0516
 135   2.0000      -0.619236       -16.8503
 136   2.0000      -0.613567       -16.6960
 137   2.0000      -0.610196       -16.6043
 138   2.0000      -0.607371       -16.5274
 139   2.0000      -0.594565       -16.1789
 140   2.0000      -0.592867       -16.1327
 141   2.0000      -0.588029       -16.0011
 142   2.0000      -0.575754       -15.6671
 143   2.0000      -0.571220       -15.5437
 144   2.0000      -0.565917       -15.3994
 145   2.0000      -0.559073       -15.2132
 146   2.0000      -0.553314       -15.0564
 147   2.0000      -0.552345       -15.0301
 148   2.0000      -0.551009       -14.9937
 149   2.0000      -0.549754       -14.9596
 150   2.0000      -0.547507       -14.8984
 151   2.0000      -0.544510       -14.8169
 152   2.0000      -0.541381       -14.7317
 153   2.0000      -0.540893       -14.7184
 154   2.0000      -0.532457       -14.4889
 155   2.0000      -0.532338       -14.4857
 156   2.0000      -0.527342       -14.3497
 157   2.0000      -0.525606       -14.3025
 158   2.0000      -0.525375       -14.2962
 159   2.0000      -0.524217       -14.2647
 160   2.0000      -0.520413       -14.1611
 161   2.0000      -0.514566       -14.0021
 162   2.0000      -0.511616       -13.9218
 163   2.0000      -0.507785       -13.8175
 164   2.0000      -0.506179       -13.7738
 165   2.0000      -0.502893       -13.6844
 166   2.0000      -0.498998       -13.5784
 167   2.0000      -0.496271       -13.5042
 168   2.0000      -0.494742       -13.4626
 169   2.0000      -0.491764       -13.3816
 170   2.0000      -0.489622       -13.3233
 171   2.0000      -0.488742       -13.2993
 172   2.0000      -0.479573       -13.0498
 173   2.0000      -0.477827       -13.0023
 174   2.0000      -0.477680       -12.9983
 175   2.0000      -0.473374       -12.8812
 176   2.0000      -0.472884       -12.8678
 177   2.0000      -0.469999       -12.7893
 178   2.0000      -0.468310       -12.7434
 179   2.0000      -0.466908       -12.7052
 180   2.0000      -0.466484       -12.6937
 181   2.0000      -0.465735       -12.6733
 182   2.0000      -0.461386       -12.5550
 183   2.0000      -0.459816       -12.5122
 184   2.0000      -0.458318       -12.4715
 185   2.0000      -0.457238       -12.4421
 186   2.0000      -0.453560       -12.3420
 187   2.0000      -0.452608       -12.3161
 188   2.0000      -0.449875       -12.2417
 189   2.0000      -0.449736       -12.2379
 190   2.0000      -0.448124       -12.1941
 191   2.0000      -0.439427       -11.9574
 192   2.0000      -0.435792       -11.8585
 193   2.0000      -0.434961       -11.8359
 194   2.0000      -0.425989       -11.5917
 195   2.0000      -0.410856       -11.1800
 196   2.0000      -0.404091       -10.9959
 197   2.0000      -0.396899       -10.8002
 198   2.0000      -0.387362       -10.5407
 199   2.0000      -0.364615        -9.9217
 200   2.0000      -0.363097        -9.8804
 201   2.0000      -0.355612        -9.6767
 202   2.0000      -0.353702        -9.6247
 203   2.0000      -0.348747        -9.4899
 204   2.0000      -0.348574        -9.4852
 205   2.0000      -0.347218        -9.4483
 206   2.0000      -0.341937        -9.3046
 207   2.0000      -0.335015        -9.1162
 208   2.0000      -0.333632        -9.0786
 209   2.0000      -0.331864        -9.0305
 210   2.0000      -0.331183        -9.0119
 211   2.0000      -0.330649        -8.9974
 212   2.0000      -0.327761        -8.9188
 213   2.0000      -0.326884        -8.8950
 214   2.0000      -0.322884        -8.7861
 215   2.0000      -0.311696        -8.4817
 216   2.0000      -0.310905        -8.4602
 217   2.0000      -0.304284        -8.2800
 218   2.0000      -0.299552        -8.1512
 219   2.0000      -0.288908        -7.8616
 220   2.0000      -0.272690        -7.4203
 221   2.0000      -0.242049        -6.5865
 222   2.0000      -0.232999        -6.3402
 223   0.0000      -0.116285        -3.1643
 224   0.0000      -0.101081        -2.7506
 225   0.0000      -0.076598        -2.0843
 226   0.0000      -0.065751        -1.7892
 227   0.0000      -0.051782        -1.4091

MULLIKEN ATOMIC CHARGES
-----------------------
   0 C :   -0.079876
   1 S :    0.193748
   2 C :   -0.117138
   3 C :   -0.064616
   4 C :    0.040653
   5 C :    0.202173
   6 O :   -0.103564
   7 C :   -0.063614
   8 C :   -0.060422
   9 S :    0.262481
  10 C :   -0.149885
  11 C :    0.001404
  12 C :    0.077948
  13 N :   -0.071547
  14 C :    0.079374
  15 C :   -0.177577
  16 C :    0.217805
  17 O :   -0.153337
  18 C :   -0.009424
  19 C :   -0.047897
  20 N :   -0.057497
  21 C :    0.086771
  22 C :   -0.100837
  23 C :    0.045984
  24 C :   -0.063041
  25 C :    0.059390
  26 C :    0.079536
  27 N :   -0.034293
  28 C :    0.122480
  29 C :   -0.151690
  30 C :    0.104527
  31 N :   -0.021615
  32 C :    0.133467
  33 C :   -0.161384
  34 C :    0.058339
  35 C :   -0.076690
  36 C :    0.056419
  37 N :   -0.061012
  38 C :    0.068537
  39 C :   -0.173352
  40 C :    0.212521
  41 O :   -0.160182
  42 C :   -0.015174
  43 C :   -0.052780
  44 N :   -0.064021
  45 C :    0.077252
  46 C :   -0.103142
  47 C :    0.066378
  48 C :   -0.056531
  49 C :    0.076595
  50 C :   -0.096699
  51 S :    0.200167
  52 C :   -0.086458
  53 C :   -0.048054
  54 C :   -0.013299
  55 C :    0.196194
  56 O :   -0.112272
  57 C :   -0.072449
  58 C :   -0.109909
  59 S :    0.173367
  60 C :   -0.090353
  61 C :    0.041573
  62 H :    0.040052
  63 H :    0.007984
  64 H :   -0.002239
  65 H :    0.003599
  66 H :   -0.009824
  67 H :   -0.062612
  68 H :    0.004728
  69 H :    0.130050
  70 H :   -0.020639
  71 H :    0.131380
  72 H :   -0.013697
  73 H :    0.007301
  74 H :   -0.024815
  75 H :   -0.005570
  76 H :   -0.017604
  77 H :   -0.039172
  78 H :   -0.000952
  79 H :   -0.011069
  80 H :    0.030898
  81 H :   -0.001250
Sum of atomic charges:    0.0000000

LOEWDIN ATOMIC CHARGES
----------------------
   0 C :   -0.170825
   1 S :    0.484509
   2 C :   -0.195043
   3 C :   -0.089369
   4 C :   -0.029603
   5 C :    0.089604
   6 O :   -0.110311
   7 C :   -0.106900
   8 C :   -0.157241
   9 S :    0.535149
  10 C :   -0.189462
  11 C :   -0.001180
  12 C :    0.050282
  13 N :   -0.127377
  14 C :    0.048724
  15 C :   -0.057874
  16 C :    0.070185
  17 O :   -0.151062
  18 C :   -0.044258
  19 C :    0.009983
  20 N :   -0.098085
  21 C :    0.063794
  22 C :   -0.039052
  23 C :   -0.020171
  24 C :   -0.062740
  25 C :    0.015617
  26 C :    0.010751
  27 N :    0.067667
  28 C :   -0.008336
  29 C :   -0.065478
  30 C :   -0.007488
  31 N :    0.080656
  32 C :   -0.006732
  33 C :   -0.072469
  34 C :    0.047733
  35 C :   -0.065644
  36 C :    0.069216
  37 N :   -0.126903
  38 C :    0.049492
  39 C :   -0.056862
  40 C :    0.067983
  41 O :   -0.159378
  42 C :   -0.048940
  43 C :   -0.002035
  44 N :   -0.104180
  45 C :    0.051161
  46 C :   -0.048856
  47 C :   -0.022869
  48 C :   -0.044233
  49 C :   -0.004145
  50 C :   -0.172689
  51 S :    0.486624
  52 C :   -0.184771
  53 C :   -0.098323
  54 C :   -0.018680
  55 C :    0.091163
  56 O :   -0.117938
  57 C :   -0.104092
  58 C :   -0.185480
  59 S :    0.468411
  60 C :   -0.185091
  61 C :   -0.032193
  62 H :    0.028484
  63 H :    0.043224
  64 H :    0.037940
  65 H :    0.021370
  66 H :    0.032442
  67 H :    0.014601
  68 H :    0.041181
  69 H :    0.089919
  70 H :    0.028974
  71 H :    0.096231
  72 H :    0.034244
  73 H :    0.042414
  74 H :    0.025648
  75 H :    0.017380
  76 H :    0.029199
  77 H :    0.021244
  78 H :    0.032350
  79 H :    0.035338
  80 H :    0.024112
  81 H :    0.039360

  Mayer bond orders larger than 0.100000
B(  0-C ,  1-S ) :   1.1671 B(  0-C ,  4-C ) :   1.5373 B(  0-C , 62-H ) :   0.9682
B(  1-S ,  2-C ) :   1.1395 B(  2-C ,  3-C ) :   1.4846 B(  2-C ,  8-C ) :   1.1329
B(  3-C ,  4-C ) :   1.3014 B(  3-C ,  5-C ) :   0.9196 B(  4-C , 63-H ) :   1.0032
B(  5-C ,  6-O ) :   2.3277 B(  5-C ,  7-C ) :   0.9029 B(  7-C ,  8-C ) :   1.4352
B(  7-C , 11-C ) :   1.3506 B(  8-C ,  9-S ) :   1.1707 B(  9-S , 10-C ) :   1.0930
B( 10-C , 11-C ) :   1.4225 B( 10-C , 12-C ) :   1.1439 B( 11-C , 64-H ) :   0.9889
B( 12-C , 13-N ) :   1.6019 B( 12-C , 14-C ) :   0.1210 B( 12-C , 23-C ) :   1.0271
B( 13-N , 14-C ) :   1.3684 B( 14-C , 15-C ) :   1.0659 B( 14-C , 19-C ) :   1.3983
B( 15-C , 16-C ) :   0.9027 B( 15-C , 23-C ) :   1.5308 B( 16-C , 17-O ) :   2.1632
B( 16-C , 18-C ) :   0.9379 B( 17-O , 68-H ) :   0.1128 B( 18-C , 19-C ) :   1.0797
B( 18-C , 22-C ) :   1.5861 B( 19-C , 20-N ) :   1.3222 B( 20-N , 21-C ) :   1.6459
B( 21-C , 22-C ) :   1.0830 B( 21-C , 65-H ) :   0.9892 B( 22-C , 66-H ) :   1.0107
B( 23-C , 24-C ) :   1.1574 B( 24-C , 25-C ) :   1.5876 B( 24-C , 67-H ) :   0.9528
B( 25-C , 26-C ) :   1.1582 B( 25-C , 68-H ) :   0.9360 B( 26-C , 27-N ) :   1.1901
B( 26-C , 33-C ) :   1.3532 B( 27-N , 28-C ) :   1.1656 B( 27-N , 69-H ) :   0.9314
B( 28-C , 29-C ) :   1.3053 B( 28-C , 32-C ) :   1.2732 B( 29-C , 30-C ) :   1.3376
B( 29-C , 70-H ) :   1.0310 B( 30-C , 31-N ) :   1.1639 B( 30-C , 34-C ) :   1.1347
B( 31-N , 32-C ) :   1.1900 B( 31-N , 71-H ) :   0.9337 B( 32-C , 33-C ) :   1.2385
B( 33-C , 72-H ) :   1.0461 B( 34-C , 35-C ) :   1.5578 B( 34-C , 73-H ) :   0.9760
B( 35-C , 36-C ) :   1.2077 B( 35-C , 74-H ) :   0.9618 B( 36-C , 37-N ) :   1.5308
B( 36-C , 38-C ) :   0.1096 B( 36-C , 47-C ) :   0.9860 B( 37-N , 38-C ) :   1.4023
B( 38-C , 39-C ) :   1.0564 B( 38-C , 43-C ) :   1.3637 B( 39-C , 40-C ) :   0.9019
B( 39-C , 47-C ) :   1.5369 B( 40-C , 41-O ) :   2.1588 B( 40-C , 42-C ) :   0.9452
B( 41-O , 78-H ) :   0.1149 B( 42-C , 43-C ) :   1.0922 B( 42-C , 46-C ) :   1.5590
B( 43-C , 44-N ) :   1.3390 B( 44-N , 45-C ) :   1.6273 B( 45-C , 46-C ) :   1.1069
B( 45-C , 75-H ) :   0.9894 B( 46-C , 76-H ) :   1.0104 B( 47-C , 48-C ) :   1.1414
B( 48-C , 49-C ) :   1.6744 B( 48-C , 77-H ) :   0.9624 B( 49-C , 50-C ) :   1.1187
B( 49-C , 78-H ) :   0.9368 B( 50-C , 51-S ) :   1.1116 B( 50-C , 54-C ) :   1.4436
B( 51-S , 52-C ) :   1.1452 B( 52-C , 53-C ) :   1.4705 B( 52-C , 58-C ) :   1.1241
B( 53-C , 54-C ) :   1.3230 B( 53-C , 55-C ) :   0.9065 B( 54-C , 79-H ) :   1.0002
B( 55-C , 56-O ) :   2.3212 B( 55-C , 57-C ) :   0.9242 B( 57-C , 58-C ) :   1.4960
B( 57-C , 61-C ) :   1.2927 B( 58-C , 59-S ) :   1.1431 B( 59-S , 60-C ) :   1.1505
B( 60-C , 61-C ) :   1.5487 B( 60-C , 80-H ) :   0.9692 B( 61-C , 81-H ) :   1.0022

-----------------------------------------------------------------------------
         ABSORPTION SPECTRUM VIA TRANSITION ELECTRIC DIPOLE MOMENTS
-----------------------------------------------------------------------------
State   Energy  Wavelength   fosc         T2         TX        TY        TZ
        (cm-1)    (nm)                  (au**2)     (au)      (au)      (au)
-----------------------------------------------------------------------------
   0   12225.1    818.0   0.727171049  19.58214   1.24540   0.71593  -4.18552
   1   14499.2    689.7   0.126656504   2.87580  -1.07155   0.78320  -1.05555
   2   15717.1    636.2   1.169643613  24.49942  -2.33705  -0.18095   4.35946
   3   19133.6    522.6   0.840574102  14.46289   2.48080  -2.03966   2.03675
   4   19668.9    508.4   0.352877485   5.90636   2.12744  -1.11764   0.36228
   5   20508.3    487.6   0.011555278   0.18549   0.20949  -0.22092   0.30464
   6   22196.9    450.5   0.079813033   1.18374   0.17117  -0.42904   0.98507
   7   22285.6    448.7   0.000275730   0.00407  -0.03025  -0.05333  -0.01771
   8   22386.7    446.7   0.028713947   0.42226   0.34465  -0.38678   0.39227
   9   23015.8    434.5   0.093290434   1.33440   0.42565   0.17126  -1.06014
  10   23270.0    429.7   0.061017950   0.86325  -0.25282  -0.05710   0.89223
  11   24221.5    412.9   0.188090982   2.55648  -0.67859   0.74523  -1.24122
  12   24526.4    407.7   0.081957286   1.10009  -0.45300   0.50485  -0.80001
  13   25243.9    396.1   0.059011840   0.76959   0.76476  -0.37786   0.20481
  14   25864.5    386.6   0.386059985   4.91391  -2.02995   0.75847   0.46685
  15   25910.0    386.0   0.001110442   0.01411  -0.10349   0.04619   0.03556
  16   26249.2    381.0   0.103610824   1.29946  -1.02956   0.41037   0.26659
  17   26275.2    380.6   0.004927624   0.06174  -0.21899   0.07554  -0.08986
  18   26667.1    375.0   0.080724100   0.99656  -0.72147   0.48612  -0.48962
  19   27142.1    368.4   0.028282529   0.34304   0.49569  -0.21890  -0.22230
  20   27456.1    364.2   0.085378870   1.02373   0.47522  -0.53584   0.71468
  21   27961.7    357.6   0.051501112   0.60636  -0.27606   0.24655  -0.68510
  22   27977.7    357.4   0.016752807   0.19713   0.08027  -0.28171   0.33366
  23   28117.9    355.6   0.024617746   0.28823   0.00047  -0.25941   0.47004
  24   28595.3    349.7   0.036164646   0.41636   0.62015  -0.14110  -0.10891
  25   28762.3    347.7   0.000128421   0.00147  -0.03466   0.01602   0.00342
  26   28833.8    346.8   0.251443687   2.87087  -1.50562   0.77465   0.06236
  27   29347.8    340.7   0.028787296   0.32292  -0.32084   0.26838  -0.38465
  28   29984.8    333.5   0.132813142   1.45820   1.02807  -0.31311  -0.55066
  29   30321.4    329.8   0.112810596   1.22483   0.37178   0.12189  -1.03526
  30   31159.7    320.9   0.000436918   0.00462   0.05707  -0.00151  -0.03684
  31   31233.7    320.2   0.000055607   0.00059  -0.02178   0.00867   0.00605
  32   31524.7    317.2   0.018867752   0.19704   0.28281   0.04100  -0.33966
  33   32404.3    308.6   0.069920896   0.71036  -0.51324   0.43267  -0.50965
  34   32819.8    304.7   0.000319965   0.00321   0.04603  -0.03249  -0.00595
  35   32907.8    303.9   0.039443422   0.39460   0.56868  -0.12602  -0.23520
  36   33324.8    300.1   0.053183465   0.52539   0.56177  -0.41336   0.19733
  37   33793.2    295.9   0.054649789   0.53240  -0.57859   0.36953  -0.24714
  38   34093.0    293.3   0.001310965   0.01266   0.03926   0.00897  -0.10506
  39   34416.5    290.6   0.073489486   0.70297  -0.66233   0.43997  -0.26591
  40   34577.2    289.2   0.019870483   0.18919  -0.10985  -0.23409   0.34975
  41   35041.7    285.4   0.185177559   1.73972   1.03678  -0.68015   0.44968
  42   36019.2    277.6   0.000308792   0.00282   0.00840  -0.04872  -0.01945
  43   36216.0    276.1   0.000002612   0.00002  -0.00237  -0.00418  -0.00084
  44   36245.8    275.9   0.011616954   0.10551   0.26699  -0.04706  -0.17893
  45   36487.0    274.1   0.030169089   0.27221  -0.45634  -0.02897   0.25123
  46   36614.0    273.1   0.001076244   0.00968  -0.08609   0.02957  -0.03729
  47   36646.5    272.9   0.010315819   0.09267  -0.26456   0.09945   0.11308
  48   36853.8    271.3   0.076965353   0.68753   0.71853  -0.38356   0.15534
  49   37069.7    269.8   0.011094268   0.09853   0.20700   0.00428  -0.23593
  50   37499.6    266.7   0.000024808   0.00022   0.00623   0.01337  -0.00054
  51   37670.0    265.5   0.010450735   0.09133  -0.08099   0.13576  -0.25757
  52   37883.5    264.0   0.027366763   0.23782   0.43654  -0.15115   0.15621
  53   38511.7    259.7   0.051842674   0.44317   0.50093  -0.33982   0.27706
  54   38663.1    258.6   0.089384401   0.76110   0.00206   0.33561  -0.80527
  55   39053.3    256.1   0.059831530   0.50437   0.40848  -0.38126   0.43835
  56   39102.6    255.7   0.001817555   0.01530  -0.00670   0.08902  -0.08563
  57   39247.9    254.8   0.010085325   0.08460  -0.21960  -0.01574   0.19007
  58   39492.8    253.2   0.082844055   0.69059  -0.34187  -0.17499   0.73695
  59   39568.1    252.7   0.002913160   0.02424   0.07859   0.10367  -0.08553
  60   39676.2    252.0   0.043416709   0.36025   0.24305   0.11349  -0.53693
  61   39798.0    251.3   0.076063339   0.62920  -0.70948   0.35336   0.03134
  62   39830.4    251.1   0.000896456   0.00741  -0.08588   0.00410  -0.00408
  63   39954.5    250.3   0.000022071   0.00018   0.00167  -0.00798  -0.01074
  64   40245.6    248.5   0.001121738   0.00918   0.06749   0.06209   0.02767
  65   40272.5    248.3   0.009818947   0.08027   0.20350  -0.05285  -0.18989

FINAL SINGLE POINT ENERGY     -4059.539091071324

DIPOLE MOMENT
-------------
                                X             Y             Z
Electronic contribution:    -17.49995       5.77864       5.64065
Nuclear contribution   :     14.84527      -5.10394      -4.27128
                        -----------------------------------------
Total Dipole Moment    :     -2.65468       0.67470       1.36937
                        -----------------------------------------
Magnitude (a.u.)       :      3.06230
Magnitude (Debye)      :      7.78376

Rotational constants in cm-1:     0.001091     0.000400     0.000293
Rotational constants in MHz :    32.705732    11.985271     8.792823

                             ****ORCA TERMINATED NORMALLY****
TOTAL RUN TIME: 0 days 0 hours 7 minutes 6 seconds 455 msec
