                         Program Version 4.2.0 -  RELEASE  -
|  1> # ORCA input file
|  2> # SCF done       -184.860448974661          0.000599148456
|  3> ! CAM-B3LYP def2-SVP def2/J RIJCOSX Grid4 TightSCF
|  4> %maxcore 5000
|  5> %tddft
|  6>     Mode sTDDFT
|  7>     Ethresh 5.0
|  8>     maxcore 5000
|  9> end
| 10>
| 11> %pal
| 12>   nprocs 6
| 13>   end
| 14> * xyz 0 1
| 15>    C        3.27063        -1.50538        -0.00753
| 16>    S        3.82753        -0.24214        -1.01026
| 17>    C        3.15092         0.95651         0.07249
| 18>    C        2.52660         0.34353         1.15644
| 19>    C        2.58325        -1.06380         1.09038
| 20>    C        2.00710        -1.96499         2.14492
| 21>    C        1.31355        -3.17933         1.58709
| 22>    C        0.66411        -3.22245         0.43928
| 23>    C        1.02442        -1.17620         3.02627
| 24>    C        1.64714         0.14150         3.47157
| 25>    C        1.85552         1.06297         2.27292
| 26>    C        3.36943         2.34202        -0.11625
| 27>    N        3.11845         3.20813         0.86352
| 28>    C        3.62832         4.38514         0.46390
| 29>    C        4.24787         4.27036        -0.86348
| 30>    C        4.81301         5.56237        -1.28847
| 31>    O        5.40525         5.82592        -2.31220
| 32>    C        4.47947         6.44054        -0.15163
| 33>    C        3.76348         5.68470         0.89285
| 34>    N        3.43725         6.49184         1.93103
| 35>    C        3.88833         7.67863         1.59489
| 36>    C        4.54045         7.71983         0.30719
| 37>    C        4.03447         2.98735        -1.27908
| 38>    C        4.33516         2.43138        -2.56581
| 39>    C        3.48449         1.65279        -3.26133
| 40>    C        3.71364         1.11128        -4.57798
| 41>    C        2.64041         0.65373        -5.31010
| 42>    C        2.83191         0.12793        -6.60180
| 43>    C        1.92686        -0.36488        -7.53397
| 44>    C        0.44524        -0.43569        -7.37650
| 45>    C       -0.27182         0.47061        -8.39616
| 46>    N       -1.57645         0.83461        -7.88073
| 47>    C       -0.05135        -1.89092        -7.44635
| 48>    N       -1.45245        -1.97562        -7.06092
| 49>    C        2.69596        -0.78076        -8.68072
| 50>    C        2.33153        -1.29240        -9.87196
| 51>    C        3.34517        -1.70280       -10.88931
| 52>    C        4.75770        -1.38246       -10.53426
| 53>    C        5.10502        -0.82518        -9.35844
| 54>    C        4.11777        -0.51823        -8.39378
| 55>    C        4.18451         0.04085        -7.13368
| 56>    C        5.27047         0.50209        -6.35343
| 57>    C        5.03652         1.02574        -5.12419
| 58>    C        3.11068        -3.18195       -11.06176
| 59>    C        3.81410        -4.13222       -10.43019
| 60>    C        3.51463        -5.51988       -10.60037
| 61>    N        2.54549        -5.92775       -11.40541
| 62>    C        2.54164        -7.27404       -11.32555
| 63>    C        3.57714        -7.75998       -10.40400
| 64>    C        3.56231        -9.22439       -10.35054
| 65>    O        4.27667        -9.97232        -9.70916
| 66>    C        2.46724        -9.57657       -11.27300
| 67>    C        1.87132        -8.35667       -11.84540
| 68>    N        0.86579        -8.66892       -12.69977
| 69>    C        0.80628        -9.97972       -12.69141
| 70>    C        1.77746       -10.60991       -11.82437
| 71>    C        4.21543        -6.63812        -9.92550
| 72>    C        5.29317        -6.49955        -9.01340
| 73>    C        5.87391        -7.55416        -8.39054
| 74>    C        6.97134        -7.45820        -7.50094
| 75>    S        7.76435        -5.93065        -7.17629
| 76>    C        8.89410        -6.70162        -6.14448
| 77>    C        8.68944        -8.04666        -6.03891
| 78>    C        7.58808        -8.48569        -6.80856
| 79>    C        7.10401        -9.90556        -6.79958
| 80>    C        5.84147        -9.98044        -5.97933
| 81>    C        4.68053       -10.39696        -6.44653
| 82>    C        8.18725       -10.83582        -6.23126
| 83>    C        8.80429       -10.27832        -4.95208
| 84>    C        9.55099        -8.98044        -5.24899
| 85>    H        3.46869        -2.52284        -0.28361
| 86>    H        2.83733        -2.30368         2.77911
| 87>    H        1.32332        -4.04580         2.23465
| 88>    H        0.62133        -2.37548        -0.22547
| 89>    H        0.15160        -4.11065         0.11192
| 90>    H        0.75217        -1.78348         3.89104
| 91>    H        0.11526        -0.97736         2.45479
| 92>    H        2.60675        -0.05479         3.95462
| 93>    H        1.00068         0.63466         4.19829
| 94>    H        2.44195         1.94269         2.54059
| 95>    H        0.88962         1.43343         1.91535
| 96>    H        3.76001         8.51500         2.26019
| 97>    H        4.96957         8.59021        -0.14881
| 98>    H        5.25204         2.78778        -3.01506
| 99>    H        2.50927         1.44261        -2.83809
|100>    H        1.64310         0.71912        -4.89889
|101>    H        0.18333        -0.04370        -6.38882
|102>    H       -0.31093        -0.03967        -9.37270
|103>    H        0.30968         1.39039        -8.52356
|104>    H       -2.11168        -0.01465        -7.72042
|105>    H       -2.07538         1.41207        -8.54838
|106>    H        0.60858        -2.51037        -6.81397
|107>    H        0.02874        -2.26681        -8.46912
|108>    H       -1.56192        -1.70694        -6.08793
|109>    H       -1.78637        -2.92849        -7.15899
|110>    H        1.29968        -1.47419       -10.13275
|111>    H        3.09950        -1.21912       -11.84546
|112>    H        5.49923        -1.64073       -11.27487
|113>    H        6.13909        -0.60453        -9.13653
|114>    H        6.27468         0.43190        -6.74476
|115>    H        5.86183         1.36902        -4.52068
|116>    H        2.29322        -3.48396       -11.70092
|117>    H        4.62843        -3.86598        -9.77166
|118>    H        0.07941       -10.49366       -13.29649
|119>    H        1.89209       -11.66614       -11.67939
|120>    H        5.66206        -5.50159        -8.81437
|121>    H        5.49575        -8.54964        -8.57663
|122>    H        9.65672        -6.11524        -5.67020
|123>    H        6.86404       -10.22220        -7.81936
|124>    H        5.93594        -9.66162        -4.94942
|125>    H        4.55394       -10.70422        -7.47111
|126>    H        3.80312       -10.43999        -5.82243
|127>    H        8.97388       -10.96443        -6.97867
|128>    H        7.74287       -11.81390        -6.03859
|129>    H        9.49616       -11.00774        -4.52681
|130>    H        8.02350       -10.09258        -4.21321
|131>    H       10.44812        -9.20518        -5.83567
|132>    H        9.87797        -8.49939        -4.32456
|133> *
|134>
|135>                          ****END OF INPUT****

CARTESIAN COORDINATES (ANGSTROEM)
---------------------------------
  C      3.270630   -1.505380   -0.007530
  S      3.827530   -0.242140   -1.010260
  C      3.150920    0.956510    0.072490
  C      2.526600    0.343530    1.156440
  C      2.583250   -1.063800    1.090380
  C      2.007100   -1.964990    2.144920
  C      1.313550   -3.179330    1.587090
  C      0.664110   -3.222450    0.439280
  C      1.024420   -1.176200    3.026270
  C      1.647140    0.141500    3.471570
  C      1.855520    1.062970    2.272920
  C      3.369430    2.342020   -0.116250
  N      3.118450    3.208130    0.863520
  C      3.628320    4.385140    0.463900
  C      4.247870    4.270360   -0.863480
  C      4.813010    5.562370   -1.288470
  O      5.405250    5.825920   -2.312200
  C      4.479470    6.440540   -0.151630
  C      3.763480    5.684700    0.892850
  N      3.437250    6.491840    1.931030
  C      3.888330    7.678630    1.594890
  C      4.540450    7.719830    0.307190
  C      4.034470    2.987350   -1.279080
  C      4.335160    2.431380   -2.565810
  C      3.484490    1.652790   -3.261330
  C      3.713640    1.111280   -4.577980
  C      2.640410    0.653730   -5.310100
  C      2.831910    0.127930   -6.601800
  C      1.926860   -0.364880   -7.533970
  C      0.445240   -0.435690   -7.376500
  C     -0.271820    0.470610   -8.396160
  N     -1.576450    0.834610   -7.880730
  C     -0.051350   -1.890920   -7.446350
  N     -1.452450   -1.975620   -7.060920
  C      2.695960   -0.780760   -8.680720
  C      2.331530   -1.292400   -9.871960
  C      3.345170   -1.702800  -10.889310
  C      4.757700   -1.382460  -10.534260
  C      5.105020   -0.825180   -9.358440
  C      4.117770   -0.518230   -8.393780
  C      4.184510    0.040850   -7.133680
  C      5.270470    0.502090   -6.353430
  C      5.036520    1.025740   -5.124190
  C      3.110680   -3.181950  -11.061760
  C      3.814100   -4.132220  -10.430190
  C      3.514630   -5.519880  -10.600370
  N      2.545490   -5.927750  -11.405410
  C      2.541640   -7.274040  -11.325550
  C      3.577140   -7.759980  -10.404000
  C      3.562310   -9.224390  -10.350540
  O      4.276670   -9.972320   -9.709160
  C      2.467240   -9.576570  -11.273000
  C      1.871320   -8.356670  -11.845400
  N      0.865790   -8.668920  -12.699770
  C      0.806280   -9.979720  -12.691410
  C      1.777460  -10.609910  -11.824370
  C      4.215430   -6.638120   -9.925500
  C      5.293170   -6.499550   -9.013400
  C      5.873910   -7.554160   -8.390540
  C      6.971340   -7.458200   -7.500940
  S      7.764350   -5.930650   -7.176290
  C      8.894100   -6.701620   -6.144480
  C      8.689440   -8.046660   -6.038910
  C      7.588080   -8.485690   -6.808560
  C      7.104010   -9.905560   -6.799580
  C      5.841470   -9.980440   -5.979330
  C      4.680530  -10.396960   -6.446530
  C      8.187250  -10.835820   -6.231260
  C      8.804290  -10.278320   -4.952080
  C      9.550990   -8.980440   -5.248990
  H      3.468690   -2.522840   -0.283610
  H      2.837330   -2.303680    2.779110
  H      1.323320   -4.045800    2.234650
  H      0.621330   -2.375480   -0.225470
  H      0.151600   -4.110650    0.111920
  H      0.752170   -1.783480    3.891040
  H      0.115260   -0.977360    2.454790
  H      2.606750   -0.054790    3.954620
  H      1.000680    0.634660    4.198290
  H      2.441950    1.942690    2.540590
  H      0.889620    1.433430    1.915350
  H      3.760010    8.515000    2.260190
  H      4.969570    8.590210   -0.148810
  H      5.252040    2.787780   -3.015060
  H      2.509270    1.442610   -2.838090
  H      1.643100    0.719120   -4.898890
  H      0.183330   -0.043700   -6.388820
  H     -0.310930   -0.039670   -9.372700
  H      0.309680    1.390390   -8.523560
  H     -2.111680   -0.014650   -7.720420
  H     -2.075380    1.412070   -8.548380
  H      0.608580   -2.510370   -6.813970
  H      0.028740   -2.266810   -8.469120
  H     -1.561920   -1.706940   -6.087930
  H     -1.786370   -2.928490   -7.158990
  H      1.299680   -1.474190  -10.132750
  H      3.099500   -1.219120  -11.845460
  H      5.499230   -1.640730  -11.274870
  H      6.139090   -0.604530   -9.136530
  H      6.274680    0.431900   -6.744760
  H      5.861830    1.369020   -4.520680
  H      2.293220   -3.483960  -11.700920
  H      4.628430   -3.865980   -9.771660
  H      0.079410  -10.493660  -13.296490
  H      1.892090  -11.666140  -11.679390
  H      5.662060   -5.501590   -8.814370
  H      5.495750   -8.549640   -8.576630
  H      9.656720   -6.115240   -5.670200
  H      6.864040  -10.222200   -7.819360
  H      5.935940   -9.661620   -4.949420
  H      4.553940  -10.704220   -7.471110
  H      3.803120  -10.439990   -5.822430
  H      8.973880  -10.964430   -6.978670
  H      7.742870  -11.813900   -6.038590
  H      9.496160  -11.007740   -4.526810
  H      8.023500  -10.092580   -4.213210
  H     10.448120   -9.205180   -5.835670
  H      9.877970   -8.499390   -4.324560

 Total Charge           Charge          ....    0
 Multiplicity           Mult            ....    1
 Number of Electrons    NEL             ....  498
 Basis Dimension        Dim             .... 1228

ORBITAL ENERGIES
----------------

  NO   OCC          E(Eh)            E(eV)
   0   2.0000     -88.961433     -2420.7637
   1   2.0000     -88.948213     -2420.4039
   2   2.0000     -19.206003      -522.6219
   3   2.0000     -19.193979      -522.2947
   4   2.0000     -14.403132      -391.9292
   5   2.0000     -14.396575      -391.7507
   6   2.0000     -14.394910      -391.7054
   7   2.0000     -14.389709      -391.5639
   8   2.0000     -14.388194      -391.5227
   9   2.0000     -14.355234      -390.6258
  10   2.0000     -10.365031      -282.0468
  11   2.0000     -10.354971      -281.7731
  12   2.0000     -10.339973      -281.3650
  13   2.0000     -10.338220      -281.3173
  14   2.0000     -10.325629      -280.9747
  15   2.0000     -10.318907      -280.7917
  16   2.0000     -10.313785      -280.6524
  17   2.0000     -10.310838      -280.5722
  18   2.0000     -10.308023      -280.4956
  19   2.0000     -10.307663      -280.4858
  20   2.0000     -10.304998      -280.4133
  21   2.0000     -10.303074      -280.3609
  22   2.0000     -10.302924      -280.3568
  23   2.0000     -10.300757      -280.2978
  24   2.0000     -10.300685      -280.2959
  25   2.0000     -10.299136      -280.2537
  26   2.0000     -10.294541      -280.1287
  27   2.0000     -10.290060      -280.0068
  28   2.0000     -10.289337      -279.9871
  29   2.0000     -10.288486      -279.9639
  30   2.0000     -10.286643      -279.9138
  31   2.0000     -10.286238      -279.9028
  32   2.0000     -10.282238      -279.7939
  33   2.0000     -10.281213      -279.7660
  34   2.0000     -10.279901      -279.7303
  35   2.0000     -10.279317      -279.7144
  36   2.0000     -10.278805      -279.7005
  37   2.0000     -10.277740      -279.6715
  38   2.0000     -10.277397      -279.6622
  39   2.0000     -10.276480      -279.6372
  40   2.0000     -10.276388      -279.6347
  41   2.0000     -10.276181      -279.6291
  42   2.0000     -10.275575      -279.6126
  43   2.0000     -10.275267      -279.6042
  44   2.0000     -10.275155      -279.6012
  45   2.0000     -10.273927      -279.5678
  46   2.0000     -10.272911      -279.5401
  47   2.0000     -10.272856      -279.5386
  48   2.0000     -10.271465      -279.5008
  49   2.0000     -10.270972      -279.4874
  50   2.0000     -10.270288      -279.4687
  51   2.0000     -10.270012      -279.4612
  52   2.0000     -10.269971      -279.4601
  53   2.0000     -10.269583      -279.4496
  54   2.0000     -10.268931      -279.4318
  55   2.0000     -10.267201      -279.3848
  56   2.0000     -10.266377      -279.3623
  57   2.0000     -10.264005      -279.2978
  58   2.0000     -10.263526      -279.2847
  59   2.0000     -10.263298      -279.2785
  60   2.0000     -10.263068      -279.2723
  61   2.0000     -10.262761      -279.2639
  62   2.0000     -10.262466      -279.2559
  63   2.0000     -10.260845      -279.2118
  64   2.0000     -10.259487      -279.1748
  65   2.0000     -10.259298      -279.1697
  66   2.0000     -10.257429      -279.1188
  67   2.0000     -10.257047      -279.1084
  68   2.0000     -10.254902      -279.0501
  69   2.0000     -10.243257      -278.7332
  70   2.0000      -8.056271      -219.2223
  71   2.0000      -8.043900      -218.8856
  72   2.0000      -6.025488      -163.9619
  73   2.0000      -6.021115      -163.8429
  74   2.0000      -6.018776      -163.7792
  75   2.0000      -6.013023      -163.6227
  76   2.0000      -6.009025      -163.5139
  77   2.0000      -6.006263      -163.4387
  78   2.0000      -1.118728       -30.4421
  79   2.0000      -1.108153       -30.1544
  80   2.0000      -1.070404       -29.1272
  81   2.0000      -1.065070       -28.9820
  82   2.0000      -1.050005       -28.5721
  83   2.0000      -1.042399       -28.3651
  84   2.0000      -0.990913       -26.9641
  85   2.0000      -0.985849       -26.8263
  86   2.0000      -0.982867       -26.7452
  87   2.0000      -0.971763       -26.4430
  88   2.0000      -0.952290       -25.9131
  89   2.0000      -0.937124       -25.5004
  90   2.0000      -0.931157       -25.3381
  91   2.0000      -0.925142       -25.1744
  92   2.0000      -0.922554       -25.1040
  93   2.0000      -0.918453       -24.9924
  94   2.0000      -0.916622       -24.9425
  95   2.0000      -0.907094       -24.6833
  96   2.0000      -0.895968       -24.3805
  97   2.0000      -0.883087       -24.0300
  98   2.0000      -0.879699       -23.9378
  99   2.0000      -0.874315       -23.7913
 100   2.0000      -0.868106       -23.6224
 101   2.0000      -0.850390       -23.1403
 102   2.0000      -0.848212       -23.0810
 103   2.0000      -0.844533       -22.9809
 104   2.0000      -0.840453       -22.8699
 105   2.0000      -0.834291       -22.7022
 106   2.0000      -0.829821       -22.5806
 107   2.0000      -0.826850       -22.4997
 108   2.0000      -0.825067       -22.4512
 109   2.0000      -0.818192       -22.2641
 110   2.0000      -0.809519       -22.0281
 111   2.0000      -0.802086       -21.8259
 112   2.0000      -0.797704       -21.7066
 113   2.0000      -0.776927       -21.1412
 114   2.0000      -0.761738       -20.7279
 115   2.0000      -0.755250       -20.5514
 116   2.0000      -0.748637       -20.3714
 117   2.0000      -0.744661       -20.2632
 118   2.0000      -0.740456       -20.1488
 119   2.0000      -0.726333       -19.7645
 120   2.0000      -0.721217       -19.6253
 121   2.0000      -0.720132       -19.5958
 122   2.0000      -0.712041       -19.3756
 123   2.0000      -0.705076       -19.1861
 124   2.0000      -0.701910       -19.0999
 125   2.0000      -0.699448       -19.0329
 126   2.0000      -0.688312       -18.7299
 127   2.0000      -0.682203       -18.5637
 128   2.0000      -0.670892       -18.2559
 129   2.0000      -0.670726       -18.2514
 130   2.0000      -0.665520       -18.1097
 131   2.0000      -0.658514       -17.9191
 132   2.0000      -0.650135       -17.6911
 133   2.0000      -0.648052       -17.6344
 134   2.0000      -0.643116       -17.5001
 135   2.0000      -0.637901       -17.3582
 136   2.0000      -0.637710       -17.3530
 137   2.0000      -0.630790       -17.1647
 138   2.0000      -0.624385       -16.9904
 139   2.0000      -0.617966       -16.8157
 140   2.0000      -0.608725       -16.5642
 141   2.0000      -0.607273       -16.5247
 142   2.0000      -0.600682       -16.3454
 143   2.0000      -0.598121       -16.2757
 144   2.0000      -0.597541       -16.2599
 145   2.0000      -0.592613       -16.1258
 146   2.0000      -0.585171       -15.9233
 147   2.0000      -0.581237       -15.8163
 148   2.0000      -0.575331       -15.6556
 149   2.0000      -0.574444       -15.6314
 150   2.0000      -0.573262       -15.5993
 151   2.0000      -0.568784       -15.4774
 152   2.0000      -0.563851       -15.3432
 153   2.0000      -0.561159       -15.2699
 154   2.0000      -0.555679       -15.1208
 155   2.0000      -0.553816       -15.0701
 156   2.0000      -0.545765       -14.8510
 157   2.0000      -0.544198       -14.8084
 158   2.0000      -0.542427       -14.7602
 159   2.0000      -0.537986       -14.6393
 160   2.0000      -0.534331       -14.5399
 161   2.0000      -0.533213       -14.5095
 162   2.0000      -0.530370       -14.4321
 163   2.0000      -0.527516       -14.3544
 164   2.0000      -0.524112       -14.2618
 165   2.0000      -0.521683       -14.1957
 166   2.0000      -0.516453       -14.0534
 167   2.0000      -0.514610       -14.0033
 168   2.0000      -0.514025       -13.9873
 169   2.0000      -0.513748       -13.9798
 170   2.0000      -0.512224       -13.9383
 171   2.0000      -0.508699       -13.8424
 172   2.0000      -0.506943       -13.7946
 173   2.0000      -0.505517       -13.7558
 174   2.0000      -0.502509       -13.6740
 175   2.0000      -0.499723       -13.5981
 176   2.0000      -0.497905       -13.5487
 177   2.0000      -0.496696       -13.5158
 178   2.0000      -0.495987       -13.4965
 179   2.0000      -0.494686       -13.4611
 180   2.0000      -0.490202       -13.3391
 181   2.0000      -0.489473       -13.3193
 182   2.0000      -0.488550       -13.2941
 183   2.0000      -0.485409       -13.2086
 184   2.0000      -0.484498       -13.1839
 185   2.0000      -0.482727       -13.1357
 186   2.0000      -0.481455       -13.1011
 187   2.0000      -0.477713       -12.9992
 188   2.0000      -0.472879       -12.8677
 189   2.0000      -0.472596       -12.8600
 190   2.0000      -0.469395       -12.7729
 191   2.0000      -0.467095       -12.7103
 192   2.0000      -0.466446       -12.6927
 193   2.0000      -0.463447       -12.6110
 194   2.0000      -0.460881       -12.5412
 195   2.0000      -0.459188       -12.4951
 196   2.0000      -0.457686       -12.4543
 197   2.0000      -0.455707       -12.4004
 198   2.0000      -0.453141       -12.3306
 199   2.0000      -0.451237       -12.2788
 200   2.0000      -0.447959       -12.1896
 201   2.0000      -0.447079       -12.1656
 202   2.0000      -0.441899       -12.0247
 203   2.0000      -0.440460       -11.9855
 204   2.0000      -0.435751       -11.8574
 205   2.0000      -0.434619       -11.8266
 206   2.0000      -0.433163       -11.7870
 207   2.0000      -0.428957       -11.6725
 208   2.0000      -0.428384       -11.6569
 209   2.0000      -0.425137       -11.5686
 210   2.0000      -0.413443       -11.2503
 211   2.0000      -0.409575       -11.1451
 212   2.0000      -0.408036       -11.1032
 213   2.0000      -0.406027       -11.0486
 214   2.0000      -0.404219       -10.9994
 215   2.0000      -0.398654       -10.8479
 216   2.0000      -0.398137       -10.8339
 217   2.0000      -0.396925       -10.8009
 218   2.0000      -0.395661       -10.7665
 219   2.0000      -0.393743       -10.7143
 220   2.0000      -0.391458       -10.6521
 221   2.0000      -0.388650       -10.5757
 222   2.0000      -0.384189       -10.4543
 223   2.0000      -0.381091       -10.3700
 224   2.0000      -0.370413       -10.0794
 225   2.0000      -0.366398        -9.9702
 226   2.0000      -0.354114        -9.6359
 227   2.0000      -0.351718        -9.5707
 228   2.0000      -0.346082        -9.4174
 229   2.0000      -0.339532        -9.2391
 230   2.0000      -0.336619        -9.1599
 231   2.0000      -0.335182        -9.1208
 232   2.0000      -0.332984        -9.0610
 233   2.0000      -0.332589        -9.0502
 234   2.0000      -0.324727        -8.8363
 235   2.0000      -0.323680        -8.8078
 236   2.0000      -0.322659        -8.7800
 237   2.0000      -0.317333        -8.6351
 238   2.0000      -0.314758        -8.5650
 239   2.0000      -0.313075        -8.5192
 240   2.0000      -0.311404        -8.4737
 241   2.0000      -0.308490        -8.3944
 242   2.0000      -0.302526        -8.2322
 243   2.0000      -0.299403        -8.1472
 244   2.0000      -0.284219        -7.7340
 245   2.0000      -0.281792        -7.6679
 246   2.0000      -0.268302        -7.3009
 247   2.0000      -0.252696        -6.8762
 248   2.0000      -0.222790        -6.0624
 249   0.0000      -0.107279        -2.9192
 250   0.0000      -0.096244        -2.6189
 251   0.0000      -0.070565        -1.9202
 252   0.0000      -0.047692        -1.2978
 253   0.0000      -0.032611        -0.8874

MULLIKEN ATOMIC CHARGES
-----------------------
   0 C :   -0.094110
   1 S :    0.147491
   2 C :   -0.179790
   3 C :   -0.054763
   4 C :   -0.047234
   5 C :    0.089691
   6 C :   -0.059691
   7 C :   -0.016472
   8 C :    0.040372
   9 C :    0.042901
  10 C :    0.162122
  11 C :    0.040604
  12 N :   -0.060896
  13 C :    0.070038
  14 C :   -0.114595
  15 C :    0.197814
  16 O :   -0.134313
  17 C :   -0.050107
  18 C :   -0.038837
  19 N :   -0.063357
  20 C :    0.078048
  21 C :   -0.090083
  22 C :   -0.014773
  23 C :   -0.039620
  24 C :    0.008253
  25 C :    0.094647
  26 C :   -0.101804
  27 C :    0.053485
  28 C :   -0.021750
  29 C :   -0.056447
  30 C :    0.157514
  31 N :   -0.223794
  32 C :    0.139376
  33 N :   -0.218161
  34 C :    0.105978
  35 C :   -0.129716
  36 C :    0.172667
  37 C :   -0.059772
  38 C :    0.019339
  39 C :   -0.000114
  40 C :    0.043006
  41 C :   -0.003455
  42 C :    0.003185
  43 C :   -0.043900
  44 C :   -0.009172
  45 C :    0.039460
  46 N :   -0.043484
  47 C :    0.068991
  48 C :   -0.168227
  49 C :    0.219206
  50 O :   -0.158667
  51 C :   -0.008354
  52 C :   -0.045758
  53 N :   -0.057524
  54 C :    0.082312
  55 C :   -0.104457
  56 C :    0.073354
  57 C :   -0.068194
  58 C :    0.036161
  59 C :   -0.128407
  60 S :    0.098837
  61 C :   -0.116690
  62 C :   -0.064780
  63 C :    0.011234
  64 C :    0.025166
  65 C :   -0.033012
  66 C :   -0.023896
  67 C :    0.070266
  68 C :    0.002940
  69 C :    0.140367
  70 H :    0.024584
  71 H :    0.007730
  72 H :   -0.003687
  73 H :    0.024899
  74 H :    0.019245
  75 H :   -0.003468
  76 H :    0.000093
  77 H :    0.000324
  78 H :    0.003064
  79 H :    0.040431
  80 H :    0.013392
  81 H :    0.000004
  82 H :   -0.014139
  83 H :    0.019052
  84 H :   -0.003308
  85 H :   -0.038243
  86 H :   -0.027952
  87 H :   -0.034992
  88 H :    0.000055
  89 H :    0.080924
  90 H :    0.081777
  91 H :   -0.001944
  92 H :   -0.017217
  93 H :    0.102090
  94 H :    0.098415
  95 H :    0.002102
  96 H :    0.036585
  97 H :   -0.005275
  98 H :   -0.032989
  99 H :   -0.037940
 100 H :   -0.023854
 101 H :    0.034237
 102 H :    0.005162
 103 H :    0.003647
 104 H :   -0.010325
 105 H :   -0.024381
 106 H :    0.008030
 107 H :    0.010825
 108 H :    0.012216
 109 H :   -0.008089
 110 H :    0.032762
 111 H :    0.010309
 112 H :    0.001475
 113 H :    0.003588
 114 H :    0.002062
 115 H :    0.005103
 116 H :    0.015289
 117 H :    0.001683
Sum of atomic charges:   -0.0000000

LOEWDIN ATOMIC CHARGES
----------------------
   0 C :   -0.154784
   1 S :    0.485667
   2 C :   -0.208172
   3 C :    0.004724
   4 C :   -0.065671
   5 C :   -0.028566
   6 C :   -0.015469
   7 C :   -0.055271
   8 C :   -0.018632
   9 C :   -0.030558
  10 C :   -0.029121
  11 C :    0.065130
  12 N :   -0.109850
  13 C :    0.048106
  14 C :   -0.044101
  15 C :    0.063913
  16 O :   -0.146666
  17 C :   -0.046135
  18 C :    0.004154
  19 N :   -0.102976
  20 C :    0.058461
  21 C :   -0.045441
  22 C :   -0.029439
  23 C :   -0.043495
  24 C :   -0.007036
  25 C :   -0.030456
  26 C :   -0.004727
  27 C :   -0.020955
  28 C :   -0.025305
  29 C :   -0.040095
  30 C :    0.031149
  31 N :   -0.129415
  32 C :    0.026208
  33 N :   -0.102628
  34 C :   -0.014116
  35 C :    0.066810
  36 C :   -0.030952
  37 C :   -0.039466
  38 C :   -0.014156
  39 C :   -0.040609
  40 C :   -0.025447
  41 C :   -0.008676
  42 C :   -0.019275
  43 C :    0.075966
  44 C :   -0.053297
  45 C :    0.077279
  46 N :   -0.108503
  47 C :    0.053355
  48 C :   -0.069300
  49 C :    0.074559
  50 O :   -0.155579
  51 C :   -0.042343
  52 C :    0.008365
  53 N :   -0.098854
  54 C :    0.061866
  55 C :   -0.040351
  56 C :   -0.015407
  57 C :   -0.064097
  58 C :    0.022455
  59 C :   -0.180179
  60 S :    0.426245
  61 C :   -0.179541
  62 C :   -0.067753
  63 C :   -0.029539
  64 C :   -0.026584
  65 C :   -0.019912
  66 C :   -0.054713
  67 C :   -0.019196
  68 C :   -0.031339
  69 C :   -0.024460
  70 H :    0.026702
  71 H :    0.035314
  72 H :    0.024509
  73 H :    0.020930
  74 H :    0.023756
  75 H :    0.023258
  76 H :    0.022128
  77 H :    0.021585
  78 H :    0.026929
  79 H :    0.040160
  80 H :    0.039669
  81 H :    0.019523
  82 H :    0.030811
  83 H :    0.038761
  84 H :    0.024312
  85 H :    0.025879
  86 H :    0.024570
  87 H :   -0.007059
  88 H :    0.018276
  89 H :    0.034837
  90 H :    0.049647
  91 H :    0.004358
  92 H :    0.012799
  93 H :    0.056728
  94 H :    0.058273
  95 H :    0.027346
  96 H :    0.059690
  97 H :    0.026133
  98 H :    0.030999
  99 H :    0.027183
 100 H :    0.026978
 101 H :    0.038005
 102 H :    0.034041
 103 H :    0.020896
 104 H :    0.031923
 105 H :    0.018141
 106 H :    0.038375
 107 H :    0.021324
 108 H :    0.038830
 109 H :    0.018506
 110 H :    0.022369
 111 H :    0.020387
 112 H :    0.022298
 113 H :    0.026423
 114 H :    0.025029
 115 H :    0.020578
 116 H :    0.032651
 117 H :    0.029433

  Mayer bond orders larger than 0.100000
B(  0-C ,  1-S ) :   1.1952 B(  0-C ,  4-C ) :   1.5091 B(  0-C , 70-H ) :   0.9692
B(  1-S ,  2-C ) :   1.1170 B(  2-C ,  3-C ) :   1.4303 B(  2-C , 11-C ) :   1.1689
B(  3-C ,  4-C ) :   1.3343 B(  3-C , 10-C ) :   1.0769 B(  4-C ,  5-C ) :   0.9522
B(  5-C ,  6-C ) :   1.0047 B(  5-C ,  8-C ) :   1.0654 B(  5-C , 71-H ) :   0.8906
B(  6-C ,  7-C ) :   2.0228 B(  6-C , 72-H ) :   0.9655 B(  7-C , 73-H ) :   0.9465
B(  7-C , 74-H ) :   0.9534 B(  8-C ,  9-C ) :   1.0649 B(  8-C , 75-H ) :   0.9327
B(  8-C , 76-H ) :   0.9420 B(  9-C , 10-C ) :   1.0776 B(  9-C , 77-H ) :   0.9419
B(  9-C , 78-H ) :   0.9312 B( 10-C , 79-H ) :   0.8815 B( 10-C , 80-H ) :   0.9000
B( 11-C , 12-N ) :   1.5716 B( 11-C , 13-C ) :   0.1132 B( 11-C , 22-C ) :   1.0123
B( 12-N , 13-C ) :   1.3686 B( 13-C , 14-C ) :   1.0409 B( 13-C , 18-C ) :   1.4007
B( 14-C , 15-C ) :   0.8854 B( 14-C , 22-C ) :   1.6217 B( 15-C , 16-O ) :   2.2911
B( 15-C , 17-C ) :   0.9026 B( 17-C , 18-C ) :   1.0659 B( 17-C , 21-C ) :   1.5918
B( 18-C , 19-N ) :   1.3232 B( 19-N , 20-C ) :   1.6430 B( 20-C , 21-C ) :   1.0964
B( 20-C , 81-H ) :   0.9896 B( 21-C , 82-H ) :   1.0089 B( 22-C , 23-C ) :   1.0737
B( 23-C , 24-C ) :   1.6873 B( 23-C , 83-H ) :   0.9557 B( 24-C , 25-C ) :   1.0885
B( 24-C , 84-H ) :   0.9794 B( 25-C , 26-C ) :   1.5124 B( 25-C , 42-C ) :   1.1298
B( 26-C , 27-C ) :   1.1238 B( 26-C , 85-H ) :   1.0042 B( 27-C , 28-C ) :   1.4966
B( 27-C , 40-C ) :   1.1130 B( 28-C , 29-C ) :   1.0335 B( 28-C , 34-C ) :   1.0852
B( 29-C , 30-C ) :   1.0269 B( 29-C , 32-C ) :   1.0420 B( 29-C , 86-H ) :   0.8777
B( 30-C , 31-N ) :   1.1108 B( 30-C , 87-H ) :   0.9232 B( 30-C , 88-H ) :   0.9456
B( 31-N , 89-H ) :   0.9420 B( 31-N , 90-H ) :   0.9667 B( 32-C , 33-N ) :   1.0824
B( 32-C , 91-H ) :   0.9474 B( 32-C , 92-H ) :   0.9307 B( 33-N , 89-H ) :   0.1011
B( 33-N , 93-H ) :   0.9627 B( 33-N , 94-H ) :   0.9668 B( 34-C , 35-C ) :   1.6774
B( 34-C , 39-C ) :   1.0443 B( 35-C , 36-C ) :   0.9683 B( 35-C , 95-H ) :   0.9542
B( 36-C , 37-C ) :   0.9971 B( 36-C , 43-C ) :   0.9397 B( 36-C , 96-H ) :   0.8638
B( 37-C , 38-C ) :   1.7062 B( 37-C , 97-H ) :   0.9769 B( 38-C , 39-C ) :   1.1309
B( 38-C , 98-H ) :   0.9929 B( 39-C , 40-C ) :   1.4458 B( 40-C , 41-C ) :   1.1348
B( 41-C , 42-C ) :   1.6152 B( 41-C , 99-H ) :   0.9917 B( 42-C ,100-H ) :   0.9797
B( 43-C , 44-C ) :   1.7858 B( 43-C ,101-H ) :   0.9679 B( 44-C , 45-C ) :   1.1095
B( 44-C ,102-H ) :   0.9503 B( 45-C , 46-N ) :   1.6110 B( 45-C , 47-C ) :   0.1098
B( 45-C , 56-C ) :   0.9942 B( 46-N , 47-C ) :   1.3423 B( 47-C , 48-C ) :   1.0584
B( 47-C , 52-C ) :   1.4197 B( 48-C , 49-C ) :   0.9157 B( 48-C , 56-C ) :   1.5230
B( 49-C , 50-O ) :   2.1250 B( 49-C , 51-C ) :   0.9371 B( 51-C , 52-C ) :   1.0770
B( 51-C , 55-C ) :   1.5896 B( 52-C , 53-N ) :   1.3136 B( 53-N , 54-C ) :   1.6550
B( 54-C , 55-C ) :   1.0792 B( 54-C ,103-H ) :   0.9893 B( 55-C ,104-H ) :   1.0118
B( 56-C , 57-C ) :   1.1481 B( 57-C , 58-C ) :   1.6221 B( 57-C ,105-H ) :   0.9650
B( 58-C , 59-C ) :   1.1671 B( 58-C ,106-H ) :   0.9502 B( 59-C , 60-S ) :   1.1079
B( 59-C , 63-C ) :   1.4762 B( 60-S , 61-C ) :   1.1638 B( 61-C , 62-C ) :   1.5599
B( 61-C ,107-H ) :   0.9702 B( 62-C , 63-C ) :   1.3101 B( 62-C , 69-C ) :   1.0251
B( 63-C , 64-C ) :   0.9948 B( 64-C , 65-C ) :   0.9999 B( 64-C , 67-C ) :   1.0561
B( 64-C ,108-H ) :   0.8985 B( 65-C , 66-C ) :   2.0248 B( 65-C ,109-H ) :   0.9588
B( 66-C ,110-H ) :   0.9471 B( 66-C ,111-H ) :   0.9504 B( 67-C , 68-C ) :   1.0682
B( 67-C ,112-H ) :   0.9430 B( 67-C ,113-H ) :   0.9324 B( 68-C , 69-C ) :   1.0879
B( 68-C ,114-H ) :   0.9341 B( 68-C ,115-H ) :   0.9493 B( 69-C ,116-H ) :   0.9188
B( 69-C ,117-H ) :   0.9236

-----------------------------------------------------------------------------
         ABSORPTION SPECTRUM VIA TRANSITION ELECTRIC DIPOLE MOMENTS
-----------------------------------------------------------------------------
State   Energy  Wavelength   fosc         T2         TX        TY        TZ
        (cm-1)    (nm)                  (au**2)     (au)      (au)      (au)
-----------------------------------------------------------------------------
   0   11070.3    903.3   0.050724755   1.50846   0.47591   1.03858   0.45091
   1   14371.1    695.8   0.067107407   1.53729   0.70812   0.58244   0.83464
   2   14596.4    685.1   0.108826262   2.45450  -1.21473  -0.39924  -0.90528
   3   15472.9    646.3   0.094310325   2.00661  -0.66200   0.92413   0.84520
   4   21230.7    471.0   0.050152665   0.77769   0.22426   0.70694   0.47710
   5   22357.9    447.3   0.002756398   0.04059   0.02625  -0.13947  -0.14299
   6   22606.3    442.4   0.007132700   0.10387  -0.01662  -0.31613  -0.06049
   7   23095.0    433.0   0.827613151  11.79739   0.52843   3.38421   0.25543
   8   23980.6    417.0   0.378471742   5.19577  -0.34284  -1.89134  -1.22518
   9   24915.9    401.3   0.069144247   0.91360   0.43016  -0.66826   0.53103
  10   25544.9    391.5   0.492432493   6.34626  -1.86423  -0.71998  -1.53380
  11   25818.4    387.3   0.027105798   0.34563   0.24629   0.00387  -0.53381
  12   25894.2    386.2   0.042873895   0.54509  -0.45737   0.32707  -0.47846
  13   25932.5    385.6   0.004645441   0.05897   0.02611   0.05974   0.23393
  14   25980.8    384.9   0.077978509   0.98809   0.70361   0.32138   0.62429
  15   26064.7    383.7   0.505333806   6.38265   0.29919   2.02923   1.47492
  16   26250.2    380.9   0.009920194   0.12441   0.04624   0.25718   0.23693
  17   26385.0    379.0   0.022374538   0.27917  -0.12329  -0.30070  -0.41659
  18   26605.1    375.9   0.078717230   0.97405  -0.52149  -0.83479   0.07225
  19   27500.0    363.6   0.014149366   0.16939   0.13096  -0.14832  -0.36089
  20   27577.0    362.6   0.353876730   4.22455  -0.55840  -0.84332  -1.78929
  21   27822.9    359.4   0.064688560   0.76542  -0.39668  -0.74261  -0.23790
  22   27929.3    358.0   0.157067485   1.85141   0.21557   0.72877   1.12864
  23   28123.7    355.6   0.000322877   0.00378   0.05457  -0.00455  -0.02794
  24   28674.2    348.7   0.043739695   0.50218  -0.10770   0.41841   0.56171
  25   29183.7    342.7   0.038856782   0.43833   0.25836   0.54726   0.26850
  26   29253.4    341.8   0.096145308   1.08200   0.06170  -0.85446  -0.58999
  27   29897.7    334.5   0.094588351   1.04154   0.45870   0.78290   0.46711
  28   30811.3    324.6   0.003303643   0.03530  -0.18726  -0.01493  -0.00289
  29   30911.9    323.5   0.001972166   0.02100   0.06066   0.11865   0.05698
  30   30923.9    323.4   0.001232992   0.01313  -0.04105  -0.10398  -0.02510
  31   31460.5    317.9   0.000999407   0.01046  -0.00681   0.01016  -0.10153
  32   31634.0    316.1   0.122145121   1.27115   0.52003   0.99167   0.13160
  33   32037.3    312.1   0.033501187   0.34425   0.30187  -0.49586  -0.08516
  34   32234.6    310.2   0.079756542   0.81455   0.38838   0.67910   0.45005
  35   32563.6    307.1   0.084760440   0.85691   0.12907  -0.66522  -0.63066
  36   33065.0    302.4   0.108580103   1.08108   0.31575  -0.30979  -0.94096
  37   33360.1    299.8   0.051970622   0.51287   0.29684  -0.58249   0.29233
  38   33956.6    294.5   0.002066269   0.02003   0.09618  -0.10077   0.02506
  39   33979.3    294.3   0.043094832   0.41753   0.32126   0.29909   0.47420
  40   34792.6    287.4   0.103604231   0.98032  -0.27387   0.73006   0.61019
  41   34838.6    287.0   0.291870208   2.75807  -1.05319  -0.24446  -1.26059
  42   35183.0    284.2   0.037222713   0.34830   0.21791   0.52853   0.14652
  43   36076.3    277.2   0.209382279   1.91070   0.11603  -1.13720  -0.77718
  44   36180.7    276.4   0.211208508   1.92181  -0.03913  -1.22048  -0.65628
  45   36420.3    274.6   0.018003998   0.16274   0.09060  -0.31124   0.24013
  46   36794.5    271.8   0.016259461   0.14548  -0.22681   0.30607  -0.01888
  47   36821.1    271.6   0.034898728   0.31202   0.30280  -0.44913   0.13646
  48   37116.1    269.4   0.002496707   0.02215   0.08212  -0.11794  -0.03863
  49   37207.0    268.8   0.041353299   0.36590   0.15149  -0.58001  -0.08083
  50   37686.8    265.3   0.108569978   0.94841   0.32406   0.91836   0.00400
  51   37715.1    265.1   0.004321912   0.03773   0.07239   0.16236   0.07827
  52   37762.4    264.8   0.004366925   0.03807  -0.03465   0.06668   0.18007
  53   37949.6    263.5   0.377274063   3.27285  -0.09305  -1.80667   0.01161
  54   38405.2    260.4   0.009091735   0.07793   0.05533   0.23651   0.13761
  55   38635.2    258.8   0.266600036   2.27171   0.11153   0.14236  -1.49633
  56   38966.5    256.6   0.049169485   0.41541  -0.13629  -0.59172   0.21612
  57   39109.5    255.7   0.021351909   0.17973  -0.17093  -0.09347   0.37654
  58   39267.2    254.7   0.025071707   0.21020  -0.14988  -0.43150   0.03924
  59   39300.1    254.5   0.000597734   0.00501   0.00683   0.04975   0.04985
  60   39397.5    253.8   0.044366751   0.37074  -0.03701  -0.15329  -0.58811
  61   39522.6    253.0   0.013042014   0.10864   0.00720  -0.23949   0.22634
  62   39757.7    251.5   0.011157228   0.09239   0.06333   0.02237   0.29644
  63   40192.6    248.8   0.033316430   0.27289  -0.37684   0.08540  -0.35155

FINAL SINGLE POINT ENERGY     -3586.544916012116

DIPOLE MOMENT
-------------
                                X             Y             Z
Electronic contribution:     18.35623      32.39874     -15.89422
Nuclear contribution   :    -18.09632     -34.59010      16.05228
                        -----------------------------------------
Total Dipole Moment    :      0.25992      -2.19136       0.15806
                        -----------------------------------------
Magnitude (a.u.)       :      2.21237
Magnitude (Debye)      :      5.62341

Rotational constants in cm-1:     0.001227     0.000401     0.000360
Rotational constants in MHz :    36.793990    12.023540    10.779190

                             ****ORCA TERMINATED NORMALLY****
TOTAL RUN TIME: 0 days 0 hours 11 minutes 3 seconds 995 msec
