                         Program Version 4.2.0 -  RELEASE  -
|  1> # ORCA input file
|  2> # SCF done       -166.530090207201          0.000223495814
|  3> ! CAM-B3LYP def2-SVP def2/J RIJCOSX Grid4 TightSCF
|  4> %maxcore 5000
|  5> %tddft
|  6>     Mode sTDDFT
|  7>     Ethresh 5.0
|  8>     maxcore 5000
|  9> end
| 10>
| 11> %pal
| 12>   nprocs 6
| 13>   end
| 14> * xyz 0 1
| 15>    C      -11.58701        -7.37554        -1.83344
| 16>    S      -10.15002        -8.00687        -1.10412
| 17>    C       -9.31166        -6.54449        -1.46363
| 18>    C      -10.13811        -5.63493        -2.11861
| 19>    C      -11.44366        -6.11842        -2.32852
| 20>    S       -9.33221        -4.13526        -2.48824
| 21>    C       -7.87749        -4.73684        -1.74614
| 22>    C       -6.62125        -4.17515        -1.49655
| 23>    C       -5.80408        -5.02803        -0.79237
| 24>    S       -6.58373        -6.57107        -0.47831
| 25>    C       -8.02339        -6.03197        -1.25208
| 26>    C       -4.50191        -4.72552        -0.29561
| 27>    S       -3.75783        -3.21709        -0.76372
| 28>    C       -2.40884        -3.53067         0.25002
| 29>    C       -2.51332        -4.71684         0.90927
| 30>    C       -3.70460        -5.41590         0.59151
| 31>    C       -4.01090        -6.77234         1.13423
| 32>    C       -3.05801        -7.23292         2.25379
| 33>    C       -1.59747        -6.73064         2.13614
| 34>    O       -0.80242        -7.47294         1.23678
| 35>    C       -1.05608        -7.35061        -0.14359
| 36>    C       -1.53210        -5.21229         1.92152
| 37>    N       -3.58943        -6.83138         3.54116
| 38>    C       -4.38933        -7.67527         4.24923
| 39>    C       -5.40855        -7.29893         5.04383
| 40>    C       -6.16860        -8.22394         5.84126
| 41>    S       -5.23266        -9.66656         6.32776
| 42>    C       -6.43022       -10.93910         6.14577
| 43>    C       -6.16476       -12.19856         5.71167
| 44>    S       -7.57253       -13.19027         5.73050
| 45>    C       -8.53461       -11.88098         6.30330
| 46>    C       -7.79622       -10.75574         6.48737
| 47>    S       -8.40357        -9.24135         7.13431
| 48>    C       -7.47466        -8.05336         6.16934
| 49>    C       -8.25708        -6.91828         5.75965
| 50>    C       -9.58299        -6.95784         5.53268
| 51>    C      -10.36930        -5.84702         5.09904
| 52>    S       -9.84537        -4.19904         5.31924
| 53>    C      -11.25474        -3.60637         4.53811
| 54>    C      -12.07991        -4.60630         4.12145
| 55>    C      -11.57459        -5.88922         4.43472
| 56>    C      -12.28705        -7.13831         4.02073
| 57>    C      -13.23485        -6.88897         2.84850
| 58>    C      -14.15831        -5.69063         3.20728
| 59>    O      -14.85356        -5.90197         4.41766
| 60>    C      -15.93914        -6.78855         4.34498
| 61>    C      -13.35226        -4.39685         3.36167
| 62>    N      -12.60454        -6.68689         1.54761
| 63>    C      -11.48908        -5.90413         1.32538
| 64>    C      -10.28194        -6.07767         1.89476
| 65>    C       -9.20497        -5.15083         1.76764
| 66>    S       -7.72398        -5.48092         2.65083
| 67>    C       -7.06334        -3.95979         2.17143
| 68>    C       -7.94826        -3.27038         1.34374
| 69>    C       -9.15909        -3.93650         1.12549
| 70>    S       -7.32462        -1.73137         0.82197
| 71>    C       -5.87987        -2.00392         1.75319
| 72>    C       -4.72024        -1.24227         1.99595
| 73>    C       -3.87372        -1.88347         2.83970
| 74>    S       -4.46679        -3.42507         3.36776
| 75>    C       -5.89173        -3.22916         2.41360
| 76>    H      -12.46271        -7.99303        -1.85366
| 77>    H      -12.22274        -5.56477        -2.81952
| 78>    H       -6.32854        -3.18308        -1.78767
| 79>    H       -1.61515        -2.81262         0.30583
| 80>    H       -4.00290        -7.49200         0.31002
| 81>    H       -5.02769        -6.78629         1.54349
| 82>    H       -3.01422        -8.32764         2.24774
| 83>    H       -1.12254        -6.95541         3.09988
| 84>    H       -0.21378        -7.83457        -0.63644
| 85>    H       -1.10607        -6.30735        -0.46572
| 86>    H       -1.97730        -7.86178        -0.43965
| 87>    H       -0.51489        -4.93488         1.63686
| 88>    H       -1.74809        -4.73038         2.87967
| 89>    H       -3.85025        -5.85469         3.59255
| 90>    H       -4.12823        -8.72077         4.15175
| 91>    H       -5.70155        -6.25925         5.06981
| 92>    H       -5.22201       -12.60567         5.40873
| 93>    H       -9.57767       -12.02316         6.49830
| 94>    H       -7.72848        -5.98887         5.59882
| 95>    H      -10.11387        -7.89515         5.63547
| 96>    H      -11.38869        -2.54864         4.42786
| 97>    H      -12.90014        -7.48528         4.85907
| 98>    H      -11.58663        -7.93481         3.76872
| 99>    H      -13.86403        -7.78108         2.72467
|100>    H      -14.89353        -5.55678         2.39088
|101>    H      -16.45422        -6.71366         5.30091
|102>    H      -15.62294        -7.82665         4.19148
|103>    H      -16.62837        -6.50686         3.53873
|104>    H      -13.97899        -3.66824         3.88010
|105>    H      -13.11979        -3.99222         2.37248
|106>    H      -13.32335        -6.51915         0.85422
|107>    H      -11.60444        -5.13334         0.56936
|108>    H      -10.09731        -6.91311         2.54863
|109>    H       -9.96222        -3.53502         0.53692
|110>    H       -4.53049        -0.27674         1.56553
|111>    H       -2.92257        -1.55223         3.20460
|112> *
|113>
|114>                          ****END OF INPUT****

CARTESIAN COORDINATES (ANGSTROEM)
---------------------------------
  C    -11.587010   -7.375540   -1.833440
  S    -10.150020   -8.006870   -1.104120
  C     -9.311660   -6.544490   -1.463630
  C    -10.138110   -5.634930   -2.118610
  C    -11.443660   -6.118420   -2.328520
  S     -9.332210   -4.135260   -2.488240
  C     -7.877490   -4.736840   -1.746140
  C     -6.621250   -4.175150   -1.496550
  C     -5.804080   -5.028030   -0.792370
  S     -6.583730   -6.571070   -0.478310
  C     -8.023390   -6.031970   -1.252080
  C     -4.501910   -4.725520   -0.295610
  S     -3.757830   -3.217090   -0.763720
  C     -2.408840   -3.530670    0.250020
  C     -2.513320   -4.716840    0.909270
  C     -3.704600   -5.415900    0.591510
  C     -4.010900   -6.772340    1.134230
  C     -3.058010   -7.232920    2.253790
  C     -1.597470   -6.730640    2.136140
  O     -0.802420   -7.472940    1.236780
  C     -1.056080   -7.350610   -0.143590
  C     -1.532100   -5.212290    1.921520
  N     -3.589430   -6.831380    3.541160
  C     -4.389330   -7.675270    4.249230
  C     -5.408550   -7.298930    5.043830
  C     -6.168600   -8.223940    5.841260
  S     -5.232660   -9.666560    6.327760
  C     -6.430220  -10.939100    6.145770
  C     -6.164760  -12.198560    5.711670
  S     -7.572530  -13.190270    5.730500
  C     -8.534610  -11.880980    6.303300
  C     -7.796220  -10.755740    6.487370
  S     -8.403570   -9.241350    7.134310
  C     -7.474660   -8.053360    6.169340
  C     -8.257080   -6.918280    5.759650
  C     -9.582990   -6.957840    5.532680
  C    -10.369300   -5.847020    5.099040
  S     -9.845370   -4.199040    5.319240
  C    -11.254740   -3.606370    4.538110
  C    -12.079910   -4.606300    4.121450
  C    -11.574590   -5.889220    4.434720
  C    -12.287050   -7.138310    4.020730
  C    -13.234850   -6.888970    2.848500
  C    -14.158310   -5.690630    3.207280
  O    -14.853560   -5.901970    4.417660
  C    -15.939140   -6.788550    4.344980
  C    -13.352260   -4.396850    3.361670
  N    -12.604540   -6.686890    1.547610
  C    -11.489080   -5.904130    1.325380
  C    -10.281940   -6.077670    1.894760
  C     -9.204970   -5.150830    1.767640
  S     -7.723980   -5.480920    2.650830
  C     -7.063340   -3.959790    2.171430
  C     -7.948260   -3.270380    1.343740
  C     -9.159090   -3.936500    1.125490
  S     -7.324620   -1.731370    0.821970
  C     -5.879870   -2.003920    1.753190
  C     -4.720240   -1.242270    1.995950
  C     -3.873720   -1.883470    2.839700
  S     -4.466790   -3.425070    3.367760
  C     -5.891730   -3.229160    2.413600
  H    -12.462710   -7.993030   -1.853660
  H    -12.222740   -5.564770   -2.819520
  H     -6.328540   -3.183080   -1.787670
  H     -1.615150   -2.812620    0.305830
  H     -4.002900   -7.492000    0.310020
  H     -5.027690   -6.786290    1.543490
  H     -3.014220   -8.327640    2.247740
  H     -1.122540   -6.955410    3.099880
  H     -0.213780   -7.834570   -0.636440
  H     -1.106070   -6.307350   -0.465720
  H     -1.977300   -7.861780   -0.439650
  H     -0.514890   -4.934880    1.636860
  H     -1.748090   -4.730380    2.879670
  H     -3.850250   -5.854690    3.592550
  H     -4.128230   -8.720770    4.151750
  H     -5.701550   -6.259250    5.069810
  H     -5.222010  -12.605670    5.408730
  H     -9.577670  -12.023160    6.498300
  H     -7.728480   -5.988870    5.598820
  H    -10.113870   -7.895150    5.635470
  H    -11.388690   -2.548640    4.427860
  H    -12.900140   -7.485280    4.859070
  H    -11.586630   -7.934810    3.768720
  H    -13.864030   -7.781080    2.724670
  H    -14.893530   -5.556780    2.390880
  H    -16.454220   -6.713660    5.300910
  H    -15.622940   -7.826650    4.191480
  H    -16.628370   -6.506860    3.538730
  H    -13.978990   -3.668240    3.880100
  H    -13.119790   -3.992220    2.372480
  H    -13.323350   -6.519150    0.854220
  H    -11.604440   -5.133340    0.569360
  H    -10.097310   -6.913110    2.548630
  H     -9.962220   -3.535020    0.536920
  H     -4.530490   -0.276740    1.565530
  H     -2.922570   -1.552230    3.204600

 Total Charge           Charge          ....    0
 Multiplicity           Mult            ....    1
 Number of Electrons    NEL             ....  518
 Basis Dimension        Dim             .... 1078

ORBITAL ENERGIES
----------------

  NO   OCC          E(Eh)            E(eV)
   0   2.0000     -88.955604     -2420.6051
   1   2.0000     -88.952551     -2420.5220
   2   2.0000     -88.952011     -2420.5073
   3   2.0000     -88.949684     -2420.4440
   4   2.0000     -88.947212     -2420.3767
   5   2.0000     -88.945010     -2420.3168
   6   2.0000     -88.943337     -2420.2712
   7   2.0000     -88.941151     -2420.2118
   8   2.0000     -88.928324     -2419.8627
   9   2.0000     -88.923008     -2419.7181
  10   2.0000     -88.918386     -2419.5923
  11   2.0000     -19.213656      -522.8302
  12   2.0000     -19.202774      -522.5340
  13   2.0000     -14.412771      -392.1914
  14   2.0000     -14.411804      -392.1651
  15   2.0000     -10.316556      -280.7278
  16   2.0000     -10.310647      -280.5670
  17   2.0000     -10.310098      -280.5520
  18   2.0000     -10.302727      -280.3514
  19   2.0000     -10.301311      -280.3129
  20   2.0000     -10.300677      -280.2957
  21   2.0000     -10.297550      -280.2106
  22   2.0000     -10.296382      -280.1788
  23   2.0000     -10.295458      -280.1537
  24   2.0000     -10.293332      -280.0958
  25   2.0000     -10.293074      -280.0888
  26   2.0000     -10.292895      -280.0839
  27   2.0000     -10.292210      -280.0653
  28   2.0000     -10.291690      -280.0511
  29   2.0000     -10.290986      -280.0320
  30   2.0000     -10.290550      -280.0201
  31   2.0000     -10.290423      -280.0166
  32   2.0000     -10.289245      -279.9846
  33   2.0000     -10.288342      -279.9600
  34   2.0000     -10.287629      -279.9406
  35   2.0000     -10.287351      -279.9330
  36   2.0000     -10.285739      -279.8892
  37   2.0000     -10.285414      -279.8803
  38   2.0000     -10.284990      -279.8688
  39   2.0000     -10.284414      -279.8531
  40   2.0000     -10.284315      -279.8504
  41   2.0000     -10.279382      -279.7162
  42   2.0000     -10.278705      -279.6978
  43   2.0000     -10.278634      -279.6959
  44   2.0000     -10.274737      -279.5898
  45   2.0000     -10.270972      -279.4874
  46   2.0000     -10.269384      -279.4441
  47   2.0000     -10.268476      -279.4194
  48   2.0000     -10.268337      -279.4157
  49   2.0000     -10.266646      -279.3696
  50   2.0000     -10.266502      -279.3657
  51   2.0000     -10.266469      -279.3648
  52   2.0000     -10.263919      -279.2954
  53   2.0000     -10.262133      -279.2468
  54   2.0000     -10.260055      -279.1903
  55   2.0000     -10.258222      -279.1404
  56   2.0000     -10.257338      -279.1164
  57   2.0000     -10.254208      -279.0312
  58   2.0000     -10.253584      -279.0142
  59   2.0000     -10.247902      -278.8596
  60   2.0000     -10.246404      -278.8188
  61   2.0000      -8.049575      -219.0401
  62   2.0000      -8.047472      -218.9828
  63   2.0000      -8.046042      -218.9439
  64   2.0000      -8.044582      -218.9042
  65   2.0000      -8.043297      -218.8692
  66   2.0000      -8.039764      -218.7731
  67   2.0000      -8.038477      -218.7381
  68   2.0000      -8.035055      -218.6450
  69   2.0000      -8.023728      -218.3367
  70   2.0000      -8.018137      -218.1846
  71   2.0000      -8.013315      -218.0534
  72   2.0000      -6.019265      -163.7925
  73   2.0000      -6.017075      -163.7329
  74   2.0000      -6.015719      -163.6960
  75   2.0000      -6.015094      -163.6790
  76   2.0000      -6.014285      -163.6570
  77   2.0000      -6.012755      -163.6154
  78   2.0000      -6.012645      -163.6124
  79   2.0000      -6.011478      -163.5806
  80   2.0000      -6.011393      -163.5783
  81   2.0000      -6.010512      -163.5543
  82   2.0000      -6.009434      -163.5250
  83   2.0000      -6.009282      -163.5209
  84   2.0000      -6.008360      -163.4958
  85   2.0000      -6.007882      -163.4828
  86   2.0000      -6.007689      -163.4775
  87   2.0000      -6.005689      -163.4231
  88   2.0000      -6.005657      -163.4222
  89   2.0000      -6.005399      -163.4152
  90   2.0000      -6.004738      -163.3972
  91   2.0000      -6.003662      -163.3679
  92   2.0000      -6.000913      -163.2931
  93   2.0000      -6.000646      -163.2859
  94   2.0000      -6.000562      -163.2836
  95   2.0000      -5.996584      -163.1753
  96   2.0000      -5.992998      -163.0778
  97   2.0000      -5.988857      -162.9651
  98   2.0000      -5.988519      -162.9559
  99   2.0000      -5.985980      -162.8868
 100   2.0000      -5.984426      -162.8445
 101   2.0000      -5.983755      -162.8263
 102   2.0000      -5.979680      -162.7154
 103   2.0000      -5.977957      -162.6685
 104   2.0000      -5.973053      -162.5350
 105   2.0000      -1.117512       -30.4090
 106   2.0000      -1.104706       -30.0606
 107   2.0000      -1.022746       -27.8303
 108   2.0000      -1.014884       -27.6164
 109   2.0000      -1.008223       -27.4351
 110   2.0000      -1.001460       -27.2511
 111   2.0000      -0.982928       -26.7468
 112   2.0000      -0.980060       -26.6688
 113   2.0000      -0.962996       -26.2045
 114   2.0000      -0.961399       -26.1610
 115   2.0000      -0.958174       -26.0732
 116   2.0000      -0.931955       -25.3598
 117   2.0000      -0.912599       -24.8331
 118   2.0000      -0.909635       -24.7524
 119   2.0000      -0.894564       -24.3423
 120   2.0000      -0.888949       -24.1895
 121   2.0000      -0.878258       -23.8986
 122   2.0000      -0.863569       -23.4989
 123   2.0000      -0.859947       -23.4003
 124   2.0000      -0.855236       -23.2722
 125   2.0000      -0.849866       -23.1260
 126   2.0000      -0.847053       -23.0495
 127   2.0000      -0.836414       -22.7600
 128   2.0000      -0.831024       -22.6133
 129   2.0000      -0.824504       -22.4359
 130   2.0000      -0.820259       -22.3204
 131   2.0000      -0.816332       -22.2135
 132   2.0000      -0.809705       -22.0332
 133   2.0000      -0.801325       -21.8052
 134   2.0000      -0.796159       -21.6646
 135   2.0000      -0.777610       -21.1598
 136   2.0000      -0.775904       -21.1134
 137   2.0000      -0.772390       -21.0178
 138   2.0000      -0.769447       -20.9377
 139   2.0000      -0.761869       -20.7315
 140   2.0000      -0.754401       -20.5283
 141   2.0000      -0.747469       -20.3397
 142   2.0000      -0.744859       -20.2686
 143   2.0000      -0.736454       -20.0399
 144   2.0000      -0.714819       -19.4512
 145   2.0000      -0.713850       -19.4248
 146   2.0000      -0.694393       -18.8954
 147   2.0000      -0.689945       -18.7744
 148   2.0000      -0.680397       -18.5145
 149   2.0000      -0.666972       -18.1492
 150   2.0000      -0.658948       -17.9309
 151   2.0000      -0.655894       -17.8478
 152   2.0000      -0.649094       -17.6627
 153   2.0000      -0.645907       -17.5760
 154   2.0000      -0.641269       -17.4498
 155   2.0000      -0.636822       -17.3288
 156   2.0000      -0.632936       -17.2231
 157   2.0000      -0.625216       -17.0130
 158   2.0000      -0.618165       -16.8211
 159   2.0000      -0.613613       -16.6973
 160   2.0000      -0.608091       -16.5470
 161   2.0000      -0.605985       -16.4897
 162   2.0000      -0.601447       -16.3662
 163   2.0000      -0.598452       -16.2847
 164   2.0000      -0.591094       -16.0845
 165   2.0000      -0.585681       -15.9372
 166   2.0000      -0.578907       -15.7529
 167   2.0000      -0.574037       -15.6203
 168   2.0000      -0.568607       -15.4726
 169   2.0000      -0.566766       -15.4225
 170   2.0000      -0.565404       -15.3854
 171   2.0000      -0.559633       -15.2284
 172   2.0000      -0.556211       -15.1353
 173   2.0000      -0.553047       -15.0492
 174   2.0000      -0.552643       -15.0382
 175   2.0000      -0.544521       -14.8172
 176   2.0000      -0.540256       -14.7011
 177   2.0000      -0.537051       -14.6139
 178   2.0000      -0.532498       -14.4900
 179   2.0000      -0.530227       -14.4282
 180   2.0000      -0.525769       -14.3069
 181   2.0000      -0.522338       -14.2135
 182   2.0000      -0.515427       -14.0255
 183   2.0000      -0.512528       -13.9466
 184   2.0000      -0.509283       -13.8583
 185   2.0000      -0.506223       -13.7750
 186   2.0000      -0.504645       -13.7321
 187   2.0000      -0.501075       -13.6349
 188   2.0000      -0.497545       -13.5389
 189   2.0000      -0.494661       -13.4604
 190   2.0000      -0.493172       -13.4199
 191   2.0000      -0.487274       -13.2594
 192   2.0000      -0.485744       -13.2178
 193   2.0000      -0.482239       -13.1224
 194   2.0000      -0.481160       -13.0930
 195   2.0000      -0.477959       -13.0059
 196   2.0000      -0.474995       -12.9253
 197   2.0000      -0.473668       -12.8892
 198   2.0000      -0.473096       -12.8736
 199   2.0000      -0.470042       -12.7905
 200   2.0000      -0.468409       -12.7461
 201   2.0000      -0.464001       -12.6261
 202   2.0000      -0.463033       -12.5998
 203   2.0000      -0.462562       -12.5870
 204   2.0000      -0.461604       -12.5609
 205   2.0000      -0.459040       -12.4911
 206   2.0000      -0.455894       -12.4055
 207   2.0000      -0.452783       -12.3208
 208   2.0000      -0.451640       -12.2897
 209   2.0000      -0.444352       -12.0914
 210   2.0000      -0.442867       -12.0510
 211   2.0000      -0.441758       -12.0209
 212   2.0000      -0.440044       -11.9742
 213   2.0000      -0.436255       -11.8711
 214   2.0000      -0.433130       -11.7861
 215   2.0000      -0.430983       -11.7276
 216   2.0000      -0.426999       -11.6192
 217   2.0000      -0.425057       -11.5664
 218   2.0000      -0.422236       -11.4896
 219   2.0000      -0.417249       -11.3539
 220   2.0000      -0.413807       -11.2602
 221   2.0000      -0.412996       -11.2382
 222   2.0000      -0.410743       -11.1769
 223   2.0000      -0.407600       -11.0913
 224   2.0000      -0.406380       -11.0582
 225   2.0000      -0.402061       -10.9406
 226   2.0000      -0.400916       -10.9095
 227   2.0000      -0.395848       -10.7716
 228   2.0000      -0.395006       -10.7487
 229   2.0000      -0.393639       -10.7115
 230   2.0000      -0.392715       -10.6863
 231   2.0000      -0.391312       -10.6481
 232   2.0000      -0.389714       -10.6047
 233   2.0000      -0.387351       -10.5404
 234   2.0000      -0.380651       -10.3580
 235   2.0000      -0.376896       -10.2559
 236   2.0000      -0.373392       -10.1605
 237   2.0000      -0.363587        -9.8937
 238   2.0000      -0.358554        -9.7567
 239   2.0000      -0.350185        -9.5290
 240   2.0000      -0.343925        -9.3587
 241   2.0000      -0.338744        -9.2177
 242   2.0000      -0.332900        -9.0587
 243   2.0000      -0.328290        -8.9332
 244   2.0000      -0.326745        -8.8912
 245   2.0000      -0.319582        -8.6963
 246   2.0000      -0.310976        -8.4621
 247   2.0000      -0.306089        -8.3291
 248   2.0000      -0.291466        -7.9312
 249   2.0000      -0.287900        -7.8342
 250   2.0000      -0.279550        -7.6069
 251   2.0000      -0.277241        -7.5441
 252   2.0000      -0.274450        -7.4682
 253   2.0000      -0.272621        -7.4184
 254   2.0000      -0.266558        -7.2534
 255   2.0000      -0.262804        -7.1513
 256   2.0000      -0.240649        -6.5484
 257   2.0000      -0.216583        -5.8935
 258   2.0000      -0.210468        -5.7271
 259   0.0000      -0.026908        -0.7322
 260   0.0000      -0.012698        -0.3455
 261   0.0000      -0.004990        -0.1358
 262   0.0000       0.025715         0.6998
 263   0.0000       0.028266         0.7691

MULLIKEN ATOMIC CHARGES
-----------------------
   0 C :   -0.090430
   1 S :    0.154885
   2 C :   -0.086971
   3 C :   -0.066273
   4 C :    0.010085
   5 S :    0.125003
   6 C :   -0.026730
   7 C :   -0.039778
   8 C :   -0.081784
   9 S :    0.110951
  10 C :   -0.045055
  11 C :   -0.078479
  12 S :    0.104557
  13 C :   -0.118390
  14 C :   -0.071623
  15 C :   -0.095981
  16 C :    0.109360
  17 C :    0.047636
  18 C :    0.167300
  19 O :   -0.377089
  20 C :    0.193704
  21 C :    0.150360
  22 N :   -0.148538
  23 C :    0.056049
  24 C :   -0.043294
  25 C :   -0.047304
  26 S :    0.078553
  27 C :   -0.003211
  28 C :   -0.131832
  29 S :    0.106126
  30 C :   -0.132740
  31 C :    0.001806
  32 S :    0.079032
  33 C :   -0.072202
  34 C :   -0.013938
  35 C :   -0.018165
  36 C :   -0.164009
  37 S :    0.110134
  38 C :   -0.141439
  39 C :   -0.044616
  40 C :   -0.050343
  41 C :    0.206131
  42 C :    0.010087
  43 C :    0.084476
  44 O :   -0.372418
  45 C :    0.192351
  46 C :    0.230503
  47 N :   -0.135619
  48 C :   -0.016748
  49 C :    0.129157
  50 C :   -0.099372
  51 S :    0.125787
  52 C :   -0.051555
  53 C :   -0.060417
  54 C :   -0.011799
  55 S :    0.119734
  56 C :   -0.061874
  57 C :    0.020953
  58 C :   -0.050595
  59 S :    0.073510
  60 C :   -0.076183
  61 H :    0.022302
  62 H :   -0.017111
  63 H :   -0.013665
  64 H :    0.002144
  65 H :    0.029467
  66 H :    0.030423
  67 H :    0.004020
  68 H :   -0.004748
  69 H :    0.022496
  70 H :    0.018410
  71 H :   -0.003624
  72 H :    0.009661
  73 H :    0.008376
  74 H :    0.110443
  75 H :    0.010264
  76 H :   -0.027839
  77 H :    0.020462
  78 H :    0.019128
  79 H :    0.000948
  80 H :    0.001259
  81 H :    0.000540
  82 H :    0.017946
  83 H :    0.016497
  84 H :   -0.013191
  85 H :   -0.030327
  86 H :    0.031505
  87 H :    0.004959
  88 H :   -0.001812
  89 H :    0.014477
  90 H :    0.002459
  91 H :    0.104832
  92 H :    0.002508
  93 H :   -0.033404
  94 H :   -0.035271
  95 H :   -0.017028
  96 H :    0.021060
Sum of atomic charges:   -0.0000000

LOEWDIN ATOMIC CHARGES
----------------------
   0 C :   -0.182464
   1 S :    0.440649
   2 C :   -0.214114
   3 C :   -0.206303
   4 C :   -0.081663
   5 S :    0.394020
   6 C :   -0.189751
   7 C :   -0.079172
   8 C :   -0.171254
   9 S :    0.448821
  10 C :   -0.220327
  11 C :   -0.181808
  12 S :    0.441084
  13 C :   -0.193897
  14 C :   -0.077467
  15 C :   -0.074144
  16 C :   -0.051716
  17 C :    0.025981
  18 C :    0.059843
  19 O :   -0.168822
  20 C :    0.064907
  21 C :   -0.039197
  22 N :   -0.014037
  23 C :    0.036509
  24 C :   -0.139980
  25 C :   -0.153015
  26 S :    0.351088
  27 C :   -0.216431
  28 C :   -0.208008
  29 S :    0.431753
  30 C :   -0.209189
  31 C :   -0.215384
  32 S :    0.343517
  33 C :   -0.197452
  34 C :   -0.048954
  35 C :   -0.053424
  36 C :   -0.186696
  37 S :    0.431573
  38 C :   -0.192313
  39 C :   -0.064473
  40 C :   -0.058211
  41 C :   -0.023950
  42 C :    0.019182
  43 C :    0.055855
  44 O :   -0.164043
  45 C :    0.067345
  46 C :   -0.026835
  47 N :   -0.038789
  48 C :    0.023458
  49 C :   -0.094630
  50 C :   -0.141646
  51 S :    0.438726
  52 C :   -0.233779
  53 C :   -0.183367
  54 C :   -0.084911
  55 S :    0.398827
  56 C :   -0.209547
  57 C :   -0.067762
  58 C :   -0.179476
  59 S :    0.431184
  60 C :   -0.212768
  61 H :    0.020456
  62 H :    0.030547
  63 H :    0.021558
  64 H :    0.017604
  65 H :    0.028244
  66 H :    0.022316
  67 H :    0.030565
  68 H :    0.025989
  69 H :    0.022409
  70 H :    0.012532
  71 H :    0.004291
  72 H :    0.035940
  73 H :    0.029479
  74 H :    0.040779
  75 H :    0.015985
  76 H :    0.017943
  77 H :    0.023106
  78 H :    0.022755
  79 H :    0.016932
  80 H :    0.020817
  81 H :    0.017629
  82 H :    0.041867
  83 H :    0.028665
  84 H :    0.018425
  85 H :   -0.000729
  86 H :    0.025604
  87 H :    0.003053
  88 H :    0.005928
  89 H :    0.038470
  90 H :    0.029923
  91 H :    0.065281
  92 H :    0.014783
  93 H :    0.024862
  94 H :    0.020693
  95 H :    0.031690
  96 H :    0.020454

  Mayer bond orders larger than 0.100000
B(  0-C ,  1-S ) :   1.1507 B(  0-C ,  4-C ) :   1.5772 B(  0-C , 61-H ) :   0.9698
B(  1-S ,  2-C ) :   1.0897 B(  2-C ,  3-C ) :   1.4765 B(  2-C , 10-C ) :   1.2863
B(  3-C ,  4-C ) :   1.2504 B(  3-C ,  5-S ) :   1.0449 B(  4-C , 62-H ) :   1.0032
B(  5-S ,  6-C ) :   1.0440 B(  6-C ,  7-C ) :   1.2667 B(  6-C , 10-C ) :   1.4736
B(  7-C ,  8-C ) :   1.5208 B(  7-C , 63-H ) :   0.9934 B(  8-C ,  9-S ) :   1.1003
B(  8-C , 11-C ) :   1.1392 B(  9-S , 10-C ) :   1.0711 B( 11-C , 12-S ) :   1.1511
B( 11-C , 15-C ) :   1.5256 B( 12-S , 13-C ) :   1.1409 B( 13-C , 14-C ) :   1.5775
B( 13-C , 64-H ) :   0.9708 B( 14-C , 15-C ) :   1.2700 B( 14-C , 21-C ) :   1.0189
B( 15-C , 16-C ) :   1.0549 B( 16-C , 17-C ) :   1.0180 B( 16-C , 65-H ) :   0.9027
B( 16-C , 66-H ) :   0.8947 B( 17-C , 18-C ) :   0.9888 B( 17-C , 22-N ) :   1.0025
B( 17-C , 67-H ) :   0.9053 B( 18-C , 19-O ) :   1.0591 B( 18-C , 21-C ) :   1.0323
B( 18-C , 68-H ) :   0.9198 B( 19-O , 20-C ) :   0.9867 B( 20-C , 69-H ) :   0.9786
B( 20-C , 70-H ) :   0.9638 B( 20-C , 71-H ) :   0.9656 B( 21-C , 72-H ) :   0.9106
B( 21-C , 73-H ) :   0.9095 B( 22-N , 23-C ) :   1.2001 B( 22-N , 74-H ) :   0.9273
B( 23-C , 24-C ) :   1.6726 B( 23-C , 75-H ) :   0.9539 B( 24-C , 25-C ) :   1.1513
B( 24-C , 76-H ) :   0.9508 B( 25-C , 26-S ) :   1.0163 B( 25-C , 33-C ) :   1.6654
B( 26-S , 27-C ) :   0.9840 B( 27-C , 28-C ) :   1.5974 B( 27-C , 31-C ) :   1.2551
B( 28-C , 29-S ) :   1.1693 B( 28-C , 77-H ) :   0.9717 B( 29-S , 30-C ) :   1.1655
B( 30-C , 31-C ) :   1.5992 B( 30-C , 78-H ) :   0.9709 B( 31-C , 32-S ) :   0.9896
B( 32-S , 33-C ) :   1.0045 B( 33-C , 34-C ) :   1.1363 B( 34-C , 35-C ) :   1.7181
B( 34-C , 79-H ) :   0.9609 B( 35-C , 36-C ) :   1.1271 B( 35-C , 80-H ) :   0.9569
B( 36-C , 37-S ) :   1.1320 B( 36-C , 40-C ) :   1.5031 B( 37-S , 38-C ) :   1.1520
B( 38-C , 39-C ) :   1.5718 B( 38-C , 81-H ) :   0.9744 B( 39-C , 40-C ) :   1.2971
B( 39-C , 46-C ) :   1.0167 B( 40-C , 41-C ) :   1.0471 B( 41-C , 42-C ) :   1.0422
B( 41-C , 82-H ) :   0.8866 B( 41-C , 83-H ) :   0.9085 B( 42-C , 43-C ) :   0.9945
B( 42-C , 47-N ) :   1.0252 B( 42-C , 84-H ) :   0.9137 B( 43-C , 44-O ) :   1.0274
B( 43-C , 46-C ) :   1.0414 B( 43-C , 85-H ) :   0.9210 B( 44-O , 45-C ) :   0.9944
B( 45-C , 86-H ) :   0.9823 B( 45-C , 87-H ) :   0.9642 B( 45-C , 88-H ) :   0.9635
B( 46-C , 89-H ) :   0.9013 B( 46-C , 90-H ) :   0.8980 B( 47-N , 48-C ) :   1.1450
B( 47-N , 91-H ) :   0.9295 B( 48-C , 49-C ) :   1.7547 B( 48-C , 92-H ) :   0.9556
B( 49-C , 50-C ) :   1.1233 B( 49-C , 93-H ) :   0.9290 B( 50-C , 51-S ) :   1.1080
B( 50-C , 54-C ) :   1.5403 B( 51-S , 52-C ) :   1.0601 B( 52-C , 53-C ) :   1.4796
B( 52-C , 60-C ) :   1.3039 B( 53-C , 54-C ) :   1.2477 B( 53-C , 55-S ) :   1.0536
B( 54-C , 94-H ) :   0.9938 B( 55-S , 56-C ) :   1.0429 B( 56-C , 57-C ) :   1.2441
B( 56-C , 60-C ) :   1.4973 B( 57-C , 58-C ) :   1.6092 B( 57-C , 95-H ) :   1.0006
B( 58-C , 59-S ) :   1.1205 B( 58-C , 96-H ) :   0.9679 B( 59-S , 60-C ) :   1.0681

-----------------------------------------------------------------------------
         ABSORPTION SPECTRUM VIA TRANSITION ELECTRIC DIPOLE MOMENTS
-----------------------------------------------------------------------------
State   Energy  Wavelength   fosc         T2         TX        TY        TZ
        (cm-1)    (nm)                  (au**2)     (au)      (au)      (au)
-----------------------------------------------------------------------------
   0   22847.6    437.7   0.006776532   0.09764  -0.14025   0.20730  -0.18709
   1   25438.3    393.1   0.188728600   2.44245   1.26156  -0.92170  -0.03734
   2   25880.3    386.4   0.008282854   0.10536  -0.25590   0.12966  -0.15188
   3   27223.8    367.3   0.244865744   2.96111  -1.40783   0.88580   0.44102
   4   27866.6    358.9   0.035897448   0.42409  -0.46314  -0.34689   0.29876
   5   29161.2    342.9   0.019173479   0.21646   0.41381   0.08607   0.19445
   6   31260.7    319.9   1.800184679  18.95806  -4.06809  -1.36073  -0.74642
   7   33128.7    301.9   0.018009512   0.17897  -0.18364  -0.36811  -0.09867
   8   33543.4    298.1   0.065956707   0.64733   0.25296   0.76377  -0.00044
   9   33809.8    295.8   0.302114060   2.94174   1.46567   0.73056   0.50975
  10   34202.0    292.4   0.007477868   0.07198   0.09620  -0.22656  -0.10675
  11   35204.9    284.1   0.012023642   0.11244  -0.12724   0.26405   0.16287
  12   35549.7    281.3   0.229164447   2.12220  -0.66440   1.27362  -0.24222
  13   35628.1    280.7   0.182505857   1.68640   1.27172   0.26241   0.01607
  14   36148.4    276.6   0.035344091   0.32189   0.52170  -0.11376   0.19176
  15   36817.1    271.6   0.081154561   0.72567  -0.60037   0.47757  -0.37034
  16   37258.3    268.4   0.045154487   0.39898   0.59813   0.19161   0.06712
  17   37773.6    264.7   0.087743679   0.76472  -0.58086  -0.57151   0.31733
  18   38045.9    262.8   0.073268757   0.63400  -0.72846  -0.20195   0.25013
  19   38263.5    261.3   0.019843077   0.17073  -0.40477   0.08253  -0.00857
  20   38838.6    257.5   0.277523655   2.35240   0.31016   1.19225  -0.91364
  21   38935.0    256.8   0.044066844   0.37260   0.42968  -0.42317   0.09440
  22   39352.1    254.1   0.022808341   0.19081   0.31789   0.09873   0.28286
  23   39681.5    252.0   0.019576531   0.16241   0.24279   0.19301  -0.25732
  24   39826.6    251.1   0.088752114   0.73364   0.19571   0.78545  -0.28000
  25   40009.7    249.9   0.038689496   0.31835   0.08892   0.46923  -0.30044

FINAL SINGLE POINT ENERGY     -6410.600267716209

DIPOLE MOMENT
-------------
                                X             Y             Z
Electronic contribution:     14.52196       3.31562      -2.45986
Nuclear contribution   :    -15.93701      -2.83257       0.70648
                        -----------------------------------------
Total Dipole Moment    :     -1.41505       0.48305      -1.75338
                        -----------------------------------------
Magnitude (a.u.)       :      2.30435
Magnitude (Debye)      :      5.85720

Rotational constants in cm-1:     0.001195     0.001027     0.000736
Rotational constants in MHz :    35.826654    30.779413    22.064549

                             ****ORCA TERMINATED NORMALLY****
TOTAL RUN TIME: 0 days 0 hours 10 minutes 38 seconds 65 msec
