                         Program Version 4.2.0 -  RELEASE  -
|  1> # ORCA input file
|  2> # SCF done       -181.463674973367          0.000263763486
|  3> ! CAM-B3LYP def2-SVP def2/J RIJCOSX Grid4 TightSCF
|  4> %maxcore 5000
|  5> %tddft
|  6>     Mode sTDDFT
|  7>     Ethresh 5.0
|  8>     maxcore 5000
|  9> end
| 10>
| 11> %pal
| 12>   nprocs 6
| 13>   end
| 14> * xyz 0 1
| 15>    C        1.61765         5.85951         1.24269
| 16>    S        1.05319         4.48643         0.35236
| 17>    C       -0.08281         4.13003         1.60105
| 18>    C        0.00327         5.05419         2.64115
| 19>    C        0.98147         6.04404         2.42862
| 20>    S       -1.13202         4.73793         3.92185
| 21>    C       -1.72981         3.35621         3.04727
| 22>    C       -2.73529         2.41779         3.30042
| 23>    C       -2.85159         1.50096         2.28152
| 24>    S       -1.69487         1.79330         0.98885
| 25>    C       -1.07046         3.16227         1.83212
| 26>    C       -3.78174         0.43259         2.18180
| 27>    S       -4.98328         0.16437         3.42605
| 28>    C       -3.94581        -0.50517         1.19085
| 29>    C       -3.29797        -0.84049        -0.11689
| 30>    N       -3.68540         0.10833        -1.13537
| 31>    C       -2.99139        -0.09416        -2.39644
| 32>    C       -3.46782         0.91805        -3.42501
| 33>    O       -3.81541        -2.12352        -0.43309
| 34>    C       -5.03899        -2.36833         0.24624
| 35>    O       -5.11885        -3.70673         0.59357
| 36>    C       -5.00787        -1.39311         1.39890
| 37>    C       -5.70238        -1.18780         2.56857
| 38>    C       -6.84817        -1.83181         3.10448
| 39>    C       -7.59495        -2.72726         2.41561
| 40>    C       -8.76489        -3.32934         2.95791
| 41>    O       -8.99655        -3.24571         4.27937
| 42>    C      -10.15403        -3.88524         4.55853
| 43>    C      -10.70879        -4.39087         3.37820
| 44>    C       -9.80819        -4.03230         2.34298
| 45>    C       -9.95690        -4.26665         0.88211
| 46>    F       -9.05544        -3.62196         0.13527
| 47>    F       -9.85610        -5.56869         0.53814
| 48>    F      -11.15809        -3.86023         0.41575
| 49>    O      -11.87450        -5.05702         3.42333
| 50>    C      -12.30365        -5.84789         2.32988
| 51>    C      -10.66381        -4.02435         5.87288
| 52>    C      -10.01342        -3.65927         7.00389
| 53>    C      -10.52924        -3.84714         8.31248
| 54>    S       -9.49037        -3.59809         9.70478
| 55>    C      -11.77459        -4.24392         8.75113
| 56>    C      -13.11118        -4.54801         8.14747
| 57>    N      -13.70741        -3.34145         7.62440
| 58>    C      -14.92194        -3.57346         6.86197
| 59>    C      -15.48662        -2.25291         6.36415
| 60>    O      -13.88508        -5.04630         9.23180
| 61>    C      -13.30021        -4.73839        10.48896
| 62>    O      -13.40967        -5.82448        11.34493
| 63>    C      -11.89442        -4.32852        10.13979
| 64>    C      -10.74783        -4.03957        10.84306
| 65>    C      -10.55210        -4.12486        12.24371
| 66>    C       -9.38286        -3.88156        12.87657
| 67>    C       -9.17628        -4.02829        14.27358
| 68>    S      -10.47193        -4.56185        15.33702
| 69>    C       -9.41212        -4.50013        16.69402
| 70>    C       -8.13129        -4.08273        16.32431
| 71>    C       -7.99934        -3.81654        14.95916
| 72>    S       -7.03001        -4.01563        17.67348
| 73>    C       -8.30102        -4.55446        18.73353
| 74>    C       -8.36911        -4.82218        20.11363
| 75>    C       -9.61359        -5.23158        20.47340
| 76>    S      -10.73406        -5.30365        19.15552
| 77>    C       -9.50655        -4.76807        18.06727
| 78>    H        2.40171         6.45500         0.81938
| 79>    H        1.19563         6.84217         3.11454
| 80>    H       -3.35656         2.40299         4.17688
| 81>    H       -2.19679        -0.95796        -0.04449
| 82>    H       -3.53795         1.05616        -0.80276
| 83>    H       -3.22652        -1.10941        -2.72388
| 84>    H       -1.89668        -0.01983        -2.27114
| 85>    H       -4.54480         0.84465        -3.54601
| 86>    H       -2.99007         0.73000        -4.38266
| 87>    H       -3.22224         1.92905        -3.10597
| 88>    H       -5.89841        -2.17243        -0.41556
| 89>    H       -4.25702        -3.98834         0.92548
| 90>    H       -7.14539        -1.53850         4.10173
| 91>    H       -7.31440        -3.00104         1.41359
| 92>    H      -13.13549        -6.43547         2.71554
| 93>    H      -11.51544        -6.52070         1.98686
| 94>    H      -12.65739        -5.23248         1.50083
| 95>    H      -11.62775        -4.50579         5.91628
| 96>    H       -9.02702        -3.22392         6.92923
| 97>    H      -13.08449        -5.36686         7.39731
| 98>    H      -13.02805        -2.83508         7.06522
| 99>    H      -15.62927        -4.06005         7.53753
|100>    H      -14.74227        -4.25203         6.00838
|101>    H      -15.65872        -1.58431         7.20276
|102>    H      -16.42667        -2.41941         5.84520
|103>    H      -14.78980        -1.77566         5.67774
|104>    H      -13.84627        -3.91820        10.98158
|105>    H      -13.16992        -6.62398        10.85954
|106>    H      -11.42094        -4.44195        12.80711
|107>    H       -8.52115        -3.56742        12.30064
|108>    H       -7.09083        -3.48902        14.48847
|109>    H       -7.54415        -4.71722        20.79334
|110>    H       -9.95707        -5.50377        21.45145
|111> *
|112>
|113>                          ****END OF INPUT****

CARTESIAN COORDINATES (ANGSTROEM)
---------------------------------
  C      1.617650    5.859510    1.242690
  S      1.053190    4.486430    0.352360
  C     -0.082810    4.130030    1.601050
  C      0.003270    5.054190    2.641150
  C      0.981470    6.044040    2.428620
  S     -1.132020    4.737930    3.921850
  C     -1.729810    3.356210    3.047270
  C     -2.735290    2.417790    3.300420
  C     -2.851590    1.500960    2.281520
  S     -1.694870    1.793300    0.988850
  C     -1.070460    3.162270    1.832120
  C     -3.781740    0.432590    2.181800
  S     -4.983280    0.164370    3.426050
  C     -3.945810   -0.505170    1.190850
  C     -3.297970   -0.840490   -0.116890
  N     -3.685400    0.108330   -1.135370
  C     -2.991390   -0.094160   -2.396440
  C     -3.467820    0.918050   -3.425010
  O     -3.815410   -2.123520   -0.433090
  C     -5.038990   -2.368330    0.246240
  O     -5.118850   -3.706730    0.593570
  C     -5.007870   -1.393110    1.398900
  C     -5.702380   -1.187800    2.568570
  C     -6.848170   -1.831810    3.104480
  C     -7.594950   -2.727260    2.415610
  C     -8.764890   -3.329340    2.957910
  O     -8.996550   -3.245710    4.279370
  C    -10.154030   -3.885240    4.558530
  C    -10.708790   -4.390870    3.378200
  C     -9.808190   -4.032300    2.342980
  C     -9.956900   -4.266650    0.882110
  F     -9.055440   -3.621960    0.135270
  F     -9.856100   -5.568690    0.538140
  F    -11.158090   -3.860230    0.415750
  O    -11.874500   -5.057020    3.423330
  C    -12.303650   -5.847890    2.329880
  C    -10.663810   -4.024350    5.872880
  C    -10.013420   -3.659270    7.003890
  C    -10.529240   -3.847140    8.312480
  S     -9.490370   -3.598090    9.704780
  C    -11.774590   -4.243920    8.751130
  C    -13.111180   -4.548010    8.147470
  N    -13.707410   -3.341450    7.624400
  C    -14.921940   -3.573460    6.861970
  C    -15.486620   -2.252910    6.364150
  O    -13.885080   -5.046300    9.231800
  C    -13.300210   -4.738390   10.488960
  O    -13.409670   -5.824480   11.344930
  C    -11.894420   -4.328520   10.139790
  C    -10.747830   -4.039570   10.843060
  C    -10.552100   -4.124860   12.243710
  C     -9.382860   -3.881560   12.876570
  C     -9.176280   -4.028290   14.273580
  S    -10.471930   -4.561850   15.337020
  C     -9.412120   -4.500130   16.694020
  C     -8.131290   -4.082730   16.324310
  C     -7.999340   -3.816540   14.959160
  S     -7.030010   -4.015630   17.673480
  C     -8.301020   -4.554460   18.733530
  C     -8.369110   -4.822180   20.113630
  C     -9.613590   -5.231580   20.473400
  S    -10.734060   -5.303650   19.155520
  C     -9.506550   -4.768070   18.067270
  H      2.401710    6.455000    0.819380
  H      1.195630    6.842170    3.114540
  H     -3.356560    2.402990    4.176880
  H     -2.196790   -0.957960   -0.044490
  H     -3.537950    1.056160   -0.802760
  H     -3.226520   -1.109410   -2.723880
  H     -1.896680   -0.019830   -2.271140
  H     -4.544800    0.844650   -3.546010
  H     -2.990070    0.730000   -4.382660
  H     -3.222240    1.929050   -3.105970
  H     -5.898410   -2.172430   -0.415560
  H     -4.257020   -3.988340    0.925480
  H     -7.145390   -1.538500    4.101730
  H     -7.314400   -3.001040    1.413590
  H    -13.135490   -6.435470    2.715540
  H    -11.515440   -6.520700    1.986860
  H    -12.657390   -5.232480    1.500830
  H    -11.627750   -4.505790    5.916280
  H     -9.027020   -3.223920    6.929230
  H    -13.084490   -5.366860    7.397310
  H    -13.028050   -2.835080    7.065220
  H    -15.629270   -4.060050    7.537530
  H    -14.742270   -4.252030    6.008380
  H    -15.658720   -1.584310    7.202760
  H    -16.426670   -2.419410    5.845200
  H    -14.789800   -1.775660    5.677740
  H    -13.846270   -3.918200   10.981580
  H    -13.169920   -6.623980   10.859540
  H    -11.420940   -4.441950   12.807110
  H     -8.521150   -3.567420   12.300640
  H     -7.090830   -3.489020   14.488470
  H     -7.544150   -4.717220   20.793340
  H     -9.957070   -5.503770   21.451450

 Total Charge           Charge          ....    0
 Multiplicity           Mult            ....    1
 Number of Electrons    NEL             ....  514
 Basis Dimension        Dim             .... 1079

ORBITAL ENERGIES
----------------

  NO   OCC          E(Eh)            E(eV)
   0   2.0000     -88.970204     -2421.0023
   1   2.0000     -88.961776     -2420.7730
   2   2.0000     -88.960966     -2420.7510
   3   2.0000     -88.959618     -2420.7143
   4   2.0000     -88.951789     -2420.5012
   5   2.0000     -88.949627     -2420.4424
   6   2.0000     -88.948475     -2420.4110
   7   2.0000     -88.948258     -2420.4051
   8   2.0000     -24.804562      -674.9665
   9   2.0000     -24.797966      -674.7869
  10   2.0000     -24.796777      -674.7546
  11   2.0000     -19.300961      -525.2058
  12   2.0000     -19.259172      -524.0687
  13   2.0000     -19.220639      -523.0202
  14   2.0000     -19.217611      -522.9378
  15   2.0000     -19.211467      -522.7706
  16   2.0000     -19.208821      -522.6986
  17   2.0000     -14.387653      -391.5079
  18   2.0000     -14.382746      -391.3744
  19   2.0000     -10.524395      -286.3833
  20   2.0000     -10.371359      -282.2190
  21   2.0000     -10.361638      -281.9545
  22   2.0000     -10.353029      -281.7202
  23   2.0000     -10.350786      -281.6592
  24   2.0000     -10.347524      -281.5704
  25   2.0000     -10.343783      -281.4686
  26   2.0000     -10.328009      -281.0394
  27   2.0000     -10.323572      -280.9187
  28   2.0000     -10.318690      -280.7858
  29   2.0000     -10.317005      -280.7400
  30   2.0000     -10.310266      -280.5566
  31   2.0000     -10.309736      -280.5422
  32   2.0000     -10.306135      -280.4442
  33   2.0000     -10.305635      -280.4306
  34   2.0000     -10.302120      -280.3349
  35   2.0000     -10.301652      -280.3222
  36   2.0000     -10.300037      -280.2782
  37   2.0000     -10.298579      -280.2386
  38   2.0000     -10.298505      -280.2366
  39   2.0000     -10.297519      -280.2097
  40   2.0000     -10.296542      -280.1832
  41   2.0000     -10.295138      -280.1450
  42   2.0000     -10.291936      -280.0578
  43   2.0000     -10.291577      -280.0480
  44   2.0000     -10.291032      -280.0332
  45   2.0000     -10.290767      -280.0260
  46   2.0000     -10.289507      -279.9917
  47   2.0000     -10.284394      -279.8526
  48   2.0000     -10.283640      -279.8321
  49   2.0000     -10.282861      -279.8109
  50   2.0000     -10.281990      -279.7872
  51   2.0000     -10.279942      -279.7314
  52   2.0000     -10.278662      -279.6966
  53   2.0000     -10.277804      -279.6733
  54   2.0000     -10.275553      -279.6120
  55   2.0000     -10.275475      -279.6099
  56   2.0000     -10.275263      -279.6041
  57   2.0000     -10.275203      -279.6025
  58   2.0000     -10.274732      -279.5897
  59   2.0000     -10.267784      -279.4006
  60   2.0000     -10.263445      -279.2825
  61   2.0000     -10.248938      -278.8878
  62   2.0000     -10.245921      -278.8057
  63   2.0000      -8.064702      -219.4517
  64   2.0000      -8.057333      -219.2512
  65   2.0000      -8.056266      -219.2221
  66   2.0000      -8.054864      -219.1840
  67   2.0000      -8.047335      -218.9791
  68   2.0000      -8.044826      -218.9109
  69   2.0000      -8.043855      -218.8844
  70   2.0000      -8.043506      -218.8749
  71   2.0000      -6.034349      -164.2030
  72   2.0000      -6.030245      -164.0913
  73   2.0000      -6.026926      -164.0010
  74   2.0000      -6.026242      -163.9824
  75   2.0000      -6.025702      -163.9677
  76   2.0000      -6.024590      -163.9374
  77   2.0000      -6.022597      -163.8832
  78   2.0000      -6.021587      -163.8557
  79   2.0000      -6.020747      -163.8329
  80   2.0000      -6.019053      -163.7868
  81   2.0000      -6.018079      -163.7603
  82   2.0000      -6.016921      -163.7287
  83   2.0000      -6.015846      -163.6995
  84   2.0000      -6.014310      -163.6577
  85   2.0000      -6.013226      -163.6282
  86   2.0000      -6.013132      -163.6256
  87   2.0000      -6.012610      -163.6114
  88   2.0000      -6.010395      -163.5512
  89   2.0000      -6.009433      -163.5250
  90   2.0000      -6.009206      -163.5188
  91   2.0000      -6.009067      -163.5150
  92   2.0000      -6.006370      -163.4416
  93   2.0000      -6.005820      -163.4267
  94   2.0000      -6.004476      -163.3901
  95   2.0000      -1.390635       -37.8411
  96   2.0000      -1.294060       -35.2132
  97   2.0000      -1.287412       -35.0323
  98   2.0000      -1.222179       -33.2572
  99   2.0000      -1.160396       -31.5760
 100   2.0000      -1.159807       -31.5600
 101   2.0000      -1.149332       -31.2749
 102   2.0000      -1.091514       -29.7016
 103   2.0000      -1.081703       -29.4346
 104   2.0000      -1.020937       -27.7811
 105   2.0000      -1.007362       -27.4117
 106   2.0000      -0.995360       -27.0851
 107   2.0000      -0.982468       -26.7343
 108   2.0000      -0.982318       -26.7302
 109   2.0000      -0.975406       -26.5422
 110   2.0000      -0.974577       -26.5196
 111   2.0000      -0.966847       -26.3092
 112   2.0000      -0.929542       -25.2941
 113   2.0000      -0.924298       -25.1514
 114   2.0000      -0.919754       -25.0278
 115   2.0000      -0.916394       -24.9364
 116   2.0000      -0.899320       -24.4717
 117   2.0000      -0.883600       -24.0440
 118   2.0000      -0.870411       -23.6851
 119   2.0000      -0.862762       -23.4770
 120   2.0000      -0.851861       -23.1803
 121   2.0000      -0.849454       -23.1148
 122   2.0000      -0.842195       -22.9173
 123   2.0000      -0.838076       -22.8052
 124   2.0000      -0.833818       -22.6894
 125   2.0000      -0.826488       -22.4899
 126   2.0000      -0.822523       -22.3820
 127   2.0000      -0.822155       -22.3720
 128   2.0000      -0.809250       -22.0208
 129   2.0000      -0.795520       -21.6472
 130   2.0000      -0.788881       -21.4665
 131   2.0000      -0.788843       -21.4655
 132   2.0000      -0.782304       -21.2876
 133   2.0000      -0.776932       -21.1414
 134   2.0000      -0.772138       -21.0109
 135   2.0000      -0.767733       -20.8911
 136   2.0000      -0.749493       -20.3948
 137   2.0000      -0.734595       -19.9893
 138   2.0000      -0.716956       -19.5094
 139   2.0000      -0.712648       -19.3921
 140   2.0000      -0.707079       -19.2406
 141   2.0000      -0.700878       -19.0719
 142   2.0000      -0.697069       -18.9682
 143   2.0000      -0.688861       -18.7449
 144   2.0000      -0.686761       -18.6877
 145   2.0000      -0.676879       -18.4188
 146   2.0000      -0.674290       -18.3484
 147   2.0000      -0.672755       -18.3066
 148   2.0000      -0.664917       -18.0933
 149   2.0000      -0.659994       -17.9593
 150   2.0000      -0.654306       -17.8046
 151   2.0000      -0.650462       -17.7000
 152   2.0000      -0.642665       -17.4878
 153   2.0000      -0.638282       -17.3685
 154   2.0000      -0.635224       -17.2853
 155   2.0000      -0.634092       -17.2545
 156   2.0000      -0.623862       -16.9761
 157   2.0000      -0.620379       -16.8814
 158   2.0000      -0.617596       -16.8056
 159   2.0000      -0.609048       -16.5730
 160   2.0000      -0.601011       -16.3543
 161   2.0000      -0.596056       -16.2195
 162   2.0000      -0.592736       -16.1292
 163   2.0000      -0.589787       -16.0489
 164   2.0000      -0.585332       -15.9277
 165   2.0000      -0.579815       -15.7776
 166   2.0000      -0.577581       -15.7168
 167   2.0000      -0.574664       -15.6374
 168   2.0000      -0.565400       -15.3853
 169   2.0000      -0.563355       -15.3297
 170   2.0000      -0.560875       -15.2622
 171   2.0000      -0.553895       -15.0722
 172   2.0000      -0.552501       -15.0343
 173   2.0000      -0.548685       -14.9305
 174   2.0000      -0.546397       -14.8682
 175   2.0000      -0.544972       -14.8294
 176   2.0000      -0.543240       -14.7823
 177   2.0000      -0.543091       -14.7782
 178   2.0000      -0.539283       -14.6746
 179   2.0000      -0.537917       -14.6375
 180   2.0000      -0.534190       -14.5360
 181   2.0000      -0.529472       -14.4077
 182   2.0000      -0.527272       -14.3478
 183   2.0000      -0.519209       -14.1284
 184   2.0000      -0.518775       -14.1166
 185   2.0000      -0.518322       -14.1043
 186   2.0000      -0.508581       -13.8392
 187   2.0000      -0.507502       -13.8098
 188   2.0000      -0.506221       -13.7750
 189   2.0000      -0.505396       -13.7525
 190   2.0000      -0.505020       -13.7423
 191   2.0000      -0.503219       -13.6933
 192   2.0000      -0.501121       -13.6362
 193   2.0000      -0.495818       -13.4919
 194   2.0000      -0.490069       -13.3355
 195   2.0000      -0.487397       -13.2628
 196   2.0000      -0.485659       -13.2155
 197   2.0000      -0.480621       -13.0784
 198   2.0000      -0.476721       -12.9722
 199   2.0000      -0.473862       -12.8944
 200   2.0000      -0.473002       -12.8711
 201   2.0000      -0.471435       -12.8284
 202   2.0000      -0.468883       -12.7590
 203   2.0000      -0.465487       -12.6665
 204   2.0000      -0.461921       -12.5695
 205   2.0000      -0.460109       -12.5202
 206   2.0000      -0.458001       -12.4628
 207   2.0000      -0.456758       -12.4290
 208   2.0000      -0.454888       -12.3781
 209   2.0000      -0.453347       -12.3362
 210   2.0000      -0.452178       -12.3044
 211   2.0000      -0.447341       -12.1728
 212   2.0000      -0.446124       -12.1397
 213   2.0000      -0.445551       -12.1240
 214   2.0000      -0.441705       -12.0194
 215   2.0000      -0.439107       -11.9487
 216   2.0000      -0.436919       -11.8892
 217   2.0000      -0.435213       -11.8428
 218   2.0000      -0.433787       -11.8039
 219   2.0000      -0.431073       -11.7301
 220   2.0000      -0.425930       -11.5902
 221   2.0000      -0.425052       -11.5663
 222   2.0000      -0.420866       -11.4523
 223   2.0000      -0.417942       -11.3728
 224   2.0000      -0.415942       -11.3184
 225   2.0000      -0.415514       -11.3067
 226   2.0000      -0.412770       -11.2320
 227   2.0000      -0.411642       -11.2014
 228   2.0000      -0.411597       -11.2001
 229   2.0000      -0.410082       -11.1589
 230   2.0000      -0.408215       -11.1081
 231   2.0000      -0.399010       -10.8576
 232   2.0000      -0.398298       -10.8382
 233   2.0000      -0.395974       -10.7750
 234   2.0000      -0.389030       -10.5860
 235   2.0000      -0.387760       -10.5515
 236   2.0000      -0.375722       -10.2239
 237   2.0000      -0.373146       -10.1538
 238   2.0000      -0.366404        -9.9704
 239   2.0000      -0.362397        -9.8613
 240   2.0000      -0.344679        -9.3792
 241   2.0000      -0.340675        -9.2702
 242   2.0000      -0.340005        -9.2520
 243   2.0000      -0.336797        -9.1647
 244   2.0000      -0.332740        -9.0543
 245   2.0000      -0.322919        -8.7871
 246   2.0000      -0.322262        -8.7692
 247   2.0000      -0.312935        -8.5154
 248   2.0000      -0.311036        -8.4637
 249   2.0000      -0.301913        -8.2155
 250   2.0000      -0.295995        -8.0544
 251   2.0000      -0.292755        -7.9663
 252   2.0000      -0.286149        -7.7865
 253   2.0000      -0.274628        -7.4730
 254   2.0000      -0.261593        -7.1183
 255   2.0000      -0.241448        -6.5701
 256   2.0000      -0.216768        -5.8986
 257   0.0000      -0.066811        -1.8180
 258   0.0000      -0.043679        -1.1886
 259   0.0000      -0.017491        -0.4759
 260   0.0000       0.002620         0.0713
 261   0.0000       0.028690         0.7807

MULLIKEN ATOMIC CHARGES
-----------------------
   0 C :   -0.077681
   1 S :    0.141269
   2 C :   -0.095575
   3 C :   -0.059129
   4 C :    0.022004
   5 S :    0.152451
   6 C :   -0.019117
   7 C :   -0.069245
   8 C :   -0.057046
   9 S :    0.112479
  10 C :   -0.069855
  11 C :   -0.106426
  12 S :    0.128385
  13 C :   -0.040651
  14 C :    0.286706
  15 N :   -0.265894
  16 C :    0.089537
  17 C :    0.017146
  18 O :   -0.360398
  19 C :    0.454804
  20 O :   -0.270617
  21 C :   -0.097757
  22 C :   -0.146245
  23 C :    0.053635
  24 C :   -0.041531
  25 C :    0.126637
  26 O :   -0.195483
  27 C :    0.091875
  28 C :    0.157375
  29 C :   -0.164561
  30 C :    0.514635
  31 F :   -0.143170
  32 F :   -0.165944
  33 F :   -0.168582
  34 O :   -0.306227
  35 C :    0.180366
  36 C :   -0.049882
  37 C :    0.051939
  38 C :   -0.150022
  39 S :    0.107665
  40 C :   -0.013103
  41 C :    0.286425
  42 N :   -0.258461
  43 C :    0.087510
  44 C :    0.014197
  45 O :   -0.366040
  46 C :    0.446036
  47 O :   -0.271124
  48 C :   -0.092141
  49 C :   -0.124193
  50 C :   -0.015988
  51 C :    0.012066
  52 C :   -0.041454
  53 S :    0.131099
  54 C :   -0.073768
  55 C :   -0.027254
  56 C :   -0.045184
  57 S :    0.140661
  58 C :   -0.057476
  59 C :    0.019741
  60 C :   -0.080675
  61 S :    0.139338
  62 C :   -0.096430
  63 H :    0.030984
  64 H :   -0.007779
  65 H :   -0.005964
  66 H :   -0.006165
  67 H :    0.098621
  68 H :    0.014933
  69 H :   -0.017211
  70 H :    0.022211
  71 H :    0.012126
  72 H :    0.006056
  73 H :    0.016709
  74 H :    0.168343
  75 H :   -0.011094
  76 H :    0.013096
  77 H :    0.035757
  78 H :    0.030468
  79 H :    0.038423
  80 H :   -0.004122
  81 H :   -0.017478
  82 H :   -0.004331
  83 H :    0.101463
  84 H :    0.015364
  85 H :   -0.016843
  86 H :    0.022395
  87 H :    0.011341
  88 H :    0.007372
  89 H :    0.008516
  90 H :    0.164089
  91 H :    0.004689
  92 H :   -0.011427
  93 H :   -0.018990
  94 H :   -0.010729
  95 H :    0.027526
Sum of atomic charges:    0.0000000

LOEWDIN ATOMIC CHARGES
----------------------
   0 C :   -0.173629
   1 S :    0.424032
   2 C :   -0.224159
   3 C :   -0.197368
   4 C :   -0.071597
   5 S :    0.406470
   6 C :   -0.192092
   7 C :   -0.068908
   8 C :   -0.174780
   9 S :    0.429610
  10 C :   -0.217518
  11 C :   -0.183212
  12 S :    0.432782
  13 C :   -0.073708
  14 C :    0.104349
  15 N :   -0.113840
  16 C :    0.020527
  17 C :   -0.060395
  18 O :   -0.163197
  19 C :    0.142664
  20 O :   -0.103386
  21 C :   -0.078770
  22 C :   -0.162994
  23 C :   -0.023482
  24 C :   -0.038078
  25 C :    0.061227
  26 O :    0.027844
  27 C :   -0.006963
  28 C :    0.029439
  29 C :   -0.160874
  30 C :    0.174913
  31 F :   -0.041722
  32 F :   -0.067234
  33 F :   -0.066328
  34 O :   -0.095793
  35 C :    0.076185
  36 C :   -0.040196
  37 C :   -0.045695
  38 C :   -0.167114
  39 S :    0.419938
  40 C :   -0.072853
  41 C :    0.109609
  42 N :   -0.110171
  43 C :    0.020077
  44 C :   -0.061029
  45 O :   -0.168996
  46 C :    0.144629
  47 O :   -0.109058
  48 C :   -0.083494
  49 C :   -0.162544
  50 C :   -0.045886
  51 C :   -0.042518
  52 C :   -0.158174
  53 S :    0.422121
  54 C :   -0.215338
  55 C :   -0.196766
  56 C :   -0.066505
  57 S :    0.397107
  58 C :   -0.198492
  59 C :   -0.073559
  60 C :   -0.176928
  61 S :    0.423243
  62 C :   -0.223229
  63 H :    0.025039
  64 H :    0.034840
  65 H :    0.031351
  66 H :   -0.000712
  67 H :    0.040249
  68 H :    0.021685
  69 H :   -0.001128
  70 H :    0.027279
  71 H :    0.026841
  72 H :    0.019835
  73 H :    0.018617
  74 H :    0.080304
  75 H :    0.030246
  76 H :    0.035169
  77 H :    0.029143
  78 H :    0.017073
  79 H :    0.016501
  80 H :    0.036287
  81 H :    0.029075
  82 H :   -0.000803
  83 H :    0.056813
  84 H :    0.021913
  85 H :   -0.001482
  86 H :    0.027166
  87 H :    0.026324
  88 H :    0.020012
  89 H :    0.018307
  90 H :    0.077284
  91 H :    0.031159
  92 H :    0.028498
  93 H :    0.032115
  94 H :    0.033370
  95 H :    0.023434

  Mayer bond orders larger than 0.100000
B(  0-C ,  1-S ) :   1.1402 B(  0-C ,  4-C ) :   1.5951 B(  0-C , 63-H ) :   0.9686
B(  1-S ,  2-C ) :   1.0795 B(  2-C ,  3-C ) :   1.4767 B(  2-C , 10-C ) :   1.2961
B(  3-C ,  4-C ) :   1.2581 B(  3-C ,  5-S ) :   1.0553 B(  4-C , 64-H ) :   1.0008
B(  5-S ,  6-C ) :   1.0544 B(  6-C ,  7-C ) :   1.2515 B(  6-C , 10-C ) :   1.4750
B(  7-C ,  8-C ) :   1.5183 B(  7-C , 65-H ) :   0.9982 B(  8-C ,  9-S ) :   1.0861
B(  8-C , 11-C ) :   1.1627 B(  9-S , 10-C ) :   1.0683 B( 11-C , 12-S ) :   1.1176
B( 11-C , 13-C ) :   1.5066 B( 12-S , 22-C ) :   1.0998 B( 13-C , 14-C ) :   0.9618
B( 13-C , 21-C ) :   1.3665 B( 14-C , 15-N ) :   1.0568 B( 14-C , 18-O ) :   1.0275
B( 14-C , 66-H ) :   0.8930 B( 15-N , 16-C ) :   0.9957 B( 15-N , 67-H ) :   0.9413
B( 16-C , 17-C ) :   1.0976 B( 16-C , 68-H ) :   0.9489 B( 16-C , 69-H ) :   0.9399
B( 17-C , 70-H ) :   0.9694 B( 17-C , 71-H ) :   0.9641 B( 17-C , 72-H ) :   0.9712
B( 18-O , 19-C ) :   1.0163 B( 19-C , 20-O ) :   1.1074 B( 19-C , 21-C ) :   0.9267
B( 19-C , 73-H ) :   0.8952 B( 20-O , 74-H ) :   0.9668 B( 21-C , 22-C ) :   1.5151
B( 22-C , 23-C ) :   1.1185 B( 23-C , 24-C ) :   1.6618 B( 23-C , 75-H ) :   0.9667
B( 24-C , 25-C ) :   1.1812 B( 24-C , 76-H ) :   0.9423 B( 25-C , 26-O ) :   1.1832
B( 25-C , 27-C ) :   0.1112 B( 25-C , 29-C ) :   1.3979 B( 26-O , 27-C ) :   1.1168
B( 27-C , 28-C ) :   1.3946 B( 27-C , 36-C ) :   1.1917 B( 28-C , 29-C ) :   1.2268
B( 28-C , 34-O ) :   1.2146 B( 29-C , 30-C ) :   0.9484 B( 30-C , 31-F ) :   1.1559
B( 30-C , 32-F ) :   1.1552 B( 30-C , 33-F ) :   1.1492 B( 34-O , 35-C ) :   0.9259
B( 35-C , 77-H ) :   0.9776 B( 35-C , 78-H ) :   0.9654 B( 35-C , 79-H ) :   0.9661
B( 36-C , 37-C ) :   1.6128 B( 36-C , 80-H ) :   0.9490 B( 37-C , 38-C ) :   1.1283
B( 37-C , 81-H ) :   0.9665 B( 38-C , 39-S ) :   1.0966 B( 38-C , 40-C ) :   1.4902
B( 39-S , 49-C ) :   1.0990 B( 40-C , 41-C ) :   0.9669 B( 40-C , 48-C ) :   1.3699
B( 41-C , 42-N ) :   1.0731 B( 41-C , 45-O ) :   1.0243 B( 41-C , 82-H ) :   0.8873
B( 42-N , 43-C ) :   1.0001 B( 42-N , 83-H ) :   0.9417 B( 43-C , 44-C ) :   1.1003
B( 43-C , 84-H ) :   0.9483 B( 43-C , 85-H ) :   0.9396 B( 44-C , 86-H ) :   0.9691
B( 44-C , 87-H ) :   0.9640 B( 44-C , 88-H ) :   0.9706 B( 45-O , 46-C ) :   1.0189
B( 46-C , 47-O ) :   1.1085 B( 46-C , 48-C ) :   0.9340 B( 46-C , 89-H ) :   0.9052
B( 47-O , 90-H ) :   0.9688 B( 48-C , 49-C ) :   1.4975 B( 49-C , 50-C ) :   1.1836
B( 50-C , 51-C ) :   1.6315 B( 50-C , 91-H ) :   0.9648 B( 51-C , 52-C ) :   1.1667
B( 51-C , 92-H ) :   0.9771 B( 52-C , 53-S ) :   1.0840 B( 52-C , 56-C ) :   1.4990
B( 53-S , 54-C ) :   1.0707 B( 54-C , 55-C ) :   1.4763 B( 54-C , 62-C ) :   1.3035
B( 55-C , 56-C ) :   1.2449 B( 55-C , 57-S ) :   1.0489 B( 56-C , 93-H ) :   1.0078
B( 57-S , 58-C ) :   1.0544 B( 58-C , 59-C ) :   1.2569 B( 58-C , 62-C ) :   1.4773
B( 59-C , 60-C ) :   1.5943 B( 59-C , 94-H ) :   1.0012 B( 60-C , 61-S ) :   1.1411
B( 60-C , 95-H ) :   0.9685 B( 61-S , 62-C ) :   1.0792

-----------------------------------------------------------------------------
         ABSORPTION SPECTRUM VIA TRANSITION ELECTRIC DIPOLE MOMENTS
-----------------------------------------------------------------------------
State   Energy  Wavelength   fosc         T2         TX        TY        TZ
        (cm-1)    (nm)                  (au**2)     (au)      (au)      (au)
-----------------------------------------------------------------------------
   0   18452.9    541.9   1.697674199  30.28765   2.28553   2.05673  -4.56441
   1   24481.4    408.5   1.672062567  22.48498  -2.85796  -1.76744  -3.34562
   2   25295.0    395.3   0.251901813   3.27848   1.36709   1.18722   0.00776
   3   29101.1    343.6   0.169351555   1.91582  -0.63647  -1.20853   0.22403
   4   30562.7    327.2   0.152476446   1.64243   0.26469   1.09436  -0.61217
   5   32477.8    307.9   0.043490615   0.44084  -0.28234  -0.13224   0.58621
   6   33076.3    302.3   0.002783789   0.02771   0.14353   0.01876  -0.08219
   7   33234.9    300.9   0.044633284   0.44212  -0.09286   0.32603   0.57202
   8   33265.2    300.6   0.092475393   0.91519  -0.87295  -0.14885  -0.36194
   9   33748.8    296.3   0.005631729   0.05494   0.21495  -0.02632   0.08967
  10   35114.2    284.8   0.029304460   0.27474   0.10061   0.34849   0.37839
  11   35222.2    283.9   0.032388036   0.30272   0.30294  -0.07647  -0.45288
  12   37554.5    266.3   0.017608546   0.15436  -0.29876  -0.18685  -0.17375
  13   37825.8    264.4   0.124491315   1.08349  -0.67015  -0.51323  -0.60909
  14   38561.0    259.3   0.034270461   0.29258   0.33722   0.28833  -0.30940
  15   39147.0    255.4   0.118996377   1.00072   0.86709   0.24380   0.43524
  16   39550.3    252.8   0.080637042   0.67121   0.77481   0.16648   0.20778

FINAL SINGLE POINT ENERGY     -5738.333418812803

DIPOLE MOMENT
-------------
                                X             Y             Z
Electronic contribution:     28.01949       1.06241      27.42316
Nuclear contribution   :    -26.34690      -0.11339     -27.91620
                        -----------------------------------------
Total Dipole Moment    :      1.67260       0.94902      -0.49304
                        -----------------------------------------
Magnitude (a.u.)       :      1.98527
Magnitude (Debye)      :      5.04616

Rotational constants in cm-1:     0.000939     0.000300     0.000237
Rotational constants in MHz :    28.160086     8.995473     7.098618

                             ****ORCA TERMINATED NORMALLY****
TOTAL RUN TIME: 0 days 0 hours 7 minutes 46 seconds 944 msec
