                         Program Version 4.2.0 -  RELEASE  -
|  1> # ORCA input file
|  2> # SCF done       -149.863889732526          0.000470643271
|  3> ! CAM-B3LYP def2-SVP def2/J RIJCOSX Grid4 TightSCF
|  4> %maxcore 5000
|  5> %tddft
|  6>     Mode sTDDFT
|  7>     Ethresh 5.0
|  8>     maxcore 5000
|  9> end
| 10>
| 11> %pal
| 12>   nprocs 6
| 13>   end
| 14> * xyz 0 1
| 15>    C        2.41424        -3.77439        -6.11019
| 16>    C        1.62942        -3.51796        -5.00941
| 17>    C        0.26111        -3.91995        -5.20894
| 18>    N       -0.67262        -3.79646        -4.24679
| 19>    C       -0.31936        -3.25806        -3.11878
| 20>    C        0.98297        -2.77697        -2.83828
| 21>    C        1.96535        -2.91614        -3.77308
| 22>    C        0.04148        -4.47129        -6.47639
| 23>    S        1.52424        -4.50796        -7.36953
| 24>    C       -1.14076        -5.06130        -7.00850
| 25>    C       -1.18864        -6.09957        -7.89676
| 26>    C       -2.55539        -6.53534        -8.01187
| 27>    C       -2.99506        -7.55638        -8.86211
| 28>    N       -3.35209        -8.40034        -9.55468
| 29>    C       -3.34183        -5.79100        -7.15956
| 30>    C       -2.51850        -4.80469        -6.54395
| 31>    C       -2.93191        -3.71272        -5.81155
| 32>    C       -4.17536        -3.57717        -5.02005
| 33>    C       -4.22843        -2.27673        -4.57264
| 34>    C       -3.07815        -1.57486        -5.05910
| 35>    C       -2.28687        -2.44278        -5.78020
| 36>    C       -2.80704        -0.22339        -4.81337
| 37>    N       -2.58714         0.88301        -4.59658
| 38>    C       -5.03514        -4.64900        -4.68729
| 39>    C       -6.22490        -4.51287        -4.03384
| 40>    C       -7.09791        -5.57210        -3.71373
| 41>    N       -8.28917        -5.32863        -3.05903
| 42>    C       -8.94596        -6.50550        -2.89176
| 43>    C      -10.09480        -7.08537        -2.38903
| 44>    C       -9.98801        -8.46715        -2.65540
| 45>    N       -8.79360        -8.71215        -3.30217
| 46>    C       -8.13686        -7.53307        -3.46286
| 47>    C       -6.98816        -6.95415        -3.97193
| 48>    C      -10.94929        -9.44475        -2.33872
| 49>    C      -10.87238       -10.77646        -2.63682
| 50>    C      -11.87696       -11.71879        -2.32908
| 51>    C      -12.95224       -11.55919        -1.47905
| 52>    C      -13.62153       -12.80986        -1.35425
| 53>    C      -14.76684       -13.03881        -0.58273
| 54>    N      -15.69580       -13.23649         0.06348
| 55>    C      -12.95078       -13.76714        -2.10207
| 56>    C      -11.86603       -13.13932        -2.75674
| 57>    C      -11.02289       -13.72416        -3.68842
| 58>    C      -10.73816       -15.17532        -3.81547
| 59>    C       -9.99436       -15.34548        -4.95815
| 60>    C       -9.78618       -14.06442        -5.55838
| 61>    C      -10.37478       -13.08671        -4.77303
| 62>    C       -9.08706       -13.84065        -6.74973
| 63>    N       -8.50246       -13.64925        -7.72001
| 64>    C      -11.06176       -16.13558        -2.82412
| 65>    C      -10.94048       -17.48101        -2.99150
| 66>    C      -11.26268       -18.49410        -2.06076
| 67>    C      -11.93211       -18.49817        -0.82617
| 68>    C      -11.98639       -19.81603        -0.24350
| 69>    N      -12.56897       -20.08921         0.94187
| 70>    C      -13.12807       -19.09911         1.57136
| 71>    C      -13.17459       -17.77502         1.08218
| 72>    C      -12.58017       -17.47050        -0.11265
| 73>    C      -11.38479       -20.77775        -1.03418
| 74>    S      -10.76363       -20.11640        -2.46708
| 75>    H        3.45360        -3.55304        -6.24812
| 76>    H       -1.09586        -3.18671        -2.36833
| 77>    H        1.18087        -2.32043        -1.88149
| 78>    H        2.97809        -2.58522        -3.59531
| 79>    H       -0.35697        -6.55471        -8.40174
| 80>    H       -4.41172        -5.84606        -7.09665
| 81>    H       -4.97363        -1.83369        -3.93915
| 82>    H       -1.40046        -2.17813        -6.32329
| 83>    H       -4.71173        -5.64036        -4.96420
| 84>    H       -6.55699        -3.52317        -3.74936
| 85>    H       -8.60220        -4.41859        -2.76772
| 86>    H      -10.92159        -6.61643        -1.89487
| 87>    H       -8.47892        -9.61516        -3.61089
| 88>    H       -6.17103        -7.43496        -4.46958
| 89>    H      -11.83247        -9.07075        -1.84228
| 90>    H       -9.99289       -11.15430        -3.13833
| 91>    H      -13.24150       -10.66722        -0.95693
| 92>    H      -13.29399       -14.77054        -2.26741
| 93>    H       -9.58609       -16.26109        -5.34131
| 94>    H      -10.44921       -12.04891        -5.03700
| 95>    H      -11.39465       -15.74693        -1.87600
| 96>    H      -10.55217       -17.84543        -3.93391
| 97>    H      -13.58759       -19.34229         2.52047
| 98>    H      -13.68692       -17.01491         1.65048
| 99>    H      -12.62924       -16.46410        -0.49529
|100>    H      -11.29210       -21.82306        -0.82127
|101> *
|102>
|103>                          ****END OF INPUT****

CARTESIAN COORDINATES (ANGSTROEM)
---------------------------------
  C      2.414240   -3.774390   -6.110190
  C      1.629420   -3.517960   -5.009410
  C      0.261110   -3.919950   -5.208940
  N     -0.672620   -3.796460   -4.246790
  C     -0.319360   -3.258060   -3.118780
  C      0.982970   -2.776970   -2.838280
  C      1.965350   -2.916140   -3.773080
  C      0.041480   -4.471290   -6.476390
  S      1.524240   -4.507960   -7.369530
  C     -1.140760   -5.061300   -7.008500
  C     -1.188640   -6.099570   -7.896760
  C     -2.555390   -6.535340   -8.011870
  C     -2.995060   -7.556380   -8.862110
  N     -3.352090   -8.400340   -9.554680
  C     -3.341830   -5.791000   -7.159560
  C     -2.518500   -4.804690   -6.543950
  C     -2.931910   -3.712720   -5.811550
  C     -4.175360   -3.577170   -5.020050
  C     -4.228430   -2.276730   -4.572640
  C     -3.078150   -1.574860   -5.059100
  C     -2.286870   -2.442780   -5.780200
  C     -2.807040   -0.223390   -4.813370
  N     -2.587140    0.883010   -4.596580
  C     -5.035140   -4.649000   -4.687290
  C     -6.224900   -4.512870   -4.033840
  C     -7.097910   -5.572100   -3.713730
  N     -8.289170   -5.328630   -3.059030
  C     -8.945960   -6.505500   -2.891760
  C    -10.094800   -7.085370   -2.389030
  C     -9.988010   -8.467150   -2.655400
  N     -8.793600   -8.712150   -3.302170
  C     -8.136860   -7.533070   -3.462860
  C     -6.988160   -6.954150   -3.971930
  C    -10.949290   -9.444750   -2.338720
  C    -10.872380  -10.776460   -2.636820
  C    -11.876960  -11.718790   -2.329080
  C    -12.952240  -11.559190   -1.479050
  C    -13.621530  -12.809860   -1.354250
  C    -14.766840  -13.038810   -0.582730
  N    -15.695800  -13.236490    0.063480
  C    -12.950780  -13.767140   -2.102070
  C    -11.866030  -13.139320   -2.756740
  C    -11.022890  -13.724160   -3.688420
  C    -10.738160  -15.175320   -3.815470
  C     -9.994360  -15.345480   -4.958150
  C     -9.786180  -14.064420   -5.558380
  C    -10.374780  -13.086710   -4.773030
  C     -9.087060  -13.840650   -6.749730
  N     -8.502460  -13.649250   -7.720010
  C    -11.061760  -16.135580   -2.824120
  C    -10.940480  -17.481010   -2.991500
  C    -11.262680  -18.494100   -2.060760
  C    -11.932110  -18.498170   -0.826170
  C    -11.986390  -19.816030   -0.243500
  N    -12.568970  -20.089210    0.941870
  C    -13.128070  -19.099110    1.571360
  C    -13.174590  -17.775020    1.082180
  C    -12.580170  -17.470500   -0.112650
  C    -11.384790  -20.777750   -1.034180
  S    -10.763630  -20.116400   -2.467080
  H      3.453600   -3.553040   -6.248120
  H     -1.095860   -3.186710   -2.368330
  H      1.180870   -2.320430   -1.881490
  H      2.978090   -2.585220   -3.595310
  H     -0.356970   -6.554710   -8.401740
  H     -4.411720   -5.846060   -7.096650
  H     -4.973630   -1.833690   -3.939150
  H     -1.400460   -2.178130   -6.323290
  H     -4.711730   -5.640360   -4.964200
  H     -6.556990   -3.523170   -3.749360
  H     -8.602200   -4.418590   -2.767720
  H    -10.921590   -6.616430   -1.894870
  H     -8.478920   -9.615160   -3.610890
  H     -6.171030   -7.434960   -4.469580
  H    -11.832470   -9.070750   -1.842280
  H     -9.992890  -11.154300   -3.138330
  H    -13.241500  -10.667220   -0.956930
  H    -13.293990  -14.770540   -2.267410
  H     -9.586090  -16.261090   -5.341310
  H    -10.449210  -12.048910   -5.037000
  H    -11.394650  -15.746930   -1.876000
  H    -10.552170  -17.845430   -3.933910
  H    -13.587590  -19.342290    2.520470
  H    -13.686920  -17.014910    1.650480
  H    -12.629240  -16.464100   -0.495290
  H    -11.292100  -21.823060   -0.821270

 Total Charge           Charge          ....    0
 Multiplicity           Mult            ....    1
 Number of Electrons    NEL             ....  414
 Basis Dimension        Dim             ....  978

ORBITAL ENERGIES
----------------

  NO   OCC          E(Eh)            E(eV)
   0   2.0000     -88.982807     -2421.3453
   1   2.0000     -88.973846     -2421.1014
   2   2.0000     -14.471761      -393.7966
   3   2.0000     -14.468902      -393.7189
   4   2.0000     -14.416722      -392.2989
   5   2.0000     -14.408594      -392.0778
   6   2.0000     -14.407408      -392.0455
   7   2.0000     -14.405573      -391.9956
   8   2.0000     -14.405507      -391.9938
   9   2.0000     -14.401127      -391.8746
  10   2.0000     -10.322748      -280.8963
  11   2.0000     -10.321719      -280.8682
  12   2.0000     -10.319498      -280.8078
  13   2.0000     -10.318649      -280.7847
  14   2.0000     -10.317749      -280.7602
  15   2.0000     -10.316692      -280.7315
  16   2.0000     -10.316004      -280.7127
  17   2.0000     -10.315510      -280.6993
  18   2.0000     -10.314296      -280.6663
  19   2.0000     -10.314227      -280.6644
  20   2.0000     -10.313514      -280.6450
  21   2.0000     -10.313444      -280.6431
  22   2.0000     -10.311875      -280.6004
  23   2.0000     -10.311753      -280.5971
  24   2.0000     -10.310805      -280.5713
  25   2.0000     -10.310346      -280.5588
  26   2.0000     -10.307892      -280.4920
  27   2.0000     -10.306799      -280.4623
  28   2.0000     -10.306575      -280.4562
  29   2.0000     -10.304876      -280.4099
  30   2.0000     -10.304627      -280.4032
  31   2.0000     -10.304288      -280.3939
  32   2.0000     -10.303812      -280.3810
  33   2.0000     -10.303238      -280.3654
  34   2.0000     -10.300305      -280.2855
  35   2.0000     -10.297376      -280.2058
  36   2.0000     -10.295905      -280.1658
  37   2.0000     -10.295487      -280.1544
  38   2.0000     -10.294686      -280.1326
  39   2.0000     -10.293979      -280.1134
  40   2.0000     -10.293601      -280.1031
  41   2.0000     -10.293594      -280.1029
  42   2.0000     -10.292400      -280.0704
  43   2.0000     -10.291576      -280.0480
  44   2.0000     -10.290890      -280.0293
  45   2.0000     -10.290227      -280.0113
  46   2.0000     -10.288744      -279.9710
  47   2.0000     -10.288657      -279.9686
  48   2.0000     -10.288585      -279.9666
  49   2.0000     -10.288447      -279.9629
  50   2.0000     -10.287990      -279.9504
  51   2.0000     -10.286831      -279.9189
  52   2.0000     -10.283515      -279.8287
  53   2.0000     -10.282330      -279.7964
  54   2.0000     -10.281412      -279.7714
  55   2.0000     -10.280156      -279.7373
  56   2.0000     -10.278794      -279.7002
  57   2.0000     -10.278424      -279.6901
  58   2.0000     -10.276538      -279.6388
  59   2.0000     -10.275653      -279.6147
  60   2.0000      -8.077869      -219.8100
  61   2.0000      -8.069112      -219.5717
  62   2.0000      -6.046800      -164.5418
  63   2.0000      -6.042496      -164.4247
  64   2.0000      -6.040994      -164.3838
  65   2.0000      -6.037832      -164.2978
  66   2.0000      -6.033753      -164.1868
  67   2.0000      -6.032465      -164.1517
  68   2.0000      -1.102987       -30.0138
  69   2.0000      -1.066420       -29.0188
  70   2.0000      -1.056217       -28.7411
  71   2.0000      -1.040473       -28.3127
  72   2.0000      -1.009085       -27.4586
  73   2.0000      -1.005092       -27.3499
  74   2.0000      -0.997986       -27.1566
  75   2.0000      -0.995274       -27.0828
  76   2.0000      -0.987191       -26.8628
  77   2.0000      -0.983627       -26.7658
  78   2.0000      -0.983247       -26.7555
  79   2.0000      -0.978206       -26.6184
  80   2.0000      -0.970616       -26.4118
  81   2.0000      -0.969912       -26.3926
  82   2.0000      -0.913688       -24.8627
  83   2.0000      -0.910965       -24.7886
  84   2.0000      -0.909872       -24.7589
  85   2.0000      -0.905015       -24.6267
  86   2.0000      -0.890974       -24.2446
  87   2.0000      -0.881234       -23.9796
  88   2.0000      -0.876072       -23.8391
  89   2.0000      -0.874289       -23.7906
  90   2.0000      -0.869253       -23.6536
  91   2.0000      -0.859644       -23.3921
  92   2.0000      -0.849147       -23.1065
  93   2.0000      -0.843667       -22.9573
  94   2.0000      -0.839218       -22.8363
  95   2.0000      -0.832100       -22.6426
  96   2.0000      -0.818618       -22.2757
  97   2.0000      -0.799542       -21.7566
  98   2.0000      -0.795307       -21.6414
  99   2.0000      -0.794080       -21.6080
 100   2.0000      -0.783917       -21.3315
 101   2.0000      -0.777483       -21.1564
 102   2.0000      -0.749835       -20.4040
 103   2.0000      -0.736519       -20.0417
 104   2.0000      -0.731425       -19.9031
 105   2.0000      -0.724876       -19.7249
 106   2.0000      -0.719872       -19.5887
 107   2.0000      -0.716070       -19.4853
 108   2.0000      -0.711455       -19.3597
 109   2.0000      -0.707768       -19.2594
 110   2.0000      -0.705690       -19.2028
 111   2.0000      -0.702947       -19.1282
 112   2.0000      -0.694323       -18.8935
 113   2.0000      -0.683084       -18.5877
 114   2.0000      -0.675163       -18.3721
 115   2.0000      -0.665100       -18.0983
 116   2.0000      -0.656360       -17.8605
 117   2.0000      -0.644322       -17.5329
 118   2.0000      -0.640728       -17.4351
 119   2.0000      -0.635353       -17.2888
 120   2.0000      -0.630916       -17.1681
 121   2.0000      -0.629635       -17.1332
 122   2.0000      -0.622835       -16.9482
 123   2.0000      -0.617012       -16.7898
 124   2.0000      -0.606507       -16.5039
 125   2.0000      -0.598411       -16.2836
 126   2.0000      -0.592447       -16.1213
 127   2.0000      -0.589658       -16.0454
 128   2.0000      -0.585300       -15.9268
 129   2.0000      -0.576705       -15.6929
 130   2.0000      -0.573945       -15.6178
 131   2.0000      -0.571648       -15.5553
 132   2.0000      -0.564977       -15.3738
 133   2.0000      -0.561033       -15.2665
 134   2.0000      -0.559420       -15.2226
 135   2.0000      -0.547767       -14.9055
 136   2.0000      -0.546650       -14.8751
 137   2.0000      -0.538419       -14.6511
 138   2.0000      -0.530363       -14.4319
 139   2.0000      -0.529450       -14.4071
 140   2.0000      -0.527716       -14.3599
 141   2.0000      -0.524104       -14.2616
 142   2.0000      -0.519672       -14.1410
 143   2.0000      -0.518765       -14.1163
 144   2.0000      -0.513988       -13.9863
 145   2.0000      -0.511922       -13.9301
 146   2.0000      -0.510170       -13.8824
 147   2.0000      -0.508341       -13.8327
 148   2.0000      -0.507053       -13.7976
 149   2.0000      -0.502130       -13.6636
 150   2.0000      -0.499852       -13.6017
 151   2.0000      -0.497852       -13.5472
 152   2.0000      -0.495815       -13.4918
 153   2.0000      -0.494838       -13.4652
 154   2.0000      -0.492016       -13.3884
 155   2.0000      -0.491115       -13.3639
 156   2.0000      -0.488513       -13.2931
 157   2.0000      -0.487303       -13.2602
 158   2.0000      -0.484258       -13.1773
 159   2.0000      -0.483798       -13.1648
 160   2.0000      -0.482357       -13.1256
 161   2.0000      -0.479604       -13.0507
 162   2.0000      -0.473761       -12.8917
 163   2.0000      -0.468167       -12.7395
 164   2.0000      -0.466484       -12.6937
 165   2.0000      -0.458322       -12.4716
 166   2.0000      -0.458239       -12.4693
 167   2.0000      -0.454539       -12.3686
 168   2.0000      -0.448749       -12.2111
 169   2.0000      -0.447892       -12.1878
 170   2.0000      -0.446738       -12.1564
 171   2.0000      -0.446232       -12.1426
 172   2.0000      -0.438631       -11.9358
 173   2.0000      -0.438204       -11.9241
 174   2.0000      -0.436792       -11.8857
 175   2.0000      -0.436402       -11.8751
 176   2.0000      -0.435388       -11.8475
 177   2.0000      -0.434382       -11.8201
 178   2.0000      -0.432339       -11.7646
 179   2.0000      -0.431274       -11.7356
 180   2.0000      -0.426486       -11.6053
 181   2.0000      -0.422474       -11.4961
 182   2.0000      -0.420576       -11.4444
 183   2.0000      -0.407585       -11.0910
 184   2.0000      -0.406933       -11.0732
 185   2.0000      -0.404405       -11.0044
 186   2.0000      -0.402510       -10.9529
 187   2.0000      -0.401235       -10.9182
 188   2.0000      -0.397430       -10.8146
 189   2.0000      -0.389957       -10.6113
 190   2.0000      -0.385514       -10.4904
 191   2.0000      -0.367292        -9.9945
 192   2.0000      -0.357822        -9.7368
 193   2.0000      -0.344077        -9.3628
 194   2.0000      -0.334344        -9.0980
 195   2.0000      -0.331409        -9.0181
 196   2.0000      -0.327688        -8.9168
 197   2.0000      -0.322124        -8.7654
 198   2.0000      -0.320792        -8.7292
 199   2.0000      -0.311035        -8.4637
 200   2.0000      -0.309895        -8.4327
 201   2.0000      -0.304627        -8.2893
 202   2.0000      -0.301084        -8.1929
 203   2.0000      -0.273004        -7.4288
 204   2.0000      -0.262170        -7.1340
 205   2.0000      -0.243604        -6.6288
 206   2.0000      -0.219739        -5.9794
 207   0.0000      -0.130365        -3.5474
 208   0.0000      -0.118791        -3.2325
 209   0.0000      -0.056974        -1.5503
 210   0.0000      -0.053730        -1.4621
 211   0.0000      -0.041358        -1.1254

MULLIKEN ATOMIC CHARGES
-----------------------
   0 C :   -0.126783
   1 C :    0.069782
   2 C :    0.031480
   3 N :   -0.039669
   4 C :    0.039244
   5 C :   -0.004081
   6 C :    0.055506
   7 C :   -0.194940
   8 S :    0.184654
   9 C :    0.082042
  10 C :   -0.049262
  11 C :   -0.095093
  12 C :   -0.139621
  13 N :    0.138492
  14 C :   -0.047191
  15 C :    0.046156
  16 C :    0.098255
  17 C :    0.098864
  18 C :   -0.043814
  19 C :   -0.120622
  20 C :    0.003992
  21 C :   -0.132538
  22 N :    0.138065
  23 C :   -0.038887
  24 C :    0.002094
  25 C :    0.118156
  26 N :   -0.036319
  27 C :    0.132739
  28 C :   -0.168569
  29 C :    0.092370
  30 N :   -0.039627
  31 C :    0.133669
  32 C :   -0.174045
  33 C :    0.038283
  34 C :   -0.040971
  35 C :    0.087991
  36 C :   -0.058263
  37 C :   -0.087596
  38 C :   -0.130874
  39 N :    0.133421
  40 C :   -0.078714
  41 C :    0.072445
  42 C :    0.057740
  43 C :    0.089694
  44 C :   -0.049013
  45 C :   -0.095615
  46 C :   -0.060724
  47 C :   -0.134050
  48 N :    0.137630
  49 C :   -0.049588
  50 C :    0.069451
  51 C :   -0.159619
  52 C :    0.120667
  53 C :    0.010611
  54 N :   -0.036876
  55 C :    0.019390
  56 C :    0.003523
  57 C :    0.017171
  58 C :   -0.104615
  59 S :    0.167785
  60 H :    0.024594
  61 H :    0.007284
  62 H :    0.001404
  63 H :   -0.009222
  64 H :   -0.009608
  65 H :   -0.000310
  66 H :   -0.018596
  67 H :    0.005745
  68 H :   -0.008739
  69 H :   -0.032090
  70 H :    0.124445
  71 H :   -0.028023
  72 H :    0.131453
  73 H :   -0.023787
  74 H :   -0.015753
  75 H :   -0.037580
  76 H :   -0.020073
  77 H :    0.002989
  78 H :   -0.015498
  79 H :   -0.009254
  80 H :   -0.005001
  81 H :   -0.018157
  82 H :    0.004808
  83 H :    0.004025
  84 H :   -0.028758
  85 H :    0.019920
Sum of atomic charges:   -0.0000000

LOEWDIN ATOMIC CHARGES
----------------------
   0 C :   -0.190678
   1 C :   -0.070927
   2 C :   -0.034388
   3 N :   -0.051954
   4 C :    0.031988
   5 C :   -0.050594
   6 C :    0.023208
   7 C :   -0.189389
   8 S :    0.507056
   9 C :   -0.039915
  10 C :   -0.014873
  11 C :   -0.056537
  12 C :   -0.032504
  13 N :   -0.046571
  14 C :   -0.015653
  15 C :    0.028647
  16 C :    0.069899
  17 C :   -0.028942
  18 C :   -0.005303
  19 C :   -0.062924
  20 C :    0.010547
  21 C :   -0.031046
  22 N :   -0.053863
  23 C :   -0.020090
  24 C :   -0.024726
  25 C :    0.012288
  26 N :    0.071842
  27 C :   -0.019005
  28 C :   -0.075351
  29 C :    0.002464
  30 N :    0.069060
  31 C :    0.000236
  32 C :   -0.090544
  33 C :   -0.003165
  34 C :   -0.047551
  35 C :   -0.012187
  36 C :   -0.039969
  37 C :   -0.039504
  38 C :   -0.028133
  39 N :   -0.048988
  40 C :   -0.050682
  41 C :    0.039811
  42 C :    0.033893
  43 C :   -0.018264
  44 C :   -0.024068
  45 C :   -0.045345
  46 C :   -0.040600
  47 C :   -0.031406
  48 N :   -0.046699
  49 C :   -0.036805
  50 C :   -0.022294
  51 C :   -0.182665
  52 C :   -0.059851
  53 C :   -0.038932
  54 N :   -0.065395
  55 C :    0.023843
  56 C :   -0.042896
  57 C :    0.011392
  58 C :   -0.186802
  59 S :    0.501591
  60 H :    0.026762
  61 H :    0.023817
  62 H :    0.034985
  63 H :    0.035443
  64 H :    0.027723
  65 H :    0.033319
  66 H :    0.026451
  67 H :    0.033598
  68 H :    0.030478
  69 H :    0.026665
  70 H :    0.091131
  71 H :    0.028026
  72 H :    0.091520
  73 H :    0.027433
  74 H :    0.037405
  75 H :    0.020364
  76 H :    0.025442
  77 H :    0.029213
  78 H :    0.027506
  79 H :    0.028332
  80 H :    0.027573
  81 H :    0.028064
  82 H :    0.022369
  83 H :    0.036574
  84 H :    0.029329
  85 H :    0.030691

  Mayer bond orders larger than 0.100000
B(  0-C ,  1-C ) :   1.4110 B(  0-C ,  7-C ) :   0.1248 B(  0-C ,  8-S ) :   1.1970
B(  0-C , 60-H ) :   0.9720 B(  1-C ,  2-C ) :   1.1816 B(  1-C ,  6-C ) :   1.1853
B(  2-C ,  3-N ) :   1.3608 B(  2-C ,  7-C ) :   1.3667 B(  3-N ,  4-C ) :   1.6864
B(  4-C ,  5-C ) :   1.1773 B(  4-C , 61-H ) :   0.9772 B(  5-C ,  6-C ) :   1.5971
B(  5-C , 62-H ) :   0.9730 B(  6-C , 63-H ) :   0.9883 B(  7-C ,  8-S ) :   1.2100
B(  7-C ,  9-C ) :   1.0704 B(  9-C , 10-C ) :   1.5891 B(  9-C , 15-C ) :   1.0868
B( 10-C , 11-C ) :   1.1293 B( 10-C , 64-H ) :   1.0145 B( 11-C , 12-C ) :   1.0561
B( 11-C , 14-C ) :   1.5860 B( 12-C , 13-N ) :   3.0387 B( 14-C , 15-C ) :   1.1201
B( 14-C , 65-H ) :   1.0148 B( 15-C , 16-C ) :   1.4510 B( 16-C , 17-C ) :   1.0474
B( 16-C , 20-C ) :   1.0844 B( 17-C , 18-C ) :   1.5553 B( 17-C , 23-C ) :   1.1200
B( 18-C , 19-C ) :   1.1187 B( 18-C , 66-H ) :   1.0115 B( 19-C , 20-C ) :   1.6151
B( 19-C , 21-C ) :   1.0543 B( 20-C , 67-H ) :   1.0131 B( 21-C , 22-N ) :   3.0445
B( 23-C , 24-C ) :   1.6298 B( 23-C , 68-H ) :   0.9686 B( 24-C , 25-C ) :   1.1255
B( 24-C , 69-H ) :   0.9685 B( 25-C , 26-N ) :   1.1772 B( 25-C , 32-C ) :   1.3628
B( 26-N , 27-C ) :   1.1615 B( 26-N , 70-H ) :   0.9362 B( 27-C , 28-C ) :   1.2770
B( 27-C , 31-C ) :   1.2718 B( 28-C , 29-C ) :   1.3053 B( 28-C , 71-H ) :   1.0428
B( 29-C , 30-N ) :   1.1860 B( 29-C , 33-C ) :   1.2033 B( 30-N , 31-C ) :   1.1728
B( 30-N , 72-H ) :   0.9315 B( 31-C , 32-C ) :   1.2893 B( 32-C , 73-H ) :   1.0319
B( 33-C , 34-C ) :   1.5382 B( 33-C , 74-H ) :   0.9622 B( 34-C , 35-C ) :   1.1729
B( 34-C , 75-H ) :   0.9604 B( 35-C , 36-C ) :   1.5200 B( 35-C , 41-C ) :   1.0348
B( 36-C , 37-C ) :   1.1707 B( 36-C , 76-H ) :   1.0115 B( 37-C , 38-C ) :   1.0512
B( 37-C , 40-C ) :   1.5227 B( 38-C , 39-N ) :   3.0356 B( 40-C , 41-C ) :   1.1650
B( 40-C , 77-H ) :   1.0094 B( 41-C , 42-C ) :   1.3990 B( 42-C , 43-C ) :   1.0438
B( 42-C , 46-C ) :   1.1470 B( 43-C , 44-C ) :   1.5490 B( 43-C , 49-C ) :   1.1305
B( 44-C , 45-C ) :   1.1496 B( 44-C , 78-H ) :   1.0127 B( 45-C , 46-C ) :   1.5467
B( 45-C , 47-C ) :   1.0552 B( 46-C , 79-H ) :   1.0128 B( 47-C , 48-N ) :   3.0353
B( 49-C , 50-C ) :   1.6367 B( 49-C , 80-H ) :   0.9663 B( 50-C , 51-C ) :   1.1705
B( 50-C , 81-H ) :   0.9508 B( 51-C , 52-C ) :   1.3082 B( 51-C , 58-C ) :   0.1070
B( 51-C , 59-S ) :   1.1729 B( 52-C , 53-C ) :   1.1902 B( 52-C , 57-C ) :   1.2255
B( 53-C , 54-N ) :   1.3573 B( 53-C , 58-C ) :   1.3959 B( 54-N , 55-C ) :   1.7182
B( 55-C , 56-C ) :   1.1955 B( 55-C , 82-H ) :   0.9769 B( 56-C , 57-C ) :   1.5887
B( 56-C , 83-H ) :   0.9695 B( 57-C , 84-H ) :   0.9841 B( 58-C , 59-S ) :   1.2188
B( 58-C , 85-H ) :   0.9700

-----------------------------------------------------------------------------
         ABSORPTION SPECTRUM VIA TRANSITION ELECTRIC DIPOLE MOMENTS
-----------------------------------------------------------------------------
State   Energy  Wavelength   fosc         T2         TX        TY        TZ
        (cm-1)    (nm)                  (au**2)     (au)      (au)      (au)
-----------------------------------------------------------------------------
   0    4663.8   2144.2   0.280501477  19.80027   2.14284   3.85374  -0.59763
   1    7298.4   1370.2   0.066613562   3.00476  -1.54004   0.16340   0.77868
   2    8048.7   1242.4   0.034774714   1.42237   0.29895  -1.02576   0.52992
   3   10889.5    918.3   0.036401063   1.10048  -1.04882  -0.00659   0.02017
   4   16247.4    615.5   0.063919272   1.29516  -0.92896  -0.52084   0.40116
   5   17671.8    565.9   0.295296748   5.50114  -1.53322  -1.65656   0.63731
   6   19386.1    515.8   0.032989376   0.56022   0.39390   0.56850  -0.28612
   7   21045.8    475.2   0.002285712   0.03575  -0.18323  -0.03186  -0.03413
   8   21284.9    469.8   0.079399722   1.22807  -0.36254  -0.56039   0.88464
   9   22595.8    442.6   0.390813003   5.69398   1.73978   1.48380  -0.68227
  10   22903.4    436.6   0.048670380   0.69958   0.61217  -0.09092  -0.56264
  11   23175.4    431.5   0.070746675   1.00497   0.70980   0.11842  -0.69795
  12   23608.2    423.6   0.477737778   6.66195   0.06109  -2.55382   0.36907
  13   24092.1    415.1   0.210351502   2.87440  -0.89563  -1.30971  -0.59742
  14   24974.6    400.4   0.140119401   1.84703  -0.03910  -1.34055  -0.22005
  15   25386.1    393.9   0.050173714   0.65066  -0.01578   0.80497   0.04930
  16   26007.0    384.5   0.079906467   1.01150  -0.94208  -0.25357   0.24432
  17   26099.4    383.2   0.032831870   0.41413   0.45748   0.09163   0.44322
  18   26756.7    373.7   0.205591760   2.52958   1.53762   0.37641   0.15364
  19   27056.0    369.6   0.196049754   2.38549   1.40598   0.58447   0.25905
  20   27479.6    363.9   0.649554875   7.78181   1.72039  -0.09316  -2.19394
  21   27577.0    362.6   0.224821480   2.68390  -0.94406  -0.47657   1.25121
  22   28026.0    356.8   0.095808362   1.12543  -0.59847  -0.85923  -0.17022
  23   28807.6    347.1   0.006493909   0.07421   0.09846  -0.02218  -0.25303
  24   30518.4    327.7   0.154379738   1.66535   0.20654   1.26322   0.16419
  25   30894.2    323.7   0.031950411   0.34047   0.01004   0.52394   0.25661
  26   31293.6    319.6   0.225828452   2.37574   0.45370   1.47213   0.05237
  27   31854.4    313.9   0.043947462   0.45419   0.18681  -0.64729   0.01775
  28   32100.4    311.5   0.011945022   0.12250  -0.17163   0.12897   0.27643
  29   33135.9    301.8   0.063213048   0.62804   0.12601  -0.77188  -0.12791
  30   33569.3    297.9   0.033150803   0.32511   0.13504   0.55305   0.03176
  31   33714.9    296.6   0.015601608   0.15234   0.03586  -0.37797   0.09054
  32   33982.9    294.3   0.001248832   0.01210   0.00297  -0.10937  -0.01128
  33   34421.1    290.5   0.013672413   0.13077  -0.10667  -0.00166   0.34552
  34   34532.0    289.6   0.148494024   1.41567   0.78090   0.15156  -0.88481
  35   34917.9    286.4   0.059850583   0.56428  -0.07806  -0.69537   0.27322
  36   35060.1    285.2   0.002661284   0.02499  -0.05581   0.08204   0.12306
  37   35589.4    281.0   0.160385342   1.48361  -0.42853  -0.83043   0.78125
  38   35834.0    279.1   0.099571687   0.91478  -0.50309   0.09049   0.80839
  39   36482.9    274.1   0.014270032   0.12877  -0.04353  -0.35561   0.02041
  40   36883.4    271.1   0.001979557   0.01767  -0.03699  -0.08376   0.09636
  41   37069.0    269.8   0.018955277   0.16834  -0.19191   0.29940   0.20462
  42   37195.0    268.9   0.000199803   0.00177   0.01505   0.00973  -0.03804
  43   37540.0    266.4   0.004407628   0.03865  -0.09410   0.14197   0.09820
  44   37659.4    265.5   0.011455980   0.10015   0.08651   0.22709  -0.20271
  45   38444.3    260.1   0.195861855   1.67723  -0.69034  -0.19589   1.07810
  46   38706.8    258.4   0.070218675   0.59723   0.60341  -0.24510  -0.41599
  47   39255.2    254.7   0.089005374   0.74644   0.68061   0.00765  -0.53212
  48   39440.6    253.5   0.001941416   0.01621  -0.05110   0.03632   0.11079
  49   39441.2    253.5   0.000868278   0.00725  -0.05815  -0.03253  -0.05299
  50   39567.8    252.7   0.022935816   0.19083  -0.40881   0.06959   0.13735
  51   39745.5    251.6   0.028911238   0.23947  -0.16962   0.22384   0.40075
  52   39834.4    251.0   0.039778221   0.32875   0.20686  -0.02568  -0.53413
  53   40052.8    249.7   0.042423443   0.34870  -0.51430   0.11950   0.26441

FINAL SINGLE POINT ENERGY     -3151.826869691961

DIPOLE MOMENT
-------------
                                X             Y             Z
Electronic contribution:     11.23279      -1.10379     -15.13133
Nuclear contribution   :     -9.03083       2.75614      16.96563
                        -----------------------------------------
Total Dipole Moment    :      2.20196       1.65235       1.83430
                        -----------------------------------------
Magnitude (a.u.)       :      3.30810
Magnitude (Debye)      :      8.40852

Rotational constants in cm-1:     0.002268     0.000334     0.000313
Rotational constants in MHz :    67.983835    10.004926     9.390066

                             ****ORCA TERMINATED NORMALLY****
TOTAL RUN TIME: 0 days 0 hours 19 minutes 19 seconds 134 msec
