                         Program Version 4.2.0 -  RELEASE  -
|  1> # ORCA input file
|  2> # SCF done       -174.350779861781          0.000643393467
|  3> ! CAM-B3LYP def2-SVP def2/J RIJCOSX Grid4 TightSCF
|  4> %maxcore 5000
|  5> %tddft
|  6>     Mode sTDDFT
|  7>     Ethresh 5.0
|  8>     maxcore 5000
|  9> end
| 10>
| 11> %pal
| 12>   nprocs 6
| 13>   end
| 14> * xyz 0 1
| 15>    C       -1.76558         6.97793        -6.70568
| 16>    C       -2.89828         6.84650        -5.94581
| 17>    C       -4.21396         6.47408        -6.33012
| 18>    C       -5.18858         6.41391        -5.38521
| 19>    C       -4.91367         6.71841        -4.02545
| 20>    C       -3.66475         7.08095        -3.60875
| 21>    C       -2.61263         7.15690        -4.54373
| 22>    C       -1.26011         7.48788        -4.42852
| 23>    C       -0.67206         7.38515        -5.83410
| 24>    O        0.48407         7.60918        -6.11744
| 25>    C       -0.42029         7.85352        -3.38629
| 26>    C       -0.74710         7.98467        -2.05261
| 27>    C        0.14632         8.34925        -1.04330
| 28>    C        1.57641         8.67508        -1.13722
| 29>    N        2.13754         8.95564         0.00054
| 30>    C        1.14740         8.85060         0.94129
| 31>    C       -0.11483         8.48680         0.32034
| 32>    C       -1.13846         8.34504         1.30984
| 33>    S       -2.70220         7.88512         1.03685
| 34>    C       -0.47417         8.63568         2.56182
| 35>    C        0.93706         8.94090         2.30112
| 36>    N        1.60892         9.16055         3.46513
| 37>    C        0.73403         8.96883         4.41180
| 38>    C       -0.60641         8.62235         3.93589
| 39>    C       -1.74549         8.34590         4.76597
| 40>    C       -3.02468         8.54179         4.28161
| 41>    C       -4.13078         8.22702         5.08574
| 42>    C       -5.49729         8.31568         4.82536
| 43>    C       -6.11618         8.81475         3.56786
| 44>    C       -7.16695         7.84658         2.99022
| 45>    N       -7.16220         7.94497         1.54505
| 46>    C       -6.71233        10.22035         3.78981
| 47>    N       -5.63999        11.16344         4.03189
| 48>    C       -6.17571         7.85745         6.01566
| 49>    C       -7.48366         7.73996         6.31936
| 50>    C       -7.94060         7.23872         7.64331
| 51>    C       -6.84201         6.84568         8.57778
| 52>    C       -5.53794         6.97828         8.26813
| 53>    C       -5.15281         7.47818         7.00326
| 54>    C       -3.91642         7.71007         6.42714
| 55>    C       -2.59778         7.54085         6.90400
| 56>    C       -1.55048         7.85409         6.09668
| 57>    C       -8.77843         8.30262         8.31384
| 58>    C      -10.03208         8.09850         8.72673
| 59>    C      -10.85049         9.06596         9.39203
| 60>    C      -10.53431        10.45532         9.73423
| 61>    N      -11.50629        11.09583        10.31920
| 62>    C      -12.52842        10.19562        10.42295
| 63>    C      -12.13205         8.90454         9.86042
| 64>    C      -13.24201         7.97558         9.93382
| 65>    S      -13.30848         6.47773         9.22938
| 66>    C      -14.27425         8.69928        10.59491
| 67>    C      -13.83432        10.07779        10.83548
| 68>    N      -14.86506        10.84049        11.31197
| 69>    C      -15.90469        10.06562        11.32735
| 70>    C      -15.63424         8.68004        10.91342
| 71>    C      -16.57602         7.65341        10.88162
| 72>    C      -16.38031         6.26848        10.92681
| 73>    C      -15.24706         5.52991        11.31146
| 74>    C      -15.31272         4.16283        11.30593
| 75>    C      -16.50319         3.48960        10.95352
| 76>    C      -17.64710         4.17169        10.64639
| 77>    C      -17.62702         5.58244        10.62702
| 78>    C      -18.63405         6.52284        10.42587
| 79>    C      -18.04393         7.86969        10.70084
| 80>    O      -18.65059         8.91430        10.77035
| 81>    C      -19.99695         6.42865        10.03923
| 82>    C      -20.61314         5.38131         9.47019
| 83>    H       -1.66546         6.81666        -7.76179
| 84>    H       -4.41361         6.24631        -7.36618
| 85>    H       -6.19533         6.13171        -5.65631
| 86>    H       -5.71999         6.65771        -3.31024
| 87>    H       -3.49788         7.30557        -2.56819
| 88>    H        0.60313         8.04710        -3.68851
| 89>    H       -1.75885         7.79247        -1.72778
| 90>    H        2.15492         8.69825        -2.04384
| 91>    H        1.01345         9.11030         5.44113
| 92>    H       -3.17490         8.95383         3.29744
| 93>    H       -5.33253         8.91147         2.81212
| 94>    H       -8.15418         8.05685         3.43675
| 95>    H       -6.89062         6.82030         3.24819
| 96>    H       -7.43972         8.87208         1.24333
| 97>    H       -7.79512         7.27114         1.13139
| 98>    H       -7.45273        10.17177         4.60821
| 99>    H       -7.23040        10.54052         2.88163
|100>    H       -5.14645        10.93099         4.88703
|101>    H       -5.99503        12.10869         4.11305
|102>    H       -8.26405         8.02181         5.62752
|103>    H       -8.59195         6.36908         7.47285
|104>    H       -7.15644         6.46664         9.53804
|105>    H       -4.77171         6.69364         8.97445
|106>    H       -2.43382         7.15789         7.90047
|107>    H       -0.53938         7.70806         6.44475
|108>    H       -8.27787         9.24667         8.47211
|109>    H      -10.50680         7.13810         8.56442
|110>    H       -9.59851        10.95050         9.54497
|111>    H      -16.86499        10.42581        11.65132
|112>    H      -14.36405         6.04491        11.65221
|113>    H      -14.45115         3.57993        11.59440
|114>    H      -16.51020         2.40965        10.97149
|115>    H      -18.56605         3.64063        10.45801
|116>    H      -20.55468         7.34516        10.19986
|117>    H      -20.09496         4.47403         9.21531
|118>    H      -21.65741         5.42633         9.21465
|119> *
|120>
|121>                          ****END OF INPUT****

CARTESIAN COORDINATES (ANGSTROEM)
---------------------------------
  C     -1.765580    6.977930   -6.705680
  C     -2.898280    6.846500   -5.945810
  C     -4.213960    6.474080   -6.330120
  C     -5.188580    6.413910   -5.385210
  C     -4.913670    6.718410   -4.025450
  C     -3.664750    7.080950   -3.608750
  C     -2.612630    7.156900   -4.543730
  C     -1.260110    7.487880   -4.428520
  C     -0.672060    7.385150   -5.834100
  O      0.484070    7.609180   -6.117440
  C     -0.420290    7.853520   -3.386290
  C     -0.747100    7.984670   -2.052610
  C      0.146320    8.349250   -1.043300
  C      1.576410    8.675080   -1.137220
  N      2.137540    8.955640    0.000540
  C      1.147400    8.850600    0.941290
  C     -0.114830    8.486800    0.320340
  C     -1.138460    8.345040    1.309840
  S     -2.702200    7.885120    1.036850
  C     -0.474170    8.635680    2.561820
  C      0.937060    8.940900    2.301120
  N      1.608920    9.160550    3.465130
  C      0.734030    8.968830    4.411800
  C     -0.606410    8.622350    3.935890
  C     -1.745490    8.345900    4.765970
  C     -3.024680    8.541790    4.281610
  C     -4.130780    8.227020    5.085740
  C     -5.497290    8.315680    4.825360
  C     -6.116180    8.814750    3.567860
  C     -7.166950    7.846580    2.990220
  N     -7.162200    7.944970    1.545050
  C     -6.712330   10.220350    3.789810
  N     -5.639990   11.163440    4.031890
  C     -6.175710    7.857450    6.015660
  C     -7.483660    7.739960    6.319360
  C     -7.940600    7.238720    7.643310
  C     -6.842010    6.845680    8.577780
  C     -5.537940    6.978280    8.268130
  C     -5.152810    7.478180    7.003260
  C     -3.916420    7.710070    6.427140
  C     -2.597780    7.540850    6.904000
  C     -1.550480    7.854090    6.096680
  C     -8.778430    8.302620    8.313840
  C    -10.032080    8.098500    8.726730
  C    -10.850490    9.065960    9.392030
  C    -10.534310   10.455320    9.734230
  N    -11.506290   11.095830   10.319200
  C    -12.528420   10.195620   10.422950
  C    -12.132050    8.904540    9.860420
  C    -13.242010    7.975580    9.933820
  S    -13.308480    6.477730    9.229380
  C    -14.274250    8.699280   10.594910
  C    -13.834320   10.077790   10.835480
  N    -14.865060   10.840490   11.311970
  C    -15.904690   10.065620   11.327350
  C    -15.634240    8.680040   10.913420
  C    -16.576020    7.653410   10.881620
  C    -16.380310    6.268480   10.926810
  C    -15.247060    5.529910   11.311460
  C    -15.312720    4.162830   11.305930
  C    -16.503190    3.489600   10.953520
  C    -17.647100    4.171690   10.646390
  C    -17.627020    5.582440   10.627020
  C    -18.634050    6.522840   10.425870
  C    -18.043930    7.869690   10.700840
  O    -18.650590    8.914300   10.770350
  C    -19.996950    6.428650   10.039230
  C    -20.613140    5.381310    9.470190
  H     -1.665460    6.816660   -7.761790
  H     -4.413610    6.246310   -7.366180
  H     -6.195330    6.131710   -5.656310
  H     -5.719990    6.657710   -3.310240
  H     -3.497880    7.305570   -2.568190
  H      0.603130    8.047100   -3.688510
  H     -1.758850    7.792470   -1.727780
  H      2.154920    8.698250   -2.043840
  H      1.013450    9.110300    5.441130
  H     -3.174900    8.953830    3.297440
  H     -5.332530    8.911470    2.812120
  H     -8.154180    8.056850    3.436750
  H     -6.890620    6.820300    3.248190
  H     -7.439720    8.872080    1.243330
  H     -7.795120    7.271140    1.131390
  H     -7.452730   10.171770    4.608210
  H     -7.230400   10.540520    2.881630
  H     -5.146450   10.930990    4.887030
  H     -5.995030   12.108690    4.113050
  H     -8.264050    8.021810    5.627520
  H     -8.591950    6.369080    7.472850
  H     -7.156440    6.466640    9.538040
  H     -4.771710    6.693640    8.974450
  H     -2.433820    7.157890    7.900470
  H     -0.539380    7.708060    6.444750
  H     -8.277870    9.246670    8.472110
  H    -10.506800    7.138100    8.564420
  H     -9.598510   10.950500    9.544970
  H    -16.864990   10.425810   11.651320
  H    -14.364050    6.044910   11.652210
  H    -14.451150    3.579930   11.594400
  H    -16.510200    2.409650   10.971490
  H    -18.566050    3.640630   10.458010
  H    -20.554680    7.345160   10.199860
  H    -20.094960    4.474030    9.215310
  H    -21.657410    5.426330    9.214650

 Total Charge           Charge          ....    0
 Multiplicity           Mult            ....    1
 Number of Electrons    NEL             ....  474
 Basis Dimension        Dim             .... 1140

ORBITAL ENERGIES
----------------

  NO   OCC          E(Eh)            E(eV)
   0   2.0000     -88.891785     -2418.8684
   1   2.0000     -88.885829     -2418.7064
   2   2.0000     -19.248127      -523.7682
   3   2.0000     -19.225219      -523.1448
   4   2.0000     -14.410589      -392.1321
   5   2.0000     -14.407144      -392.0383
   6   2.0000     -14.404738      -391.9728
   7   2.0000     -14.401839      -391.8940
   8   2.0000     -14.374762      -391.1572
   9   2.0000     -14.371456      -391.0672
  10   2.0000     -10.380777      -282.4753
  11   2.0000     -10.357234      -281.8347
  12   2.0000     -10.333234      -281.1816
  13   2.0000     -10.326644      -281.0023
  14   2.0000     -10.326540      -280.9994
  15   2.0000     -10.324224      -280.9364
  16   2.0000     -10.323807      -280.9251
  17   2.0000     -10.322376      -280.8861
  18   2.0000     -10.319460      -280.8068
  19   2.0000     -10.315609      -280.7020
  20   2.0000     -10.315152      -280.6896
  21   2.0000     -10.314242      -280.6648
  22   2.0000     -10.312618      -280.6206
  23   2.0000     -10.308895      -280.5193
  24   2.0000     -10.306230      -280.4468
  25   2.0000     -10.304954      -280.4121
  26   2.0000     -10.303186      -280.3639
  27   2.0000     -10.299299      -280.2582
  28   2.0000     -10.298671      -280.2411
  29   2.0000     -10.297130      -280.1992
  30   2.0000     -10.296858      -280.1918
  31   2.0000     -10.295878      -280.1651
  32   2.0000     -10.295423      -280.1527
  33   2.0000     -10.293435      -280.0986
  34   2.0000     -10.293335      -280.0959
  35   2.0000     -10.292466      -280.0722
  36   2.0000     -10.292462      -280.0721
  37   2.0000     -10.292320      -280.0683
  38   2.0000     -10.291686      -280.0510
  39   2.0000     -10.290754      -280.0257
  40   2.0000     -10.290458      -280.0176
  41   2.0000     -10.289597      -279.9942
  42   2.0000     -10.286971      -279.9227
  43   2.0000     -10.284792      -279.8634
  44   2.0000     -10.284737      -279.8619
  45   2.0000     -10.284273      -279.8493
  46   2.0000     -10.283894      -279.8390
  47   2.0000     -10.282624      -279.8044
  48   2.0000     -10.282487      -279.8007
  49   2.0000     -10.281773      -279.7813
  50   2.0000     -10.281753      -279.7807
  51   2.0000     -10.280871      -279.7567
  52   2.0000     -10.280033      -279.7339
  53   2.0000     -10.276714      -279.6436
  54   2.0000     -10.276193      -279.6294
  55   2.0000     -10.275848      -279.6200
  56   2.0000     -10.275827      -279.6195
  57   2.0000     -10.272457      -279.5278
  58   2.0000     -10.270112      -279.4640
  59   2.0000     -10.267219      -279.3852
  60   2.0000     -10.266808      -279.3741
  61   2.0000     -10.266541      -279.3668
  62   2.0000     -10.264601      -279.3140
  63   2.0000     -10.261856      -279.2393
  64   2.0000     -10.261793      -279.2376
  65   2.0000     -10.261148      -279.2200
  66   2.0000     -10.260477      -279.2018
  67   2.0000     -10.255947      -279.0785
  68   2.0000      -7.987329      -217.3463
  69   2.0000      -7.980912      -217.1716
  70   2.0000      -5.956270      -162.0783
  71   2.0000      -5.955341      -162.0531
  72   2.0000      -5.949810      -161.9026
  73   2.0000      -5.949242      -161.8871
  74   2.0000      -5.947030      -161.8269
  75   2.0000      -5.940449      -161.6478
  76   2.0000      -1.155387       -31.4397
  77   2.0000      -1.131086       -30.7784
  78   2.0000      -1.075329       -29.2612
  79   2.0000      -1.069610       -29.1056
  80   2.0000      -1.056023       -28.7358
  81   2.0000      -1.050826       -28.5944
  82   2.0000      -1.000998       -27.2385
  83   2.0000      -0.983212       -26.7545
  84   2.0000      -0.983179       -26.7537
  85   2.0000      -0.962673       -26.1957
  86   2.0000      -0.955151       -25.9910
  87   2.0000      -0.949259       -25.8306
  88   2.0000      -0.947871       -25.7929
  89   2.0000      -0.944975       -25.7141
  90   2.0000      -0.932972       -25.3875
  91   2.0000      -0.920528       -25.0488
  92   2.0000      -0.918018       -24.9806
  93   2.0000      -0.910211       -24.7681
  94   2.0000      -0.902375       -24.5549
  95   2.0000      -0.894841       -24.3499
  96   2.0000      -0.872842       -23.7512
  97   2.0000      -0.869333       -23.6558
  98   2.0000      -0.866429       -23.5767
  99   2.0000      -0.859061       -23.3762
 100   2.0000      -0.857290       -23.3281
 101   2.0000      -0.843763       -22.9600
 102   2.0000      -0.841303       -22.8930
 103   2.0000      -0.834677       -22.7127
 104   2.0000      -0.832261       -22.6470
 105   2.0000      -0.827554       -22.5189
 106   2.0000      -0.820568       -22.3288
 107   2.0000      -0.803024       -21.8514
 108   2.0000      -0.796108       -21.6632
 109   2.0000      -0.788962       -21.4688
 110   2.0000      -0.786372       -21.3983
 111   2.0000      -0.781744       -21.2723
 112   2.0000      -0.764782       -20.8108
 113   2.0000      -0.759652       -20.6712
 114   2.0000      -0.753876       -20.5140
 115   2.0000      -0.737946       -20.0805
 116   2.0000      -0.730856       -19.8876
 117   2.0000      -0.722066       -19.6484
 118   2.0000      -0.718450       -19.5500
 119   2.0000      -0.715213       -19.4619
 120   2.0000      -0.704264       -19.1640
 121   2.0000      -0.702801       -19.1242
 122   2.0000      -0.688244       -18.7281
 123   2.0000      -0.686450       -18.6793
 124   2.0000      -0.685646       -18.6574
 125   2.0000      -0.680239       -18.5103
 126   2.0000      -0.671799       -18.2806
 127   2.0000      -0.669098       -18.2071
 128   2.0000      -0.667208       -18.1556
 129   2.0000      -0.658995       -17.9322
 130   2.0000      -0.651943       -17.7403
 131   2.0000      -0.649529       -17.6746
 132   2.0000      -0.637997       -17.3608
 133   2.0000      -0.635936       -17.3047
 134   2.0000      -0.630437       -17.1551
 135   2.0000      -0.626935       -17.0598
 136   2.0000      -0.616606       -16.7787
 137   2.0000      -0.609911       -16.5965
 138   2.0000      -0.600085       -16.3291
 139   2.0000      -0.593401       -16.1473
 140   2.0000      -0.591982       -16.1087
 141   2.0000      -0.590169       -16.0593
 142   2.0000      -0.586945       -15.9716
 143   2.0000      -0.579551       -15.7704
 144   2.0000      -0.578116       -15.7313
 145   2.0000      -0.570598       -15.5268
 146   2.0000      -0.568204       -15.4616
 147   2.0000      -0.565492       -15.3878
 148   2.0000      -0.564715       -15.3667
 149   2.0000      -0.561022       -15.2662
 150   2.0000      -0.558829       -15.2065
 151   2.0000      -0.552870       -15.0444
 152   2.0000      -0.550293       -14.9742
 153   2.0000      -0.548632       -14.9290
 154   2.0000      -0.544171       -14.8076
 155   2.0000      -0.541489       -14.7347
 156   2.0000      -0.537646       -14.6301
 157   2.0000      -0.534828       -14.5534
 158   2.0000      -0.532764       -14.4973
 159   2.0000      -0.529069       -14.3967
 160   2.0000      -0.527992       -14.3674
 161   2.0000      -0.525882       -14.3100
 162   2.0000      -0.522670       -14.2226
 163   2.0000      -0.521502       -14.1908
 164   2.0000      -0.518725       -14.1152
 165   2.0000      -0.513743       -13.9797
 166   2.0000      -0.513276       -13.9669
 167   2.0000      -0.510843       -13.9007
 168   2.0000      -0.510764       -13.8986
 169   2.0000      -0.507241       -13.8027
 170   2.0000      -0.504147       -13.7185
 171   2.0000      -0.503711       -13.7067
 172   2.0000      -0.501448       -13.6451
 173   2.0000      -0.497628       -13.5411
 174   2.0000      -0.494981       -13.4691
 175   2.0000      -0.492771       -13.4090
 176   2.0000      -0.491221       -13.3668
 177   2.0000      -0.488224       -13.2852
 178   2.0000      -0.484787       -13.1917
 179   2.0000      -0.481196       -13.0940
 180   2.0000      -0.479346       -13.0437
 181   2.0000      -0.479122       -13.0376
 182   2.0000      -0.476509       -12.9665
 183   2.0000      -0.474808       -12.9202
 184   2.0000      -0.472298       -12.8519
 185   2.0000      -0.471286       -12.8243
 186   2.0000      -0.470394       -12.8001
 187   2.0000      -0.464237       -12.6325
 188   2.0000      -0.461943       -12.5701
 189   2.0000      -0.457847       -12.4586
 190   2.0000      -0.457764       -12.4564
 191   2.0000      -0.457238       -12.4421
 192   2.0000      -0.451798       -12.2940
 193   2.0000      -0.446449       -12.1485
 194   2.0000      -0.443430       -12.0664
 195   2.0000      -0.441224       -12.0063
 196   2.0000      -0.434618       -11.8265
 197   2.0000      -0.429649       -11.6914
 198   2.0000      -0.426163       -11.5965
 199   2.0000      -0.424037       -11.5386
 200   2.0000      -0.418001       -11.3744
 201   2.0000      -0.416747       -11.3403
 202   2.0000      -0.413028       -11.2391
 203   2.0000      -0.412103       -11.2139
 204   2.0000      -0.411007       -11.1841
 205   2.0000      -0.410561       -11.1719
 206   2.0000      -0.407695       -11.0940
 207   2.0000      -0.404578       -11.0091
 208   2.0000      -0.396029       -10.7765
 209   2.0000      -0.391197       -10.6450
 210   2.0000      -0.389900       -10.6097
 211   2.0000      -0.381417       -10.3789
 212   2.0000      -0.366271        -9.9668
 213   2.0000      -0.365409        -9.9433
 214   2.0000      -0.364037        -9.9060
 215   2.0000      -0.361103        -9.8261
 216   2.0000      -0.350612        -9.5406
 217   2.0000      -0.345853        -9.4112
 218   2.0000      -0.345451        -9.4002
 219   2.0000      -0.341935        -9.3045
 220   2.0000      -0.341401        -9.2900
 221   2.0000      -0.338589        -9.2135
 222   2.0000      -0.335015        -9.1162
 223   2.0000      -0.332596        -9.0504
 224   2.0000      -0.326557        -8.8861
 225   2.0000      -0.309002        -8.4084
 226   2.0000      -0.308455        -8.3935
 227   2.0000      -0.300670        -8.1816
 228   2.0000      -0.299964        -8.1624
 229   2.0000      -0.293437        -7.9848
 230   2.0000      -0.288636        -7.8542
 231   2.0000      -0.280706        -7.6384
 232   2.0000      -0.276246        -7.5170
 233   2.0000      -0.271767        -7.3951
 234   2.0000      -0.244811        -6.6617
 235   2.0000      -0.232359        -6.3228
 236   2.0000      -0.218757        -5.9527
 237   0.0000      -0.130258        -3.5445
 238   0.0000      -0.118840        -3.2338
 239   0.0000      -0.097250        -2.6463
 240   0.0000      -0.092329        -2.5124
 241   0.0000      -0.068416        -1.8617

MULLIKEN ATOMIC CHARGES
-----------------------
   0 C :   -0.114086
   1 C :    0.095418
   2 C :    0.010495
   3 C :    0.039360
   4 C :    0.018265
   5 C :   -0.010212
   6 C :    0.074873
   7 C :   -0.028243
   8 C :    0.156406
   9 O :   -0.126174
  10 C :   -0.004002
  11 C :   -0.028750
  12 C :    0.015703
  13 C :    0.056467
  14 N :   -0.026952
  15 C :    0.017172
  16 C :   -0.004719
  17 C :   -0.005447
  18 S :   -0.145010
  19 C :   -0.021801
  20 C :   -0.010962
  21 N :   -0.032505
  22 C :    0.044089
  23 C :    0.007122
  24 C :    0.065556
  25 C :   -0.038337
  26 C :    0.036721
  27 C :   -0.070626
  28 C :   -0.024675
  29 C :    0.127690
  30 N :   -0.208041
  31 C :    0.155499
  32 N :   -0.224626
  33 C :    0.104343
  34 C :   -0.134394
  35 C :    0.140811
  36 C :   -0.040320
  37 C :    0.021209
  38 C :    0.007997
  39 C :    0.041718
  40 C :   -0.004401
  41 C :   -0.024170
  42 C :   -0.044352
  43 C :   -0.000139
  44 C :   -0.008286
  45 C :    0.044236
  46 N :   -0.023524
  47 C :    0.023078
  48 C :   -0.004117
  49 C :   -0.019973
  50 S :   -0.168787
  51 C :   -0.047984
  52 C :   -0.018087
  53 N :   -0.023445
  54 C :    0.059965
  55 C :   -0.010675
  56 C :   -0.025472
  57 C :    0.056298
  58 C :    0.041408
  59 C :    0.025004
  60 C :    0.036524
  61 C :   -0.023936
  62 C :    0.069018
  63 C :   -0.032706
  64 C :    0.112592
  65 O :   -0.114321
  66 C :   -0.014743
  67 C :   -0.004771
  68 H :   -0.018503
  69 H :   -0.017467
  70 H :   -0.002059
  71 H :   -0.000080
  72 H :   -0.006521
  73 H :   -0.007822
  74 H :   -0.012138
  75 H :    0.014800
  76 H :    0.005939
  77 H :   -0.019229
  78 H :    0.001764
  79 H :   -0.022640
  80 H :    0.002309
  81 H :    0.086143
  82 H :    0.087803
  83 H :   -0.028516
  84 H :   -0.019617
  85 H :    0.098998
  86 H :    0.091057
  87 H :   -0.006126
  88 H :    0.033072
  89 H :   -0.012025
  90 H :   -0.034781
  91 H :   -0.039278
  92 H :   -0.031260
  93 H :    0.006020
  94 H :   -0.010250
  95 H :    0.001547
  96 H :    0.018138
  97 H :   -0.009099
  98 H :    0.002617
  99 H :    0.001652
 100 H :   -0.021088
 101 H :    0.011998
 102 H :    0.025218
 103 H :    0.038162
Sum of atomic charges:   -0.0000000

LOEWDIN ATOMIC CHARGES
----------------------
   0 C :   -0.076357
   1 C :    0.019901
   2 C :   -0.015196
   3 C :   -0.001699
   4 C :   -0.008647
   5 C :   -0.006515
   6 C :   -0.002662
   7 C :   -0.052172
   8 C :    0.093079
   9 O :   -0.098201
  10 C :   -0.002632
  11 C :   -0.003482
  12 C :   -0.036777
  13 C :    0.085560
  14 N :   -0.077769
  15 C :    0.033225
  16 C :   -0.046005
  17 C :   -0.135231
  18 S :    0.048116
  19 C :   -0.049176
  20 C :    0.033342
  21 N :   -0.081642
  22 C :    0.077732
  23 C :   -0.020568
  24 C :   -0.041924
  25 C :    0.027766
  26 C :   -0.022675
  27 C :   -0.024612
  28 C :   -0.039269
  29 C :    0.026448
  30 N :   -0.113385
  31 C :    0.027132
  32 N :   -0.116893
  33 C :   -0.018502
  34 C :    0.065508
  35 C :   -0.028511
  36 C :   -0.034731
  37 C :   -0.015218
  38 C :   -0.038340
  39 C :   -0.030658
  40 C :   -0.013532
  41 C :   -0.027538
  42 C :    0.011438
  43 C :   -0.032334
  44 C :   -0.036563
  45 C :    0.074432
  46 N :   -0.080063
  47 C :    0.018539
  48 C :   -0.040230
  49 C :   -0.140393
  50 S :    0.030931
  51 C :   -0.067415
  52 C :    0.043726
  53 N :   -0.075680
  54 C :    0.092585
  55 C :   -0.024863
  56 C :   -0.086668
  57 C :    0.038844
  58 C :   -0.004620
  59 C :    0.006879
  60 C :   -0.002875
  61 C :   -0.014386
  62 C :    0.002082
  63 C :   -0.030400
  64 C :    0.110087
  65 O :   -0.090294
  66 C :   -0.024354
  67 C :   -0.008127
  68 H :    0.028415
  69 H :    0.033436
  70 H :    0.033434
  71 H :    0.034399
  72 H :    0.035801
  73 H :    0.032117
  74 H :    0.025927
  75 H :    0.025437
  76 H :    0.022969
  77 H :    0.019255
  78 H :    0.034625
  79 H :   -0.006303
  80 H :    0.020610
  81 H :    0.048685
  82 H :    0.052905
  83 H :   -0.006691
  84 H :    0.010339
  85 H :    0.052600
  86 H :    0.054304
  87 H :    0.027426
  88 H :    0.058198
  89 H :    0.025167
  90 H :    0.030442
  91 H :    0.026442
  92 H :    0.024146
  93 H :    0.026010
  94 H :    0.027328
  95 H :    0.021169
  96 H :    0.026814
  97 H :    0.031065
  98 H :    0.036198
  99 H :    0.035290
 100 H :    0.031450
 101 H :    0.039417
 102 H :    0.022166
 103 H :    0.031439

  Mayer bond orders larger than 0.100000
B(  0-C ,  1-C ) :   1.5255 B(  0-C ,  8-C ) :   1.0009 B(  0-C , 68-H ) :   1.0294
B(  1-C ,  2-C ) :   1.1083 B(  1-C ,  6-C ) :   1.0634 B(  2-C ,  3-C ) :   1.6333
B(  2-C , 69-H ) :   1.0008 B(  3-C ,  4-C ) :   1.1197 B(  3-C , 70-H ) :   0.9862
B(  4-C ,  5-C ) :   1.6208 B(  4-C , 71-H ) :   0.9824 B(  5-C ,  6-C ) :   1.1471
B(  5-C , 72-H ) :   0.9979 B(  6-C ,  7-C ) :   1.4369 B(  7-C ,  8-C ) :   0.8910
B(  7-C , 10-C ) :   1.2744 B(  8-C ,  9-O ) :   2.1759 B( 10-C , 11-C ) :   1.4633
B( 10-C , 73-H ) :   0.9527 B( 11-C , 12-C ) :   1.2039 B( 11-C , 74-H ) :   0.9761
B( 12-C , 13-C ) :   0.9987 B( 12-C , 16-C ) :   1.4255 B( 13-C , 14-N ) :   1.7490
B( 13-C , 75-H ) :   0.9883 B( 14-N , 15-C ) :   1.2475 B( 15-C , 16-C ) :   1.0936
B( 15-C , 20-C ) :   1.4989 B( 16-C , 17-C ) :   1.0641 B( 17-C , 18-S ) :   1.6427
B( 17-C , 19-C ) :   1.0401 B( 19-C , 20-C ) :   1.0763 B( 19-C , 23-C ) :   1.5335
B( 20-C , 21-N ) :   1.2691 B( 21-N , 22-C ) :   1.7185 B( 22-C , 23-C ) :   1.0342
B( 22-C , 76-H ) :   0.9886 B( 23-C , 24-C ) :   1.0230 B( 24-C , 25-C ) :   1.5060
B( 24-C , 41-C ) :   1.1147 B( 25-C , 26-C ) :   1.1672 B( 25-C , 77-H ) :   0.9789
B( 26-C , 27-C ) :   1.4725 B( 26-C , 39-C ) :   1.1079 B( 27-C , 28-C ) :   1.0523
B( 27-C , 33-C ) :   1.0764 B( 28-C , 29-C ) :   1.0287 B( 28-C , 31-C ) :   1.0300
B( 28-C , 78-H ) :   0.8727 B( 29-C , 30-N ) :   1.1049 B( 29-C , 79-H ) :   0.9244
B( 29-C , 80-H ) :   0.9467 B( 30-N , 81-H ) :   0.9706 B( 30-N , 82-H ) :   0.9683
B( 31-C , 32-N ) :   1.0959 B( 31-C , 83-H ) :   0.9300 B( 31-C , 84-H ) :   0.9340
B( 32-N , 85-H ) :   0.9684 B( 32-N , 86-H ) :   0.9669 B( 33-C , 34-C ) :   1.6361
B( 33-C , 38-C ) :   1.0478 B( 34-C , 35-C ) :   0.9654 B( 34-C , 87-H ) :   0.9739
B( 35-C , 36-C ) :   0.9907 B( 35-C , 42-C ) :   0.9528 B( 35-C , 88-H ) :   0.8705
B( 36-C , 37-C ) :   1.7010 B( 36-C , 89-H ) :   0.9748 B( 37-C , 38-C ) :   1.1341
B( 37-C , 90-H ) :   0.9897 B( 38-C , 39-C ) :   1.4345 B( 39-C , 40-C ) :   1.1428
B( 40-C , 41-C ) :   1.6104 B( 40-C , 91-H ) :   0.9908 B( 41-C , 92-H ) :   0.9849
B( 42-C , 43-C ) :   1.7628 B( 42-C , 93-H ) :   0.9664 B( 43-C , 44-C ) :   1.0827
B( 43-C , 94-H ) :   0.9676 B( 44-C , 45-C ) :   1.0124 B( 44-C , 48-C ) :   1.5425
B( 45-C , 46-N ) :   1.7391 B( 45-C , 95-H ) :   0.9903 B( 46-N , 47-C ) :   1.2614
B( 47-C , 48-C ) :   1.0771 B( 47-C , 52-C ) :   1.5118 B( 48-C , 49-C ) :   1.0104
B( 49-C , 50-S ) :   1.6270 B( 49-C , 51-C ) :   1.1079 B( 51-C , 52-C ) :   1.0737
B( 51-C , 55-C ) :   1.4280 B( 52-C , 53-N ) :   1.2564 B( 53-N , 54-C ) :   1.7314
B( 54-C , 55-C ) :   1.0258 B( 54-C , 96-H ) :   0.9866 B( 55-C , 56-C ) :   1.1687
B( 56-C , 57-C ) :   1.4289 B( 56-C , 64-C ) :   0.9324 B( 57-C , 58-C ) :   1.1914
B( 57-C , 62-C ) :   1.0667 B( 58-C , 59-C ) :   1.5654 B( 58-C , 97-H ) :   0.9871
B( 59-C , 60-C ) :   1.1463 B( 59-C , 98-H ) :   0.9848 B( 60-C , 61-C ) :   1.6010
B( 60-C , 99-H ) :   0.9854 B( 61-C , 62-C ) :   1.1450 B( 61-C ,100-H ) :   0.9957
B( 62-C , 63-C ) :   1.4721 B( 63-C , 64-C ) :   0.9273 B( 63-C , 66-C ) :   1.1830
B( 64-C , 65-O ) :   2.2179 B( 66-C , 67-C ) :   1.8440 B( 66-C ,101-H ) :   0.9464
B( 67-C ,102-H ) :   0.9577 B( 67-C ,103-H ) :   0.9488

-----------------------------------------------------------------------------
         ABSORPTION SPECTRUM VIA TRANSITION ELECTRIC DIPOLE MOMENTS
-----------------------------------------------------------------------------
State   Energy  Wavelength   fosc         T2         TX        TY        TZ
        (cm-1)    (nm)                  (au**2)     (au)      (au)      (au)
-----------------------------------------------------------------------------
   0    6276.5   1593.2   0.093711191   4.91526  -1.98862  -0.96086   0.19340
   1    7767.8   1287.4   0.211410973   8.95988  -0.17791  -0.53934  -2.93894
   2    8959.2   1116.2   0.029830449   1.09615  -0.98372  -0.15964  -0.32085
   3   10296.9    971.2   0.007588915   0.24263   0.43823  -0.09600  -0.20340
   4   11834.2    845.0   0.005771140   0.16055  -0.31086  -0.17782   0.17970
   5   12323.1    811.5   0.035063124   0.93671   0.90107  -0.24180  -0.25753
   6   13359.0    748.6   0.047565394   1.17218  -0.07408  -0.09078  -1.07631
   7   13804.8    724.4   0.065032029   1.55086   1.08328   0.57959  -0.20356
   8   14226.2    702.9   0.000679871   0.01573  -0.02106  -0.00177  -0.12364
   9   15197.0    658.0   0.016039323   0.34746   0.57054  -0.14214   0.04171
  10   16341.0    612.0   0.210100458   4.23275  -1.15581  -0.35833   1.66386
  11   16783.1    595.8   0.000861998   0.01691   0.09778   0.05437  -0.06627
  12   17135.7    583.6   0.003056710   0.05873   0.04075  -0.22802  -0.07123
  13   17469.9    572.4   0.042952235   0.80942   0.49752   0.13714  -0.73694
  14   17527.3    570.5   0.020901200   0.39258   0.49428   0.37031   0.10553
  15   18536.8    539.5   0.016914207   0.30040   0.21368   0.04729   0.50249
  16   19629.7    509.4   0.062844667   1.05397  -0.90368  -0.45508   0.17389
  17   19823.5    504.5   0.071219177   1.18275   0.05520   0.17319   1.07224
  18   19856.6    503.6   0.090479721   1.50011   1.07500   0.53618  -0.23874
  19   20089.6    497.8   0.121777618   1.99560  -0.38931   0.05791   1.35671
  20   20421.0    489.7   0.000821529   0.01324  -0.07026  -0.00581   0.09096
  21   21608.3    462.8   0.005042114   0.07682   0.20000   0.17413   0.08062
  22   21868.1    457.3   0.001197285   0.01802   0.12863   0.03840  -0.00224
  23   21957.5    455.4   0.032102078   0.48131  -0.67244  -0.15636   0.06846
  24   22230.5    449.8   0.108174739   1.60197  -1.18290  -0.31178   0.32481
  25   22261.1    449.2   0.015765715   0.23315  -0.10702   0.00952   0.47075
  26   23295.0    429.3   0.004013225   0.05672  -0.12782  -0.01083   0.20065
  27   23777.9    420.6   0.283945594   3.93131   0.21905   0.32024   1.94442
  28   24044.1    415.9   0.009602817   0.13148   0.04419   0.35139  -0.07781
  29   24244.0    412.5   0.001848912   0.02511  -0.06457  -0.14389  -0.01526
  30   24405.7    409.7   0.003013972   0.04066   0.04193   0.08803   0.17649
  31   24722.4    404.5   0.188410939   2.50894   1.27459  -0.01434  -0.94029
  32   25178.5    397.2   0.058914390   0.77031  -0.55551  -0.20680   0.64727
  33   25257.2    395.9   0.011924748   0.15543  -0.37042  -0.12956   0.03792
  34   25301.9    395.2   0.019761963   0.25713  -0.47093  -0.17979   0.05502
  35   25445.6    393.0   0.052362314   0.67746   0.28567  -0.17155  -0.75261
  36   25579.4    390.9   0.044319484   0.57040   0.39533   0.17619  -0.61893
  37   25620.1    390.3   0.070253372   0.90274  -0.19700   0.18857   0.91015
  38   25863.5    386.6   0.028624723   0.36436   0.37594  -0.46398   0.08802
  39   26243.1    381.1   0.004055079   0.05087   0.06127  -0.20629   0.06751
  40   26346.4    379.6   0.026107128   0.32622  -0.47649  -0.12459   0.28924
  41   26496.2    377.4   0.126929856   1.57709  -0.76105  -0.08811   0.99505
  42   27138.4    368.5   0.046201021   0.56046  -0.60754  -0.33639   0.27964
  43   27226.5    367.3   0.279763560   3.38279  -1.46940  -0.92160   0.61181
  44   27421.8    364.7   0.009392232   0.11276  -0.06161   0.11244   0.31036
  45   27693.3    361.1   0.006709242   0.07976  -0.27933   0.03422  -0.02370
  46   27832.7    359.3   0.031824071   0.37642  -0.02530  -0.03305   0.61212
  47   28034.4    356.7   0.296170089   3.47797  -1.83852  -0.30112   0.08446
  48   28507.1    350.8   0.000677488   0.00782   0.07747   0.00181   0.04265
  49   28582.7    349.9   0.020496081   0.23607  -0.42328  -0.00978  -0.23835
  50   28959.6    345.3   0.080941542   0.92014  -0.94078  -0.17462   0.06768
  51   29159.0    342.9   0.027178428   0.30685   0.45881  -0.10115  -0.29345
  52   29532.0    338.6   0.087510460   0.97554  -0.90400  -0.01903   0.39744
  53   30021.6    333.1   0.006108057   0.06698  -0.24708   0.02046   0.07426
  54   30187.7    331.3   0.017630300   0.19227   0.43155   0.07671   0.01203
  55   30263.6    330.4   0.006492558   0.07063  -0.25276   0.04713  -0.06722
  56   30271.8    330.3   0.000134171   0.00146  -0.03033  -0.00341   0.02297
  57   30489.5    328.0   0.037762747   0.40775   0.60264   0.20654  -0.04367
  58   30655.9    326.2   0.015545673   0.16694   0.08712  -0.12804  -0.37810
  59   30791.6    324.8   0.068267328   0.72989  -0.65967  -0.21099   0.50020
  60   30903.0    323.6   0.148325855   1.58013  -0.54696  -0.04653   1.13084
  61   31051.6    322.0   0.017515491   0.18570   0.12355   0.04413  -0.41047
  62   31988.5    312.6   0.011684647   0.12025   0.04371   0.08190   0.33412
  63   32226.9    310.3   0.000920594   0.00940  -0.08222   0.04885   0.01606
  64   32296.9    309.6   0.001749758   0.01784  -0.08712   0.07012   0.07300
  65   32528.2    307.4   0.001988888   0.02013  -0.00036  -0.05400   0.13120
  66   32613.5    306.6   0.098058587   0.98984   0.41810   0.06920  -0.90014
  67   32865.5    304.3   0.008669191   0.08684   0.08308  -0.02214  -0.28186
  68   32909.3    303.9   0.004352112   0.04354  -0.13388   0.15887   0.01932
  69   33079.3    302.3   0.097907096   0.97439   0.20655   0.18686   0.94700
  70   33291.6    300.4   0.159350733   1.57578  -1.17388   0.09498   0.43447
  71   33446.3    299.0   0.226733479   2.23174   1.39335  -0.01936  -0.53847
  72   33784.4    296.0   0.034187500   0.33314   0.21882   0.03160  -0.53316
  73   33935.8    294.7   0.137109323   1.33010   0.51981   0.06498  -1.02746
  74   34065.0    293.6   0.167540278   1.61915   1.22225   0.19261   0.29692
  75   34218.3    292.2   0.010706142   0.10300   0.04725  -0.02531   0.31643
  76   34368.5    291.0   0.004550574   0.04359  -0.12005  -0.16067  -0.05799
  77   34624.6    288.8   0.010437601   0.09924  -0.26997  -0.14915   0.06411
  78   34711.5    288.1   0.007440027   0.07056   0.10828   0.02555  -0.24122
  79   34916.8    286.4   0.001813553   0.01710  -0.07269  -0.04651  -0.09825
  80   35093.4    285.0   0.013063805   0.12255   0.13879   0.17817   0.26748
  81   35254.9    283.6   0.003251542   0.03036   0.07970  -0.01099  -0.15456
  82   35729.3    279.9   0.025910173   0.23874   0.43577   0.17548  -0.13434
  83   36166.6    276.5   0.009907119   0.09018   0.00821  -0.28690  -0.08832
  84   36350.4    275.1   0.172228270   1.55981   1.22179   0.21748  -0.14049
  85   36408.7    274.7   0.011569334   0.10461   0.27839   0.09611   0.13368
  86   36641.4    272.9   0.000383065   0.00344   0.04463  -0.01432  -0.03528
  87   36741.9    272.2   0.017191427   0.15404  -0.35775  -0.01948   0.16022
  88   36807.3    271.7   0.191148472   1.70967   1.26189   0.17445  -0.29473
  89   36899.2    271.0   0.012873466   0.11486  -0.33058   0.00265  -0.07462
  90   37200.0    268.8   0.066990858   0.59286   0.73428   0.13594  -0.18762
  91   37567.7    266.2   0.009639810   0.08448  -0.26062   0.01634  -0.12762
  92   37625.8    265.8   0.005357719   0.04688   0.16293   0.14133  -0.01890
  93   37639.7    265.7   0.023933716   0.20933  -0.23182  -0.06109   0.38969
  94   37726.2    265.1   0.011363692   0.09916  -0.15466  -0.07939  -0.26256
  95   37845.4    264.2   0.046417070   0.40378   0.31314  -0.06248   0.54938
  96   37961.0    263.4   0.269634801   2.33837  -0.50170  -1.28041  -0.66875
  97   38079.1    262.6   0.008080266   0.06986  -0.04989  -0.19852  -0.16721
  98   38183.3    261.9   0.034538372   0.29779   0.48685  -0.24189   0.04749
  99   38496.5    259.8   0.066162910   0.56581   0.66887   0.30474   0.15987
 100   38710.0    258.3   0.021764472   0.18510   0.08199  -0.41753  -0.06356
 101   38903.4    257.0   0.043276461   0.36622  -0.08236  -0.55999  -0.21411
 102   39001.8    256.4   0.041795688   0.35279   0.41567   0.36367   0.21854
 103   39063.5    256.0   0.003008961   0.02536  -0.01833  -0.15810  -0.00527
 104   39191.6    255.2   0.005367713   0.04509   0.19524  -0.08263   0.01190
 105   39428.3    253.6   0.025066438   0.20930  -0.30478  -0.01981  -0.34060
 106   39515.7    253.1   0.000881281   0.00734  -0.01872   0.02694  -0.07916
 107   39641.4    252.3   0.006885888   0.05719   0.07909   0.21278   0.07521
 108   39787.7    251.3   0.002644229   0.02188  -0.05853   0.10077  -0.09110
 109   39927.8    250.5   0.007645535   0.06304   0.11461  -0.20881  -0.07937
 110   39979.9    250.1   0.010634079   0.08757  -0.08268   0.06065  -0.27758
 111   39985.5    250.1   0.005480740   0.04512   0.10953  -0.13448   0.12265
 112   40308.5    248.1   0.022841904   0.18656   0.38228   0.18957   0.06697

FINAL SINGLE POINT ENERGY     -3503.121291954938

DIPOLE MOMENT
-------------
                                X             Y             Z
Electronic contribution:     11.77343       7.81078      11.88595
Nuclear contribution   :    -16.07055     -10.58046     -11.29067
                        -----------------------------------------
Total Dipole Moment    :     -4.29712      -2.76968       0.59528
                        -----------------------------------------
Magnitude (a.u.)       :      5.14692
Magnitude (Debye)      :     13.08242

Rotational constants in cm-1:     0.001796     0.000269     0.000245
Rotational constants in MHz :    53.835574     8.056093     7.346959

                             ****ORCA TERMINATED NORMALLY****
TOTAL RUN TIME: 0 days 0 hours 25 minutes 28 seconds 575 msec
