                         Program Version 4.2.0 -  RELEASE  -
|  1> # ORCA input file
|  2> # SCF done       -176.704915065312          0.000507761395
|  3> ! CAM-B3LYP def2-SVP def2/J RIJCOSX Grid4 TightSCF
|  4> %maxcore 5000
|  5> %tddft
|  6>     Mode sTDDFT
|  7>     Ethresh 5.0
|  8>     maxcore 5000
|  9> end
| 10>
| 11> %pal
| 12>   nprocs 6
| 13>   end
| 14> * xyz 0 1
| 15>    C       -7.21064        -5.13151         5.10737
| 16>    C       -6.82474        -5.06690         3.84623
| 17>    C       -7.84192        -5.68822         2.92730
| 18>    C       -8.81598        -6.42118         3.88174
| 19>    C       -8.54042        -5.80101         5.26683
| 20>    C      -10.22221        -6.21017         3.29401
| 21>    C      -10.12622        -4.88384         2.51410
| 22>    C      -10.76213        -3.88841         3.45136
| 23>    C      -11.41448        -4.49206         4.43015
| 24>    C      -11.33817        -5.98799         4.32562
| 25>    C       -8.67414        -4.65367         2.21962
| 26>    C       -8.25448        -3.61738         1.47733
| 27>    C       -6.92357        -3.28860         1.07722
| 28>    C       -5.74915        -4.15716         0.92463
| 29>    N       -4.68580        -3.55535         0.47357
| 30>    C       -5.05301        -2.25128         0.29192
| 31>    C       -6.46178        -2.06220         0.65960
| 32>    C       -6.85645        -0.69913         0.42498
| 33>    S       -8.37217        -0.07315         0.58032
| 34>    C       -5.65884        -0.05457        -0.05492
| 35>    C       -4.57378        -1.04867        -0.15493
| 36>    N       -3.44631        -0.48068        -0.67284
| 37>    C       -3.76663         0.75634        -0.91976
| 38>    C       -5.13867         1.11780        -0.55535
| 39>    C       -5.67804         2.44821        -0.65966
| 40>    C       -6.58487         2.91155         0.27239
| 41>    C       -7.02212         4.24995         0.22789
| 42>    C       -7.83776         5.00084         1.07614
| 43>    C       -8.52642         4.65151         2.35190
| 44>    C       -9.86741         3.92697         2.08391
| 45>    N       -9.63614         2.63565         1.48308
| 46>    C       -7.66346         3.82839         3.31963
| 47>    N       -6.42441         4.53694         3.59726
| 48>    C       -7.94140         6.31745         0.48852
| 49>    C       -8.61934         7.41237         0.88358
| 50>    C       -8.61609         8.66254         0.08383
| 51>    C       -7.72634         8.63436        -1.11965
| 52>    C       -7.05188         7.53232        -1.50039
| 53>    C       -7.13372         6.34597        -0.73457
| 54>    C       -6.56915         5.09227        -0.87478
| 55>    C       -5.67513         4.57473        -1.83811
| 56>    C       -5.22279         3.30112        -1.71499
| 57>    C      -10.01166         8.97085        -0.41644
| 58>    C      -10.84748         8.02591        -0.86249
| 59>    C      -12.16926         8.26864        -1.35105
| 60>    C      -12.99672         7.20949        -1.93138
| 61>    N      -14.18402         7.58843        -2.30631
| 62>    C      -14.24642         8.91560        -2.00045
| 63>    C      -12.98046         9.38229        -1.40655
| 64>    C      -13.09963        10.78152        -1.06827
| 65>    S      -11.96270        11.74013        -0.35853
| 66>    C      -14.43648        11.14679        -1.45913
| 67>    C      -15.11595         9.97155        -2.03294
| 68>    N      -16.39542        10.27545        -2.39361
| 69>    C      -16.55492        11.52444        -2.06675
| 70>    C      -15.37589        12.15842        -1.46550
| 71>    C      -15.34125        13.51618        -1.03219
| 72>    C      -14.25018        14.22654        -0.66637
| 73>    C      -14.66569        15.62719        -0.39022
| 74>    C      -16.13012        15.44083         0.02302
| 75>    C      -16.60408        14.36984        -0.95220
| 76>    C      -16.61717        16.87471         0.17467
| 77>    C      -15.37566        17.52676         0.86634
| 78>    C      -15.80702        17.62874         2.30145
| 79>    C      -17.09013        17.35588         2.46175
| 80>    C      -17.77639        17.03282         1.16771
| 81>    C      -14.18388        16.60749         0.63025
| 82>    C      -13.00617        16.66868         1.21961
| 83>    H       -6.67766        -4.73590         5.95496
| 84>    H       -5.92746        -4.60499         3.47400
| 85>    H       -7.38552        -6.36784         2.20128
| 86>    H       -8.58047        -7.48706         3.92463
| 87>    H       -8.52798        -6.55193         6.05828
| 88>    H       -9.28406        -5.04562         5.52992
| 89>    H      -10.45531        -7.04537         2.63041
| 90>    H      -10.69553        -4.89631         1.57649
| 91>    H      -10.67634        -2.82956         3.28428
| 92>    H      -11.97257        -4.00845         5.21398
| 93>    H      -12.28961        -6.38000         3.95471
| 94>    H      -11.13446        -6.47306         5.28016
| 95>    H       -8.99820        -2.90283         1.14130
| 96>    H       -5.72212        -5.21506         1.11417
| 97>    H       -3.03277         1.43579        -1.31812
| 98>    H       -6.93821         2.24857         1.04494
| 99>    H       -8.76382         5.59070         2.86106
|100>    H      -10.50206         4.59557         1.47477
|101>    H      -10.36760         3.76960         3.04332
|102>    H       -9.32873         2.72407         0.52198
|103>    H      -10.46451         2.05563         1.50165
|104>    H       -7.52641         2.81719         2.91604
|105>    H       -8.20626         3.73422         4.26473
|106>    H       -5.87422         4.62152         2.74821
|107>    H       -5.87189         4.02531         4.27615
|108>    H       -9.22848         7.42163         1.77705
|109>    H       -8.31534         9.49229         0.73789
|110>    H       -7.68541         9.54500        -1.69697
|111>    H       -6.43497         7.54374        -2.38731
|112>    H       -5.35401         5.20210        -2.65653
|113>    H       -4.53613         2.89396        -2.44179
|114>    H      -10.30094        10.01117        -0.43810
|115>    H      -10.53572         6.98768        -0.86736
|116>    H      -12.67860         6.18912        -2.06315
|117>    H      -17.49067        12.01958        -2.25951
|118>    H      -13.23656        13.87200        -0.65468
|119>    H      -14.64421        16.15623        -1.36082
|120>    H      -16.12712        14.99301         1.02527
|121>    H      -16.83362        14.79403        -1.93447
|122>    H      -17.46853        13.81025        -0.59824
|123>    H      -16.83617        17.32142        -0.79698
|124>    H      -15.15293        18.52599         0.47451
|125>    H      -15.11106        17.90079         3.07505
|126>    H      -17.63015        17.37096         3.39307
|127>    H      -18.44234        17.85086         0.88012
|128>    H      -18.37952        16.12563         1.23776
|129>    H      -12.77307        17.42304         1.95175
|130>    H      -12.22595        15.96332         0.99079
|131> *
|132>
|133>                          ****END OF INPUT****

CARTESIAN COORDINATES (ANGSTROEM)
---------------------------------
  C     -7.210640   -5.131510    5.107370
  C     -6.824740   -5.066900    3.846230
  C     -7.841920   -5.688220    2.927300
  C     -8.815980   -6.421180    3.881740
  C     -8.540420   -5.801010    5.266830
  C    -10.222210   -6.210170    3.294010
  C    -10.126220   -4.883840    2.514100
  C    -10.762130   -3.888410    3.451360
  C    -11.414480   -4.492060    4.430150
  C    -11.338170   -5.987990    4.325620
  C     -8.674140   -4.653670    2.219620
  C     -8.254480   -3.617380    1.477330
  C     -6.923570   -3.288600    1.077220
  C     -5.749150   -4.157160    0.924630
  N     -4.685800   -3.555350    0.473570
  C     -5.053010   -2.251280    0.291920
  C     -6.461780   -2.062200    0.659600
  C     -6.856450   -0.699130    0.424980
  S     -8.372170   -0.073150    0.580320
  C     -5.658840   -0.054570   -0.054920
  C     -4.573780   -1.048670   -0.154930
  N     -3.446310   -0.480680   -0.672840
  C     -3.766630    0.756340   -0.919760
  C     -5.138670    1.117800   -0.555350
  C     -5.678040    2.448210   -0.659660
  C     -6.584870    2.911550    0.272390
  C     -7.022120    4.249950    0.227890
  C     -7.837760    5.000840    1.076140
  C     -8.526420    4.651510    2.351900
  C     -9.867410    3.926970    2.083910
  N     -9.636140    2.635650    1.483080
  C     -7.663460    3.828390    3.319630
  N     -6.424410    4.536940    3.597260
  C     -7.941400    6.317450    0.488520
  C     -8.619340    7.412370    0.883580
  C     -8.616090    8.662540    0.083830
  C     -7.726340    8.634360   -1.119650
  C     -7.051880    7.532320   -1.500390
  C     -7.133720    6.345970   -0.734570
  C     -6.569150    5.092270   -0.874780
  C     -5.675130    4.574730   -1.838110
  C     -5.222790    3.301120   -1.714990
  C    -10.011660    8.970850   -0.416440
  C    -10.847480    8.025910   -0.862490
  C    -12.169260    8.268640   -1.351050
  C    -12.996720    7.209490   -1.931380
  N    -14.184020    7.588430   -2.306310
  C    -14.246420    8.915600   -2.000450
  C    -12.980460    9.382290   -1.406550
  C    -13.099630   10.781520   -1.068270
  S    -11.962700   11.740130   -0.358530
  C    -14.436480   11.146790   -1.459130
  C    -15.115950    9.971550   -2.032940
  N    -16.395420   10.275450   -2.393610
  C    -16.554920   11.524440   -2.066750
  C    -15.375890   12.158420   -1.465500
  C    -15.341250   13.516180   -1.032190
  C    -14.250180   14.226540   -0.666370
  C    -14.665690   15.627190   -0.390220
  C    -16.130120   15.440830    0.023020
  C    -16.604080   14.369840   -0.952200
  C    -16.617170   16.874710    0.174670
  C    -15.375660   17.526760    0.866340
  C    -15.807020   17.628740    2.301450
  C    -17.090130   17.355880    2.461750
  C    -17.776390   17.032820    1.167710
  C    -14.183880   16.607490    0.630250
  C    -13.006170   16.668680    1.219610
  H     -6.677660   -4.735900    5.954960
  H     -5.927460   -4.604990    3.474000
  H     -7.385520   -6.367840    2.201280
  H     -8.580470   -7.487060    3.924630
  H     -8.527980   -6.551930    6.058280
  H     -9.284060   -5.045620    5.529920
  H    -10.455310   -7.045370    2.630410
  H    -10.695530   -4.896310    1.576490
  H    -10.676340   -2.829560    3.284280
  H    -11.972570   -4.008450    5.213980
  H    -12.289610   -6.380000    3.954710
  H    -11.134460   -6.473060    5.280160
  H     -8.998200   -2.902830    1.141300
  H     -5.722120   -5.215060    1.114170
  H     -3.032770    1.435790   -1.318120
  H     -6.938210    2.248570    1.044940
  H     -8.763820    5.590700    2.861060
  H    -10.502060    4.595570    1.474770
  H    -10.367600    3.769600    3.043320
  H     -9.328730    2.724070    0.521980
  H    -10.464510    2.055630    1.501650
  H     -7.526410    2.817190    2.916040
  H     -8.206260    3.734220    4.264730
  H     -5.874220    4.621520    2.748210
  H     -5.871890    4.025310    4.276150
  H     -9.228480    7.421630    1.777050
  H     -8.315340    9.492290    0.737890
  H     -7.685410    9.545000   -1.696970
  H     -6.434970    7.543740   -2.387310
  H     -5.354010    5.202100   -2.656530
  H     -4.536130    2.893960   -2.441790
  H    -10.300940   10.011170   -0.438100
  H    -10.535720    6.987680   -0.867360
  H    -12.678600    6.189120   -2.063150
  H    -17.490670   12.019580   -2.259510
  H    -13.236560   13.872000   -0.654680
  H    -14.644210   16.156230   -1.360820
  H    -16.127120   14.993010    1.025270
  H    -16.833620   14.794030   -1.934470
  H    -17.468530   13.810250   -0.598240
  H    -16.836170   17.321420   -0.796980
  H    -15.152930   18.525990    0.474510
  H    -15.111060   17.900790    3.075050
  H    -17.630150   17.370960    3.393070
  H    -18.442340   17.850860    0.880120
  H    -18.379520   16.125630    1.237760
  H    -12.773070   17.423040    1.951750
  H    -12.225950   15.963320    0.990790

 Total Charge           Charge          ....    0
 Multiplicity           Mult            ....    1
 Number of Electrons    NEL             ....  482
 Basis Dimension        Dim             .... 1200

ORBITAL ENERGIES
----------------

  NO   OCC          E(Eh)            E(eV)
   0   2.0000     -88.898020     -2419.0381
   1   2.0000     -88.884045     -2418.6578
   2   2.0000     -14.412422      -392.1819
   3   2.0000     -14.411961      -392.1694
   4   2.0000     -14.402797      -391.9200
   5   2.0000     -14.401920      -391.8962
   6   2.0000     -14.369777      -391.0215
   7   2.0000     -14.360431      -390.7672
   8   2.0000     -10.341232      -281.3992
   9   2.0000     -10.329577      -281.0821
  10   2.0000     -10.329071      -281.0683
  11   2.0000     -10.325261      -280.9646
  12   2.0000     -10.324753      -280.9508
  13   2.0000     -10.324141      -280.9342
  14   2.0000     -10.321556      -280.8638
  15   2.0000     -10.319993      -280.8213
  16   2.0000     -10.315173      -280.6901
  17   2.0000     -10.314287      -280.6660
  18   2.0000     -10.302449      -280.3439
  19   2.0000     -10.301872      -280.3282
  20   2.0000     -10.301607      -280.3210
  21   2.0000     -10.294458      -280.1264
  22   2.0000     -10.290441      -280.0171
  23   2.0000     -10.289959      -280.0040
  24   2.0000     -10.289088      -279.9803
  25   2.0000     -10.288718      -279.9703
  26   2.0000     -10.287646      -279.9411
  27   2.0000     -10.281522      -279.7744
  28   2.0000     -10.279456      -279.7182
  29   2.0000     -10.278461      -279.6911
  30   2.0000     -10.277897      -279.6758
  31   2.0000     -10.277584      -279.6673
  32   2.0000     -10.275625      -279.6140
  33   2.0000     -10.273702      -279.5616
  34   2.0000     -10.273130      -279.5461
  35   2.0000     -10.272637      -279.5327
  36   2.0000     -10.271872      -279.5119
  37   2.0000     -10.271072      -279.4901
  38   2.0000     -10.270261      -279.4680
  39   2.0000     -10.269060      -279.4353
  40   2.0000     -10.268034      -279.4074
  41   2.0000     -10.267693      -279.3981
  42   2.0000     -10.267543      -279.3941
  43   2.0000     -10.267531      -279.3937
  44   2.0000     -10.266663      -279.3701
  45   2.0000     -10.266497      -279.3656
  46   2.0000     -10.265991      -279.3518
  47   2.0000     -10.265104      -279.3277
  48   2.0000     -10.264863      -279.3211
  49   2.0000     -10.264261      -279.3047
  50   2.0000     -10.263913      -279.2953
  51   2.0000     -10.262575      -279.2589
  52   2.0000     -10.262159      -279.2475
  53   2.0000     -10.261567      -279.2314
  54   2.0000     -10.261055      -279.2175
  55   2.0000     -10.260654      -279.2066
  56   2.0000     -10.260230      -279.1950
  57   2.0000     -10.259740      -279.1817
  58   2.0000     -10.259405      -279.1726
  59   2.0000     -10.258163      -279.1388
  60   2.0000     -10.257292      -279.1151
  61   2.0000     -10.257125      -279.1106
  62   2.0000     -10.256721      -279.0996
  63   2.0000     -10.256204      -279.0855
  64   2.0000     -10.255487      -279.0660
  65   2.0000     -10.254583      -279.0414
  66   2.0000     -10.254074      -279.0275
  67   2.0000     -10.246961      -278.8340
  68   2.0000      -7.993767      -217.5215
  69   2.0000      -7.979378      -217.1299
  70   2.0000      -5.962576      -162.2499
  71   2.0000      -5.961903      -162.2316
  72   2.0000      -5.953434      -162.0012
  73   2.0000      -5.948188      -161.8584
  74   2.0000      -5.947874      -161.8499
  75   2.0000      -5.938740      -161.6013
  76   2.0000      -1.079484       -29.3743
  77   2.0000      -1.068918       -29.0867
  78   2.0000      -1.060546       -28.8589
  79   2.0000      -1.050107       -28.5749
  80   2.0000      -0.982669       -26.7398
  81   2.0000      -0.979558       -26.6551
  82   2.0000      -0.971970       -26.4486
  83   2.0000      -0.958936       -26.0940
  84   2.0000      -0.957716       -26.0608
  85   2.0000      -0.948194       -25.8017
  86   2.0000      -0.945257       -25.7217
  87   2.0000      -0.937718       -25.5166
  88   2.0000      -0.934490       -25.4288
  89   2.0000      -0.918055       -24.9816
  90   2.0000      -0.917798       -24.9746
  91   2.0000      -0.895199       -24.3596
  92   2.0000      -0.893433       -24.3115
  93   2.0000      -0.886269       -24.1166
  94   2.0000      -0.871165       -23.7056
  95   2.0000      -0.861873       -23.4527
  96   2.0000      -0.858815       -23.3695
  97   2.0000      -0.852017       -23.1846
  98   2.0000      -0.847670       -23.0663
  99   2.0000      -0.835352       -22.7311
 100   2.0000      -0.833223       -22.6732
 101   2.0000      -0.826637       -22.4939
 102   2.0000      -0.823248       -22.4017
 103   2.0000      -0.822135       -22.3714
 104   2.0000      -0.819649       -22.3038
 105   2.0000      -0.797168       -21.6921
 106   2.0000      -0.789514       -21.4838
 107   2.0000      -0.783373       -21.3167
 108   2.0000      -0.779839       -21.2205
 109   2.0000      -0.778352       -21.1800
 110   2.0000      -0.773059       -21.0360
 111   2.0000      -0.762143       -20.7390
 112   2.0000      -0.756751       -20.5922
 113   2.0000      -0.755377       -20.5549
 114   2.0000      -0.753388       -20.5007
 115   2.0000      -0.735087       -20.0027
 116   2.0000      -0.728239       -19.8164
 117   2.0000      -0.719821       -19.5873
 118   2.0000      -0.709782       -19.3141
 119   2.0000      -0.703358       -19.1393
 120   2.0000      -0.689212       -18.7544
 121   2.0000      -0.687992       -18.7212
 122   2.0000      -0.685018       -18.6403
 123   2.0000      -0.680960       -18.5299
 124   2.0000      -0.673274       -18.3207
 125   2.0000      -0.670292       -18.2396
 126   2.0000      -0.665496       -18.1091
 127   2.0000      -0.655401       -17.8344
 128   2.0000      -0.642770       -17.4907
 129   2.0000      -0.637392       -17.3443
 130   2.0000      -0.634017       -17.2525
 131   2.0000      -0.631549       -17.1853
 132   2.0000      -0.629725       -17.1357
 133   2.0000      -0.624982       -17.0066
 134   2.0000      -0.612698       -16.6724
 135   2.0000      -0.611981       -16.6528
 136   2.0000      -0.605442       -16.4749
 137   2.0000      -0.603114       -16.4116
 138   2.0000      -0.600371       -16.3369
 139   2.0000      -0.597090       -16.2476
 140   2.0000      -0.591471       -16.0948
 141   2.0000      -0.589342       -16.0368
 142   2.0000      -0.587973       -15.9996
 143   2.0000      -0.578911       -15.7530
 144   2.0000      -0.575108       -15.6495
 145   2.0000      -0.571943       -15.5634
 146   2.0000      -0.570279       -15.5181
 147   2.0000      -0.566960       -15.4278
 148   2.0000      -0.565070       -15.3763
 149   2.0000      -0.560755       -15.2589
 150   2.0000      -0.559479       -15.2242
 151   2.0000      -0.555218       -15.1083
 152   2.0000      -0.550273       -14.9737
 153   2.0000      -0.547071       -14.8866
 154   2.0000      -0.546844       -14.8804
 155   2.0000      -0.537616       -14.6293
 156   2.0000      -0.535955       -14.5841
 157   2.0000      -0.529435       -14.4067
 158   2.0000      -0.528060       -14.3692
 159   2.0000      -0.526152       -14.3173
 160   2.0000      -0.524739       -14.2789
 161   2.0000      -0.522528       -14.2187
 162   2.0000      -0.517157       -14.0726
 163   2.0000      -0.514242       -13.9932
 164   2.0000      -0.512349       -13.9417
 165   2.0000      -0.506732       -13.7889
 166   2.0000      -0.502967       -13.6864
 167   2.0000      -0.502025       -13.6608
 168   2.0000      -0.499771       -13.5995
 169   2.0000      -0.498581       -13.5671
 170   2.0000      -0.495798       -13.4913
 171   2.0000      -0.495000       -13.4696
 172   2.0000      -0.493247       -13.4219
 173   2.0000      -0.490136       -13.3373
 174   2.0000      -0.488251       -13.2860
 175   2.0000      -0.484752       -13.1908
 176   2.0000      -0.483536       -13.1577
 177   2.0000      -0.479432       -13.0460
 178   2.0000      -0.477755       -13.0004
 179   2.0000      -0.475976       -12.9520
 180   2.0000      -0.473531       -12.8854
 181   2.0000      -0.471177       -12.8214
 182   2.0000      -0.467194       -12.7130
 183   2.0000      -0.464554       -12.6412
 184   2.0000      -0.459328       -12.4990
 185   2.0000      -0.457674       -12.4539
 186   2.0000      -0.454663       -12.3720
 187   2.0000      -0.451849       -12.2954
 188   2.0000      -0.450617       -12.2619
 189   2.0000      -0.444142       -12.0857
 190   2.0000      -0.443782       -12.0759
 191   2.0000      -0.438558       -11.9338
 192   2.0000      -0.436938       -11.8897
 193   2.0000      -0.435443       -11.8490
 194   2.0000      -0.432453       -11.7677
 195   2.0000      -0.432303       -11.7636
 196   2.0000      -0.427052       -11.6207
 197   2.0000      -0.425547       -11.5797
 198   2.0000      -0.424883       -11.5617
 199   2.0000      -0.424175       -11.5424
 200   2.0000      -0.423132       -11.5140
 201   2.0000      -0.421568       -11.4715
 202   2.0000      -0.419069       -11.4034
 203   2.0000      -0.412247       -11.2178
 204   2.0000      -0.409328       -11.1384
 205   2.0000      -0.407143       -11.0789
 206   2.0000      -0.406170       -11.0525
 207   2.0000      -0.403012       -10.9665
 208   2.0000      -0.400480       -10.8976
 209   2.0000      -0.395280       -10.7561
 210   2.0000      -0.393924       -10.7192
 211   2.0000      -0.393140       -10.6979
 212   2.0000      -0.388321       -10.5667
 213   2.0000      -0.386870       -10.5273
 214   2.0000      -0.383398       -10.4328
 215   2.0000      -0.380902       -10.3649
 216   2.0000      -0.374572       -10.1926
 217   2.0000      -0.368356       -10.0235
 218   2.0000      -0.362642        -9.8680
 219   2.0000      -0.362530        -9.8650
 220   2.0000      -0.352622        -9.5953
 221   2.0000      -0.350510        -9.5379
 222   2.0000      -0.345988        -9.4148
 223   2.0000      -0.339825        -9.2471
 224   2.0000      -0.337846        -9.1933
 225   2.0000      -0.326733        -8.8909
 226   2.0000      -0.316530        -8.6132
 227   2.0000      -0.313697        -8.5361
 228   2.0000      -0.309794        -8.4299
 229   2.0000      -0.309159        -8.4126
 230   2.0000      -0.308752        -8.4016
 231   2.0000      -0.307979        -8.3805
 232   2.0000      -0.297964        -8.1080
 233   2.0000      -0.290874        -7.9151
 234   2.0000      -0.285631        -7.7724
 235   2.0000      -0.282621        -7.6905
 236   2.0000      -0.279279        -7.5996
 237   2.0000      -0.278375        -7.5750
 238   2.0000      -0.271476        -7.3872
 239   2.0000      -0.263682        -7.1752
 240   2.0000      -0.219368        -5.9693
 241   0.0000      -0.108118        -2.9420
 242   0.0000      -0.097710        -2.6588
 243   0.0000      -0.075091        -2.0433
 244   0.0000      -0.070309        -1.9132
 245   0.0000      -0.054656        -1.4873

MULLIKEN ATOMIC CHARGES
-----------------------
   0 C :   -0.072546
   1 C :    0.006143
   2 C :    0.018017
   3 C :   -0.052134
   4 C :    0.156796
   5 C :   -0.055385
   6 C :    0.036264
   7 C :    0.006571
   8 C :   -0.076799
   9 C :    0.154578
  10 C :   -0.044146
  11 C :   -0.047473
  12 C :    0.002159
  13 C :    0.038354
  14 N :   -0.032409
  15 C :    0.030707
  16 C :   -0.003124
  17 C :   -0.012352
  18 S :   -0.143576
  19 C :   -0.003972
  20 C :   -0.019072
  21 N :   -0.032331
  22 C :    0.046729
  23 C :   -0.006961
  24 C :    0.076588
  25 C :   -0.066273
  26 C :    0.013901
  27 C :   -0.078526
  28 C :    0.001271
  29 C :    0.156705
  30 N :   -0.228829
  31 C :    0.123410
  32 N :   -0.222344
  33 C :    0.099674
  34 C :   -0.140255
  35 C :    0.155624
  36 C :   -0.023333
  37 C :    0.016180
  38 C :    0.018461
  39 C :    0.035845
  40 C :   -0.005188
  41 C :   -0.024304
  42 C :   -0.062621
  43 C :    0.027574
  44 C :    0.012284
  45 C :    0.054571
  46 N :   -0.025550
  47 C :   -0.004785
  48 C :   -0.010598
  49 C :    0.002044
  50 S :   -0.129394
  51 C :   -0.016725
  52 C :    0.003470
  53 N :   -0.020466
  54 C :    0.036780
  55 C :    0.041161
  56 C :   -0.170542
  57 C :    0.003833
  58 C :    0.051988
  59 C :   -0.146209
  60 C :    0.285127
  61 C :   -0.033119
  62 C :    0.047429
  63 C :    0.005904
  64 C :   -0.078740
  65 C :    0.173963
  66 C :   -0.032413
  67 C :   -0.068349
  68 H :   -0.011533
  69 H :   -0.003216
  70 H :    0.021269
  71 H :   -0.008861
  72 H :    0.006935
  73 H :    0.019367
  74 H :   -0.013061
  75 H :    0.020879
  76 H :   -0.002903
  77 H :   -0.011653
  78 H :    0.013084
  79 H :    0.005733
  80 H :   -0.017958
  81 H :    0.006608
  82 H :    0.005005
  83 H :   -0.015756
  84 H :   -0.021861
  85 H :   -0.028026
  86 H :   -0.009485
  87 H :    0.105730
  88 H :    0.096986
  89 H :    0.003159
  90 H :   -0.018995
  91 H :    0.095875
  92 H :    0.088135
  93 H :    0.001346
  94 H :    0.031930
  95 H :   -0.010128
  96 H :   -0.036288
  97 H :   -0.036675
  98 H :   -0.028390
  99 H :    0.002967
 100 H :   -0.009697
 101 H :    0.007015
 102 H :    0.009230
 103 H :   -0.016632
 104 H :    0.021757
 105 H :    0.007561
 106 H :   -0.005682
 107 H :    0.002282
 108 H :   -0.026300
 109 H :    0.014708
 110 H :   -0.010164
 111 H :   -0.011975
 112 H :    0.011600
 113 H :    0.001699
 114 H :   -0.000788
 115 H :    0.005903
Sum of atomic charges:    0.0000000

LOEWDIN ATOMIC CHARGES
----------------------
   0 C :   -0.017966
   1 C :   -0.029457
   2 C :   -0.028507
   3 C :   -0.006459
   4 C :   -0.030961
   5 C :   -0.012818
   6 C :   -0.022016
   7 C :   -0.016993
   8 C :   -0.031989
   9 C :   -0.028046
  10 C :    0.021977
  11 C :   -0.055338
  12 C :   -0.029953
  13 C :    0.078656
  14 N :   -0.086508
  15 C :    0.034500
  16 C :   -0.045067
  17 C :   -0.142959
  18 S :    0.058892
  19 C :   -0.043767
  20 C :    0.033402
  21 N :   -0.084563
  22 C :    0.079046
  23 C :   -0.026170
  24 C :   -0.036899
  25 C :    0.011026
  26 C :   -0.032363
  27 C :   -0.028012
  28 C :   -0.040298
  29 C :    0.028155
  30 N :   -0.108533
  31 C :    0.025600
  32 N :   -0.125051
  33 C :   -0.021739
  34 C :    0.076118
  35 C :   -0.032293
  36 C :   -0.023145
  37 C :   -0.020742
  38 C :   -0.037052
  39 C :   -0.030947
  40 C :   -0.008909
  41 C :   -0.032507
  42 C :    0.039494
  43 C :   -0.043821
  44 C :   -0.027546
  45 C :    0.082619
  46 N :   -0.079136
  47 C :    0.034560
  48 C :   -0.044098
  49 C :   -0.129563
  50 S :    0.074582
  51 C :   -0.043673
  52 C :    0.035157
  53 N :   -0.078071
  54 C :    0.080287
  55 C :   -0.023548
  56 C :   -0.044620
  57 C :    0.036453
  58 C :   -0.029057
  59 C :   -0.012551
  60 C :   -0.017543
  61 C :   -0.014241
  62 C :   -0.015484
  63 C :   -0.020044
  64 C :   -0.031312
  65 C :   -0.027597
  66 C :   -0.007680
  67 C :   -0.077452
  68 H :    0.021022
  69 H :    0.020341
  70 H :    0.029561
  71 H :    0.024469
  72 H :    0.023936
  73 H :    0.032352
  74 H :    0.020693
  75 H :    0.037330
  76 H :    0.023696
  77 H :    0.020366
  78 H :    0.030194
  79 H :    0.022777
  80 H :    0.027010
  81 H :    0.022212
  82 H :    0.023290
  83 H :    0.026559
  84 H :    0.026044
  85 H :   -0.005872
  86 H :    0.015677
  87 H :    0.048894
  88 H :    0.053947
  89 H :    0.000448
  90 H :    0.015788
  91 H :    0.049597
  92 H :    0.052720
  93 H :    0.032480
  94 H :    0.059368
  95 H :    0.026244
  96 H :    0.029807
  97 H :    0.027423
  98 H :    0.024791
  99 H :    0.002334
 100 H :    0.030781
 101 H :    0.025440
 102 H :    0.024036
 103 H :    0.003404
 104 H :    0.041962
 105 H :    0.029607
 106 H :    0.028383
 107 H :    0.021287
 108 H :    0.017366
 109 H :    0.033938
 110 H :    0.020526
 111 H :    0.019684
 112 H :    0.028452
 113 H :    0.022870
 114 H :    0.018939
 115 H :    0.022368

  Mayer bond orders larger than 0.100000
B(  0-C ,  1-C ) :   1.8974 B(  0-C ,  4-C ) :   1.0167 B(  0-C , 68-H ) :   0.9923
B(  1-C ,  2-C ) :   0.9967 B(  1-C , 69-H ) :   0.9873 B(  2-C ,  3-C ) :   1.0597
B(  2-C , 10-C ) :   0.9870 B(  2-C , 70-H ) :   0.8831 B(  3-C ,  4-C ) :   1.0643
B(  3-C ,  5-C ) :   1.0253 B(  3-C , 71-H ) :   0.9028 B(  4-C , 72-H ) :   0.9325
B(  4-C , 73-H ) :   0.9008 B(  5-C ,  6-C ) :   1.0343 B(  5-C ,  9-C ) :   1.0842
B(  5-C , 74-H ) :   0.9036 B(  6-C ,  7-C ) :   0.9906 B(  6-C , 10-C ) :   1.0161
B(  6-C , 75-H ) :   0.8879 B(  7-C ,  8-C ) :   1.8761 B(  7-C , 76-H ) :   0.9932
B(  8-C ,  9-C ) :   1.0208 B(  8-C , 77-H ) :   0.9877 B(  9-C , 78-H ) :   0.9140
B(  9-C , 79-H ) :   0.9317 B( 10-C , 11-C ) :   1.7931 B( 11-C , 12-C ) :   1.0648
B( 11-C , 80-H ) :   0.9534 B( 12-C , 13-C ) :   1.0086 B( 12-C , 16-C ) :   1.5390
B( 13-C , 14-N ) :   1.7270 B( 13-C , 81-H ) :   0.9877 B( 14-N , 15-C ) :   1.2530
B( 15-C , 16-C ) :   1.0604 B( 15-C , 20-C ) :   1.5262 B( 16-C , 17-C ) :   1.0266
B( 17-C , 18-S ) :   1.6874 B( 17-C , 19-C ) :   1.0337 B( 19-C , 20-C ) :   1.0695
B( 19-C , 23-C ) :   1.5444 B( 20-C , 21-N ) :   1.2598 B( 21-N , 22-C ) :   1.7217
B( 22-C , 23-C ) :   1.0400 B( 22-C , 82-H ) :   0.9880 B( 23-C , 24-C ) :   1.0024
B( 24-C , 25-C ) :   1.5193 B( 24-C , 41-C ) :   1.1150 B( 25-C , 26-C ) :   1.1377
B( 25-C , 83-H ) :   1.0014 B( 26-C , 27-C ) :   1.4423 B( 26-C , 39-C ) :   1.1190
B( 27-C , 28-C ) :   1.0502 B( 27-C , 33-C ) :   1.1143 B( 28-C , 29-C ) :   1.0398
B( 28-C , 31-C ) :   1.0290 B( 28-C , 84-H ) :   0.8743 B( 29-C , 30-N ) :   1.0998
B( 29-C , 85-H ) :   0.9342 B( 29-C , 86-H ) :   0.9365 B( 30-N , 87-H ) :   0.9505
B( 30-N , 88-H ) :   0.9650 B( 31-C , 32-N ) :   1.0929 B( 31-C , 89-H ) :   0.9377
B( 31-C , 90-H ) :   0.9331 B( 32-N , 91-H ) :   0.9709 B( 32-N , 92-H ) :   0.9687
B( 33-C , 34-C ) :   1.6321 B( 33-C , 38-C ) :   1.0563 B( 34-C , 35-C ) :   0.9717
B( 34-C , 93-H ) :   0.9828 B( 35-C , 36-C ) :   0.9949 B( 35-C , 42-C ) :   0.9710
B( 35-C , 94-H ) :   0.8651 B( 36-C , 37-C ) :   1.7213 B( 36-C , 95-H ) :   0.9677
B( 37-C , 38-C ) :   1.1285 B( 37-C , 96-H ) :   0.9875 B( 38-C , 39-C ) :   1.4346
B( 39-C , 40-C ) :   1.1456 B( 40-C , 41-C ) :   1.5998 B( 40-C , 97-H ) :   0.9916
B( 41-C , 98-H ) :   0.9871 B( 42-C , 43-C ) :   1.7600 B( 42-C , 99-H ) :   0.9391
B( 43-C , 44-C ) :   1.1084 B( 43-C ,100-H ) :   0.9574 B( 44-C , 45-C ) :   1.0243
B( 44-C , 48-C ) :   1.4966 B( 45-C , 46-N ) :   1.7203 B( 45-C ,101-H ) :   0.9917
B( 46-N , 47-C ) :   1.2644 B( 47-C , 48-C ) :   1.0732 B( 47-C , 52-C ) :   1.5277
B( 48-C , 49-C ) :   1.0464 B( 49-C , 50-S ) :   1.6639 B( 49-C , 51-C ) :   1.0571
B( 50-S , 99-H ) :   0.1232 B( 51-C , 52-C ) :   1.0660 B( 51-C , 55-C ) :   1.5077
B( 52-C , 53-N ) :   1.2629 B( 53-N , 54-C ) :   1.7214 B( 54-C , 55-C ) :   1.0342
B( 54-C ,102-H ) :   0.9858 B( 55-C , 56-C ) :   1.0748 B( 56-C , 57-C ) :   1.7571
B( 56-C , 60-C ) :   1.0213 B( 57-C , 58-C ) :   0.9654 B( 57-C ,103-H ) :   0.9732
B( 58-C , 59-C ) :   1.0162 B( 58-C , 66-C ) :   1.0080 B( 58-C ,104-H ) :   0.8567
B( 59-C , 60-C ) :   1.0343 B( 59-C , 61-C ) :   1.0077 B( 59-C ,105-H ) :   0.9247
B( 60-C ,106-H ) :   0.8719 B( 60-C ,107-H ) :   0.9240 B( 61-C , 62-C ) :   1.0625
B( 61-C , 65-C ) :   1.0582 B( 61-C ,108-H ) :   0.8865 B( 62-C , 63-C ) :   0.9770
B( 62-C , 66-C ) :   0.9727 B( 62-C ,109-H ) :   0.8708 B( 63-C , 64-C ) :   1.9026
B( 63-C ,110-H ) :   0.9899 B( 64-C , 65-C ) :   1.0181 B( 64-C ,111-H ) :   0.9899
B( 65-C ,112-H ) :   0.9198 B( 65-C ,113-H ) :   0.9327 B( 66-C , 67-C ) :   2.0695
B( 67-C ,114-H ) :   0.9374 B( 67-C ,115-H ) :   0.9356

-----------------------------------------------------------------------------
         ABSORPTION SPECTRUM VIA TRANSITION ELECTRIC DIPOLE MOMENTS
-----------------------------------------------------------------------------
State   Energy  Wavelength   fosc         T2         TX        TY        TZ
        (cm-1)    (nm)                  (au**2)     (au)      (au)      (au)
-----------------------------------------------------------------------------
   0   10930.5    914.9   0.101249486   3.04950   0.85213  -1.52204  -0.08233
   1   11657.8    857.8   0.017236702   0.48676   0.65148  -0.03433   0.24730
   2   14736.9    678.6   0.070936088   1.58467  -0.05939  -1.00780   0.75199
   3   15695.8    637.1   0.000774305   0.01624  -0.11508   0.04047  -0.03687
   4   16283.2    614.1   0.005736177   0.11597  -0.06662   0.33369   0.01365
   5   17550.7    569.8   0.020674687   0.38781   0.36885   0.46304  -0.19329
   6   17825.6    561.0   0.088858598   1.64108   0.20868  -1.25575   0.14358
   7   17921.4    558.0   0.040515290   0.74426   0.16025   0.72739  -0.43529
   8   18206.5    549.3   0.064712142   1.17013   0.57420  -0.91186   0.09458
   9   19248.0    519.5   0.105455198   1.80367   0.16277  -1.30221   0.28534
  10   19273.8    518.8   0.036908834   0.63043  -0.04762   0.76664  -0.20105
  11   19806.6    504.9   0.028094759   0.46697  -0.62919   0.25060  -0.09104
  12   21452.7    466.1   0.009221886   0.14152  -0.16339   0.33409   0.05660
  13   22055.1    453.4   0.020486475   0.30580  -0.24352   0.49073   0.07537
  14   23858.7    419.1   0.001003008   0.01384  -0.03729   0.11141   0.00619
  15   24668.7    405.4   0.024424881   0.32596   0.12813  -0.55282  -0.06271
  16   24983.1    400.3   0.125174645   1.64948  -0.20270   1.24059  -0.26328
  17   25666.1    389.6   0.011334395   0.14538   0.21055  -0.29545  -0.11730
  18   25888.0    386.3   0.014734477   0.18738  -0.20895  -0.24116   0.29250
  19   25903.8    386.0   0.057735310   0.73376  -0.44443   0.71694   0.14910
  20   26137.0    382.6   0.002320364   0.02923   0.05392  -0.14928  -0.06353
  21   26330.4    379.8   0.039870861   0.49851   0.02085   0.66579  -0.23411
  22   26470.9    377.8   0.020797811   0.25866  -0.22147   0.44644  -0.10148
  23   26837.3    372.6   0.601210941   7.37503  -0.98986   2.52835  -0.05139
  24   26984.8    370.6   0.071741429   0.87524  -0.42328  -0.73754   0.39000
  25   27145.7    368.4   0.001408534   0.01708   0.01452  -0.07349   0.10710
  26   27488.2    363.8   0.449818648   5.38724  -0.91409   2.13340   0.01669
  27   28198.1    354.6   0.108487912   1.26659   0.87269  -0.66226   0.25770
  28   28671.1    348.8   0.097084060   1.11475  -0.30551  -0.95286   0.33685
  29   28716.5    348.2   0.026469420   0.30345  -0.40972  -0.22976   0.28774
  30   28868.2    346.4   0.071237824   0.81239   0.76682   0.41407  -0.23006
  31   29236.0    342.0   0.100289990   1.12932  -0.50586  -0.89964   0.25314
  32   29450.3    339.6   0.116791769   1.30556   0.35636   1.00505  -0.41043
  33   30412.1    328.8   0.076868063   0.83210   0.61078  -0.66355  -0.13691
  34   30543.6    327.4   0.089137061   0.96076   0.81649  -0.53981   0.05204
  35   30857.6    324.1   0.012038371   0.12843  -0.24897   0.25749  -0.01196
  36   31109.5    321.4   0.014517228   0.15363  -0.38575  -0.03179  -0.06178
  37   31207.9    320.4   0.022372945   0.23601  -0.41174   0.25418  -0.04325
  38   31336.0    319.1   0.034408117   0.36149  -0.27978  -0.49786   0.18800
  39   31401.7    318.5   0.000114392   0.00120   0.02245  -0.02495  -0.00853
  40   31870.4    313.8   0.004477885   0.04626   0.02588   0.21322   0.01099
  41   32042.8    312.1   0.049113369   0.50460   0.35569   0.50059  -0.35706
  42   32646.2    306.3   0.001586323   0.01600   0.10887   0.05584  -0.03202
  43   32896.1    304.0   0.020759206   0.20775  -0.27395  -0.31785   0.17798
  44   33253.6    300.7   0.107395728   1.06322  -0.13811  -0.94915   0.37850
  45   33321.4    300.1   0.004972474   0.04913   0.12290   0.10418  -0.15222
  46   33953.3    294.5   0.014231059   0.13798  -0.06586   0.36279  -0.04505
  47   34381.8    290.9   0.060476519   0.57907   0.21363  -0.64055   0.35091
  48   34601.3    289.0   0.000075414   0.00072  -0.01830   0.01943   0.00222
  49   34765.1    287.6   0.025315848   0.23973   0.07778  -0.47869   0.06738
  50   34946.7    286.2   0.016317864   0.15372   0.18466  -0.33756  -0.07534
  51   34993.9    285.8   0.012000897   0.11290  -0.30798   0.08344   0.10529
  52   35290.4    283.4   0.136606878   1.27436   0.56860  -0.96664  -0.12908
  53   35622.2    280.7   0.030386955   0.28083  -0.35937  -0.29477   0.25454
  54   35903.2    278.5   0.001501599   0.01377  -0.10525   0.00347   0.05176
  55   36011.2    277.7   0.007822287   0.07151   0.24516  -0.10622   0.01117
  56   36053.2    277.4   0.005358347   0.04893   0.21810  -0.00680   0.03625
  57   36517.6    273.8   0.001430620   0.01290   0.01736  -0.10108  -0.04877
  58   36573.6    273.4   0.001582168   0.01424  -0.03264  -0.05285  -0.10190
  59   36748.6    272.1   0.280876457   2.51623   1.34793  -0.73206  -0.40422
  60   36890.5    271.1   0.045927130   0.40986   0.43791  -0.46660  -0.01935
  61   36990.6    270.3   0.000179783   0.00160  -0.03829   0.00074  -0.01156
  62   37023.4    270.1   0.081931155   0.72853  -0.03201  -0.83754  -0.16135
  63   37274.9    268.3   0.000769532   0.00680  -0.08235  -0.00352   0.00172
  64   37424.8    267.2   0.002133580   0.01877   0.08793  -0.05157  -0.09153
  65   37523.4    266.5   0.000295881   0.00260  -0.03639  -0.01678  -0.03146
  66   37557.8    266.3   0.010029426   0.08791   0.16206   0.08167  -0.23448
  67   37861.5    264.1   0.003185352   0.02770   0.04808   0.15465   0.03833
  68   37884.8    264.0   0.000940461   0.00817  -0.02378  -0.02866   0.08237
  69   38240.4    261.5   0.001288932   0.01110   0.04045  -0.09565   0.01763
  70   38429.1    260.2   0.051102889   0.43778  -0.61586  -0.08295  -0.22720
  71   38811.4    257.7   0.018103213   0.15356   0.32805   0.21224   0.02993
  72   39092.4    255.8   0.305427786   2.57212  -1.41865  -0.14301  -0.73424
  73   39372.0    254.0   0.194126980   1.62321  -0.38581  -1.21227   0.06902
  74   39744.0    251.6   0.178437140   1.47805   1.06999   0.51841  -0.25383
  75   40286.0    248.2   0.033492355   0.27370   0.13828   0.50351  -0.03243

FINAL SINGLE POINT ENERGY     -3436.172700872899

DIPOLE MOMENT
-------------
                                X             Y             Z
Electronic contribution:     23.06270      -7.03656     -39.57810
Nuclear contribution   :    -24.58098       8.32090      40.25860
                        -----------------------------------------
Total Dipole Moment    :     -1.51828       1.28434       0.68050
                        -----------------------------------------
Magnitude (a.u.)       :      2.10185
Magnitude (Debye)      :      5.34248

Rotational constants in cm-1:     0.002017     0.000279     0.000261
Rotational constants in MHz :    60.459789     8.377847     7.836391

                             ****ORCA TERMINATED NORMALLY****
TOTAL RUN TIME: 0 days 0 hours 11 minutes 22 seconds 606 msec
