                         Program Version 4.2.0 -  RELEASE  -
|  1> # ORCA input file
|  2> # SCF done       -191.673457928183          0.000745937693
|  3> ! CAM-B3LYP def2-SVP def2/J RIJCOSX Grid4 TightSCF
|  4> %maxcore 5000
|  5> %tddft
|  6>     Mode sTDDFT
|  7>     Ethresh 5.0
|  8>     maxcore 5000
|  9> end
| 10>
| 11> %pal
| 12>   nprocs 6
| 13>   end
| 14> * xyz 0 1
| 15>    C      -10.72258        -0.08808         4.37425
| 16>    S      -10.08236         1.32436         3.64274
| 17>    C      -11.53481         2.21237         3.96886
| 18>    C      -12.46879         1.41112         4.62634
| 19>    C      -11.99214         0.08468         4.85628
| 20>    O      -12.62018        -0.94863         5.45912
| 21>    C      -13.93741        -0.76318         5.92629
| 22>    C      -13.71446         1.94176         4.98817
| 23>    N      -14.71821         2.42886         5.26415
| 24>    C      -11.71527         3.56736         3.58740
| 25>    C      -10.78441         4.29803         2.93079
| 26>    C      -10.95267         5.65682         2.53680
| 27>    C      -11.85776         6.55946         3.02683
| 28>    C      -11.59211         7.84689         2.43506
| 29>    C      -12.37715         8.98321         2.64236
| 30>    N      -13.05031         9.90155         2.80138
| 31>    C      -10.49282         7.75040         1.61757
| 32>    C      -10.06971         6.38098         1.60365
| 33>    C       -9.16749         5.82771         0.72034
| 34>    C       -8.15935         6.56300        -0.08250
| 35>    C       -7.73450         5.72160        -1.07502
| 36>    C       -8.38185         4.45101        -0.90277
| 37>    C       -9.20515         4.50151         0.20299
| 38>    C       -8.19582         3.34570        -1.74186
| 39>    N       -8.03271         2.44295        -2.43298
| 40>    C       -7.61397         7.84446         0.20452
| 41>    C       -7.55855         8.40227         1.43787
| 42>    C       -7.03967         9.70304         1.74978
| 43>    C       -6.67002         9.98061         3.05475
| 44>    C       -6.22665        11.26294         3.41335
| 45>    C       -5.81226        11.80277         4.63269
| 46>    C       -5.63719        11.12145         5.94648
| 47>    C       -6.98936        10.64799         6.50952
| 48>    N       -7.79427        11.80888         6.85654
| 49>    C       -4.62288         9.96911         5.84603
| 50>    N       -3.31691        10.52199         5.53040
| 51>    C       -5.58123        13.20619         4.40749
| 52>    C       -5.24482        14.20033         5.25592
| 53>    C       -5.26446        15.61836         4.80906
| 54>    C       -5.32214        15.80633         3.33035
| 55>    C       -5.61326        14.79930         2.48571
| 56>    C       -5.81446        13.48969         2.98804
| 57>    C       -6.20228        12.30339         2.39375
| 58>    C       -6.56370        11.99147         1.06451
| 59>    C       -6.95564        10.72893         0.75547
| 60>    C       -6.54710        16.13268         5.46118
| 61>    C       -7.75481        15.78413         5.01289
| 62>    C       -9.00366        16.21914         5.57725
| 63>    C       -9.24033        17.36900         6.26915
| 64>    C      -10.66017        17.46872         6.52949
| 65>    C      -11.27788        18.50781         7.23280
| 66>    N      -11.80094        19.36451         7.79215
| 67>    C      -11.29419        16.39719         5.95590
| 68>    C      -10.30023        15.55827         5.34860
| 69>    C      -10.51646        14.33411         4.75743
| 70>    C      -11.81606        13.81775         4.24495
| 71>    C      -11.63285        12.50001         3.92826
| 72>    C      -10.26474        12.15194         4.20548
| 73>    C       -9.58014        13.26188         4.65186
| 74>    C       -9.76244        10.85607         4.06344
| 75>    N       -9.37942         9.77760         3.95360
| 76>    C      -12.97228        14.61237         4.02650
| 77>    C      -14.18797        14.10562         3.69360
| 78>    C      -15.37369        14.86704         3.54045
| 79>    S      -16.80605        14.08610         2.94359
| 80>    C      -17.74727        15.52656         3.07208
| 81>    C      -16.97663        16.58169         3.56424
| 82>    C      -15.63176        16.20891         3.83668
| 83>    O      -14.63930        16.96631         4.34712
| 84>    C      -14.91272        18.26239         4.83777
| 85>    C      -17.50425        17.87303         3.72960
| 86>    N      -17.94122        18.92913         3.84623
| 87>    C      -19.12567        15.45773         2.67827
| 88>    C      -20.03059        16.43599         2.72421
| 89>    H      -10.14169        -0.98596         4.41894
| 90>    H      -14.23180        -1.72071         6.35264
| 91>    H      -14.62006        -0.50187         5.11281
| 92>    H      -13.98573         0.00942         6.69876
| 93>    H      -12.67690         3.99756         3.83204
| 94>    H       -9.83876         3.82813         2.69323
| 95>    H      -12.62878         6.37987         3.75207
| 96>    H      -10.09448         8.53482         1.00487
| 97>    H       -7.00029         5.93234        -1.83013
| 98>    H       -9.87098         3.72010         0.51401
| 99>    H       -7.12365         8.33467        -0.62789
|100>    H       -7.91208         7.83043         2.28581
|101>    H       -6.74186         9.19857         3.79436
|102>    H       -5.21595        11.84244         6.65418
|103>    H       -6.79997         9.98083         7.36688
|104>    H       -7.53655        10.08446         5.75246
|105>    H       -7.39944        12.28326         7.66276
|106>    H       -8.73665        11.52334         7.09789
|107>    H       -4.97390         9.22785         5.11290
|108>    H       -4.54479         9.47387         6.81842
|109>    H       -3.34157        10.96984         4.61950
|110>    H       -2.61681         9.78944         5.50115
|111>    H       -5.06343        14.02210         6.30599
|112>    H       -4.42099        16.17434         5.22947
|113>    H       -5.17976        16.81440         2.97266
|114>    H       -5.69074        14.97218         1.42209
|115>    H       -6.53603        12.76447         0.31033
|116>    H       -7.25521        10.49219        -0.25413
|117>    H       -6.42832        16.73905         6.34579
|118>    H       -7.82544        15.14025         4.14667
|119>    H       -8.52419        18.11630         6.55520
|120>    H      -12.33627        16.16553         6.05662
|121>    H      -12.34539        11.81292         3.51328
|122>    H       -8.57171        13.25595         5.01850
|123>    H      -12.86689        15.68012         4.11851
|124>    H      -14.29969        13.04084         3.54210
|125>    H      -13.99093        18.59396         5.31521
|126>    H      -15.71767        18.25101         5.57635
|127>    H      -15.17113        18.94982         4.02910
|128>    H      -19.41904        14.47992         2.31571
|129>    H      -19.80386        17.42523         3.07678
|130>    H      -21.04161        16.25797         2.40230
|131> *
|132>
|133>                          ****END OF INPUT****

CARTESIAN COORDINATES (ANGSTROEM)
---------------------------------
  C    -10.722580   -0.088080    4.374250
  S    -10.082360    1.324360    3.642740
  C    -11.534810    2.212370    3.968860
  C    -12.468790    1.411120    4.626340
  C    -11.992140    0.084680    4.856280
  O    -12.620180   -0.948630    5.459120
  C    -13.937410   -0.763180    5.926290
  C    -13.714460    1.941760    4.988170
  N    -14.718210    2.428860    5.264150
  C    -11.715270    3.567360    3.587400
  C    -10.784410    4.298030    2.930790
  C    -10.952670    5.656820    2.536800
  C    -11.857760    6.559460    3.026830
  C    -11.592110    7.846890    2.435060
  C    -12.377150    8.983210    2.642360
  N    -13.050310    9.901550    2.801380
  C    -10.492820    7.750400    1.617570
  C    -10.069710    6.380980    1.603650
  C     -9.167490    5.827710    0.720340
  C     -8.159350    6.563000   -0.082500
  C     -7.734500    5.721600   -1.075020
  C     -8.381850    4.451010   -0.902770
  C     -9.205150    4.501510    0.202990
  C     -8.195820    3.345700   -1.741860
  N     -8.032710    2.442950   -2.432980
  C     -7.613970    7.844460    0.204520
  C     -7.558550    8.402270    1.437870
  C     -7.039670    9.703040    1.749780
  C     -6.670020    9.980610    3.054750
  C     -6.226650   11.262940    3.413350
  C     -5.812260   11.802770    4.632690
  C     -5.637190   11.121450    5.946480
  C     -6.989360   10.647990    6.509520
  N     -7.794270   11.808880    6.856540
  C     -4.622880    9.969110    5.846030
  N     -3.316910   10.521990    5.530400
  C     -5.581230   13.206190    4.407490
  C     -5.244820   14.200330    5.255920
  C     -5.264460   15.618360    4.809060
  C     -5.322140   15.806330    3.330350
  C     -5.613260   14.799300    2.485710
  C     -5.814460   13.489690    2.988040
  C     -6.202280   12.303390    2.393750
  C     -6.563700   11.991470    1.064510
  C     -6.955640   10.728930    0.755470
  C     -6.547100   16.132680    5.461180
  C     -7.754810   15.784130    5.012890
  C     -9.003660   16.219140    5.577250
  C     -9.240330   17.369000    6.269150
  C    -10.660170   17.468720    6.529490
  C    -11.277880   18.507810    7.232800
  N    -11.800940   19.364510    7.792150
  C    -11.294190   16.397190    5.955900
  C    -10.300230   15.558270    5.348600
  C    -10.516460   14.334110    4.757430
  C    -11.816060   13.817750    4.244950
  C    -11.632850   12.500010    3.928260
  C    -10.264740   12.151940    4.205480
  C     -9.580140   13.261880    4.651860
  C     -9.762440   10.856070    4.063440
  N     -9.379420    9.777600    3.953600
  C    -12.972280   14.612370    4.026500
  C    -14.187970   14.105620    3.693600
  C    -15.373690   14.867040    3.540450
  S    -16.806050   14.086100    2.943590
  C    -17.747270   15.526560    3.072080
  C    -16.976630   16.581690    3.564240
  C    -15.631760   16.208910    3.836680
  O    -14.639300   16.966310    4.347120
  C    -14.912720   18.262390    4.837770
  C    -17.504250   17.873030    3.729600
  N    -17.941220   18.929130    3.846230
  C    -19.125670   15.457730    2.678270
  C    -20.030590   16.435990    2.724210
  H    -10.141690   -0.985960    4.418940
  H    -14.231800   -1.720710    6.352640
  H    -14.620060   -0.501870    5.112810
  H    -13.985730    0.009420    6.698760
  H    -12.676900    3.997560    3.832040
  H     -9.838760    3.828130    2.693230
  H    -12.628780    6.379870    3.752070
  H    -10.094480    8.534820    1.004870
  H     -7.000290    5.932340   -1.830130
  H     -9.870980    3.720100    0.514010
  H     -7.123650    8.334670   -0.627890
  H     -7.912080    7.830430    2.285810
  H     -6.741860    9.198570    3.794360
  H     -5.215950   11.842440    6.654180
  H     -6.799970    9.980830    7.366880
  H     -7.536550   10.084460    5.752460
  H     -7.399440   12.283260    7.662760
  H     -8.736650   11.523340    7.097890
  H     -4.973900    9.227850    5.112900
  H     -4.544790    9.473870    6.818420
  H     -3.341570   10.969840    4.619500
  H     -2.616810    9.789440    5.501150
  H     -5.063430   14.022100    6.305990
  H     -4.420990   16.174340    5.229470
  H     -5.179760   16.814400    2.972660
  H     -5.690740   14.972180    1.422090
  H     -6.536030   12.764470    0.310330
  H     -7.255210   10.492190   -0.254130
  H     -6.428320   16.739050    6.345790
  H     -7.825440   15.140250    4.146670
  H     -8.524190   18.116300    6.555200
  H    -12.336270   16.165530    6.056620
  H    -12.345390   11.812920    3.513280
  H     -8.571710   13.255950    5.018500
  H    -12.866890   15.680120    4.118510
  H    -14.299690   13.040840    3.542100
  H    -13.990930   18.593960    5.315210
  H    -15.717670   18.251010    5.576350
  H    -15.171130   18.949820    4.029100
  H    -19.419040   14.479920    2.315710
  H    -19.803860   17.425230    3.076780
  H    -21.041610   16.257970    2.402300

 Total Charge           Charge          ....    0
 Multiplicity           Mult            ....    1
 Number of Electrons    NEL             ....  518
 Basis Dimension        Dim             .... 1254

ORBITAL ENERGIES
----------------

  NO   OCC          E(Eh)            E(eV)
   0   2.0000     -88.971050     -2421.0253
   1   2.0000     -88.970708     -2421.0161
   2   2.0000     -19.265829      -524.2499
   3   2.0000     -19.251537      -523.8609
   4   2.0000     -14.415646      -392.2697
   5   2.0000     -14.415269      -392.2594
   6   2.0000     -14.411044      -392.1444
   7   2.0000     -14.410999      -392.1432
   8   2.0000     -14.408422      -392.0731
   9   2.0000     -14.405602      -391.9964
  10   2.0000     -14.390107      -391.5747
  11   2.0000     -14.375792      -391.1852
  12   2.0000     -10.356950      -281.8269
  13   2.0000     -10.349441      -281.6226
  14   2.0000     -10.328421      -281.0506
  15   2.0000     -10.326473      -280.9976
  16   2.0000     -10.324839      -280.9531
  17   2.0000     -10.322362      -280.8857
  18   2.0000     -10.321617      -280.8655
  19   2.0000     -10.321439      -280.8606
  20   2.0000     -10.320394      -280.8322
  21   2.0000     -10.317513      -280.7538
  22   2.0000     -10.317241      -280.7464
  23   2.0000     -10.317047      -280.7411
  24   2.0000     -10.316423      -280.7241
  25   2.0000     -10.315560      -280.7007
  26   2.0000     -10.315343      -280.6947
  27   2.0000     -10.313562      -280.6463
  28   2.0000     -10.313148      -280.6350
  29   2.0000     -10.313000      -280.6310
  30   2.0000     -10.312593      -280.6199
  31   2.0000     -10.310422      -280.5609
  32   2.0000     -10.310100      -280.5521
  33   2.0000     -10.309383      -280.5326
  34   2.0000     -10.308787      -280.5163
  35   2.0000     -10.305054      -280.4148
  36   2.0000     -10.300254      -280.2842
  37   2.0000     -10.296276      -280.1759
  38   2.0000     -10.296042      -280.1696
  39   2.0000     -10.294375      -280.1242
  40   2.0000     -10.294107      -280.1169
  41   2.0000     -10.293891      -280.1110
  42   2.0000     -10.293197      -280.0921
  43   2.0000     -10.292630      -280.0767
  44   2.0000     -10.292533      -280.0741
  45   2.0000     -10.292493      -280.0730
  46   2.0000     -10.292322      -280.0683
  47   2.0000     -10.291153      -280.0365
  48   2.0000     -10.291150      -280.0364
  49   2.0000     -10.290052      -280.0065
  50   2.0000     -10.285471      -279.8819
  51   2.0000     -10.285210      -279.8748
  52   2.0000     -10.284665      -279.8600
  53   2.0000     -10.284064      -279.8436
  54   2.0000     -10.283893      -279.8390
  55   2.0000     -10.283873      -279.8384
  56   2.0000     -10.283463      -279.8273
  57   2.0000     -10.282678      -279.8059
  58   2.0000     -10.282262      -279.7946
  59   2.0000     -10.276106      -279.6271
  60   2.0000     -10.275768      -279.6179
  61   2.0000     -10.273723      -279.5622
  62   2.0000     -10.273101      -279.5453
  63   2.0000     -10.272808      -279.5373
  64   2.0000     -10.272439      -279.5273
  65   2.0000     -10.271892      -279.5124
  66   2.0000     -10.271743      -279.5083
  67   2.0000     -10.270443      -279.4730
  68   2.0000     -10.268749      -279.4269
  69   2.0000     -10.267371      -279.3894
  70   2.0000     -10.266465      -279.3647
  71   2.0000     -10.265695      -279.3438
  72   2.0000     -10.264164      -279.3021
  73   2.0000     -10.262451      -279.2555
  74   2.0000      -8.066473      -219.4999
  75   2.0000      -8.066444      -219.4991
  76   2.0000      -6.035648      -164.2383
  77   2.0000      -6.035520      -164.2348
  78   2.0000      -6.031606      -164.1283
  79   2.0000      -6.031556      -164.1270
  80   2.0000      -6.028817      -164.0524
  81   2.0000      -6.028711      -164.0496
  82   2.0000      -1.168874       -31.8067
  83   2.0000      -1.157641       -31.5010
  84   2.0000      -1.012411       -27.5491
  85   2.0000      -1.008871       -27.4528
  86   2.0000      -1.007456       -27.4143
  87   2.0000      -1.005282       -27.3551
  88   2.0000      -1.002594       -27.2820
  89   2.0000      -1.000919       -27.2364
  90   2.0000      -0.990242       -26.9459
  91   2.0000      -0.988826       -26.9073
  92   2.0000      -0.987975       -26.8842
  93   2.0000      -0.987391       -26.8683
  94   2.0000      -0.983359       -26.7586
  95   2.0000      -0.976240       -26.5648
  96   2.0000      -0.973197       -26.4820
  97   2.0000      -0.969610       -26.3844
  98   2.0000      -0.955531       -26.0013
  99   2.0000      -0.950911       -25.8756
 100   2.0000      -0.922498       -25.1024
 101   2.0000      -0.911114       -24.7927
 102   2.0000      -0.909445       -24.7473
 103   2.0000      -0.892356       -24.2823
 104   2.0000      -0.883391       -24.0383
 105   2.0000      -0.881427       -23.9848
 106   2.0000      -0.875286       -23.8177
 107   2.0000      -0.872690       -23.7471
 108   2.0000      -0.867254       -23.5992
 109   2.0000      -0.864870       -23.5343
 110   2.0000      -0.862145       -23.4602
 111   2.0000      -0.851496       -23.1704
 112   2.0000      -0.842591       -22.9281
 113   2.0000      -0.839487       -22.8436
 114   2.0000      -0.835364       -22.7314
 115   2.0000      -0.830043       -22.5866
 116   2.0000      -0.816727       -22.2243
 117   2.0000      -0.810806       -22.0632
 118   2.0000      -0.806979       -21.9590
 119   2.0000      -0.797277       -21.6950
 120   2.0000      -0.793464       -21.5912
 121   2.0000      -0.784329       -21.3427
 122   2.0000      -0.773048       -21.0357
 123   2.0000      -0.769179       -20.9304
 124   2.0000      -0.761892       -20.7321
 125   2.0000      -0.742077       -20.1929
 126   2.0000      -0.731571       -19.9071
 127   2.0000      -0.729516       -19.8511
 128   2.0000      -0.720274       -19.5997
 129   2.0000      -0.718959       -19.5639
 130   2.0000      -0.718465       -19.5504
 131   2.0000      -0.713340       -19.4110
 132   2.0000      -0.705324       -19.1928
 133   2.0000      -0.700910       -19.0727
 134   2.0000      -0.695871       -18.9356
 135   2.0000      -0.684488       -18.6259
 136   2.0000      -0.680286       -18.5115
 137   2.0000      -0.672526       -18.3004
 138   2.0000      -0.670981       -18.2583
 139   2.0000      -0.664134       -18.0720
 140   2.0000      -0.659855       -17.9556
 141   2.0000      -0.657086       -17.8802
 142   2.0000      -0.639214       -17.3939
 143   2.0000      -0.636397       -17.3173
 144   2.0000      -0.635354       -17.2889
 145   2.0000      -0.627671       -17.0798
 146   2.0000      -0.624956       -17.0059
 147   2.0000      -0.622211       -16.9312
 148   2.0000      -0.619483       -16.8570
 149   2.0000      -0.619131       -16.8474
 150   2.0000      -0.612662       -16.6714
 151   2.0000      -0.603196       -16.4138
 152   2.0000      -0.596852       -16.2412
 153   2.0000      -0.592457       -16.1216
 154   2.0000      -0.589042       -16.0287
 155   2.0000      -0.584418       -15.9028
 156   2.0000      -0.577529       -15.7154
 157   2.0000      -0.567068       -15.4307
 158   2.0000      -0.565083       -15.3767
 159   2.0000      -0.564282       -15.3549
 160   2.0000      -0.561559       -15.2808
 161   2.0000      -0.559784       -15.2325
 162   2.0000      -0.559051       -15.2126
 163   2.0000      -0.555789       -15.1238
 164   2.0000      -0.553945       -15.0736
 165   2.0000      -0.549943       -14.9647
 166   2.0000      -0.548511       -14.9257
 167   2.0000      -0.546019       -14.8579
 168   2.0000      -0.539588       -14.6829
 169   2.0000      -0.538067       -14.6416
 170   2.0000      -0.534300       -14.5390
 171   2.0000      -0.528993       -14.3946
 172   2.0000      -0.526524       -14.3275
 173   2.0000      -0.523236       -14.2380
 174   2.0000      -0.519840       -14.1456
 175   2.0000      -0.518746       -14.1158
 176   2.0000      -0.515474       -14.0268
 177   2.0000      -0.512816       -13.9544
 178   2.0000      -0.510531       -13.8923
 179   2.0000      -0.509698       -13.8696
 180   2.0000      -0.504893       -13.7388
 181   2.0000      -0.503767       -13.7082
 182   2.0000      -0.503202       -13.6928
 183   2.0000      -0.502205       -13.6657
 184   2.0000      -0.501280       -13.6405
 185   2.0000      -0.500168       -13.6103
 186   2.0000      -0.497330       -13.5330
 187   2.0000      -0.496082       -13.4991
 188   2.0000      -0.493507       -13.4290
 189   2.0000      -0.493354       -13.4248
 190   2.0000      -0.490944       -13.3593
 191   2.0000      -0.488889       -13.3033
 192   2.0000      -0.487957       -13.2780
 193   2.0000      -0.486041       -13.2258
 194   2.0000      -0.484627       -13.1874
 195   2.0000      -0.481162       -13.0931
 196   2.0000      -0.480601       -13.0778
 197   2.0000      -0.472273       -12.8512
 198   2.0000      -0.470930       -12.8147
 199   2.0000      -0.465740       -12.6734
 200   2.0000      -0.463599       -12.6152
 201   2.0000      -0.462546       -12.5865
 202   2.0000      -0.458992       -12.4898
 203   2.0000      -0.457279       -12.4432
 204   2.0000      -0.452934       -12.3249
 205   2.0000      -0.451383       -12.2828
 206   2.0000      -0.450016       -12.2456
 207   2.0000      -0.448126       -12.1941
 208   2.0000      -0.446743       -12.1565
 209   2.0000      -0.443996       -12.0817
 210   2.0000      -0.442960       -12.0536
 211   2.0000      -0.441157       -12.0045
 212   2.0000      -0.440252       -11.9799
 213   2.0000      -0.440099       -11.9757
 214   2.0000      -0.439723       -11.9655
 215   2.0000      -0.439014       -11.9462
 216   2.0000      -0.438754       -11.9391
 217   2.0000      -0.437812       -11.9135
 218   2.0000      -0.435885       -11.8610
 219   2.0000      -0.432939       -11.7809
 220   2.0000      -0.431447       -11.7403
 221   2.0000      -0.429481       -11.6868
 222   2.0000      -0.428578       -11.6622
 223   2.0000      -0.426518       -11.6061
 224   2.0000      -0.425318       -11.5735
 225   2.0000      -0.423669       -11.5286
 226   2.0000      -0.422539       -11.4979
 227   2.0000      -0.416862       -11.3434
 228   2.0000      -0.415776       -11.3138
 229   2.0000      -0.412461       -11.2236
 230   2.0000      -0.410990       -11.1836
 231   2.0000      -0.409270       -11.1368
 232   2.0000      -0.407710       -11.0943
 233   2.0000      -0.402701       -10.9580
 234   2.0000      -0.397743       -10.8231
 235   2.0000      -0.395225       -10.7546
 236   2.0000      -0.392655       -10.6847
 237   2.0000      -0.390873       -10.6362
 238   2.0000      -0.387075       -10.5329
 239   2.0000      -0.381693       -10.3864
 240   2.0000      -0.377943       -10.2843
 241   2.0000      -0.369247       -10.0477
 242   2.0000      -0.362123        -9.8539
 243   2.0000      -0.358403        -9.7526
 244   2.0000      -0.333624        -9.0784
 245   2.0000      -0.328688        -8.9441
 246   2.0000      -0.325265        -8.8509
 247   2.0000      -0.320708        -8.7269
 248   2.0000      -0.317949        -8.6518
 249   2.0000      -0.315013        -8.5719
 250   2.0000      -0.311710        -8.4821
 251   2.0000      -0.303389        -8.2556
 252   2.0000      -0.301401        -8.2015
 253   2.0000      -0.301083        -8.1929
 254   2.0000      -0.282044        -7.6748
 255   2.0000      -0.270276        -7.3546
 256   2.0000      -0.256744        -6.9863
 257   2.0000      -0.242346        -6.5946
 258   2.0000      -0.220833        -6.0092
 259   0.0000      -0.122382        -3.3302
 260   0.0000      -0.120634        -3.2826
 261   0.0000      -0.071804        -1.9539
 262   0.0000      -0.047292        -1.2869
 263   0.0000      -0.044803        -1.2191

MULLIKEN ATOMIC CHARGES
-----------------------
   0 C :   -0.155051
   1 S :    0.136037
   2 C :   -0.062922
   3 C :   -0.111659
   4 C :    0.266865
   5 O :   -0.298450
   6 C :    0.176127
   7 C :   -0.247082
   8 N :    0.118913
   9 C :   -0.001507
  10 C :   -0.028871
  11 C :    0.074827
  12 C :   -0.016629
  13 C :   -0.115158
  14 C :   -0.073103
  15 N :    0.099234
  16 C :    0.018922
  17 C :    0.043489
  18 C :    0.046964
  19 C :    0.088658
  20 C :   -0.028783
  21 C :   -0.094439
  22 C :   -0.048960
  23 C :   -0.126080
  24 N :    0.137465
  25 C :   -0.016010
  26 C :   -0.020379
  27 C :    0.091225
  28 C :   -0.063824
  29 C :    0.026202
  30 C :   -0.032814
  31 C :   -0.054178
  32 C :    0.157608
  33 N :   -0.216189
  34 C :    0.154450
  35 N :   -0.227029
  36 C :    0.088153
  37 C :   -0.087547
  38 C :    0.121802
  39 C :   -0.017675
  40 C :    0.011745
  41 C :    0.003433
  42 C :    0.044414
  43 C :   -0.013006
  44 C :   -0.010939
  45 C :   -0.091119
  46 C :    0.047951
  47 C :    0.080480
  48 C :   -0.032264
  49 C :   -0.113351
  50 C :   -0.124708
  51 N :    0.129313
  52 C :   -0.031374
  53 C :    0.042864
  54 C :    0.062617
  55 C :    0.094479
  56 C :   -0.031390
  57 C :   -0.135694
  58 C :   -0.033313
  59 C :   -0.030437
  60 N :    0.079745
  61 C :   -0.050389
  62 C :    0.047033
  63 C :   -0.171396
  64 S :    0.171650
  65 C :   -0.089695
  66 C :   -0.097847
  67 C :    0.241046
  68 O :   -0.311723
  69 C :    0.174461
  70 C :   -0.241838
  71 N :    0.115881
  72 C :    0.034102
  73 C :   -0.015067
  74 H :    0.024396
  75 H :    0.035933
  76 H :    0.039914
  77 H :    0.040210
  78 H :    0.010845
  79 H :    0.005196
  80 H :   -0.002244
  81 H :    0.009613
  82 H :   -0.015002
  83 H :   -0.001617
  84 H :   -0.006173
  85 H :    0.014279
  86 H :   -0.021465
  87 H :   -0.030060
  88 H :   -0.017377
  89 H :    0.000401
  90 H :    0.089426
  91 H :    0.102020
  92 H :   -0.018863
  93 H :   -0.012045
  94 H :    0.098763
  95 H :    0.090264
  96 H :   -0.006035
  97 H :    0.012018
  98 H :   -0.011838
  99 H :   -0.034530
 100 H :   -0.037696
 101 H :   -0.030720
 102 H :    0.000190
 103 H :    0.022070
 104 H :   -0.012925
 105 H :    0.003481
 106 H :   -0.026845
 107 H :    0.012815
 108 H :    0.010583
 109 H :   -0.003071
 110 H :    0.042321
 111 H :    0.045866
 112 H :    0.048765
 113 H :   -0.006401
 114 H :    0.045606
 115 H :    0.031669
Sum of atomic charges:   -0.0000000

LOEWDIN ATOMIC CHARGES
----------------------
   0 C :   -0.219930
   1 S :    0.464736
   2 C :   -0.136421
   3 C :   -0.141996
   4 C :    0.032554
   5 O :   -0.098988
   6 C :    0.079511
   7 C :   -0.036218
   8 N :   -0.072935
   9 C :   -0.032907
  10 C :   -0.015727
  11 C :   -0.042558
  12 C :    0.023584
  13 C :   -0.071074
  14 C :    0.000583
  15 N :   -0.070273
  16 C :    0.026441
  17 C :    0.035488
  18 C :    0.045079
  19 C :   -0.012355
  20 C :   -0.025484
  21 C :   -0.038399
  22 C :   -0.029606
  23 C :   -0.027946
  24 N :   -0.041952
  25 C :   -0.033146
  26 C :    0.013751
  27 C :   -0.039957
  28 C :    0.015237
  29 C :   -0.033023
  30 C :   -0.018292
  31 C :   -0.040221
  32 C :    0.026041
  33 N :   -0.102215
  34 C :    0.028674
  35 N :   -0.121527
  36 C :   -0.031673
  37 C :    0.091539
  38 C :   -0.029883
  39 C :   -0.030076
  40 C :   -0.023120
  41 C :   -0.048342
  42 C :   -0.028672
  43 C :   -0.011653
  44 C :   -0.027876
  45 C :    0.001797
  46 C :   -0.007967
  47 C :   -0.028330
  48 C :    0.004300
  49 C :   -0.062872
  50 C :   -0.031432
  51 N :   -0.053077
  52 C :    0.002160
  53 C :    0.028188
  54 C :    0.052250
  55 C :   -0.030577
  56 C :   -0.002883
  57 C :   -0.049477
  58 C :   -0.006365
  59 C :    0.004718
  60 N :   -0.064311
  61 C :   -0.032467
  62 C :   -0.021973
  63 C :   -0.207309
  64 S :    0.482503
  65 C :   -0.135151
  66 C :   -0.141495
  67 C :    0.046949
  68 O :   -0.084144
  69 C :    0.082422
  70 C :   -0.026777
  71 N :   -0.068015
  72 C :   -0.053820
  73 C :   -0.011905
  74 H :    0.029808
  75 H :    0.029939
  76 H :    0.022023
  77 H :    0.021820
  78 H :    0.040292
  79 H :    0.024344
  80 H :    0.033621
  81 H :    0.036719
  82 H :    0.030901
  83 H :    0.032741
  84 H :    0.033694
  85 H :    0.034090
  86 H :    0.022878
  87 H :    0.021388
  88 H :   -0.000564
  89 H :    0.018790
  90 H :    0.052727
  91 H :    0.057346
  92 H :   -0.000104
  93 H :    0.014437
  94 H :    0.053048
  95 H :    0.054079
  96 H :    0.030901
  97 H :    0.047327
  98 H :    0.024959
  99 H :    0.029367
 100 H :    0.027190
 101 H :    0.023546
 102 H :    0.023654
 103 H :    0.038657
 104 H :    0.029942
 105 H :    0.034814
 106 H :    0.023668
 107 H :    0.029607
 108 H :    0.027392
 109 H :    0.034472
 110 H :    0.031326
 111 H :    0.025569
 112 H :    0.025679
 113 H :    0.031038
 114 H :    0.031783
 115 H :    0.031377

  Mayer bond orders larger than 0.100000
B(  0-C ,  1-S ) :   1.1283 B(  0-C ,  4-C ) :   1.5397 B(  0-C , 74-H ) :   0.9618
B(  1-S ,  2-C ) :   1.1592 B(  2-C ,  3-C ) :   1.4403 B(  2-C ,  9-C ) :   1.1754
B(  3-C ,  4-C ) :   1.1858 B(  3-C ,  7-C ) :   1.1429 B(  4-C ,  5-O ) :   1.1948
B(  5-O ,  6-C ) :   0.9405 B(  6-C , 75-H ) :   0.9747 B(  6-C , 76-H ) :   0.9681
B(  6-C , 77-H ) :   0.9680 B(  7-C ,  8-N ) :   2.9628 B(  9-C , 10-C ) :   1.6662
B(  9-C , 78-H ) :   0.9644 B( 10-C , 11-C ) :   1.0826 B( 10-C , 79-H ) :   0.9649
B( 11-C , 12-C ) :   1.5886 B( 11-C , 17-C ) :   1.0573 B( 12-C , 13-C ) :   1.1054
B( 12-C , 80-H ) :   1.0125 B( 13-C , 14-C ) :   1.0788 B( 13-C , 16-C ) :   1.5981
B( 14-C , 15-N ) :   2.9293 B( 16-C , 17-C ) :   1.1059 B( 16-C , 81-H ) :   1.0071
B( 17-C , 18-C ) :   1.4542 B( 18-C , 19-C ) :   1.0230 B( 18-C , 22-C ) :   1.1375
B( 19-C , 20-C ) :   1.5537 B( 19-C , 25-C ) :   1.1370 B( 20-C , 21-C ) :   1.1280
B( 20-C , 82-H ) :   1.0243 B( 21-C , 22-C ) :   1.5655 B( 21-C , 23-C ) :   1.0626
B( 22-C , 83-H ) :   1.0146 B( 23-C , 24-N ) :   3.0366 B( 25-C , 26-C ) :   1.6112
B( 25-C , 84-H ) :   0.9644 B( 26-C , 27-C ) :   1.1003 B( 26-C , 85-H ) :   0.9769
B( 27-C , 28-C ) :   1.4802 B( 27-C , 44-C ) :   1.1357 B( 28-C , 29-C ) :   1.1365
B( 28-C , 86-H ) :   0.9941 B( 29-C , 30-C ) :   1.4448 B( 29-C , 42-C ) :   1.1356
B( 30-C , 31-C ) :   1.0259 B( 30-C , 36-C ) :   1.1153 B( 31-C , 32-C ) :   1.0394
B( 31-C , 34-C ) :   1.0373 B( 31-C , 87-H ) :   0.8841 B( 32-C , 33-N ) :   1.0681
B( 32-C , 88-H ) :   0.9345 B( 32-C , 89-H ) :   0.9308 B( 33-N , 90-H ) :   0.9684
B( 33-N , 91-H ) :   0.9582 B( 34-C , 35-N ) :   1.0956 B( 34-C , 92-H ) :   0.9375
B( 34-C , 93-H ) :   0.9309 B( 35-N , 94-H ) :   0.9714 B( 35-N , 95-H ) :   0.9671
B( 36-C , 37-C ) :   1.6453 B( 36-C , 41-C ) :   1.0653 B( 37-C , 38-C ) :   0.9938
B( 37-C , 96-H ) :   0.9621 B( 38-C , 39-C ) :   1.0020 B( 38-C , 45-C ) :   0.9525
B( 38-C , 97-H ) :   0.8826 B( 39-C , 40-C ) :   1.7252 B( 39-C , 98-H ) :   0.9764
B( 40-C , 41-C ) :   1.1185 B( 40-C , 99-H ) :   0.9901 B( 41-C , 42-C ) :   1.4285
B( 42-C , 43-C ) :   1.1400 B( 43-C , 44-C ) :   1.6005 B( 43-C ,100-H ) :   0.9931
B( 44-C ,101-H ) :   0.9810 B( 45-C , 46-C ) :   1.8077 B( 45-C ,102-H ) :   0.9808
B( 46-C , 47-C ) :   1.0739 B( 46-C ,103-H ) :   0.9434 B( 47-C , 48-C ) :   1.6188
B( 47-C , 53-C ) :   1.0648 B( 48-C , 49-C ) :   1.0890 B( 48-C ,104-H ) :   1.0151
B( 49-C , 50-C ) :   1.0596 B( 49-C , 52-C ) :   1.6270 B( 50-C , 51-N ) :   3.0147
B( 52-C , 53-C ) :   1.0873 B( 52-C ,105-H ) :   1.0125 B( 53-C , 54-C ) :   1.4672
B( 54-C , 55-C ) :   1.0195 B( 54-C , 58-C ) :   1.0872 B( 55-C , 56-C ) :   1.5888
B( 55-C , 61-C ) :   1.0963 B( 56-C , 57-C ) :   1.1019 B( 56-C ,106-H ) :   0.9901
B( 57-C , 58-C ) :   1.6014 B( 57-C , 59-C ) :   1.0797 B( 58-C ,107-H ) :   0.9935
B( 59-C , 60-N ) :   2.8500 B( 61-C , 62-C ) :   1.6730 B( 61-C ,108-H ) :   0.9652
B( 62-C , 63-C ) :   1.1270 B( 62-C ,109-H ) :   0.9575 B( 63-C , 64-S ) :   1.1160
B( 63-C , 67-C ) :   1.4275 B( 64-S , 65-C ) :   1.1651 B( 65-C , 66-C ) :   1.4492
B( 65-C , 72-C ) :   1.1250 B( 66-C , 67-C ) :   1.2365 B( 66-C , 70-C ) :   1.1260
B( 67-C , 68-O ) :   1.1952 B( 68-O , 69-C ) :   0.9184 B( 69-C ,110-H ) :   0.9716
B( 69-C ,111-H ) :   0.9678 B( 69-C ,112-H ) :   0.9698 B( 70-C , 71-N ) :   2.9301
B( 72-C , 73-C ) :   1.9250 B( 72-C ,113-H ) :   0.9394 B( 73-C ,114-H ) :   0.9492
B( 73-C ,115-H ) :   0.9439

-----------------------------------------------------------------------------
         ABSORPTION SPECTRUM VIA TRANSITION ELECTRIC DIPOLE MOMENTS
-----------------------------------------------------------------------------
State   Energy  Wavelength   fosc         T2         TX        TY        TZ
        (cm-1)    (nm)                  (au**2)     (au)      (au)      (au)
-----------------------------------------------------------------------------
   0    5689.7   1757.6   0.001286235   0.07442  -0.25910  -0.07540   0.04005
   1    6944.7   1439.9   0.108337714   5.13570   1.09860   1.94533   0.38008
   2    8010.1   1248.4   0.082288998   3.38206  -1.76128  -0.10099  -0.51938
   3   11324.1    883.1   0.045476021   1.32207   0.33583   0.72840  -0.82384
   4   13452.5    743.4   0.023257326   0.56916  -0.34805  -0.37394   0.55515
   5   14534.2    688.0   0.022804161   0.51653   0.29107  -0.45258   0.47642
   6   14653.3    682.4   0.006234336   0.14007   0.22891  -0.24932   0.15970
   7   15128.2    661.0   0.020850840   0.45374   0.58996   0.23996  -0.21933
   8   18005.7    555.4   0.003207045   0.05864   0.23228  -0.04430   0.05216
   9   20244.6    494.0   0.004748479   0.07722   0.10447   0.24674   0.07365
  10   21193.2    471.8   0.057209147   0.88868  -0.75285   0.56548  -0.04610
  11   23331.2    428.6   0.048265241   0.68104   0.62991  -0.49571   0.19628
  12   23424.1    426.9   0.009624860   0.13527  -0.03627   0.05397  -0.36200
  13   23451.1    426.4   0.092011109   1.29167  -0.17492   1.06167   0.36597
  14   23727.8    421.4   0.050393366   0.69918  -0.10999   0.72766   0.39699
  15   25293.5    395.4   0.054304715   0.70681  -0.40154  -0.68072  -0.28670
  16   25584.7    390.9   0.104341550   1.34262  -0.36812  -0.42098  -1.01483
  17   26026.1    384.2   0.179860768   2.27511  -1.49738  -0.06072  -0.17109
  18   26221.3    381.4   0.120649759   1.51477   0.42896   0.51008   1.03469
  19   26385.0    379.0   0.281588443   3.51345   1.64887   0.18944   0.87109
  20   26579.9    376.2   0.052879120   0.65495   0.79914  -0.07966  -0.09987
  21   26658.2    375.1   0.398583145   4.92225  -1.34037  -1.58983   0.77338
  22   26785.9    373.3   0.064036723   0.78704   0.10166   0.86590  -0.16410
  23   26947.6    371.1   0.075904610   0.92731  -0.83028   0.45294   0.18109
  24   27563.5    362.8   0.108027126   1.29025   1.06347  -0.17977   0.35633
  25   27641.7    361.8   0.016995807   0.20242   0.33936  -0.29535  -0.00474
  26   27734.0    360.6   0.273098376   3.24177  -0.72388  -1.56317   0.52372
  27   27921.7    358.1   0.065261928   0.76947   0.85176   0.15682   0.13922
  28   28767.0    347.6   0.096764611   1.10738   0.86445  -0.50101   0.33029
  29   28768.8    347.6   0.101577397   1.16239  -0.56006   0.90199  -0.18744
  30   29107.5    343.6   0.454077815   5.13572   0.77683  -1.90113  -0.95811
  31   29872.4    334.8   0.143875649   1.58560   0.03072  -0.91849  -0.86083
  32   30050.1    332.8   0.098566119   1.07984  -0.50501   0.22420  -0.88008
  33   30309.9    329.9   0.021597402   0.23458   0.14377  -0.45958  -0.05196
  34   30573.2    327.1   0.053945376   0.58088  -0.20793  -0.51019  -0.52664
  35   30648.2    326.3   0.002958384   0.03178   0.09501   0.13121   0.07441
  36   31334.4    319.1   0.512120609   5.38054   0.57144  -1.96365  -1.09456
  37   31533.0    317.1   0.616079306   6.43201  -0.12319   2.32439   1.00699
  38   31857.5    313.9   0.722129880   7.46241  -0.54663   2.37972   1.22496
  39   32228.1    310.3   0.012652094   0.12924   0.01265  -0.23186  -0.27445
  40   32869.7    304.2   0.000176537   0.00177  -0.02149  -0.01399   0.03332
  41   32982.7    303.2   0.003317755   0.03312   0.11403   0.13062  -0.05525
  42   33489.0    298.6   0.003282605   0.03227   0.08719  -0.12532  -0.09467
  43   33575.9    297.8   0.021953506   0.21525   0.41672   0.20332   0.01624
  44   33826.6    295.6   0.034495186   0.33572   0.15443  -0.55843   0.00537
  45   35171.1    284.3   0.282477280   2.64408   0.69399  -1.44741  -0.25975
  46   35603.4    280.9   0.003320159   0.03070   0.09071  -0.14758   0.02630
  47   35662.9    280.4   0.043993858   0.40612  -0.47248   0.37379   0.20775
  48   35767.1    279.6   0.021087305   0.19409   0.26742  -0.29720   0.18506
  49   35835.8    279.1   0.007950585   0.07304   0.16369   0.10718  -0.18643
  50   36135.7    276.7   0.009417890   0.08580  -0.12079  -0.02988   0.26517
  51   36676.6    272.7   0.016949556   0.15214   0.09912   0.24071   0.29047
  52   36840.0    271.4   0.152489893   1.36269  -0.67805  -0.85649   0.41153
  53   37038.5    270.0   0.089853605   0.79865   0.11165  -0.75867  -0.45891
  54   37146.6    269.2   0.003724278   0.03301  -0.03600   0.06820   0.16450
  55   37430.1    267.2   0.120894711   1.06332  -0.19385  -0.92733  -0.40719
  56   37528.4    266.5   0.005227212   0.04585  -0.10614   0.17405   0.06556
  57   37732.8    265.0   0.125979053   1.09914  -0.75080   0.70398   0.19966
  58   37778.8    264.7   0.013627067   0.11875  -0.08786  -0.22897  -0.24207
  59   37868.4    264.1   0.011876572   0.10325   0.11502  -0.29739  -0.03977
  60   38141.0    262.2   0.061326108   0.52933  -0.53469   0.46052   0.17709
  61   38669.2    258.6   0.064639972   0.55031  -0.10448   0.62493   0.38583
  62   39140.9    255.5   0.014909996   0.12541   0.32888   0.08557  -0.09960
  63   39521.7    253.0   0.006082684   0.05067  -0.00032   0.18438  -0.12911
  64   39810.7    251.2   0.017625986   0.14576   0.04084   0.36105   0.11717
  65   40043.8    249.7   0.009570275   0.07868  -0.02662  -0.01226   0.27896
  66   40198.7    248.8   0.018826549   0.15418   0.25738  -0.29642   0.00836
  67   40272.8    248.3   0.637091014   5.20794   0.51775   1.85403   1.22574

FINAL SINGLE POINT ENERGY     -3768.268794808783

DIPOLE MOMENT
-------------
                                X             Y             Z
Electronic contribution:    -27.90451     -17.05072     -18.65140
Nuclear contribution   :     29.98019      16.99589      19.42910
                        -----------------------------------------
Total Dipole Moment    :      2.07568      -0.05483       0.77770
                        -----------------------------------------
Magnitude (a.u.)       :      2.21727
Magnitude (Debye)      :      5.63585

Rotational constants in cm-1:     0.000935     0.000463     0.000359
Rotational constants in MHz :    28.037016    13.875463    10.763560

                             ****ORCA TERMINATED NORMALLY****
TOTAL RUN TIME: 0 days 0 hours 29 minutes 50 seconds 168 msec
