                         Program Version 4.2.0 -  RELEASE  -
|  1> # ORCA input file
|  2> # SCF done       -213.600951617478          0.000876623335
|  3> ! CAM-B3LYP def2-SVP def2/J RIJCOSX Grid4 TightSCF
|  4> %maxcore 5000
|  5> %tddft
|  6>     Mode sTDDFT
|  7>     Ethresh 5.0
|  8>     maxcore 5000
|  9> end
| 10>
| 11> %pal
| 12>   nprocs 6
| 13>   end
| 14> * xyz 0 1
| 15>    C       -3.67006         4.67459       -15.64784
| 16>    S       -2.53961         3.39253       -15.61346
| 17>    C       -2.41135         3.49001       -13.89305
| 18>    C       -3.23504         4.49415       -13.38358
| 19>    C       -3.95875         5.17838       -14.40418
| 20>    O       -4.83587         6.19572       -14.28805
| 21>    C       -5.11472         6.71262       -13.00536
| 22>    C       -3.28044         4.73388       -12.00136
| 23>    N       -3.29139         4.88544       -10.86286
| 24>    C       -1.55364         2.65356       -13.12569
| 25>    C       -0.76349         1.70008       -13.65556
| 26>    C        0.11440         0.84959       -12.89331
| 27>    C        0.82937         1.27260       -11.76071
| 28>    C        0.98225         2.61930       -11.16444
| 29>    O        0.54725         3.68631       -11.51480
| 30>    N        1.83000         2.45902       -10.05545
| 31>    C        2.28057         1.14838        -9.91873
| 32>    O        3.02693         0.73149        -9.07110
| 33>    C        1.65203         0.40273       -11.03626
| 34>    C        1.82898        -0.92227       -11.38517
| 35>    C        1.15696        -1.34716       -12.52452
| 36>    C        0.32995        -0.49827       -13.26298
| 37>    C       -0.30413        -1.14737       -14.41998
| 38>    O       -1.07270        -0.68655       -15.21279
| 39>    S        0.24952        -2.86149       -14.51312
| 40>    C        1.26454        -2.72382       -13.04274
| 41>    O        1.90659        -3.62386       -12.59118
| 42>    C        2.11490         3.54886        -9.23723
| 43>    C        2.96876         3.54379        -8.20859
| 44>    C        3.23780         4.67802        -7.35025
| 45>    C        4.33216         4.62469        -6.51280
| 46>    C        4.63636         5.70066        -5.65610
| 47>    C        5.66423         5.90789        -4.73626
| 48>    C        6.81383         5.04265        -4.37217
| 49>    C        6.40546         3.98053        -3.29724
| 50>    N        5.35353         3.07144        -3.65065
| 51>    C        7.49821         4.36955        -5.57217
| 52>    N        8.84385         3.96859        -5.19581
| 53>    C        5.42333         7.19701        -4.12669
| 54>    C        6.07596         7.85154        -3.14672
| 55>    C        5.67944         9.22834        -2.74183
| 56>    C        4.45326         9.75655        -3.41258
| 57>    C        3.78249         9.06385        -4.35409
| 58>    C        4.23024         7.78133        -4.74474
| 59>    C        3.75624         6.85987        -5.66508
| 60>    C        2.63886         6.88797        -6.52436
| 61>    C        2.39218         5.82970        -7.34173
| 62>    C        6.86692        10.09492        -3.08849
| 63>    C        7.47627        10.91663        -2.24444
| 64>    C        8.68596        11.64332        -2.61327
| 65>    C        9.80197        10.98637        -3.13238
| 66>    C       10.04122         9.53785        -3.32627
| 67>    O        9.29797         8.60706        -3.11901
| 68>    N       11.34474         9.43380        -3.80801
| 69>    C       11.96277        10.68470        -3.96070
| 70>    O       13.07431        10.85221        -4.38813
| 71>    C       10.97172        11.67397        -3.48766
| 72>    C       11.09225        13.04349        -3.34722
| 73>    C        9.99240        13.70697        -2.81327
| 74>    C        8.82272        13.03000        -2.45063
| 75>    C        7.75924        13.89091        -1.92043
| 76>    O        6.66219        13.57364        -1.55947
| 77>    S        8.35110        15.59000        -1.88927
| 78>    C        9.95589        15.15960        -2.58234
| 79>    O       10.81504        15.96055        -2.80006
| 80>    C       12.01819         8.25874        -4.13280
| 81>    C       11.61640         7.02785        -3.79149
| 82>    C       12.30643         5.83054        -4.14578
| 83>    S       13.69098         5.78523        -5.18738
| 84>    C       13.80501         4.06386        -5.07504
| 85>    C       12.80646         3.54567        -4.25305
| 86>    C       11.95699         4.55683        -3.71659
| 87>    O       10.91683         4.44098        -2.86809
| 88>    C       10.46802         3.16354        -2.46922
| 89>    C       12.67130         2.16938        -4.01086
| 90>    N       12.56500         1.04070        -3.82510
| 91>    C       14.86606         3.42457        -5.80317
| 92>    C       15.14711         2.12263        -5.84294
| 93>    H       -4.08255         5.01440       -16.57575
| 94>    H       -5.83058         7.51677       -13.16661
| 95>    H       -4.21570         7.11465       -12.53026
| 96>    H       -5.55901         5.95480       -12.35426
| 97>    H       -1.58526         2.82008       -12.05814
| 98>    H       -0.82140         1.49999       -14.71716
| 99>    H        2.46152        -1.58837       -10.82098
|100>    H        1.56061         4.42390        -9.54807
|101>    H        3.52194         2.64307        -7.98661
|102>    H        4.95851         3.74656        -6.52836
|103>    H        7.56894         5.67271        -3.88985
|104>    H        6.09320         4.51720        -2.39701
|105>    H        7.29924         3.39570        -3.07209
|106>    H        4.49936         3.55775        -3.89667
|107>    H        5.62007         2.46220        -4.41347
|108>    H        7.47388         5.06363        -6.42955
|109>    H        6.96911         3.45949        -5.86491
|110>    H        9.39284         4.78604        -4.94873
|111>    H        9.30404         3.50684        -5.97314
|112>    H        6.95615         7.45148        -2.66469
|113>    H        5.54093         9.27030        -1.65372
|114>    H        4.14030        10.74302        -3.10736
|115>    H        2.89854         9.47613        -4.81810
|116>    H        1.98552         7.74770        -6.51964
|117>    H        1.52790         5.84425        -7.98572
|118>    H        7.21462         9.99458        -4.10703
|119>    H        7.09420        11.09061        -1.24808
|120>    H       11.98922        13.57490        -3.62220
|121>    H       12.93340         8.44203        -4.68093
|122>    H       10.71903         6.87719        -3.21064
|123>    H        9.64472         3.35369        -1.78259
|124>    H       11.25165         2.60564        -1.95151
|125>    H       10.10292         2.59162        -3.32537
|126>    H       15.48157         4.11915        -6.36189
|127>    H       14.57780         1.38623        -5.30597
|128>    H       15.97756         1.76204        -6.42369
|129> *
|130>
|131>                          ****END OF INPUT****

CARTESIAN COORDINATES (ANGSTROEM)
---------------------------------
  C     -3.670060    4.674590  -15.647840
  S     -2.539610    3.392530  -15.613460
  C     -2.411350    3.490010  -13.893050
  C     -3.235040    4.494150  -13.383580
  C     -3.958750    5.178380  -14.404180
  O     -4.835870    6.195720  -14.288050
  C     -5.114720    6.712620  -13.005360
  C     -3.280440    4.733880  -12.001360
  N     -3.291390    4.885440  -10.862860
  C     -1.553640    2.653560  -13.125690
  C     -0.763490    1.700080  -13.655560
  C      0.114400    0.849590  -12.893310
  C      0.829370    1.272600  -11.760710
  C      0.982250    2.619300  -11.164440
  O      0.547250    3.686310  -11.514800
  N      1.830000    2.459020  -10.055450
  C      2.280570    1.148380   -9.918730
  O      3.026930    0.731490   -9.071100
  C      1.652030    0.402730  -11.036260
  C      1.828980   -0.922270  -11.385170
  C      1.156960   -1.347160  -12.524520
  C      0.329950   -0.498270  -13.262980
  C     -0.304130   -1.147370  -14.419980
  O     -1.072700   -0.686550  -15.212790
  S      0.249520   -2.861490  -14.513120
  C      1.264540   -2.723820  -13.042740
  O      1.906590   -3.623860  -12.591180
  C      2.114900    3.548860   -9.237230
  C      2.968760    3.543790   -8.208590
  C      3.237800    4.678020   -7.350250
  C      4.332160    4.624690   -6.512800
  C      4.636360    5.700660   -5.656100
  C      5.664230    5.907890   -4.736260
  C      6.813830    5.042650   -4.372170
  C      6.405460    3.980530   -3.297240
  N      5.353530    3.071440   -3.650650
  C      7.498210    4.369550   -5.572170
  N      8.843850    3.968590   -5.195810
  C      5.423330    7.197010   -4.126690
  C      6.075960    7.851540   -3.146720
  C      5.679440    9.228340   -2.741830
  C      4.453260    9.756550   -3.412580
  C      3.782490    9.063850   -4.354090
  C      4.230240    7.781330   -4.744740
  C      3.756240    6.859870   -5.665080
  C      2.638860    6.887970   -6.524360
  C      2.392180    5.829700   -7.341730
  C      6.866920   10.094920   -3.088490
  C      7.476270   10.916630   -2.244440
  C      8.685960   11.643320   -2.613270
  C      9.801970   10.986370   -3.132380
  C     10.041220    9.537850   -3.326270
  O      9.297970    8.607060   -3.119010
  N     11.344740    9.433800   -3.808010
  C     11.962770   10.684700   -3.960700
  O     13.074310   10.852210   -4.388130
  C     10.971720   11.673970   -3.487660
  C     11.092250   13.043490   -3.347220
  C      9.992400   13.706970   -2.813270
  C      8.822720   13.030000   -2.450630
  C      7.759240   13.890910   -1.920430
  O      6.662190   13.573640   -1.559470
  S      8.351100   15.590000   -1.889270
  C      9.955890   15.159600   -2.582340
  O     10.815040   15.960550   -2.800060
  C     12.018190    8.258740   -4.132800
  C     11.616400    7.027850   -3.791490
  C     12.306430    5.830540   -4.145780
  S     13.690980    5.785230   -5.187380
  C     13.805010    4.063860   -5.075040
  C     12.806460    3.545670   -4.253050
  C     11.956990    4.556830   -3.716590
  O     10.916830    4.440980   -2.868090
  C     10.468020    3.163540   -2.469220
  C     12.671300    2.169380   -4.010860
  N     12.565000    1.040700   -3.825100
  C     14.866060    3.424570   -5.803170
  C     15.147110    2.122630   -5.842940
  H     -4.082550    5.014400  -16.575750
  H     -5.830580    7.516770  -13.166610
  H     -4.215700    7.114650  -12.530260
  H     -5.559010    5.954800  -12.354260
  H     -1.585260    2.820080  -12.058140
  H     -0.821400    1.499990  -14.717160
  H      2.461520   -1.588370  -10.820980
  H      1.560610    4.423900   -9.548070
  H      3.521940    2.643070   -7.986610
  H      4.958510    3.746560   -6.528360
  H      7.568940    5.672710   -3.889850
  H      6.093200    4.517200   -2.397010
  H      7.299240    3.395700   -3.072090
  H      4.499360    3.557750   -3.896670
  H      5.620070    2.462200   -4.413470
  H      7.473880    5.063630   -6.429550
  H      6.969110    3.459490   -5.864910
  H      9.392840    4.786040   -4.948730
  H      9.304040    3.506840   -5.973140
  H      6.956150    7.451480   -2.664690
  H      5.540930    9.270300   -1.653720
  H      4.140300   10.743020   -3.107360
  H      2.898540    9.476130   -4.818100
  H      1.985520    7.747700   -6.519640
  H      1.527900    5.844250   -7.985720
  H      7.214620    9.994580   -4.107030
  H      7.094200   11.090610   -1.248080
  H     11.989220   13.574900   -3.622200
  H     12.933400    8.442030   -4.680930
  H     10.719030    6.877190   -3.210640
  H      9.644720    3.353690   -1.782590
  H     11.251650    2.605640   -1.951510
  H     10.102920    2.591620   -3.325370
  H     15.481570    4.119150   -6.361890
  H     14.577800    1.386230   -5.305970
  H     15.977560    1.762040   -6.423690

 Total Charge           Charge          ....    0
 Multiplicity           Mult            ....    1
 Number of Electrons    NEL             ....  570
 Basis Dimension        Dim             .... 1288

ORBITAL ENERGIES
----------------

  NO   OCC          E(Eh)            E(eV)
   0   2.0000     -88.977148     -2421.1913
   1   2.0000     -88.973362     -2421.0883
   2   2.0000     -88.956594     -2420.6320
   3   2.0000     -88.954192     -2420.5666
   4   2.0000     -19.258027      -524.0376
   5   2.0000     -19.256155      -523.9866
   6   2.0000     -19.250465      -523.8318
   7   2.0000     -19.250138      -523.8229
   8   2.0000     -19.248636      -523.7820
   9   2.0000     -19.246656      -523.7281
  10   2.0000     -19.241651      -523.5919
  11   2.0000     -19.239151      -523.5239
  12   2.0000     -19.234855      -523.4070
  13   2.0000     -19.233327      -523.3654
  14   2.0000     -14.490678      -394.3114
  15   2.0000     -14.482715      -394.0947
  16   2.0000     -14.409711      -392.1082
  17   2.0000     -14.408334      -392.0707
  18   2.0000     -14.381167      -391.3315
  19   2.0000     -14.365167      -390.8961
  20   2.0000     -10.421501      -283.5835
  21   2.0000     -10.419894      -283.5397
  22   2.0000     -10.415469      -283.4193
  23   2.0000     -10.412765      -283.3457
  24   2.0000     -10.411836      -283.3205
  25   2.0000     -10.411636      -283.3150
  26   2.0000     -10.410906      -283.2951
  27   2.0000     -10.407867      -283.2125
  28   2.0000     -10.355630      -281.7910
  29   2.0000     -10.354639      -281.7640
  30   2.0000     -10.340598      -281.3820
  31   2.0000     -10.339417      -281.3498
  32   2.0000     -10.334025      -281.2031
  33   2.0000     -10.331782      -281.1421
  34   2.0000     -10.331618      -281.1376
  35   2.0000     -10.331246      -281.1275
  36   2.0000     -10.330130      -281.0971
  37   2.0000     -10.329661      -281.0844
  38   2.0000     -10.329592      -281.0825
  39   2.0000     -10.328997      -281.0663
  40   2.0000     -10.328714      -281.0586
  41   2.0000     -10.327003      -281.0120
  42   2.0000     -10.326642      -281.0022
  43   2.0000     -10.324954      -280.9563
  44   2.0000     -10.322931      -280.9012
  45   2.0000     -10.322175      -280.8807
  46   2.0000     -10.320432      -280.8332
  47   2.0000     -10.317352      -280.7494
  48   2.0000     -10.313167      -280.6355
  49   2.0000     -10.312957      -280.6298
  50   2.0000     -10.312478      -280.6168
  51   2.0000     -10.310554      -280.5645
  52   2.0000     -10.305586      -280.4292
  53   2.0000     -10.304551      -280.4011
  54   2.0000     -10.299746      -280.2703
  55   2.0000     -10.296188      -280.1735
  56   2.0000     -10.295860      -280.1646
  57   2.0000     -10.294365      -280.1239
  58   2.0000     -10.293903      -280.1113
  59   2.0000     -10.293694      -280.1057
  60   2.0000     -10.287846      -279.9465
  61   2.0000     -10.286509      -279.9102
  62   2.0000     -10.280044      -279.7342
  63   2.0000     -10.278602      -279.6950
  64   2.0000     -10.273575      -279.5582
  65   2.0000     -10.270319      -279.4696
  66   2.0000     -10.269561      -279.4490
  67   2.0000     -10.268761      -279.4272
  68   2.0000     -10.268670      -279.4247
  69   2.0000     -10.267990      -279.4062
  70   2.0000     -10.265316      -279.3334
  71   2.0000     -10.262596      -279.2594
  72   2.0000     -10.261672      -279.2343
  73   2.0000     -10.261181      -279.2209
  74   2.0000     -10.258646      -279.1519
  75   2.0000     -10.257648      -279.1248
  76   2.0000     -10.256630      -279.0971
  77   2.0000     -10.254859      -279.0489
  78   2.0000      -8.072516      -219.6643
  79   2.0000      -8.068948      -219.5672
  80   2.0000      -8.055751      -219.2081
  81   2.0000      -8.053399      -219.1441
  82   2.0000      -6.041609      -164.4006
  83   2.0000      -6.037969      -164.3015
  84   2.0000      -6.037490      -164.2885
  85   2.0000      -6.035049      -164.2220
  86   2.0000      -6.034200      -164.1989
  87   2.0000      -6.031220      -164.1178
  88   2.0000      -6.024608      -163.9379
  89   2.0000      -6.022264      -163.8741
  90   2.0000      -6.021357      -163.8494
  91   2.0000      -6.019001      -163.7853
  92   2.0000      -6.016804      -163.7256
  93   2.0000      -6.014444      -163.6613
  94   2.0000      -1.186536       -32.2873
  95   2.0000      -1.180898       -32.1339
  96   2.0000      -1.173387       -31.9295
  97   2.0000      -1.172151       -31.8958
  98   2.0000      -1.169317       -31.8187
  99   2.0000      -1.167401       -31.7666
 100   2.0000      -1.162789       -31.6411
 101   2.0000      -1.162590       -31.6357
 102   2.0000      -1.162062       -31.6213
 103   2.0000      -1.156820       -31.4787
 104   2.0000      -1.079492       -29.3745
 105   2.0000      -1.072624       -29.1876
 106   2.0000      -1.019675       -27.7468
 107   2.0000      -1.015849       -27.6427
 108   2.0000      -1.010295       -27.4915
 109   2.0000      -1.008565       -27.4444
 110   2.0000      -0.988246       -26.8916
 111   2.0000      -0.987998       -26.8848
 112   2.0000      -0.979873       -26.6637
 113   2.0000      -0.964105       -26.2346
 114   2.0000      -0.961214       -26.1560
 115   2.0000      -0.957372       -26.0514
 116   2.0000      -0.946099       -25.7446
 117   2.0000      -0.942783       -25.6544
 118   2.0000      -0.931357       -25.3435
 119   2.0000      -0.926448       -25.2099
 120   2.0000      -0.914762       -24.8919
 121   2.0000      -0.908515       -24.7220
 122   2.0000      -0.894669       -24.3452
 123   2.0000      -0.892954       -24.2985
 124   2.0000      -0.886742       -24.1295
 125   2.0000      -0.872823       -23.7507
 126   2.0000      -0.869832       -23.6693
 127   2.0000      -0.868817       -23.6417
 128   2.0000      -0.860629       -23.4189
 129   2.0000      -0.854271       -23.2459
 130   2.0000      -0.839078       -22.8325
 131   2.0000      -0.836555       -22.7638
 132   2.0000      -0.832007       -22.6400
 133   2.0000      -0.831520       -22.6268
 134   2.0000      -0.822493       -22.3812
 135   2.0000      -0.805807       -21.9271
 136   2.0000      -0.802685       -21.8422
 137   2.0000      -0.796956       -21.6863
 138   2.0000      -0.792095       -21.5540
 139   2.0000      -0.784567       -21.3492
 140   2.0000      -0.771014       -20.9803
 141   2.0000      -0.763825       -20.7847
 142   2.0000      -0.756942       -20.5974
 143   2.0000      -0.751566       -20.4511
 144   2.0000      -0.749249       -20.3881
 145   2.0000      -0.737858       -20.0781
 146   2.0000      -0.727396       -19.7935
 147   2.0000      -0.722563       -19.6619
 148   2.0000      -0.718753       -19.5583
 149   2.0000      -0.711714       -19.3667
 150   2.0000      -0.701396       -19.0860
 151   2.0000      -0.700351       -19.0575
 152   2.0000      -0.698499       -19.0071
 153   2.0000      -0.694073       -18.8867
 154   2.0000      -0.685328       -18.6487
 155   2.0000      -0.680555       -18.5188
 156   2.0000      -0.671988       -18.2857
 157   2.0000      -0.668745       -18.1975
 158   2.0000      -0.664198       -18.0738
 159   2.0000      -0.651696       -17.7336
 160   2.0000      -0.651336       -17.7237
 161   2.0000      -0.649888       -17.6844
 162   2.0000      -0.642318       -17.4784
 163   2.0000      -0.637302       -17.3419
 164   2.0000      -0.635172       -17.2839
 165   2.0000      -0.629862       -17.1394
 166   2.0000      -0.625950       -17.0330
 167   2.0000      -0.621204       -16.9038
 168   2.0000      -0.617203       -16.7950
 169   2.0000      -0.611817       -16.6484
 170   2.0000      -0.609477       -16.5847
 171   2.0000      -0.603776       -16.4296
 172   2.0000      -0.595601       -16.2071
 173   2.0000      -0.590914       -16.0796
 174   2.0000      -0.590325       -16.0636
 175   2.0000      -0.587396       -15.9839
 176   2.0000      -0.585642       -15.9361
 177   2.0000      -0.583395       -15.8750
 178   2.0000      -0.578309       -15.7366
 179   2.0000      -0.572596       -15.5811
 180   2.0000      -0.569780       -15.5045
 181   2.0000      -0.569180       -15.4882
 182   2.0000      -0.564126       -15.3506
 183   2.0000      -0.563720       -15.3396
 184   2.0000      -0.563323       -15.3288
 185   2.0000      -0.561581       -15.2814
 186   2.0000      -0.561141       -15.2694
 187   2.0000      -0.560075       -15.2404
 188   2.0000      -0.557739       -15.1768
 189   2.0000      -0.557388       -15.1673
 190   2.0000      -0.553379       -15.0582
 191   2.0000      -0.551500       -15.0071
 192   2.0000      -0.550006       -14.9664
 193   2.0000      -0.546238       -14.8639
 194   2.0000      -0.544507       -14.8168
 195   2.0000      -0.543711       -14.7951
 196   2.0000      -0.542638       -14.7659
 197   2.0000      -0.540917       -14.7191
 198   2.0000      -0.537583       -14.6284
 199   2.0000      -0.537000       -14.6125
 200   2.0000      -0.533573       -14.5193
 201   2.0000      -0.531932       -14.4746
 202   2.0000      -0.529132       -14.3984
 203   2.0000      -0.524806       -14.2807
 204   2.0000      -0.519125       -14.1261
 205   2.0000      -0.518062       -14.0972
 206   2.0000      -0.516562       -14.0564
 207   2.0000      -0.514003       -13.9867
 208   2.0000      -0.512977       -13.9588
 209   2.0000      -0.510545       -13.8926
 210   2.0000      -0.509134       -13.8542
 211   2.0000      -0.506827       -13.7915
 212   2.0000      -0.506575       -13.7846
 213   2.0000      -0.505035       -13.7427
 214   2.0000      -0.504785       -13.7359
 215   2.0000      -0.503827       -13.7098
 216   2.0000      -0.503119       -13.6906
 217   2.0000      -0.501275       -13.6404
 218   2.0000      -0.495449       -13.4819
 219   2.0000      -0.494985       -13.4692
 220   2.0000      -0.489622       -13.3233
 221   2.0000      -0.485673       -13.2158
 222   2.0000      -0.482017       -13.1164
 223   2.0000      -0.481770       -13.1096
 224   2.0000      -0.480066       -13.0633
 225   2.0000      -0.476190       -12.9578
 226   2.0000      -0.475160       -12.9298
 227   2.0000      -0.473366       -12.8809
 228   2.0000      -0.470639       -12.8067
 229   2.0000      -0.468869       -12.7586
 230   2.0000      -0.462997       -12.5988
 231   2.0000      -0.459759       -12.5107
 232   2.0000      -0.455960       -12.4073
 233   2.0000      -0.455714       -12.4006
 234   2.0000      -0.450610       -12.2617
 235   2.0000      -0.445459       -12.1216
 236   2.0000      -0.444036       -12.0828
 237   2.0000      -0.444004       -12.0820
 238   2.0000      -0.443747       -12.0750
 239   2.0000      -0.441531       -12.0147
 240   2.0000      -0.437742       -11.9116
 241   2.0000      -0.435775       -11.8580
 242   2.0000      -0.434300       -11.8179
 243   2.0000      -0.431233       -11.7344
 244   2.0000      -0.430426       -11.7125
 245   2.0000      -0.429657       -11.6916
 246   2.0000      -0.427604       -11.6357
 247   2.0000      -0.426864       -11.6156
 248   2.0000      -0.422403       -11.4942
 249   2.0000      -0.420542       -11.4435
 250   2.0000      -0.407492       -11.0884
 251   2.0000      -0.404945       -11.0191
 252   2.0000      -0.400111       -10.8876
 253   2.0000      -0.396892       -10.8000
 254   2.0000      -0.395287       -10.7563
 255   2.0000      -0.390213       -10.6182
 256   2.0000      -0.388992       -10.5850
 257   2.0000      -0.388066       -10.5598
 258   2.0000      -0.385324       -10.4852
 259   2.0000      -0.381827       -10.3901
 260   2.0000      -0.380389       -10.3509
 261   2.0000      -0.379094       -10.3157
 262   2.0000      -0.376649       -10.2491
 263   2.0000      -0.374012       -10.1774
 264   2.0000      -0.371128       -10.0989
 265   2.0000      -0.370612       -10.0849
 266   2.0000      -0.365693        -9.9510
 267   2.0000      -0.363823        -9.9001
 268   2.0000      -0.355905        -9.6847
 269   2.0000      -0.355107        -9.6630
 270   2.0000      -0.353255        -9.6125
 271   2.0000      -0.351089        -9.5536
 272   2.0000      -0.349209        -9.5025
 273   2.0000      -0.340844        -9.2748
 274   2.0000      -0.339230        -9.2309
 275   2.0000      -0.330257        -8.9868
 276   2.0000      -0.316145        -8.6027
 277   2.0000      -0.315399        -8.5824
 278   2.0000      -0.314958        -8.5705
 279   2.0000      -0.304973        -8.2987
 280   2.0000      -0.286279        -7.7900
 281   2.0000      -0.279013        -7.5923
 282   2.0000      -0.274347        -7.4654
 283   2.0000      -0.259366        -7.0577
 284   2.0000      -0.216377        -5.8879
 285   0.0000      -0.102411        -2.7868
 286   0.0000      -0.097345        -2.6489
 287   0.0000      -0.078039        -2.1236
 288   0.0000      -0.067898        -1.8476
 289   0.0000      -0.058456        -1.5907

MULLIKEN ATOMIC CHARGES
-----------------------
   0 C :   -0.147998
   1 S :    0.165498
   2 C :   -0.103330
   3 C :   -0.091831
   4 C :    0.260181
   5 O :   -0.296524
   6 C :    0.174051
   7 C :   -0.249201
   8 N :    0.122595
   9 C :    0.084883
  10 C :   -0.075980
  11 C :    0.061142
  12 C :   -0.033461
  13 C :    0.182253
  14 O :   -0.138497
  15 N :   -0.224662
  16 C :    0.214546
  17 O :   -0.139376
  18 C :    0.006370
  19 C :   -0.077375
  20 C :    0.049079
  21 C :    0.043709
  22 C :    0.035893
  23 O :   -0.130763
  24 S :    0.012668
  25 C :    0.050609
  26 O :   -0.117912
  27 C :    0.076199
  28 C :   -0.022159
  29 C :    0.127784
  30 C :   -0.116332
  31 C :    0.048151
  32 C :   -0.027702
  33 C :   -0.060853
  34 C :    0.164110
  35 N :   -0.222752
  36 C :    0.122678
  37 N :   -0.227112
  38 C :    0.107989
  39 C :   -0.142903
  40 C :    0.110508
  41 C :   -0.033437
  42 C :    0.022236
  43 C :    0.012249
  44 C :    0.033407
  45 C :   -0.003434
  46 C :   -0.013757
  47 C :    0.018471
  48 C :   -0.019495
  49 C :    0.008972
  50 C :   -0.035196
  51 C :    0.207749
  52 O :   -0.152811
  53 N :   -0.229016
  54 C :    0.195658
  55 O :   -0.131022
  56 C :    0.016459
  57 C :   -0.070516
  58 C :    0.058252
  59 C :    0.052875
  60 C :    0.033016
  61 O :   -0.124304
  62 S :    0.010785
  63 C :    0.043845
  64 O :   -0.116192
  65 C :    0.056326
  66 C :    0.027546
  67 C :   -0.178252
  68 S :    0.148733
  69 C :   -0.091040
  70 C :   -0.079278
  71 C :    0.226488
  72 O :   -0.308042
  73 C :    0.175399
  74 C :   -0.247314
  75 N :    0.119393
  76 C :    0.031075
  77 C :   -0.014234
  78 H :    0.026800
  79 H :    0.038957
  80 H :    0.041323
  81 H :    0.041455
  82 H :    0.022615
  83 H :    0.028409
  84 H :    0.020763
  85 H :    0.031457
  86 H :    0.012609
  87 H :   -0.065368
  88 H :   -0.030539
  89 H :   -0.014941
  90 H :   -0.002912
  91 H :    0.101834
  92 H :    0.088264
  93 H :   -0.000410
  94 H :   -0.015004
  95 H :    0.111099
  96 H :    0.094871
  97 H :    0.010785
  98 H :    0.027021
  99 H :   -0.006522
 100 H :   -0.034999
 101 H :   -0.037359
 102 H :   -0.028071
 103 H :    0.012758
 104 H :    0.021267
 105 H :    0.019488
 106 H :    0.026169
 107 H :    0.034032
 108 H :    0.040341
 109 H :    0.037612
 110 H :    0.047356
 111 H :   -0.005864
 112 H :    0.046577
 113 H :    0.032357
Sum of atomic charges:   -0.0000000

LOEWDIN ATOMIC CHARGES
----------------------
   0 C :   -0.212966
   1 S :    0.490849
   2 C :   -0.145362
   3 C :   -0.128595
   4 C :    0.031128
   5 O :   -0.097099
   6 C :    0.080223
   7 C :   -0.034314
   8 N :   -0.064827
   9 C :    0.011736
  10 C :   -0.038200
  11 C :    0.034541
  12 C :   -0.039164
  13 C :    0.100879
  14 O :   -0.128428
  15 N :   -0.009253
  16 C :    0.097620
  17 O :   -0.130692
  18 C :   -0.022755
  19 C :    0.034867
  20 C :   -0.049382
  21 C :   -0.062021
  22 C :   -0.039593
  23 O :   -0.113615
  24 S :    0.300584
  25 C :   -0.046942
  26 O :   -0.109742
  27 C :    0.014076
  28 C :   -0.030056
  29 C :   -0.023515
  30 C :   -0.025549
  31 C :   -0.025380
  32 C :   -0.040614
  33 C :   -0.055063
  34 C :    0.027396
  35 N :   -0.098824
  36 C :    0.024582
  37 N :   -0.109496
  38 C :   -0.017879
  39 C :    0.068155
  40 C :   -0.026015
  41 C :   -0.033967
  42 C :   -0.014154
  43 C :   -0.036301
  44 C :   -0.031159
  45 C :   -0.005582
  46 C :   -0.028383
  47 C :    0.042850
  48 C :   -0.048525
  49 C :    0.036830
  50 C :   -0.034157
  51 C :    0.104771
  52 O :   -0.136806
  53 N :   -0.009804
  54 C :    0.098011
  55 O :   -0.129335
  56 C :   -0.029539
  57 C :    0.039284
  58 C :   -0.051535
  59 C :   -0.057274
  60 C :   -0.042795
  61 O :   -0.110042
  62 S :    0.298386
  63 C :   -0.044235
  64 O :   -0.108688
  65 C :    0.003909
  66 C :   -0.045274
  67 C :   -0.221091
  68 S :    0.469333
  69 C :   -0.130056
  70 C :   -0.140766
  71 C :    0.042206
  72 O :   -0.086902
  73 C :    0.078510
  74 C :   -0.026666
  75 N :   -0.066778
  76 C :   -0.054434
  77 C :   -0.010593
  78 H :    0.031031
  79 H :    0.030930
  80 H :    0.022611
  81 H :    0.022502
  82 H :    0.041061
  83 H :    0.028907
  84 H :    0.052167
  85 H :    0.031021
  86 H :    0.032932
  87 H :    0.018023
  88 H :    0.024446
  89 H :    0.013321
  90 H :    0.017207
  91 H :    0.052916
  92 H :    0.046750
  93 H :    0.004101
  94 H :    0.007439
  95 H :    0.052467
  96 H :    0.056322
  97 H :    0.033127
  98 H :    0.054528
  99 H :    0.026681
 100 H :    0.030044
 101 H :    0.027212
 102 H :    0.025950
 103 H :    0.028833
 104 H :    0.036137
 105 H :    0.052319
 106 H :    0.026604
 107 H :    0.040112
 108 H :    0.029144
 109 H :    0.019175
 110 H :    0.018684
 111 H :    0.030736
 112 H :    0.032392
 113 H :    0.031627

  Mayer bond orders larger than 0.100000
B(  0-C ,  1-S ) :   1.1502 B(  0-C ,  4-C ) :   1.5224 B(  0-C , 78-H ) :   0.9609
B(  1-S ,  2-C ) :   1.1688 B(  2-C ,  3-C ) :   1.4348 B(  2-C ,  9-C ) :   1.2029
B(  3-C ,  4-C ) :   1.1990 B(  3-C ,  7-C ) :   1.1381 B(  4-C ,  5-O ) :   1.1994
B(  5-O ,  6-C ) :   0.9370 B(  6-C , 79-H ) :   0.9747 B(  6-C , 80-H ) :   0.9682
B(  6-C , 81-H ) :   0.9681 B(  7-C ,  8-N ) :   2.9645 B(  9-C , 10-C ) :   1.6901
B(  9-C , 82-H ) :   0.9421 B( 10-C , 11-C ) :   1.1037 B( 10-C , 83-H ) :   0.9438
B( 11-C , 12-C ) :   1.3479 B( 11-C , 21-C ) :   1.3449 B( 12-C , 13-C ) :   0.8938
B( 12-C , 18-C ) :   1.3860 B( 13-C , 14-O ) :   2.1786 B( 13-C , 15-N ) :   1.0410
B( 15-N , 16-C ) :   1.0416 B( 15-N , 27-C ) :   1.0000 B( 16-C , 17-O ) :   2.1996
B( 16-C , 18-C ) :   0.8780 B( 18-C , 19-C ) :   1.3372 B( 19-C , 20-C ) :   1.3276
B( 19-C , 84-H ) :   1.0303 B( 20-C , 21-C ) :   1.3428 B( 20-C , 25-C ) :   0.8406
B( 21-C , 22-C ) :   0.8643 B( 22-C , 23-O ) :   2.1565 B( 22-C , 24-S ) :   1.0284
B( 23-O , 24-S ) :   0.1039 B( 24-S , 25-C ) :   1.0263 B( 24-S , 26-O ) :   0.1086
B( 25-C , 26-O ) :   2.2225 B( 27-C , 28-C ) :   1.7155 B( 27-C , 85-H ) :   0.9642
B( 28-C , 29-C ) :   1.0554 B( 28-C , 86-H ) :   0.9742 B( 29-C , 30-C ) :   1.5180
B( 29-C , 46-C ) :   1.1299 B( 30-C , 31-C ) :   1.1021 B( 30-C , 87-H ) :   1.0017
B( 31-C , 32-C ) :   1.4642 B( 31-C , 44-C ) :   1.1266 B( 32-C , 33-C ) :   1.0091
B( 32-C , 38-C ) :   1.1217 B( 33-C , 34-C ) :   0.9912 B( 33-C , 36-C ) :   1.0343
B( 33-C , 88-H ) :   0.8810 B( 34-C , 35-N ) :   1.1412 B( 34-C , 89-H ) :   0.9434
B( 34-C , 90-H ) :   0.9413 B( 35-N , 91-H ) :   0.9778 B( 35-N , 92-H ) :   0.9818
B( 36-C , 37-N ) :   1.0907 B( 36-C , 93-H ) :   0.9554 B( 36-C , 94-H ) :   0.9202
B( 37-N , 95-H ) :   0.9504 B( 37-N , 96-H ) :   0.9627 B( 38-C , 39-C ) :   1.6407
B( 38-C , 43-C ) :   1.0456 B( 39-C , 40-C ) :   0.9720 B( 39-C , 97-H ) :   0.9719
B( 40-C , 41-C ) :   0.9932 B( 40-C , 47-C ) :   0.9723 B( 40-C , 98-H ) :   0.8779
B( 41-C , 42-C ) :   1.7040 B( 41-C , 99-H ) :   0.9746 B( 42-C , 43-C ) :   1.1337
B( 42-C ,100-H ) :   0.9909 B( 43-C , 44-C ) :   1.4318 B( 44-C , 45-C ) :   1.1443
B( 45-C , 46-C ) :   1.6120 B( 45-C ,101-H ) :   0.9897 B( 46-C ,102-H ) :   0.9810
B( 47-C , 48-C ) :   1.8495 B( 47-C ,103-H ) :   0.9631 B( 48-C , 49-C ) :   1.0380
B( 48-C ,104-H ) :   0.9421 B( 49-C , 50-C ) :   1.4039 B( 49-C , 59-C ) :   1.3724
B( 50-C , 51-C ) :   0.8950 B( 50-C , 56-C ) :   1.3658 B( 51-C , 52-O ) :   2.1213
B( 51-C , 53-N ) :   1.0606 B( 53-N , 54-C ) :   1.0233 B( 53-N , 65-C ) :   1.0010
B( 54-C , 55-O ) :   2.2421 B( 54-C , 56-C ) :   0.8727 B( 56-C , 57-C ) :   1.3463
B( 57-C , 58-C ) :   1.3293 B( 57-C ,105-H ) :   1.0279 B( 58-C , 59-C ) :   1.3359
B( 58-C , 63-C ) :   0.8390 B( 59-C , 60-C ) :   0.8580 B( 60-C , 61-O ) :   2.1788
B( 60-C , 62-S ) :   1.0274 B( 61-O , 62-S ) :   0.1075 B( 62-S , 63-C ) :   1.0238
B( 62-S , 64-O ) :   0.1083 B( 63-C , 64-O ) :   2.2267 B( 65-C , 66-C ) :   1.6976
B( 65-C ,106-H ) :   0.9748 B( 66-C , 67-C ) :   1.1311 B( 66-C ,107-H ) :   0.9592
B( 67-C , 68-S ) :   1.0887 B( 67-C , 71-C ) :   1.4688 B( 68-S , 69-C ) :   1.1638
B( 69-C , 70-C ) :   1.4664 B( 69-C , 76-C ) :   1.1216 B( 70-C , 71-C ) :   1.2063
B( 70-C , 74-C ) :   1.1300 B( 71-C , 72-O ) :   1.2214 B( 72-O , 73-C ) :   0.9149
B( 73-C ,108-H ) :   0.9719 B( 73-C ,109-H ) :   0.9640 B( 73-C ,110-H ) :   0.9576
B( 74-C , 75-N ) :   2.9292 B( 76-C , 77-C ) :   1.9279 B( 76-C ,111-H ) :   0.9406
B( 77-C ,112-H ) :   0.9489 B( 77-C ,113-H ) :   0.9438

-----------------------------------------------------------------------------
         ABSORPTION SPECTRUM VIA TRANSITION ELECTRIC DIPOLE MOMENTS
-----------------------------------------------------------------------------
State   Energy  Wavelength   fosc         T2         TX        TY        TZ
        (cm-1)    (nm)                  (au**2)     (au)      (au)      (au)
-----------------------------------------------------------------------------
   0   11975.9    835.0   0.001083927   0.02980   0.16109  -0.05944   0.01773
   1   14156.3    706.4   0.000177687   0.00413  -0.02416  -0.02221   0.05527
   2   14297.5    699.4   0.050304113   1.15829  -0.86748   0.54688  -0.32665
   3   18251.4    547.9   0.005514844   0.09947  -0.30681   0.01641   0.07122
   4   19530.2    512.0   0.063894812   1.07704  -0.49497  -0.36270  -0.83696
   5   20062.4    498.4   0.085883286   1.40929  -0.46224  -0.93814  -0.56171
   6   21538.2    464.3   0.042853537   0.65502   0.20938   0.57856   0.52579
   7   23406.1    427.2   0.007856466   0.11050   0.01608  -0.32998  -0.03687
   8   25392.9    393.8   0.011915621   0.15448   0.06933  -0.33629  -0.19128
   9   25905.2    386.0   0.025046518   0.31830  -0.29984   0.36791  -0.30502
  10   26222.3    381.4   0.781470321   9.81111   2.30053  -1.31540   1.66984
  11   26628.4    375.5   0.003263930   0.04035  -0.19109  -0.06191   0.00257
  12   26769.7    373.6   0.270523738   3.32688   1.09970  -1.45097  -0.11069
  13   27006.0    370.3   0.338002858   4.12037   0.40004  -1.87238  -0.67420
  14   27977.2    357.4   0.008085043   0.09514  -0.11016  -0.24867  -0.14549
  15   28163.8    355.1   0.000925239   0.01082   0.03342   0.00829   0.09813
  16   28192.0    354.7   0.011680350   0.13640   0.04617   0.01720   0.36602
  17   28624.4    349.4   0.079518701   0.91455  -0.31712  -0.71671  -0.54801
  18   28707.9    348.3   0.089411456   1.02534   0.33532   0.78421   0.54582
  19   28857.9    346.5   0.301844689   3.44345  -0.32245  -1.62966  -0.82686
  20   29293.2    341.4   0.278978341   3.13530   0.67115  -1.58974  -0.39697
  21   29532.4    338.6   0.009443706   0.10527   0.20439  -0.22135  -0.12043
  22   29878.7    334.7   0.015735412   0.17338  -0.00878  -0.30298  -0.28549
  23   30531.0    327.5   0.000156636   0.00169   0.02078   0.02875   0.02075
  24   31036.0    322.2   0.054390963   0.57695  -0.47101   0.52097   0.28928
  25   31635.9    316.1   0.037985070   0.39528   0.13687   0.49898   0.35717
  26   31789.7    314.6   0.000045358   0.00047   0.01547   0.01517   0.00062
  27   32357.6    309.0   0.008342261   0.08488   0.25184   0.14403  -0.02661
  28   32519.0    307.5   0.000812009   0.00822  -0.01721  -0.08528  -0.02553
  29   32626.0    306.5   0.106268392   1.07230   0.43506   0.69309   0.63454
  30   32806.6    304.8   0.281783031   2.82768  -0.79119  -1.12492  -0.96760
  31   32945.8    303.5   0.126056914   1.25963  -0.36134  -0.73190  -0.77031
  32   33104.0    302.1   0.008134606   0.08090   0.11010  -0.26141   0.02094
  33   33168.4    301.5   0.016755513   0.16631  -0.26510  -0.09947  -0.29348
  34   33329.6    300.0   0.001596138   0.01577  -0.05188   0.10074  -0.05409
  35   33354.6    299.8   0.012023671   0.11867   0.28679   0.14797   0.12054
  36   33664.1    297.1   0.001584985   0.01550  -0.02509  -0.12181  -0.00568
  37   33795.4    295.9   0.014697375   0.14317  -0.25629   0.27487  -0.04396
  38   34211.4    292.3   0.393434274   3.78596  -0.63980  -1.58841  -0.92390
  39   34277.4    291.7   0.062588402   0.60112   0.08349  -0.55852  -0.53123
  40   34305.2    291.5   0.169640341   1.62796   0.35987  -1.04974  -0.62968
  41   34635.3    288.7   0.142075390   1.35044   0.28595  -0.80357  -0.78927
  42   35079.6    285.1   0.429716294   4.03277   1.10710   1.35629   0.98365
  43   35298.9    283.3   0.000317591   0.00296   0.04537   0.02944   0.00606
  44   35731.4    279.9   0.116738688   1.07557   0.24543   0.83056   0.57054
  45   35788.6    279.4   0.015173413   0.13958  -0.11780   0.35181   0.04396
  46   36135.1    276.7   0.005406910   0.04926  -0.11724  -0.10175  -0.15862
  47   36197.8    276.3   0.113553004   1.03274   0.30228   0.56379   0.78963
  48   36307.0    275.4   0.098913668   0.89689  -0.57207  -0.25985  -0.70859
  49   36747.9    272.1   0.000281432   0.00252   0.01594  -0.02609  -0.03983
  50   36778.3    271.9   0.049157989   0.44003  -0.57047   0.20511  -0.26931
  51   36848.4    271.4   0.039553553   0.35338   0.44416  -0.02416   0.39436
  52   37026.1    270.1   0.000078664   0.00070  -0.01728   0.00364   0.01969
  53   37324.2    267.9   0.006038681   0.05326   0.03430   0.14879   0.17305
  54   37543.9    266.4   0.002263838   0.01985   0.00834   0.13596   0.03601
  55   37745.3    264.9   0.020052624   0.17490  -0.28767   0.24220   0.18299
  56   37819.9    264.4   0.012832473   0.11170   0.18216   0.23750   0.14871
  57   38108.1    262.4   0.025817108   0.22303   0.04948   0.32308   0.34088
  58   38466.6    260.0   0.002009341   0.01720   0.07256  -0.10412  -0.03305
  59   39021.2    256.3   0.030291403   0.25556   0.13814   0.23495   0.42576
  60   39250.1    254.8   0.001738657   0.01458   0.10134  -0.04510   0.04775
  61   39393.4    253.8   0.145091157   1.21253  -0.82622   0.34206   0.64256
  62   39613.9    252.4   0.018380804   0.15275   0.08235  -0.37559  -0.07004
  63   40161.1    249.0   0.000018636   0.00015   0.01093  -0.00520   0.00250
  64   40265.7    248.4   0.066935233   0.54726   0.24963  -0.69226   0.07569
  65   40323.6    248.0   0.006194128   0.05057  -0.14703   0.01984  -0.16899

FINAL SINGLE POINT ENERGY     -4900.729109395861

DIPOLE MOMENT
-------------
                                X             Y             Z
Electronic contribution:    -12.26740      11.09694     -35.56855
Nuclear contribution   :     12.54156      -9.64306      34.41990
                        -----------------------------------------
Total Dipole Moment    :      0.27416       1.45387      -1.14865
                        -----------------------------------------
Magnitude (a.u.)       :      1.87304
Magnitude (Debye)      :      4.76090

Rotational constants in cm-1:     0.000911     0.000257     0.000213
Rotational constants in MHz :    27.306128     7.697119     6.391309

                             ****ORCA TERMINATED NORMALLY****
TOTAL RUN TIME: 0 days 0 hours 15 minutes 12 seconds 650 msec
