                         Program Version 4.2.0 -  RELEASE  -
|  1> # ORCA input file
|  2> # SCF done       -187.766656340478          0.000673588572
|  3> ! CAM-B3LYP def2-SVP def2/J RIJCOSX Grid4 TightSCF
|  4> %maxcore 5000
|  5> %tddft
|  6>     Mode sTDDFT
|  7>     Ethresh 5.0
|  8>     maxcore 5000
|  9> end
| 10>
| 11> %pal
| 12>   nprocs 6
| 13>   end
| 14> * xyz 0 1
| 15>    C        3.64215        -8.17118        -8.65607
| 16>    C        4.58072        -7.77881        -9.60571
| 17>    C        4.14133        -7.54566       -11.01582
| 18>    C        5.92749        -7.60339        -9.24867
| 19>    C        6.93356        -7.18624       -10.27272
| 20>    C        6.32248        -7.81874        -7.93303
| 21>    C        5.38412        -8.20438        -6.99690
| 22>    C        4.03744        -8.38998        -7.34636
| 23>    C        3.29876        -8.81058        -6.16262
| 24>    C        1.99261        -9.22165        -6.15672
| 25>    C        1.16843        -9.23810        -7.30284
| 26>    N        0.44194        -9.27235        -8.19124
| 27>    C        1.27549        -9.72471        -5.04929
| 28>    N        0.61545       -10.16538        -4.21894
| 29>    C        4.21956        -8.77736        -5.03045
| 30>    C        5.57511        -8.47699        -5.56342
| 31>    O        6.63537        -8.44977        -4.97337
| 32>    C        3.81432        -8.90237        -3.73420
| 33>    C        4.53566        -8.88987        -2.51500
| 34>    C        5.87714        -8.86100        -2.22608
| 35>    C        6.15861        -8.86999        -0.84408
| 36>    C        4.97704        -8.91361        -0.04904
| 37>    S        3.55547        -8.94519        -1.04429
| 38>    C        5.01591        -8.92596         1.32772
| 39>    C        6.26624        -8.89172         1.94567
| 40>    C        7.44722        -8.84683         1.15321
| 41>    C        7.40964        -8.83800        -0.22130
| 42>    S        8.87628        -8.80175         2.14881
| 43>    C        7.89853        -8.84566         3.60484
| 44>    C        6.55933        -8.89159         3.32991
| 45>    C        8.56028        -8.82630         4.88060
| 46>    C        7.93495        -8.88262         6.11796
| 47>    F        6.59538        -8.96503         6.20266
| 48>    C        8.62761        -8.85973         7.33973
| 49>    F        7.86903        -8.92252         8.44830
| 50>    C       10.00864        -8.77470         7.45440
| 51>    C       10.67735        -8.71352         6.20617
| 52>    C        9.96940        -8.74203         4.96911
| 53>    N       10.87638        -8.67329         3.98753
| 54>    N       12.02134        -8.61012         4.60373
| 55>    N       11.98227        -8.62841         5.90744
| 56>    C       13.25336        -8.52270         3.88293
| 57>    C       10.72150        -8.75161         8.70107
| 58>    C       12.07649        -8.62997         8.84678
| 59>    C       12.50345        -8.64345        10.19391
| 60>    C       11.41186        -8.78510        11.09516
| 61>    S        9.89910        -8.88892        10.24470
| 62>    C       11.58445        -8.83228        12.45977
| 63>    C       12.88540        -8.73806        12.95781
| 64>    C       13.97488        -8.58422        12.05571
| 65>    C       13.80274        -8.53917        10.69123
| 66>    S       15.48586        -8.47254        12.90619
| 67>    C       14.67560        -8.68807        14.44919
| 68>    C       13.31753        -8.79714        14.30161
| 69>    C       15.46315        -8.65481        15.63133
| 70>    C       15.19972        -9.15052        16.86608
| 71>    C       16.00521        -8.65472        18.02398
| 72>    O       17.02625        -8.00953        17.96347
| 73>    C       15.25899        -9.07758        19.21953
| 74>    C       14.16260        -9.87072        18.83585
| 75>    C       13.30585       -10.36195        19.80593
| 76>    C       13.54628       -10.07895        21.14739
| 77>    C       14.65204        -9.29970        21.52467
| 78>    C       15.50517        -8.79632        20.54836
| 79>    C       14.91653        -9.01078        22.96735
| 80>    C       12.61777       -10.61788        22.18787
| 81>    C       14.19087       -10.05203        17.38755
| 82>    C       13.56236       -11.06113        16.70743
| 83>    C       13.81730       -11.38795        15.36011
| 84>    N       14.01832       -11.72861        14.28278
| 85>    C       12.64753       -11.95551        17.30077
| 86>    N       11.87857       -12.69372        17.72690
| 87>    H        2.61418        -8.29455        -8.95607
| 88>    H        3.07579        -7.72839       -11.12310
| 89>    H        4.67771        -8.20511       -11.69727
| 90>    H        4.35142        -6.52006       -11.31770
| 91>    H        6.65861        -6.22755       -10.71153
| 92>    H        6.98198        -7.91523       -11.08110
| 93>    H        7.92062        -7.09464        -9.82786
| 94>    H        7.35195        -7.68832        -7.63412
| 95>    H        2.74647        -9.00991        -3.58033
| 96>    H        6.63721        -8.83089        -2.98491
| 97>    H        4.11262        -8.95995         1.91563
| 98>    H        8.31157        -8.80402        -0.81096
| 99>    H        5.79201        -8.92242         4.08069
|100>    H       13.02129        -8.56640         2.82157
|101>    H       13.90493        -9.35057         4.16306
|102>    H       13.75664        -7.58457         4.11944
|103>    H       12.74058        -8.53677         8.00788
|104>    H       10.74693        -8.94943        13.12896
|105>    H       14.64034        -8.42920        10.02136
|106>    H       12.63687        -8.87870        15.13118
|107>    H       16.39632        -8.10341        15.55524
|108>    H       12.44674       -10.95672        19.53823
|109>    H       16.35996        -8.19373        20.81685
|110>    H       14.06984        -8.49284        23.41667
|111>    H       15.80232        -8.39182        23.07988
|112>    H       15.06649        -9.93685        23.52154
|113>    H       11.82432       -11.20307        21.73155
|114>    H       12.16904        -9.80565        22.75898
|115>    H       13.15828       -11.25278        22.88900
|116> *
|117>
|118>                          ****END OF INPUT****

CARTESIAN COORDINATES (ANGSTROEM)
---------------------------------
  C      3.642150   -8.171180   -8.656070
  C      4.580720   -7.778810   -9.605710
  C      4.141330   -7.545660  -11.015820
  C      5.927490   -7.603390   -9.248670
  C      6.933560   -7.186240  -10.272720
  C      6.322480   -7.818740   -7.933030
  C      5.384120   -8.204380   -6.996900
  C      4.037440   -8.389980   -7.346360
  C      3.298760   -8.810580   -6.162620
  C      1.992610   -9.221650   -6.156720
  C      1.168430   -9.238100   -7.302840
  N      0.441940   -9.272350   -8.191240
  C      1.275490   -9.724710   -5.049290
  N      0.615450  -10.165380   -4.218940
  C      4.219560   -8.777360   -5.030450
  C      5.575110   -8.476990   -5.563420
  O      6.635370   -8.449770   -4.973370
  C      3.814320   -8.902370   -3.734200
  C      4.535660   -8.889870   -2.515000
  C      5.877140   -8.861000   -2.226080
  C      6.158610   -8.869990   -0.844080
  C      4.977040   -8.913610   -0.049040
  S      3.555470   -8.945190   -1.044290
  C      5.015910   -8.925960    1.327720
  C      6.266240   -8.891720    1.945670
  C      7.447220   -8.846830    1.153210
  C      7.409640   -8.838000   -0.221300
  S      8.876280   -8.801750    2.148810
  C      7.898530   -8.845660    3.604840
  C      6.559330   -8.891590    3.329910
  C      8.560280   -8.826300    4.880600
  C      7.934950   -8.882620    6.117960
  F      6.595380   -8.965030    6.202660
  C      8.627610   -8.859730    7.339730
  F      7.869030   -8.922520    8.448300
  C     10.008640   -8.774700    7.454400
  C     10.677350   -8.713520    6.206170
  C      9.969400   -8.742030    4.969110
  N     10.876380   -8.673290    3.987530
  N     12.021340   -8.610120    4.603730
  N     11.982270   -8.628410    5.907440
  C     13.253360   -8.522700    3.882930
  C     10.721500   -8.751610    8.701070
  C     12.076490   -8.629970    8.846780
  C     12.503450   -8.643450   10.193910
  C     11.411860   -8.785100   11.095160
  S      9.899100   -8.888920   10.244700
  C     11.584450   -8.832280   12.459770
  C     12.885400   -8.738060   12.957810
  C     13.974880   -8.584220   12.055710
  C     13.802740   -8.539170   10.691230
  S     15.485860   -8.472540   12.906190
  C     14.675600   -8.688070   14.449190
  C     13.317530   -8.797140   14.301610
  C     15.463150   -8.654810   15.631330
  C     15.199720   -9.150520   16.866080
  C     16.005210   -8.654720   18.023980
  O     17.026250   -8.009530   17.963470
  C     15.258990   -9.077580   19.219530
  C     14.162600   -9.870720   18.835850
  C     13.305850  -10.361950   19.805930
  C     13.546280  -10.078950   21.147390
  C     14.652040   -9.299700   21.524670
  C     15.505170   -8.796320   20.548360
  C     14.916530   -9.010780   22.967350
  C     12.617770  -10.617880   22.187870
  C     14.190870  -10.052030   17.387550
  C     13.562360  -11.061130   16.707430
  C     13.817300  -11.387950   15.360110
  N     14.018320  -11.728610   14.282780
  C     12.647530  -11.955510   17.300770
  N     11.878570  -12.693720   17.726900
  H      2.614180   -8.294550   -8.956070
  H      3.075790   -7.728390  -11.123100
  H      4.677710   -8.205110  -11.697270
  H      4.351420   -6.520060  -11.317700
  H      6.658610   -6.227550  -10.711530
  H      6.981980   -7.915230  -11.081100
  H      7.920620   -7.094640   -9.827860
  H      7.351950   -7.688320   -7.634120
  H      2.746470   -9.009910   -3.580330
  H      6.637210   -8.830890   -2.984910
  H      4.112620   -8.959950    1.915630
  H      8.311570   -8.804020   -0.810960
  H      5.792010   -8.922420    4.080690
  H     13.021290   -8.566400    2.821570
  H     13.904930   -9.350570    4.163060
  H     13.756640   -7.584570    4.119440
  H     12.740580   -8.536770    8.007880
  H     10.746930   -8.949430   13.128960
  H     14.640340   -8.429200   10.021360
  H     12.636870   -8.878700   15.131180
  H     16.396320   -8.103410   15.555240
  H     12.446740  -10.956720   19.538230
  H     16.359960   -8.193730   20.816850
  H     14.069840   -8.492840   23.416670
  H     15.802320   -8.391820   23.079880
  H     15.066490   -9.936850   23.521540
  H     11.824320  -11.203070   21.731550
  H     12.169040   -9.805650   22.758980
  H     13.158280  -11.252780   22.889000

 Total Charge           Charge          ....    0
 Multiplicity           Mult            ....    1
 Number of Electrons    NEL             ....  518
 Basis Dimension        Dim             .... 1169

ORBITAL ENERGIES
----------------

  NO   OCC          E(Eh)            E(eV)
   0   2.0000     -88.950468     -2420.4653
   1   2.0000     -88.948618     -2420.4150
   2   2.0000     -88.947462     -2420.3835
   3   2.0000     -88.947445     -2420.3830
   4   2.0000     -24.802281      -674.9044
   5   2.0000     -24.802025      -674.8974
   6   2.0000     -19.216790      -522.9154
   7   2.0000     -19.212500      -522.7987
   8   2.0000     -14.555693      -396.0805
   9   2.0000     -14.457621      -393.4119
  10   2.0000     -14.456304      -393.3760
  11   2.0000     -14.413765      -392.2185
  12   2.0000     -14.412410      -392.1816
  13   2.0000     -14.410877      -392.1399
  14   2.0000     -14.410427      -392.1277
  15   2.0000     -10.381937      -282.5069
  16   2.0000     -10.381125      -282.4848
  17   2.0000     -10.367322      -282.1092
  18   2.0000     -10.362844      -281.9873
  19   2.0000     -10.341253      -281.3998
  20   2.0000     -10.339686      -281.3572
  21   2.0000     -10.338693      -281.3301
  22   2.0000     -10.337376      -281.2943
  23   2.0000     -10.333438      -281.1871
  24   2.0000     -10.322635      -280.8932
  25   2.0000     -10.320693      -280.8403
  26   2.0000     -10.318241      -280.7736
  27   2.0000     -10.317343      -280.7492
  28   2.0000     -10.316832      -280.7353
  29   2.0000     -10.316651      -280.7303
  30   2.0000     -10.316463      -280.7252
  31   2.0000     -10.316163      -280.7171
  32   2.0000     -10.315065      -280.6872
  33   2.0000     -10.313714      -280.6504
  34   2.0000     -10.313576      -280.6467
  35   2.0000     -10.311992      -280.6036
  36   2.0000     -10.311632      -280.5938
  37   2.0000     -10.309994      -280.5492
  38   2.0000     -10.305152      -280.4174
  39   2.0000     -10.304011      -280.3864
  40   2.0000     -10.300841      -280.3001
  41   2.0000     -10.299503      -280.2637
  42   2.0000     -10.298600      -280.2391
  43   2.0000     -10.298251      -280.2296
  44   2.0000     -10.297661      -280.2136
  45   2.0000     -10.296398      -280.1792
  46   2.0000     -10.295847      -280.1642
  47   2.0000     -10.295839      -280.1640
  48   2.0000     -10.295225      -280.1473
  49   2.0000     -10.294669      -280.1322
  50   2.0000     -10.289932      -280.0033
  51   2.0000     -10.288371      -279.9608
  52   2.0000     -10.288101      -279.9535
  53   2.0000     -10.287118      -279.9267
  54   2.0000     -10.286571      -279.9118
  55   2.0000     -10.286376      -279.9065
  56   2.0000     -10.286291      -279.9042
  57   2.0000     -10.286178      -279.9011
  58   2.0000     -10.285690      -279.8879
  59   2.0000     -10.284925      -279.8670
  60   2.0000     -10.284684      -279.8605
  61   2.0000     -10.284456      -279.8543
  62   2.0000     -10.284425      -279.8534
  63   2.0000     -10.282739      -279.8076
  64   2.0000     -10.282288      -279.7953
  65   2.0000     -10.281447      -279.7724
  66   2.0000     -10.278217      -279.6845
  67   2.0000     -10.276619      -279.6410
  68   2.0000     -10.276434      -279.6360
  69   2.0000     -10.275091      -279.5994
  70   2.0000     -10.273717      -279.5621
  71   2.0000     -10.272909      -279.5401
  72   2.0000      -8.046593      -218.9589
  73   2.0000      -8.044605      -218.9048
  74   2.0000      -8.043012      -218.8615
  75   2.0000      -8.042432      -218.8457
  76   2.0000      -6.016210      -163.7094
  77   2.0000      -6.014156      -163.6535
  78   2.0000      -6.012729      -163.6147
  79   2.0000      -6.012257      -163.6018
  80   2.0000      -6.012220      -163.6008
  81   2.0000      -6.010232      -163.5467
  82   2.0000      -6.008524      -163.5002
  83   2.0000      -6.007890      -163.4830
  84   2.0000      -6.007758      -163.4794
  85   2.0000      -6.005845      -163.4274
  86   2.0000      -6.004161      -163.3815
  87   2.0000      -6.003557      -163.3651
  88   2.0000      -1.325739       -36.0752
  89   2.0000      -1.307185       -35.5703
  90   2.0000      -1.234921       -33.6039
  91   2.0000      -1.131100       -30.7788
  92   2.0000      -1.127483       -30.6804
  93   2.0000      -1.016018       -27.6472
  94   2.0000      -1.014771       -27.6133
  95   2.0000      -1.011337       -27.5199
  96   2.0000      -1.007801       -27.4237
  97   2.0000      -1.000479       -27.2244
  98   2.0000      -0.997701       -27.1488
  99   2.0000      -0.993734       -27.0409
 100   2.0000      -0.993284       -27.0286
 101   2.0000      -0.990303       -26.9475
 102   2.0000      -0.989586       -26.9280
 103   2.0000      -0.978198       -26.6181
 104   2.0000      -0.974484       -26.5171
 105   2.0000      -0.953859       -25.9558
 106   2.0000      -0.953147       -25.9364
 107   2.0000      -0.939141       -25.5553
 108   2.0000      -0.924412       -25.1545
 109   2.0000      -0.914151       -24.8753
 110   2.0000      -0.902765       -24.5655
 111   2.0000      -0.901394       -24.5282
 112   2.0000      -0.893913       -24.3246
 113   2.0000      -0.881174       -23.9780
 114   2.0000      -0.876060       -23.8388
 115   2.0000      -0.875833       -23.8326
 116   2.0000      -0.871309       -23.7095
 117   2.0000      -0.870097       -23.6766
 118   2.0000      -0.867835       -23.6150
 119   2.0000      -0.839650       -22.8480
 120   2.0000      -0.835435       -22.7334
 121   2.0000      -0.833641       -22.6845
 122   2.0000      -0.827777       -22.5249
 123   2.0000      -0.824449       -22.4344
 124   2.0000      -0.808084       -21.9891
 125   2.0000      -0.807107       -21.9625
 126   2.0000      -0.802508       -21.8373
 127   2.0000      -0.789496       -21.4833
 128   2.0000      -0.784365       -21.3437
 129   2.0000      -0.779260       -21.2048
 130   2.0000      -0.764778       -20.8107
 131   2.0000      -0.754444       -20.5295
 132   2.0000      -0.750937       -20.4340
 133   2.0000      -0.745448       -20.2847
 134   2.0000      -0.743092       -20.2206
 135   2.0000      -0.737789       -20.0763
 136   2.0000      -0.717894       -19.5349
 137   2.0000      -0.711027       -19.3480
 138   2.0000      -0.696932       -18.9645
 139   2.0000      -0.692776       -18.8514
 140   2.0000      -0.686396       -18.6778
 141   2.0000      -0.681800       -18.5527
 142   2.0000      -0.681362       -18.5408
 143   2.0000      -0.676083       -18.3972
 144   2.0000      -0.673184       -18.3183
 145   2.0000      -0.669815       -18.2266
 146   2.0000      -0.667777       -18.1711
 147   2.0000      -0.659904       -17.9569
 148   2.0000      -0.651302       -17.7228
 149   2.0000      -0.645582       -17.5672
 150   2.0000      -0.641328       -17.4514
 151   2.0000      -0.636319       -17.3151
 152   2.0000      -0.630575       -17.1588
 153   2.0000      -0.624978       -17.0065
 154   2.0000      -0.619248       -16.8506
 155   2.0000      -0.615577       -16.7507
 156   2.0000      -0.611069       -16.6280
 157   2.0000      -0.607973       -16.5438
 158   2.0000      -0.606055       -16.4916
 159   2.0000      -0.597358       -16.2549
 160   2.0000      -0.589190       -16.0327
 161   2.0000      -0.588656       -16.0181
 162   2.0000      -0.580660       -15.8006
 163   2.0000      -0.578633       -15.7454
 164   2.0000      -0.570673       -15.5288
 165   2.0000      -0.568734       -15.4760
 166   2.0000      -0.565758       -15.3951
 167   2.0000      -0.563727       -15.3398
 168   2.0000      -0.557632       -15.1739
 169   2.0000      -0.549956       -14.9651
 170   2.0000      -0.549361       -14.9489
 171   2.0000      -0.546801       -14.8792
 172   2.0000      -0.543375       -14.7860
 173   2.0000      -0.539668       -14.6851
 174   2.0000      -0.538807       -14.6617
 175   2.0000      -0.534323       -14.5397
 176   2.0000      -0.533706       -14.5229
 177   2.0000      -0.533060       -14.5053
 178   2.0000      -0.531999       -14.4764
 179   2.0000      -0.524456       -14.2712
 180   2.0000      -0.524071       -14.2607
 181   2.0000      -0.522339       -14.2136
 182   2.0000      -0.521295       -14.1852
 183   2.0000      -0.519617       -14.1395
 184   2.0000      -0.518715       -14.1150
 185   2.0000      -0.517242       -14.0749
 186   2.0000      -0.516261       -14.0482
 187   2.0000      -0.510987       -13.9047
 188   2.0000      -0.509059       -13.8522
 189   2.0000      -0.506078       -13.7711
 190   2.0000      -0.504860       -13.7379
 191   2.0000      -0.502796       -13.6818
 192   2.0000      -0.498308       -13.5597
 193   2.0000      -0.496385       -13.5073
 194   2.0000      -0.491342       -13.3701
 195   2.0000      -0.490954       -13.3595
 196   2.0000      -0.488666       -13.2973
 197   2.0000      -0.487822       -13.2743
 198   2.0000      -0.487069       -13.2538
 199   2.0000      -0.483068       -13.1449
 200   2.0000      -0.482360       -13.1257
 201   2.0000      -0.476093       -12.9552
 202   2.0000      -0.475439       -12.9374
 203   2.0000      -0.474284       -12.9059
 204   2.0000      -0.474001       -12.8982
 205   2.0000      -0.472983       -12.8705
 206   2.0000      -0.472662       -12.8618
 207   2.0000      -0.465777       -12.6744
 208   2.0000      -0.462963       -12.5979
 209   2.0000      -0.453976       -12.3533
 210   2.0000      -0.453446       -12.3389
 211   2.0000      -0.448299       -12.1988
 212   2.0000      -0.445504       -12.1228
 213   2.0000      -0.444488       -12.0951
 214   2.0000      -0.443655       -12.0725
 215   2.0000      -0.443073       -12.0566
 216   2.0000      -0.441986       -12.0271
 217   2.0000      -0.441694       -12.0191
 218   2.0000      -0.441452       -12.0125
 219   2.0000      -0.439526       -11.9601
 220   2.0000      -0.439070       -11.9477
 221   2.0000      -0.436673       -11.8825
 222   2.0000      -0.436234       -11.8705
 223   2.0000      -0.432874       -11.7791
 224   2.0000      -0.432091       -11.7578
 225   2.0000      -0.426567       -11.6075
 226   2.0000      -0.423995       -11.5375
 227   2.0000      -0.422752       -11.5037
 228   2.0000      -0.420937       -11.4543
 229   2.0000      -0.417507       -11.3609
 230   2.0000      -0.416534       -11.3345
 231   2.0000      -0.413321       -11.2470
 232   2.0000      -0.411152       -11.1880
 233   2.0000      -0.408650       -11.1199
 234   2.0000      -0.403178       -10.9710
 235   2.0000      -0.401834       -10.9345
 236   2.0000      -0.401585       -10.9277
 237   2.0000      -0.398070       -10.8320
 238   2.0000      -0.383730       -10.4418
 239   2.0000      -0.381254       -10.3745
 240   2.0000      -0.379134       -10.3167
 241   2.0000      -0.375954       -10.2302
 242   2.0000      -0.372753       -10.1431
 243   2.0000      -0.351371        -9.5613
 244   2.0000      -0.344421        -9.3722
 245   2.0000      -0.336246        -9.1497
 246   2.0000      -0.335508        -9.1296
 247   2.0000      -0.335114        -9.1189
 248   2.0000      -0.331991        -9.0339
 249   2.0000      -0.330812        -9.0019
 250   2.0000      -0.329475        -8.9655
 251   2.0000      -0.320298        -8.7158
 252   2.0000      -0.307700        -8.3729
 253   2.0000      -0.305941        -8.3251
 254   2.0000      -0.298626        -8.1260
 255   2.0000      -0.284704        -7.7472
 256   2.0000      -0.276352        -7.5199
 257   2.0000      -0.260785        -7.0963
 258   2.0000      -0.245844        -6.6898
 259   0.0000      -0.092049        -2.5048
 260   0.0000      -0.084586        -2.3017
 261   0.0000      -0.065279        -1.7763
 262   0.0000      -0.056447        -1.5360
 263   0.0000      -0.049964        -1.3596

MULLIKEN ATOMIC CHARGES
-----------------------
   0 C :   -0.078662
   1 C :   -0.080784
   2 C :    0.115726
   3 C :   -0.073998
   4 C :    0.116948
   5 C :   -0.081220
   6 C :   -0.004484
   7 C :    0.039597
   8 C :    0.309122
   9 C :   -0.357107
  10 C :   -0.182196
  11 N :    0.145580
  12 C :   -0.194736
  13 N :    0.159893
  14 C :   -0.080352
  15 C :    0.159301
  16 O :   -0.155216
  17 C :    0.051416
  18 C :   -0.099254
  19 C :   -0.008617
  20 C :    0.096650
  21 C :   -0.034969
  22 S :    0.118622
  23 C :   -0.058321
  24 C :    0.131012
  25 C :   -0.027710
  26 C :   -0.047547
  27 S :    0.128875
  28 C :   -0.097935
  29 C :   -0.059295
  30 C :    0.139133
  31 C :    0.121115
  32 F :   -0.173296
  33 C :    0.121397
  34 F :   -0.173515
  35 C :    0.102465
  36 C :   -0.025060
  37 C :   -0.078774
  38 N :   -0.072583
  39 N :   -0.058319
  40 N :   -0.072826
  41 C :    0.143676
  42 C :   -0.108102
  43 C :   -0.053717
  44 C :    0.134832
  45 C :   -0.040715
  46 S :    0.132471
  47 C :   -0.047149
  48 C :    0.094808
  49 C :   -0.027435
  50 C :   -0.053674
  51 S :    0.125914
  52 C :   -0.101971
  53 C :    0.018781
  54 C :    0.082225
  55 C :   -0.123936
  56 C :    0.131832
  57 O :   -0.142851
  58 C :    0.008519
  59 C :    0.024046
  60 C :   -0.077978
  61 C :   -0.078623
  62 C :   -0.077872
  63 C :   -0.079469
  64 C :    0.116690
  65 C :    0.112900
  66 C :    0.272879
  67 C :   -0.335946
  68 C :   -0.205482
  69 N :    0.181822
  70 C :   -0.174087
  71 N :    0.148660
  72 H :   -0.013557
  73 H :    0.026357
  74 H :    0.026725
  75 H :    0.026455
  76 H :    0.026761
  77 H :    0.029398
  78 H :    0.015420
  79 H :   -0.020611
  80 H :    0.010451
  81 H :    0.007657
  82 H :   -0.026018
  83 H :   -0.024697
  84 H :   -0.008959
  85 H :    0.058611
  86 H :    0.058475
  87 H :    0.056750
  88 H :   -0.016341
  89 H :   -0.027235
  90 H :   -0.029836
  91 H :   -0.006690
  92 H :    0.024950
  93 H :   -0.011423
  94 H :   -0.017354
  95 H :    0.027500
  96 H :    0.017053
  97 H :    0.028868
  98 H :    0.024570
  99 H :    0.026995
 100 H :    0.028597
Sum of atomic charges:   -0.0000000

LOEWDIN ATOMIC CHARGES
----------------------
   0 C :   -0.005106
   1 C :   -0.003695
   2 C :   -0.042060
   3 C :   -0.006449
   4 C :   -0.042670
   5 C :    0.006312
   6 C :   -0.047229
   7 C :   -0.018724
   8 C :    0.078621
   9 C :   -0.140325
  10 C :   -0.016192
  11 N :   -0.056038
  12 C :   -0.026077
  13 N :   -0.048100
  14 C :   -0.089234
  15 C :    0.089210
  16 O :   -0.141871
  17 C :    0.049059
  18 C :   -0.169662
  19 C :    0.001481
  20 C :   -0.052521
  21 C :   -0.147274
  22 S :    0.402092
  23 C :   -0.036452
  24 C :   -0.035307
  25 C :   -0.158920
  26 C :   -0.021809
  27 S :    0.424280
  28 C :   -0.143809
  29 C :   -0.045686
  30 C :   -0.063641
  31 C :    0.071135
  32 F :   -0.044538
  33 C :    0.062197
  34 F :   -0.048727
  35 C :   -0.061056
  36 C :   -0.038554
  37 C :   -0.054505
  38 N :   -0.093534
  39 N :    0.158068
  40 N :   -0.086548
  41 C :    0.034917
  42 C :   -0.151617
  43 C :   -0.041463
  44 C :   -0.037372
  45 C :   -0.154534
  46 S :    0.407186
  47 C :   -0.024835
  48 C :   -0.043515
  49 C :   -0.143916
  50 C :   -0.033419
  51 S :    0.407559
  52 C :   -0.169678
  53 C :   -0.010887
  54 C :    0.047772
  55 C :   -0.085734
  56 C :    0.083959
  57 O :   -0.141614
  58 C :   -0.050255
  59 C :   -0.015555
  60 C :   -0.008366
  61 C :   -0.002400
  62 C :   -0.007454
  63 C :    0.008015
  64 C :   -0.042701
  65 C :   -0.041993
  66 C :    0.067329
  67 C :   -0.138059
  68 C :   -0.020784
  69 N :   -0.037065
  70 C :   -0.019170
  71 N :   -0.053469
  72 H :    0.036079
  73 H :    0.036278
  74 H :    0.038009
  75 H :    0.037624
  76 H :    0.038102
  77 H :    0.038779
  78 H :    0.032624
  79 H :    0.034756
  80 H :    0.043140
  81 H :    0.033732
  82 H :    0.032650
  83 H :    0.033452
  84 H :    0.030509
  85 H :    0.045272
  86 H :    0.043283
  87 H :    0.042513
  88 H :    0.028165
  89 H :    0.032705
  90 H :    0.031655
  91 H :    0.033286
  92 H :    0.046121
  93 H :    0.035627
  94 H :    0.036217
  95 H :    0.038073
  96 H :    0.033161
  97 H :    0.038768
  98 H :    0.035765
  99 H :    0.037754
 100 H :    0.038874

  Mayer bond orders larger than 0.100000
B(  0-C ,  1-C ) :   1.3807 B(  0-C ,  7-C ) :   1.3446 B(  0-C , 72-H ) :   0.9837
B(  1-C ,  2-C ) :   1.0939 B(  1-C ,  3-C ) :   1.3753 B(  2-C , 73-H ) :   0.9506
B(  2-C , 74-H ) :   0.9394 B(  2-C , 75-H ) :   0.9401 B(  3-C ,  4-C ) :   1.0918
B(  3-C ,  5-C ) :   1.3509 B(  4-C , 76-H ) :   0.9404 B(  4-C , 77-H ) :   0.9405
B(  4-C , 78-H ) :   0.9519 B(  5-C ,  6-C ) :   1.3572 B(  5-C , 79-H ) :   1.0101
B(  6-C ,  7-C ) :   1.3378 B(  6-C , 15-C ) :   0.9572 B(  7-C ,  8-C ) :   0.9836
B(  8-C ,  9-C ) :   1.6291 B(  8-C , 14-C ) :   1.0675 B(  9-C , 10-C ) :   1.1490
B(  9-C , 12-C ) :   1.1347 B( 10-C , 11-N ) :   2.9677 B( 12-C , 13-N ) :   2.9830
B( 14-C , 15-C ) :   0.9287 B( 14-C , 17-C ) :   1.6273 B( 15-C , 16-O ) :   2.1659
B( 17-C , 18-C ) :   1.1872 B( 17-C , 80-H ) :   0.9151 B( 18-C , 19-C ) :   1.5164
B( 18-C , 22-S ) :   1.0605 B( 19-C , 20-C ) :   1.1584 B( 19-C , 81-H ) :   0.9808
B( 20-C , 21-C ) :   1.2588 B( 20-C , 26-C ) :   1.2973 B( 21-C , 22-S ) :   1.0592
B( 21-C , 23-C ) :   1.3787 B( 23-C , 24-C ) :   1.3178 B( 23-C , 26-C ) :   0.1012
B( 23-C , 82-H ) :   1.0040 B( 24-C , 25-C ) :   1.2587 B( 24-C , 29-C ) :   1.1437
B( 25-C , 26-C ) :   1.4005 B( 25-C , 27-S ) :   1.0122 B( 26-C , 83-H ) :   1.0029
B( 27-S , 28-C ) :   1.0873 B( 28-C , 29-C ) :   1.5597 B( 28-C , 30-C ) :   1.1116
B( 29-C , 84-H ) :   1.0003 B( 30-C , 31-C ) :   1.3789 B( 30-C , 35-C ) :   0.1206
B( 30-C , 37-C ) :   1.1621 B( 31-C , 32-F ) :   1.1358 B( 31-C , 33-C ) :   1.1891
B( 33-C , 34-F ) :   1.1395 B( 33-C , 35-C ) :   1.3747 B( 35-C , 36-C ) :   1.1804
B( 35-C , 42-C ) :   1.1258 B( 36-C , 37-C ) :   1.2262 B( 36-C , 40-N ) :   1.4705
B( 37-C , 38-N ) :   1.4625 B( 38-N , 39-N ) :   1.2483 B( 38-N , 40-N ) :   0.1617
B( 39-N , 40-N ) :   1.2144 B( 39-N , 41-C ) :   0.9506 B( 41-C , 85-H ) :   0.9665
B( 41-C , 86-H ) :   0.9695 B( 41-C , 87-H ) :   0.9699 B( 42-C , 43-C ) :   1.5874
B( 42-C , 46-S ) :   1.0688 B( 43-C , 44-C ) :   1.1258 B( 43-C , 88-H ) :   0.9848
B( 44-C , 45-C ) :   1.2678 B( 44-C , 50-C ) :   1.3206 B( 45-C , 46-S ) :   1.0245
B( 45-C , 47-C ) :   1.3979 B( 47-C , 48-C ) :   1.3091 B( 47-C , 50-C ) :   0.1020
B( 47-C , 89-H ) :   1.0005 B( 48-C , 49-C ) :   1.2759 B( 48-C , 53-C ) :   1.1899
B( 49-C , 50-C ) :   1.3823 B( 49-C , 51-S ) :   1.0504 B( 50-C , 90-H ) :   1.0011
B( 51-S , 52-C ) :   1.0685 B( 52-C , 53-C ) :   1.5288 B( 52-C , 54-C ) :   1.0891
B( 53-C , 91-H ) :   0.9933 B( 54-C , 55-C ) :   1.7172 B( 54-C , 92-H ) :   0.9249
B( 55-C , 56-C ) :   0.9326 B( 55-C , 66-C ) :   1.0231 B( 56-C , 57-O ) :   2.2650
B( 56-C , 58-C ) :   0.9240 B( 58-C , 59-C ) :   1.3351 B( 58-C , 63-C ) :   1.3605
B( 59-C , 60-C ) :   1.3512 B( 59-C , 66-C ) :   1.0015 B( 60-C , 61-C ) :   1.3758
B( 60-C , 93-H ) :   0.9862 B( 61-C , 62-C ) :   1.3740 B( 61-C , 65-C ) :   1.0932
B( 62-C , 63-C ) :   1.3573 B( 62-C , 64-C ) :   1.0937 B( 63-C , 94-H ) :   1.0097
B( 64-C , 95-H ) :   0.9401 B( 64-C , 96-H ) :   0.9514 B( 64-C , 97-H ) :   0.9406
B( 65-C , 98-H ) :   0.9514 B( 65-C , 99-H ) :   0.9412 B( 65-C ,100-H ) :   0.9395
B( 66-C , 67-C ) :   1.6557 B( 67-C , 68-C ) :   1.1622 B( 67-C , 70-C ) :   1.1266
B( 68-C , 69-N ) :   3.0109 B( 70-C , 71-N ) :   2.9862

-----------------------------------------------------------------------------
         ABSORPTION SPECTRUM VIA TRANSITION ELECTRIC DIPOLE MOMENTS
-----------------------------------------------------------------------------
State   Energy  Wavelength   fosc         T2         TX        TY        TZ
        (cm-1)    (nm)                  (au**2)     (au)      (au)      (au)
-----------------------------------------------------------------------------
   0   19118.7    523.0   2.183715662  37.60227   2.99222  -0.42830   5.33530
   1   20677.6    483.6   0.306227348   4.87550   1.28751   0.38199   1.75269
   2   24005.9    416.6   0.849765993  11.65351  -1.03256   0.00770  -3.25381
   3   24542.1    407.5   0.055799487   0.74850  -0.48462  -0.51629   0.49708
   4   25343.5    394.6   0.058435176   0.75907  -0.71071  -0.20263   0.46141
   5   26712.6    374.4   0.069729564   0.85936   0.29424   0.26889   0.83695
   6   27236.5    367.2   0.040705217   0.49201  -0.63228  -0.26028   0.15648
   7   28147.9    355.3   0.051597964   0.60348  -0.25021   0.19797  -0.70829
   8   29337.2    340.9   0.061210924   0.68689  -0.01393   0.17075  -0.81089
   9   29675.7    337.0   0.036103754   0.40052  -0.49321   0.34811  -0.18995
  10   29892.4    334.5   0.223171267   2.45784  -0.63940  -0.53991  -1.32571
  11   30443.9    328.5   0.007666498   0.08290   0.12866   0.25094  -0.05815
  12   30487.9    328.0   0.077216060   0.83379  -0.33467   0.04157  -0.84856
  13   30666.4    326.1   0.175213659   1.88096  -0.67240  -0.46709   1.10031
  14   31851.3    314.0   0.046071777   0.47619  -0.03277  -0.18509  -0.66398
  15   32785.8    305.0   0.068652214   0.68936   0.65161   0.46994   0.20958
  16   32971.8    303.3   0.037953728   0.37895   0.33121   0.25271  -0.45321
  17   33099.5    302.1   0.083293160   0.82844  -0.37135  -0.42496  -0.71411
  18   33243.1    300.8   0.086066115   0.85233  -0.32236  -0.05788   0.86317
  19   33342.7    299.9   0.002641411   0.02608   0.00468   0.00214   0.16141
  20   33795.8    295.9   0.087061956   0.84809  -0.15469   0.14954   0.89543
  21   34269.1    291.8   0.023411348   0.22491   0.24716   0.19151  -0.35657
  22   35131.9    284.6   0.090561064   0.84863   0.69073   0.48082  -0.37460
  23   35263.7    283.6   0.226188563   2.11163  -0.23838   0.14796   1.42580
  24   35776.9    279.5   0.044399608   0.40856  -0.42610  -0.11228   0.46302
  25   36107.9    276.9   0.065605412   0.59815  -0.36754   0.02245   0.68012
  26   36360.0    275.0   0.081053998   0.73388   0.49281   0.10958  -0.69210
  27   36551.2    273.6   0.019276919   0.17362  -0.40875  -0.02919  -0.07547
  28   37220.0    268.7   0.180349882   1.59520  -0.53249   0.21820   1.12430
  29   37254.0    268.4   0.645177784   5.70141   2.25602   0.77789  -0.08153
  30   37472.5    266.9   0.375849915   3.30200  -1.13289  -0.74900  -1.20729
  31   37960.7    263.4   0.162724771   1.41122  -0.62314  -0.65408  -0.77143
  32   38382.0    260.5   0.017931786   0.15381  -0.34112   0.12605  -0.14681
  33   38897.7    257.1   0.119767319   1.01366  -0.86472   0.23927  -0.45679
  34   39297.5    254.5   0.059746918   0.50053  -0.56019  -0.39941  -0.16487
  35   39553.4    252.8   0.015952597   0.13278   0.23331  -0.11300   0.25608
  36   40044.4    249.7   0.010141469   0.08337   0.21346  -0.16502   0.10283

FINAL SINGLE POINT ENERGY     -4511.501242886600

DIPOLE MOMENT
-------------
                                X             Y             Z
Electronic contribution:    -18.34827      -7.26775       6.33268
Nuclear contribution   :     21.40529       9.51367      -6.05738
                        -----------------------------------------
Total Dipole Moment    :      3.05702       2.24592       0.27531
                        -----------------------------------------
Magnitude (a.u.)       :      3.80333
Magnitude (Debye)      :      9.66731

Rotational constants in cm-1:     0.003824     0.000154     0.000149
Rotational constants in MHz :   114.655306     4.609140     4.466918

                             ****ORCA TERMINATED NORMALLY****
TOTAL RUN TIME: 0 days 0 hours 9 minutes 39 seconds 339 msec
