                         Program Version 4.2.0 -  RELEASE  -
|  1> # ORCA input file
|  2> # SCF done       -175.359645794261          0.000302256482
|  3> ! CAM-B3LYP def2-SVP def2/J RIJCOSX Grid4 TightSCF
|  4> %maxcore 5000
|  5> %tddft
|  6>     Mode sTDDFT
|  7>     Ethresh 5.0
|  8>     maxcore 5000
|  9> end
| 10>
| 11> %pal
| 12>   nprocs 6
| 13>   end
| 14> * xyz 0 1
| 15>    C       -2.30490        -1.45045        -0.69932
| 16>    C       -2.37941        -0.59166         0.39352
| 17>    C       -3.12691         0.69654         0.26224
| 18>    C       -1.76098        -0.92744         1.60874
| 19>    C       -1.84708        -0.00461         2.78163
| 20>    C       -1.06337        -2.12562         1.71698
| 21>    C       -0.99098        -2.96951         0.62711
| 22>    C       -1.61327        -2.64522        -0.58890
| 23>    C       -1.37729        -3.72566        -1.53765
| 24>    C       -1.97470        -3.84633        -2.76430
| 25>    C       -2.86141        -2.88986        -3.30337
| 26>    N       -3.58496        -2.15016        -3.80052
| 27>    C       -1.84564        -4.94402        -3.64233
| 28>    N       -1.81865        -5.80282        -4.40441
| 29>    C       -0.47578        -4.68014        -0.90603
| 30>    C       -0.30759        -4.26838         0.51288
| 31>    O        0.27299        -4.84718         1.40754
| 32>    C        0.17952        -5.66167        -1.59432
| 33>    C        1.06557        -6.67109        -1.16069
| 34>    C        1.41285        -7.12866         0.10112
| 35>    C        2.32234        -8.17558         0.04095
| 36>    C        2.69415        -8.54492        -1.26620
| 37>    S        1.88090        -7.58188        -2.43827
| 38>    C        3.61857        -9.58023        -1.32034
| 39>    C        3.96659       -10.02887        -0.05536
| 40>    S        3.12464        -9.15686         1.21638
| 41>    C        4.88791       -11.05859         0.29510
| 42>    C        5.69757       -11.76471        -0.62573
| 43>    C        6.61410       -12.78524        -0.19561
| 44>    N        7.37764       -13.41768        -1.10925
| 45>    C        7.28000       -13.11106        -2.36023
| 46>    C        6.37071       -12.10735        -2.78488
| 47>    N        5.62447       -11.47325        -1.94261
| 48>    F        6.26071       -11.78244        -4.07076
| 49>    F        8.05488       -13.75321        -3.22678
| 50>    C        6.77072       -13.17398         1.15434
| 51>    C        5.96483       -12.46999         2.07800
| 52>    C        5.05514       -11.43617         1.64688
| 53>    N        4.40059       -10.89707         2.67546
| 54>    S        4.86849       -11.60354         4.03456
| 55>    N        5.92504       -12.62976         3.40286
| 56>    C        7.67934       -14.19850         1.53950
| 57>    C        7.88512       -14.67085         2.82764
| 58>    C        8.84455       -15.67322         2.86164
| 59>    C        9.38693       -15.98441         1.60185
| 60>    S        8.68633       -15.00933         0.35705
| 61>    C       10.33342       -17.00067         1.63653
| 62>    C       10.53588       -17.48279         2.92003
| 63>    S        9.54810       -16.63894         4.10279
| 64>    C       11.44706       -18.46138         3.38147
| 65>    C       12.09969       -19.43310         2.68969
| 66>    C       13.32155       -20.04830         3.29146
| 67>    O       13.68002       -19.95490         4.44263
| 68>    C       13.99744       -20.72491         2.17234
| 69>    C       13.19087       -20.65482         1.02204
| 70>    C       13.64567       -21.20202        -0.16471
| 71>    C       14.89034       -21.82434        -0.20488
| 72>    C       15.68388       -21.90598         0.95085
| 73>    C       15.22869       -21.34796         2.14106
| 74>    C       17.01411       -22.58668         0.90766
| 75>    C       15.37671       -22.40749        -1.49257
| 76>    C       11.93666       -19.99085         1.36357
| 77>    C       10.76235       -20.11028         0.66744
| 78>    C        9.51420       -19.68219         1.16255
| 79>    N        8.47318       -19.38456         1.54361
| 80>    C       10.65500       -20.75817        -0.58012
| 81>    N       10.51988       -21.25889        -1.60415
| 82>    H       -2.78379        -1.16743        -1.62283
| 83>    H       -3.54391         0.80070        -0.73551
| 84>    H       -2.46831         1.54276         0.45528
| 85>    H       -3.94031         0.74166         0.98561
| 86>    H       -1.41503         0.96554         2.53802
| 87>    H       -1.31659        -0.41664         3.63560
| 88>    H       -2.88642         0.16065         3.06358
| 89>    H       -0.57815        -2.40381         2.64067
| 90>    H        0.03222        -5.66832        -2.66872
| 91>    H        1.02057        -6.70404         1.00608
| 92>    H        4.02689        -9.99702        -2.22000
| 93>    H        7.35192       -14.28938         3.67745
| 94>    H       10.88163       -17.34377         0.77830
| 95>    H       11.72294       -18.38903         4.42962
| 96>    H       13.05432       -21.14374        -1.06507
| 97>    H       15.82490       -21.39847         3.03984
| 98>    H       17.66670       -22.10695         0.17895
| 99>    H       16.90128       -23.62901         0.61118
|100>    H       17.49568       -22.55296         1.88097
|101>    H       14.63955       -22.27445        -2.27938
|102>    H       15.57571       -23.47240        -1.37894
|103>    H       16.30669       -21.93063        -1.80102
|104> *
|105>
|106>                          ****END OF INPUT****

CARTESIAN COORDINATES (ANGSTROEM)
---------------------------------
  C     -2.304900   -1.450450   -0.699320
  C     -2.379410   -0.591660    0.393520
  C     -3.126910    0.696540    0.262240
  C     -1.760980   -0.927440    1.608740
  C     -1.847080   -0.004610    2.781630
  C     -1.063370   -2.125620    1.716980
  C     -0.990980   -2.969510    0.627110
  C     -1.613270   -2.645220   -0.588900
  C     -1.377290   -3.725660   -1.537650
  C     -1.974700   -3.846330   -2.764300
  C     -2.861410   -2.889860   -3.303370
  N     -3.584960   -2.150160   -3.800520
  C     -1.845640   -4.944020   -3.642330
  N     -1.818650   -5.802820   -4.404410
  C     -0.475780   -4.680140   -0.906030
  C     -0.307590   -4.268380    0.512880
  O      0.272990   -4.847180    1.407540
  C      0.179520   -5.661670   -1.594320
  C      1.065570   -6.671090   -1.160690
  C      1.412850   -7.128660    0.101120
  C      2.322340   -8.175580    0.040950
  C      2.694150   -8.544920   -1.266200
  S      1.880900   -7.581880   -2.438270
  C      3.618570   -9.580230   -1.320340
  C      3.966590  -10.028870   -0.055360
  S      3.124640   -9.156860    1.216380
  C      4.887910  -11.058590    0.295100
  C      5.697570  -11.764710   -0.625730
  C      6.614100  -12.785240   -0.195610
  N      7.377640  -13.417680   -1.109250
  C      7.280000  -13.111060   -2.360230
  C      6.370710  -12.107350   -2.784880
  N      5.624470  -11.473250   -1.942610
  F      6.260710  -11.782440   -4.070760
  F      8.054880  -13.753210   -3.226780
  C      6.770720  -13.173980    1.154340
  C      5.964830  -12.469990    2.078000
  C      5.055140  -11.436170    1.646880
  N      4.400590  -10.897070    2.675460
  S      4.868490  -11.603540    4.034560
  N      5.925040  -12.629760    3.402860
  C      7.679340  -14.198500    1.539500
  C      7.885120  -14.670850    2.827640
  C      8.844550  -15.673220    2.861640
  C      9.386930  -15.984410    1.601850
  S      8.686330  -15.009330    0.357050
  C     10.333420  -17.000670    1.636530
  C     10.535880  -17.482790    2.920030
  S      9.548100  -16.638940    4.102790
  C     11.447060  -18.461380    3.381470
  C     12.099690  -19.433100    2.689690
  C     13.321550  -20.048300    3.291460
  O     13.680020  -19.954900    4.442630
  C     13.997440  -20.724910    2.172340
  C     13.190870  -20.654820    1.022040
  C     13.645670  -21.202020   -0.164710
  C     14.890340  -21.824340   -0.204880
  C     15.683880  -21.905980    0.950850
  C     15.228690  -21.347960    2.141060
  C     17.014110  -22.586680    0.907660
  C     15.376710  -22.407490   -1.492570
  C     11.936660  -19.990850    1.363570
  C     10.762350  -20.110280    0.667440
  C      9.514200  -19.682190    1.162550
  N      8.473180  -19.384560    1.543610
  C     10.655000  -20.758170   -0.580120
  N     10.519880  -21.258890   -1.604150
  H     -2.783790   -1.167430   -1.622830
  H     -3.543910    0.800700   -0.735510
  H     -2.468310    1.542760    0.455280
  H     -3.940310    0.741660    0.985610
  H     -1.415030    0.965540    2.538020
  H     -1.316590   -0.416640    3.635600
  H     -2.886420    0.160650    3.063580
  H     -0.578150   -2.403810    2.640670
  H      0.032220   -5.668320   -2.668720
  H      1.020570   -6.704040    1.006080
  H      4.026890   -9.997020   -2.220000
  H      7.351920  -14.289380    3.677450
  H     10.881630  -17.343770    0.778300
  H     11.722940  -18.389030    4.429620
  H     13.054320  -21.143740   -1.065070
  H     15.824900  -21.398470    3.039840
  H     17.666700  -22.106950    0.178950
  H     16.901280  -23.629010    0.611180
  H     17.495680  -22.552960    1.880970
  H     14.639550  -22.274450   -2.279380
  H     15.575710  -23.472400   -1.378940
  H     16.306690  -21.930630   -1.801020

 Total Charge           Charge          ....    0
 Multiplicity           Mult            ....    1
 Number of Electrons    NEL             ....  492
 Basis Dimension        Dim             .... 1068

ORBITAL ENERGIES
----------------

  NO   OCC          E(Eh)            E(eV)
   0   2.0000     -89.050602     -2423.1901
   1   2.0000     -88.963736     -2420.8263
   2   2.0000     -88.961272     -2420.7593
   3   2.0000     -88.959489     -2420.7108
   4   2.0000     -88.958778     -2420.6914
   5   2.0000     -24.823246      -675.4749
   6   2.0000     -24.821549      -675.4287
   7   2.0000     -19.214775      -522.8606
   8   2.0000     -19.211158      -522.7622
   9   2.0000     -14.464008      -393.5857
  10   2.0000     -14.461041      -393.5049
  11   2.0000     -14.458850      -393.4453
  12   2.0000     -14.458536      -393.4368
  13   2.0000     -14.412519      -392.1846
  14   2.0000     -14.410710      -392.1354
  15   2.0000     -14.410104      -392.1189
  16   2.0000     -14.408646      -392.0792
  17   2.0000     -10.439948      -284.0854
  18   2.0000     -10.438566      -284.0478
  19   2.0000     -10.365516      -282.0600
  20   2.0000     -10.361898      -281.9616
  21   2.0000     -10.354370      -281.7567
  22   2.0000     -10.352528      -281.7066
  23   2.0000     -10.347732      -281.5761
  24   2.0000     -10.346333      -281.5380
  25   2.0000     -10.339770      -281.3595
  26   2.0000     -10.338511      -281.3252
  27   2.0000     -10.336187      -281.2620
  28   2.0000     -10.335001      -281.2297
  29   2.0000     -10.323570      -280.9186
  30   2.0000     -10.322361      -280.8857
  31   2.0000     -10.321720      -280.8683
  32   2.0000     -10.319729      -280.8141
  33   2.0000     -10.317629      -280.7570
  34   2.0000     -10.316465      -280.7253
  35   2.0000     -10.316111      -280.7157
  36   2.0000     -10.315422      -280.6969
  37   2.0000     -10.313607      -280.6475
  38   2.0000     -10.313032      -280.6319
  39   2.0000     -10.312002      -280.6038
  40   2.0000     -10.311782      -280.5979
  41   2.0000     -10.307563      -280.4831
  42   2.0000     -10.306895      -280.4649
  43   2.0000     -10.299663      -280.2681
  44   2.0000     -10.299604      -280.2665
  45   2.0000     -10.299115      -280.2532
  46   2.0000     -10.297505      -280.2094
  47   2.0000     -10.296574      -280.1840
  48   2.0000     -10.295607      -280.1577
  49   2.0000     -10.294887      -280.1381
  50   2.0000     -10.294646      -280.1316
  51   2.0000     -10.293957      -280.1128
  52   2.0000     -10.293787      -280.1082
  53   2.0000     -10.293161      -280.0911
  54   2.0000     -10.288154      -279.9549
  55   2.0000     -10.287589      -279.9395
  56   2.0000     -10.287450      -279.9357
  57   2.0000     -10.287351      -279.9331
  58   2.0000     -10.285721      -279.8887
  59   2.0000     -10.285684      -279.8877
  60   2.0000     -10.285303      -279.8773
  61   2.0000     -10.284930      -279.8672
  62   2.0000     -10.282927      -279.8127
  63   2.0000     -10.275960      -279.6231
  64   2.0000     -10.275267      -279.6042
  65   2.0000     -10.274570      -279.5853
  66   2.0000     -10.272632      -279.5325
  67   2.0000      -8.141662      -221.5459
  68   2.0000      -8.059154      -219.3007
  69   2.0000      -8.056647      -219.2325
  70   2.0000      -8.053093      -219.1358
  71   2.0000      -8.052810      -219.1281
  72   2.0000      -6.112721      -166.3356
  73   2.0000      -6.104968      -166.1246
  74   2.0000      -6.104491      -166.1116
  75   2.0000      -6.028612      -164.0469
  76   2.0000      -6.026060      -163.9774
  77   2.0000      -6.024630      -163.9385
  78   2.0000      -6.022857      -163.8903
  79   2.0000      -6.022517      -163.8810
  80   2.0000      -6.022125      -163.8704
  81   2.0000      -6.020774      -163.8336
  82   2.0000      -6.018353      -163.7677
  83   2.0000      -6.018302      -163.7663
  84   2.0000      -6.018127      -163.7616
  85   2.0000      -6.014642      -163.6667
  86   2.0000      -6.014316      -163.6579
  87   2.0000      -1.350892       -36.7596
  88   2.0000      -1.336779       -36.3756
  89   2.0000      -1.148184       -31.2437
  90   2.0000      -1.129293       -30.7296
  91   2.0000      -1.126241       -30.6466
  92   2.0000      -1.122361       -30.5410
  93   2.0000      -1.048125       -28.5209
  94   2.0000      -1.017031       -27.6748
  95   2.0000      -1.014560       -27.6076
  96   2.0000      -1.012296       -27.5460
  97   2.0000      -1.011608       -27.5272
  98   2.0000      -1.000925       -27.2366
  99   2.0000      -0.992892       -27.0180
 100   2.0000      -0.991494       -26.9799
 101   2.0000      -0.990066       -26.9411
 102   2.0000      -0.987911       -26.8824
 103   2.0000      -0.983504       -26.7625
 104   2.0000      -0.958579       -26.0843
 105   2.0000      -0.954563       -25.9750
 106   2.0000      -0.948770       -25.8174
 107   2.0000      -0.942839       -25.6560
 108   2.0000      -0.902477       -24.5576
 109   2.0000      -0.900169       -24.4948
 110   2.0000      -0.899056       -24.4646
 111   2.0000      -0.893174       -24.3045
 112   2.0000      -0.888189       -24.1688
 113   2.0000      -0.878826       -23.9141
 114   2.0000      -0.870194       -23.6792
 115   2.0000      -0.868329       -23.6284
 116   2.0000      -0.863733       -23.5034
 117   2.0000      -0.859999       -23.4018
 118   2.0000      -0.839796       -22.8520
 119   2.0000      -0.830814       -22.6076
 120   2.0000      -0.821627       -22.3576
 121   2.0000      -0.809017       -22.0145
 122   2.0000      -0.806906       -21.9570
 123   2.0000      -0.805623       -21.9221
 124   2.0000      -0.804010       -21.8782
 125   2.0000      -0.801220       -21.8023
 126   2.0000      -0.784203       -21.3392
 127   2.0000      -0.770163       -20.9572
 128   2.0000      -0.763119       -20.7655
 129   2.0000      -0.752829       -20.4855
 130   2.0000      -0.749709       -20.4006
 131   2.0000      -0.745158       -20.2768
 132   2.0000      -0.735195       -20.0057
 133   2.0000      -0.715712       -19.4755
 134   2.0000      -0.702480       -19.1155
 135   2.0000      -0.693502       -18.8711
 136   2.0000      -0.689893       -18.7729
 137   2.0000      -0.686491       -18.6804
 138   2.0000      -0.681462       -18.5435
 139   2.0000      -0.678709       -18.4686
 140   2.0000      -0.673378       -18.3236
 141   2.0000      -0.671138       -18.2626
 142   2.0000      -0.667900       -18.1745
 143   2.0000      -0.661430       -17.9984
 144   2.0000      -0.649497       -17.6737
 145   2.0000      -0.646212       -17.5843
 146   2.0000      -0.639234       -17.3944
 147   2.0000      -0.635848       -17.3023
 148   2.0000      -0.634904       -17.2766
 149   2.0000      -0.632587       -17.2136
 150   2.0000      -0.625988       -17.0340
 151   2.0000      -0.612850       -16.6765
 152   2.0000      -0.605968       -16.4892
 153   2.0000      -0.604151       -16.4398
 154   2.0000      -0.595087       -16.1931
 155   2.0000      -0.589786       -16.0489
 156   2.0000      -0.580477       -15.7956
 157   2.0000      -0.578780       -15.7494
 158   2.0000      -0.577706       -15.7202
 159   2.0000      -0.576942       -15.6994
 160   2.0000      -0.573684       -15.6107
 161   2.0000      -0.568709       -15.4754
 162   2.0000      -0.563028       -15.3208
 163   2.0000      -0.559432       -15.2229
 164   2.0000      -0.554931       -15.1004
 165   2.0000      -0.544721       -14.8226
 166   2.0000      -0.539317       -14.6756
 167   2.0000      -0.538239       -14.6462
 168   2.0000      -0.537874       -14.6363
 169   2.0000      -0.535312       -14.5666
 170   2.0000      -0.534030       -14.5317
 171   2.0000      -0.529046       -14.3961
 172   2.0000      -0.526476       -14.3261
 173   2.0000      -0.522895       -14.2287
 174   2.0000      -0.522586       -14.2203
 175   2.0000      -0.521104       -14.1800
 176   2.0000      -0.520430       -14.1616
 177   2.0000      -0.517871       -14.0920
 178   2.0000      -0.516027       -14.0418
 179   2.0000      -0.514156       -13.9909
 180   2.0000      -0.512755       -13.9528
 181   2.0000      -0.506857       -13.7923
 182   2.0000      -0.501308       -13.6413
 183   2.0000      -0.496527       -13.5112
 184   2.0000      -0.493714       -13.4346
 185   2.0000      -0.492715       -13.4075
 186   2.0000      -0.489248       -13.3131
 187   2.0000      -0.488860       -13.3026
 188   2.0000      -0.487497       -13.2655
 189   2.0000      -0.486860       -13.2481
 190   2.0000      -0.484161       -13.1747
 191   2.0000      -0.479750       -13.0547
 192   2.0000      -0.478775       -13.0281
 193   2.0000      -0.475513       -12.9394
 194   2.0000      -0.473780       -12.8922
 195   2.0000      -0.473086       -12.8733
 196   2.0000      -0.472271       -12.8511
 197   2.0000      -0.470462       -12.8019
 198   2.0000      -0.464938       -12.6516
 199   2.0000      -0.459440       -12.5020
 200   2.0000      -0.456404       -12.4194
 201   2.0000      -0.454349       -12.3635
 202   2.0000      -0.446973       -12.1628
 203   2.0000      -0.445311       -12.1175
 204   2.0000      -0.443297       -12.0627
 205   2.0000      -0.442700       -12.0465
 206   2.0000      -0.442641       -12.0449
 207   2.0000      -0.441151       -12.0043
 208   2.0000      -0.439857       -11.9691
 209   2.0000      -0.439479       -11.9588
 210   2.0000      -0.437737       -11.9114
 211   2.0000      -0.436578       -11.8799
 212   2.0000      -0.436195       -11.8695
 213   2.0000      -0.435128       -11.8404
 214   2.0000      -0.432570       -11.7708
 215   2.0000      -0.426998       -11.6192
 216   2.0000      -0.426155       -11.5963
 217   2.0000      -0.423367       -11.5204
 218   2.0000      -0.422890       -11.5074
 219   2.0000      -0.419833       -11.4242
 220   2.0000      -0.415599       -11.3090
 221   2.0000      -0.414714       -11.2849
 222   2.0000      -0.406251       -11.0547
 223   2.0000      -0.404581       -11.0092
 224   2.0000      -0.402016       -10.9394
 225   2.0000      -0.396943       -10.8014
 226   2.0000      -0.395936       -10.7740
 227   2.0000      -0.394488       -10.7346
 228   2.0000      -0.369544       -10.0558
 229   2.0000      -0.366564        -9.9747
 230   2.0000      -0.364051        -9.9063
 231   2.0000      -0.363604        -9.8942
 232   2.0000      -0.361415        -9.8346
 233   2.0000      -0.350636        -9.5413
 234   2.0000      -0.347914        -9.4672
 235   2.0000      -0.335010        -9.1161
 236   2.0000      -0.334345        -9.0980
 237   2.0000      -0.332257        -9.0412
 238   2.0000      -0.329909        -8.9773
 239   2.0000      -0.314020        -8.5449
 240   2.0000      -0.305762        -8.3202
 241   2.0000      -0.302492        -8.2312
 242   2.0000      -0.296816        -8.0768
 243   2.0000      -0.295995        -8.0544
 244   2.0000      -0.277039        -7.5386
 245   2.0000      -0.242129        -6.5887
 246   0.0000      -0.124722        -3.3939
 247   0.0000      -0.081633        -2.2213
 248   0.0000      -0.078472        -2.1353
 249   0.0000      -0.055213        -1.5024
 250   0.0000      -0.054004        -1.4695

MULLIKEN ATOMIC CHARGES
-----------------------
   0 C :   -0.078442
   1 C :   -0.082134
   2 C :    0.117507
   3 C :   -0.076458
   4 C :    0.118321
   5 C :   -0.081016
   6 C :   -0.003843
   7 C :    0.039078
   8 C :    0.298143
   9 C :   -0.349694
  10 C :   -0.181584
  11 N :    0.143174
  12 C :   -0.202935
  13 N :    0.160505
  14 C :   -0.090362
  15 C :    0.157244
  16 O :   -0.158171
  17 C :    0.042178
  18 C :   -0.120252
  19 C :   -0.002126
  20 C :    0.000080
  21 C :    0.017515
  22 S :    0.150335
  23 C :   -0.045053
  24 C :   -0.177505
  25 S :    0.166306
  26 C :    0.200922
  27 C :   -0.067375
  28 C :   -0.058971
  29 N :   -0.041501
  30 C :    0.155080
  31 C :    0.144086
  32 N :    0.000809
  33 F :   -0.138639
  34 F :   -0.131811
  35 C :    0.179709
  36 C :   -0.001857
  37 C :   -0.028037
  38 N :   -0.321648
  39 S :    0.562159
  40 N :   -0.292719
  41 C :   -0.176099
  42 C :   -0.040251
  43 C :    0.018282
  44 C :    0.002953
  45 S :    0.168064
  46 C :    0.010129
  47 C :   -0.121645
  48 S :    0.158222
  49 C :    0.087076
  50 C :   -0.138098
  51 C :    0.136233
  52 O :   -0.144316
  53 C :    0.009632
  54 C :    0.029149
  55 C :   -0.082605
  56 C :   -0.081634
  57 C :   -0.076869
  58 C :   -0.083454
  59 C :    0.118063
  60 C :    0.115417
  61 C :    0.264485
  62 C :   -0.341188
  63 C :   -0.206209
  64 N :    0.180032
  65 C :   -0.175555
  66 N :    0.153404
  67 H :   -0.012675
  68 H :    0.024654
  69 H :    0.025677
  70 H :    0.027140
  71 H :    0.026546
  72 H :    0.015239
  73 H :    0.028213
  74 H :   -0.021052
  75 H :    0.015683
  76 H :    0.015402
  77 H :    0.005060
  78 H :    0.000737
  79 H :    0.000258
  80 H :    0.022452
  81 H :   -0.011779
  82 H :   -0.017463
  83 H :    0.026708
  84 H :    0.028795
  85 H :    0.016449
  86 H :    0.024869
  87 H :    0.028078
  88 H :    0.026773
Sum of atomic charges:   -0.0000000

LOEWDIN ATOMIC CHARGES
----------------------
   0 C :   -0.005556
   1 C :   -0.004426
   2 C :   -0.041992
   3 C :   -0.007232
   4 C :   -0.042809
   5 C :    0.005913
   6 C :   -0.047205
   7 C :   -0.018510
   8 C :    0.078182
   9 C :   -0.143097
  10 C :   -0.016870
  11 N :   -0.057644
  12 C :   -0.026510
  13 N :   -0.051396
  14 C :   -0.094738
  15 C :    0.088044
  16 O :   -0.143962
  17 C :    0.043529
  18 C :   -0.170306
  19 C :   -0.018559
  20 C :   -0.204882
  21 C :   -0.186674
  22 S :    0.433337
  23 C :   -0.052565
  24 C :   -0.147057
  25 S :    0.459472
  26 C :   -0.043384
  27 C :   -0.004658
  28 C :   -0.012763
  29 N :   -0.050052
  30 C :    0.063904
  31 C :    0.062151
  32 N :   -0.030029
  33 F :   -0.027205
  34 F :   -0.021798
  35 C :   -0.036188
  36 C :   -0.037404
  37 C :   -0.044980
  38 N :   -0.295801
  39 S :    0.682683
  40 N :   -0.277590
  41 C :   -0.153193
  42 C :   -0.046442
  43 C :   -0.186661
  44 C :   -0.197132
  45 S :    0.459873
  46 C :   -0.027990
  47 C :   -0.171167
  48 S :    0.439169
  49 C :    0.043167
  50 C :   -0.090800
  51 C :    0.083564
  52 O :   -0.143599
  53 C :   -0.049941
  54 C :   -0.015539
  55 C :   -0.008609
  56 C :   -0.003104
  57 C :   -0.008145
  58 C :    0.007469
  59 C :   -0.042606
  60 C :   -0.042205
  61 C :    0.067041
  62 C :   -0.142121
  63 C :   -0.020650
  64 N :   -0.040395
  65 C :   -0.020206
  66 N :   -0.054384
  67 H :    0.036046
  68 H :    0.035885
  69 H :    0.037395
  70 H :    0.038023
  71 H :    0.037946
  72 H :    0.032533
  73 H :    0.038393
  74 H :    0.034630
  75 H :    0.043557
  76 H :    0.036747
  77 H :    0.032759
  78 H :    0.032488
  79 H :    0.035989
  80 H :    0.045788
  81 H :    0.035479
  82 H :    0.036022
  83 H :    0.037782
  84 H :    0.038695
  85 H :    0.032981
  86 H :    0.035759
  87 H :    0.038635
  88 H :    0.037703

  Mayer bond orders larger than 0.100000
B(  0-C ,  1-C ) :   1.3781 B(  0-C ,  7-C ) :   1.3480 B(  0-C , 67-H ) :   0.9835
B(  1-C ,  2-C ) :   1.0940 B(  1-C ,  3-C ) :   1.3764 B(  2-C , 68-H ) :   0.9506
B(  2-C , 69-H ) :   0.9399 B(  2-C , 70-H ) :   0.9396 B(  3-C ,  4-C ) :   1.0936
B(  3-C ,  5-C ) :   1.3502 B(  4-C , 71-H ) :   0.9400 B(  4-C , 72-H ) :   0.9514
B(  4-C , 73-H ) :   0.9402 B(  5-C ,  6-C ) :   1.3596 B(  5-C , 74-H ) :   1.0094
B(  6-C ,  7-C ) :   1.3369 B(  6-C , 15-C ) :   0.9553 B(  7-C ,  8-C ) :   0.9843
B(  8-C ,  9-C ) :   1.6300 B(  8-C , 14-C ) :   1.0697 B(  9-C , 10-C ) :   1.1468
B(  9-C , 12-C ) :   1.1344 B( 10-C , 11-N ) :   2.9695 B( 12-C , 13-N ) :   2.9946
B( 14-C , 15-C ) :   0.9355 B( 14-C , 17-C ) :   1.6032 B( 15-C , 16-O ) :   2.1697
B( 17-C , 18-C ) :   1.2169 B( 17-C , 75-H ) :   0.9191 B( 18-C , 19-C ) :   1.4458
B( 18-C , 22-S ) :   1.0760 B( 19-C , 20-C ) :   1.2795 B( 19-C , 76-H ) :   0.9826
B( 20-C , 21-C ) :   1.3537 B( 20-C , 25-S ) :   1.0321 B( 21-C , 22-S ) :   1.0887
B( 21-C , 23-C ) :   1.2452 B( 23-C , 24-C ) :   1.4629 B( 23-C , 77-H ) :   0.9944
B( 24-C , 25-S ) :   1.1068 B( 24-C , 26-C ) :   1.1877 B( 26-C , 27-C ) :   1.3028
B( 26-C , 35-C ) :   0.1246 B( 26-C , 37-C ) :   1.1873 B( 27-C , 28-C ) :   1.1144
B( 27-C , 32-N ) :   1.4250 B( 28-C , 29-N ) :   1.3834 B( 28-C , 35-C ) :   1.2912
B( 29-N , 30-C ) :   1.6564 B( 30-C , 31-C ) :   1.1031 B( 30-C , 34-F ) :   1.1916
B( 31-C , 32-N ) :   1.6704 B( 31-C , 33-F ) :   1.1759 B( 35-C , 36-C ) :   1.2027
B( 35-C , 41-C ) :   1.2011 B( 36-C , 37-C ) :   1.1122 B( 36-C , 40-N ) :   1.5026
B( 37-C , 38-N ) :   1.4746 B( 38-N , 39-S ) :   1.2787 B( 38-N , 40-N ) :   0.1530
B( 39-S , 40-N ) :   1.2833 B( 41-C , 42-C ) :   1.4711 B( 41-C , 45-S ) :   1.0928
B( 42-C , 43-C ) :   1.2522 B( 42-C , 78-H ) :   0.9865 B( 43-C , 44-C ) :   1.3739
B( 43-C , 48-S ) :   1.0800 B( 44-C , 45-S ) :   1.0241 B( 44-C , 46-C ) :   1.3225
B( 46-C , 47-C ) :   1.4477 B( 46-C , 79-H ) :   0.9910 B( 47-C , 48-S ) :   1.0895
B( 47-C , 49-C ) :   1.1343 B( 49-C , 50-C ) :   1.6816 B( 49-C , 80-H ) :   0.9263
B( 50-C , 51-C ) :   0.9365 B( 50-C , 61-C ) :   1.0345 B( 51-C , 52-O ) :   2.2639
B( 51-C , 53-C ) :   0.9211 B( 53-C , 54-C ) :   1.3356 B( 53-C , 58-C ) :   1.3627
B( 54-C , 55-C ) :   1.3520 B( 54-C , 61-C ) :   0.9970 B( 55-C , 56-C ) :   1.3742
B( 55-C , 81-H ) :   0.9881 B( 56-C , 57-C ) :   1.3759 B( 56-C , 60-C ) :   1.0949
B( 57-C , 58-C ) :   1.3541 B( 57-C , 59-C ) :   1.0938 B( 58-C , 82-H ) :   1.0099
B( 59-C , 83-H ) :   0.9398 B( 59-C , 84-H ) :   0.9406 B( 59-C , 85-H ) :   0.9516
B( 60-C , 86-H ) :   0.9509 B( 60-C , 87-H ) :   0.9387 B( 60-C , 88-H ) :   0.9404
B( 61-C , 62-C ) :   1.6492 B( 62-C , 63-C ) :   1.1617 B( 62-C , 65-C ) :   1.1310
B( 63-C , 64-N ) :   3.0136 B( 65-C , 66-N ) :   2.9899

-----------------------------------------------------------------------------
         ABSORPTION SPECTRUM VIA TRANSITION ELECTRIC DIPOLE MOMENTS
-----------------------------------------------------------------------------
State   Energy  Wavelength   fosc         T2         TX        TY        TZ
        (cm-1)    (nm)                  (au**2)     (au)      (au)      (au)
-----------------------------------------------------------------------------
   0   10713.8    933.4   1.139472262  35.01357  -3.72597   4.44319  -1.17846
   1   18813.8    531.5   0.002608673   0.04565   0.12300   0.15816   0.07419
   2   20326.6    492.0   0.523226578   8.47425  -1.57406   2.44567   0.12351
   3   20924.5    477.9   0.029019608   0.45657  -0.34654   0.34541   0.46602
   4   21203.2    471.6   0.037154508   0.57688  -0.48870   0.52725  -0.24508
   5   21698.9    460.9   0.626231913   9.50109   2.04624  -2.19918   0.69111
   6   26096.6    383.2   0.158641305   2.00128   0.78228  -1.17822   0.03338
   7   26484.5    377.6   0.003117615   0.03875  -0.16589  -0.01459   0.10498
   8   26704.3    374.5   0.065666955   0.80955  -0.51358   0.63479  -0.37792
   9   27336.1    365.8   0.002091121   0.02518  -0.13963   0.07164   0.02355
  10   27827.4    359.4   0.171617118   2.03032   1.18484  -0.36133   0.70421
  11   28529.3    350.5   0.210294045   2.42668  -0.77134   1.26119   0.49104
  12   28803.7    347.2   0.054405819   0.62183  -0.32513   0.46736   0.54561
  13   29044.3    344.3   0.026244359   0.29747   0.42140  -0.34537  -0.02480
  14   29796.7    335.6   0.000836668   0.00924  -0.09607   0.00020  -0.00383
  15   29979.8    333.6   0.042610334   0.46791  -0.35695   0.36697   0.45369
  16   30042.2    332.9   0.007497059   0.08216  -0.18704   0.16796   0.13770
  17   30376.6    329.2   0.176752954   1.91559  -0.69562   0.31006   1.15567
  18   30560.2    327.2   0.079639467   0.85792   0.05494   0.53985   0.75065
  19   30648.6    326.3   0.017431314   0.18724  -0.02781   0.17132   0.39638
  20   31098.3    321.6   0.057292514   0.60651   0.38291  -0.42845   0.52566
  21   32424.6    308.4   0.004451554   0.04520  -0.17234   0.05568  -0.11135
  22   32640.9    306.4   0.021291997   0.21475   0.34819  -0.14846   0.26734
  23   32694.8    305.9   0.161102355   1.62218   1.16563  -0.39310   0.33008
  24   33096.5    302.1   0.059590466   0.59275  -0.43004   0.45019   0.45293
  25   33663.0    297.1   0.185206028   1.81125   1.14793  -0.68022   0.17553
  26   33922.2    294.8   0.141216645   1.37049   0.22176   0.75249   0.86895
  27   34183.1    292.5   0.033351779   0.32121   0.08555  -0.06439  -0.55654
  28   34613.5    288.9   0.080458773   0.76525   0.36990  -0.45184   0.65136
  29   35609.3    280.8   0.069041778   0.63830  -0.72308  -0.19431   0.27875
  30   35961.2    278.1   0.102025511   0.93401   0.69574  -0.50867  -0.43728
  31   36000.2    277.8   0.494072509   4.51816  -0.64492  -0.66393  -1.91348
  32   36092.8    277.1   0.237095738   2.16261  -0.66839   0.77873   1.05330
  33   36466.3    274.2   0.115778744   1.04523   0.98077  -0.28741   0.02686
  34   36628.6    273.0   0.016538149   0.14864   0.14580  -0.16457   0.31670
  35   36731.4    272.2   0.094467611   0.84668   0.45244  -0.02848  -0.80073
  36   36811.7    271.7   0.284615470   2.54535  -1.37385   0.48898  -0.64713
  37   36878.7    271.2   0.219895512   1.96298  -0.09879   0.11251   1.39304
  38   37287.3    268.2   0.030982119   0.27354   0.03597   0.12443  -0.50672
  39   37354.1    267.7   0.034987460   0.30835  -0.34213   0.29247   0.32521
  40   37565.7    266.2   0.036802849   0.32253  -0.03567  -0.10793   0.55642
  41   37698.6    265.3   0.138796120   1.21207  -0.30982   0.29945   1.01312
  42   37886.4    263.9   0.061301799   0.53268  -0.54664   0.37144  -0.30967
  43   38101.6    262.5   0.006919402   0.05979  -0.06436  -0.07736  -0.22284
  44   38225.8    261.6   0.024924663   0.21466   0.02178  -0.28696  -0.36309
  45   38677.3    258.5   0.104618488   0.89049  -0.55214   0.26050  -0.71956
  46   38789.1    257.8   0.000622921   0.00529   0.04640  -0.00627  -0.05563
  47   38990.7    256.5   0.055245916   0.46646   0.16267   0.32894   0.57602
  48   39398.4    253.8   0.002430676   0.02031  -0.07459  -0.11667  -0.03369
  49   39777.7    251.4   0.098654778   0.81650   0.52052  -0.73771   0.03646
  50   40286.6    248.2   0.062252008   0.50871  -0.19121   0.08602  -0.68172

FINAL SINGLE POINT ENERGY     -4693.615952456351

DIPOLE MOMENT
-------------
                                X             Y             Z
Electronic contribution:    -10.03731     -12.39597     -11.58046
Nuclear contribution   :     12.76891      13.38201      13.84938
                        -----------------------------------------
Total Dipole Moment    :      2.73160       0.98604       2.26892
                        -----------------------------------------
Magnitude (a.u.)       :      3.68537
Magnitude (Debye)      :      9.36745

Rotational constants in cm-1:     0.003362     0.000232     0.000221
Rotational constants in MHz :   100.780823     6.955172     6.619173

                             ****ORCA TERMINATED NORMALLY****
TOTAL RUN TIME: 0 days 0 hours 8 minutes 15 seconds 42 msec
