                         Program Version 4.2.0 -  RELEASE  -
|  1> # ORCA input file
|  2> # SCF done       -193.894650765183          0.000832776435
|  3> ! CAM-B3LYP def2-SVP def2/J RIJCOSX Grid4 TightSCF
|  4> %maxcore 5000
|  5> %tddft
|  6>     Mode sTDDFT
|  7>     Ethresh 5.0
|  8>     maxcore 5000
|  9> end
| 10>
| 11> %pal
| 12>   nprocs 6
| 13>   end
| 14> * xyz 0 1
| 15>    C        0.84183        -0.50289        -2.22485
| 16>    C       -0.10331         0.35779        -2.77625
| 17>    C        0.35580         1.53425        -3.57587
| 18>    C       -1.47531         0.13014        -2.58024
| 19>    C       -2.48702         1.06542        -3.16010
| 20>    C       -1.89305        -0.97391        -1.84441
| 21>    C       -0.95100        -1.82687        -1.30532
| 22>    C        0.42491        -1.59234        -1.48051
| 23>    C        1.17753        -2.61335        -0.75798
| 24>    C        2.47619        -2.48014        -0.34106
| 25>    C        3.30123        -1.38739        -0.68249
| 26>    N        4.01380        -0.52084        -0.92319
| 27>    C        3.11319        -3.35383         0.56079
| 28>    N        3.67002        -4.01808         1.31420
| 29>    C        0.22601        -3.62237        -0.33837
| 30>    C       -1.14513        -3.05306        -0.51706
| 31>    O       -2.17870        -3.54201        -0.12232
| 32>    C        0.34355        -4.90886         0.08439
| 33>    C        1.45689        -5.77719         0.00848
| 34>    C        2.56155        -5.71933        -0.82765
| 35>    C        3.43951        -6.77517        -0.61250
| 36>    C        3.00232        -7.65257         0.39938
| 37>    S        1.50215        -7.19177         1.05438
| 38>    C        3.98199        -8.66155         0.56939
| 39>    C        5.03567        -8.42641        -0.33178
| 40>    C        4.73102        -7.22993        -1.10083
| 41>    C        5.49842        -6.63493        -2.05839
| 42>    C        6.74890        -7.15225        -2.45814
| 43>    N        7.76375        -7.56648        -2.79366
| 44>    C        5.07641        -5.45709        -2.71091
| 45>    N        4.72023        -4.50395        -3.23978
| 46>    C        6.05825        -9.36844        -0.23017
| 47>    C        5.79931       -10.31825         0.74126
| 48>    S        4.25481       -10.03554         1.53915
| 49>    C        6.61193       -11.42555         1.14231
| 50>    C        6.24317       -12.25759         2.19145
| 51>    C        7.00966       -13.33396         2.62042
| 52>    C        8.21903       -13.67186         2.02627
| 53>    C        8.63664       -12.85510         0.93787
| 54>    C        7.84439       -11.73356         0.49292
| 55>    N        8.37354       -11.07754        -0.53055
| 56>   Se        9.88532       -11.81659        -0.99434
| 57>    N        9.75626       -13.03850         0.25308
| 58>    C        9.01739       -14.77471         2.46509
| 59>    C        8.76098       -15.61672         3.53652
| 60>    C        9.74108       -16.59236         3.68290
| 61>    C       10.75480       -16.49640         2.71150
| 62>    S       10.49739       -15.19755         1.62921
| 63>    C       11.68694       -17.53905         2.94248
| 64>    C       11.26808       -18.28368         4.06383
| 65>    C       10.03176       -17.71056         4.56610
| 66>    C        9.29994       -18.12483         5.63998
| 67>    C        9.68981       -19.21685         6.44389
| 68>    N       10.00592       -20.09676         7.10729
| 69>    C        8.10613       -17.47833         6.02288
| 70>    N        7.13698       -16.95042         6.33484
| 71>    C       12.12996       -19.33059         4.37063
| 72>    C       13.18340       -19.42593         3.47470
| 73>    S       13.12549       -18.14440         2.26444
| 74>    C       14.23811       -20.36581         3.55903
| 75>    C       15.14428       -20.75932         2.62704
| 76>    C       16.41175       -21.41099         3.07509
| 77>    O       16.64240       -21.85365         4.17639
| 78>    C       17.30940       -21.33438         1.91034
| 79>    C       16.60990       -20.81262         0.80669
| 80>    C       17.26847       -20.63512        -0.39717
| 81>    C       18.61119       -20.98578        -0.50659
| 82>    C       19.30028       -21.52056         0.59417
| 83>    C       18.63940       -21.68845         1.80664
| 84>    C       20.73750       -21.91218         0.46880
| 85>    C       19.31504       -20.79409        -1.81147
| 86>    C       15.21844       -20.60013         1.18949
| 87>    C       14.15542       -20.55963         0.32553
| 88>    C       12.81457       -20.67927         0.74387
| 89>    N       11.71603       -20.82184         1.04568
| 90>    C       14.28776       -20.50310        -1.07631
| 91>    N       14.34583       -20.43447        -2.22064
| 92>    H        1.89034        -0.31600        -2.39519
| 93>    H        1.43929         1.54971        -3.65234
| 94>    H        0.02795         2.46248        -3.10876
| 95>    H       -0.06609         1.50493        -4.57978
| 96>    H       -2.32980         2.07773        -2.78958
| 97>    H       -3.49449         0.75240        -2.90038
| 98>    H       -2.40147         1.09639        -4.24595
| 99>    H       -2.94321        -1.16923        -1.68670
|100>    H       -0.56975        -5.33900         0.48554
|101>    H        2.68705        -4.96129        -1.57932
|102>    H        6.95673        -9.38327        -0.81863
|103>    H        5.31425       -12.05763         2.70580
|104>    H        6.64126       -13.92199         3.44523
|105>    H        7.90467       -15.52087         4.17741
|106>    H       11.99976       -20.02222         5.18338
|107>    H       14.39031       -20.79005         4.54806
|108>    H       16.75777       -20.21972        -1.25188
|109>    H       19.15169       -22.09770         2.66449
|110>    H       21.34398       -21.05719         0.17197
|111>    H       20.85908       -22.68133        -0.29332
|112>    H       21.11567       -22.29595         1.41225
|113>    H       18.64180       -20.37822        -2.55575
|114>    H       19.69722       -21.74482        -2.18140
|115>    H       20.16459       -20.12209        -1.69386
|116> *
|117>
|118>                          ****END OF INPUT****

CARTESIAN COORDINATES (ANGSTROEM)
---------------------------------
  C      0.841830   -0.502890   -2.224850
  C     -0.103310    0.357790   -2.776250
  C      0.355800    1.534250   -3.575870
  C     -1.475310    0.130140   -2.580240
  C     -2.487020    1.065420   -3.160100
  C     -1.893050   -0.973910   -1.844410
  C     -0.951000   -1.826870   -1.305320
  C      0.424910   -1.592340   -1.480510
  C      1.177530   -2.613350   -0.757980
  C      2.476190   -2.480140   -0.341060
  C      3.301230   -1.387390   -0.682490
  N      4.013800   -0.520840   -0.923190
  C      3.113190   -3.353830    0.560790
  N      3.670020   -4.018080    1.314200
  C      0.226010   -3.622370   -0.338370
  C     -1.145130   -3.053060   -0.517060
  O     -2.178700   -3.542010   -0.122320
  C      0.343550   -4.908860    0.084390
  C      1.456890   -5.777190    0.008480
  C      2.561550   -5.719330   -0.827650
  C      3.439510   -6.775170   -0.612500
  C      3.002320   -7.652570    0.399380
  S      1.502150   -7.191770    1.054380
  C      3.981990   -8.661550    0.569390
  C      5.035670   -8.426410   -0.331780
  C      4.731020   -7.229930   -1.100830
  C      5.498420   -6.634930   -2.058390
  C      6.748900   -7.152250   -2.458140
  N      7.763750   -7.566480   -2.793660
  C      5.076410   -5.457090   -2.710910
  N      4.720230   -4.503950   -3.239780
  C      6.058250   -9.368440   -0.230170
  C      5.799310  -10.318250    0.741260
  S      4.254810  -10.035540    1.539150
  C      6.611930  -11.425550    1.142310
  C      6.243170  -12.257590    2.191450
  C      7.009660  -13.333960    2.620420
  C      8.219030  -13.671860    2.026270
  C      8.636640  -12.855100    0.937870
  C      7.844390  -11.733560    0.492920
  N      8.373540  -11.077540   -0.530550
  Se     9.885320  -11.816590   -0.994340
  N      9.756260  -13.038500    0.253080
  C      9.017390  -14.774710    2.465090
  C      8.760980  -15.616720    3.536520
  C      9.741080  -16.592360    3.682900
  C     10.754800  -16.496400    2.711500
  S     10.497390  -15.197550    1.629210
  C     11.686940  -17.539050    2.942480
  C     11.268080  -18.283680    4.063830
  C     10.031760  -17.710560    4.566100
  C      9.299940  -18.124830    5.639980
  C      9.689810  -19.216850    6.443890
  N     10.005920  -20.096760    7.107290
  C      8.106130  -17.478330    6.022880
  N      7.136980  -16.950420    6.334840
  C     12.129960  -19.330590    4.370630
  C     13.183400  -19.425930    3.474700
  S     13.125490  -18.144400    2.264440
  C     14.238110  -20.365810    3.559030
  C     15.144280  -20.759320    2.627040
  C     16.411750  -21.410990    3.075090
  O     16.642400  -21.853650    4.176390
  C     17.309400  -21.334380    1.910340
  C     16.609900  -20.812620    0.806690
  C     17.268470  -20.635120   -0.397170
  C     18.611190  -20.985780   -0.506590
  C     19.300280  -21.520560    0.594170
  C     18.639400  -21.688450    1.806640
  C     20.737500  -21.912180    0.468800
  C     19.315040  -20.794090   -1.811470
  C     15.218440  -20.600130    1.189490
  C     14.155420  -20.559630    0.325530
  C     12.814570  -20.679270    0.743870
  N     11.716030  -20.821840    1.045680
  C     14.287760  -20.503100   -1.076310
  N     14.345830  -20.434470   -2.220640
  H      1.890340   -0.316000   -2.395190
  H      1.439290    1.549710   -3.652340
  H      0.027950    2.462480   -3.108760
  H     -0.066090    1.504930   -4.579780
  H     -2.329800    2.077730   -2.789580
  H     -3.494490    0.752400   -2.900380
  H     -2.401470    1.096390   -4.245950
  H     -2.943210   -1.169230   -1.686700
  H     -0.569750   -5.339000    0.485540
  H      2.687050   -4.961290   -1.579320
  H      6.956730   -9.383270   -0.818630
  H      5.314250  -12.057630    2.705800
  H      6.641260  -13.921990    3.445230
  H      7.904670  -15.520870    4.177410
  H     11.999760  -20.022220    5.183380
  H     14.390310  -20.790050    4.548060
  H     16.757770  -20.219720   -1.251880
  H     19.151690  -22.097700    2.664490
  H     21.343980  -21.057190    0.171970
  H     20.859080  -22.681330   -0.293320
  H     21.115670  -22.295950    1.412250
  H     18.641800  -20.378220   -2.555750
  H     19.697220  -21.744820   -2.181400
  H     20.164590  -20.122090   -1.693860

 Total Charge           Charge          ....    0
 Multiplicity           Mult            ....    1
 Number of Electrons    NEL             ....  568
 Basis Dimension        Dim             .... 1232

ORBITAL ENERGIES
----------------

  NO   OCC          E(Eh)            E(eV)
   0   2.0000    -453.995266    -12353.8392
   1   2.0000     -88.994787     -2421.6713
   2   2.0000     -88.992709     -2421.6147
   3   2.0000     -88.992050     -2421.5968
   4   2.0000     -88.987715     -2421.4788
   5   2.0000     -58.208900     -1583.9447
   6   2.0000     -52.279623     -1422.6009
   7   2.0000     -52.277273     -1422.5369
   8   2.0000     -52.276734     -1422.5222
   9   2.0000     -19.214245      -522.8462
  10   2.0000     -19.213210      -522.8180
  11   2.0000     -14.451992      -393.2587
  12   2.0000     -14.451139      -393.2355
  13   2.0000     -14.431897      -392.7119
  14   2.0000     -14.431055      -392.6890
  15   2.0000     -14.430534      -392.6748
  16   2.0000     -14.429325      -392.6419
  17   2.0000     -14.416420      -392.2907
  18   2.0000     -14.415495      -392.2656
  19   2.0000     -14.413962      -392.2238
  20   2.0000     -14.412140      -392.1743
  21   2.0000     -10.366092      -282.0757
  22   2.0000     -10.364828      -282.0413
  23   2.0000     -10.364296      -282.0268
  24   2.0000     -10.363973      -282.0180
  25   2.0000     -10.353355      -281.7291
  26   2.0000     -10.352225      -281.6984
  27   2.0000     -10.343090      -281.4498
  28   2.0000     -10.342596      -281.4364
  29   2.0000     -10.341999      -281.4201
  30   2.0000     -10.341523      -281.4071
  31   2.0000     -10.341122      -281.3962
  32   2.0000     -10.341100      -281.3956
  33   2.0000     -10.341035      -281.3939
  34   2.0000     -10.339974      -281.3650
  35   2.0000     -10.335348      -281.2391
  36   2.0000     -10.332189      -281.1532
  37   2.0000     -10.331789      -281.1423
  38   2.0000     -10.330752      -281.1141
  39   2.0000     -10.329548      -281.0813
  40   2.0000     -10.328156      -281.0434
  41   2.0000     -10.327969      -281.0383
  42   2.0000     -10.326645      -281.0023
  43   2.0000     -10.325439      -280.9695
  44   2.0000     -10.324912      -280.9551
  45   2.0000     -10.322454      -280.8883
  46   2.0000     -10.321140      -280.8525
  47   2.0000     -10.318255      -280.7740
  48   2.0000     -10.318001      -280.7671
  49   2.0000     -10.317581      -280.7557
  50   2.0000     -10.316125      -280.7160
  51   2.0000     -10.316016      -280.7131
  52   2.0000     -10.314806      -280.6801
  53   2.0000     -10.310929      -280.5747
  54   2.0000     -10.309876      -280.5460
  55   2.0000     -10.306436      -280.4524
  56   2.0000     -10.306111      -280.4435
  57   2.0000     -10.304703      -280.4052
  58   2.0000     -10.304469      -280.3989
  59   2.0000     -10.304071      -280.3880
  60   2.0000     -10.304062      -280.3878
  61   2.0000     -10.302287      -280.3395
  62   2.0000     -10.302190      -280.3368
  63   2.0000     -10.301022      -280.3050
  64   2.0000     -10.298994      -280.2499
  65   2.0000     -10.297676      -280.2140
  66   2.0000     -10.297141      -280.1995
  67   2.0000     -10.297038      -280.1966
  68   2.0000     -10.296294      -280.1764
  69   2.0000     -10.296278      -280.1760
  70   2.0000     -10.295860      -280.1646
  71   2.0000     -10.289807      -279.9999
  72   2.0000     -10.289482      -279.9910
  73   2.0000     -10.288820      -279.9730
  74   2.0000     -10.287989      -279.9504
  75   2.0000     -10.287691      -279.9423
  76   2.0000     -10.286846      -279.9193
  77   2.0000     -10.277578      -279.6671
  78   2.0000     -10.276521      -279.6384
  79   2.0000     -10.276318      -279.6328
  80   2.0000     -10.274176      -279.5745
  81   2.0000      -8.089472      -220.1257
  82   2.0000      -8.086817      -220.0535
  83   2.0000      -8.086531      -220.0457
  84   2.0000      -8.080620      -219.8848
  85   2.0000      -7.984544      -217.2705
  86   2.0000      -6.058630      -164.8637
  87   2.0000      -6.056052      -164.7936
  88   2.0000      -6.055753      -164.7854
  89   2.0000      -6.054456      -164.7501
  90   2.0000      -6.052008      -164.6835
  91   2.0000      -6.051832      -164.6787
  92   2.0000      -6.051598      -164.6724
  93   2.0000      -6.050026      -164.6296
  94   2.0000      -6.049296      -164.6097
  95   2.0000      -6.048959      -164.6005
  96   2.0000      -6.045390      -164.5034
  97   2.0000      -6.043205      -164.4440
  98   2.0000      -5.934765      -161.4932
  99   2.0000      -5.928082      -161.3113
 100   2.0000      -5.924263      -161.2074
 101   2.0000      -2.288866       -62.2832
 102   2.0000      -2.288208       -62.2653
 103   2.0000      -2.283670       -62.1418
 104   2.0000      -2.278533       -62.0020
 105   2.0000      -2.278332       -61.9966
 106   2.0000      -1.129295       -30.7297
 107   2.0000      -1.128383       -30.7049
 108   2.0000      -1.107078       -30.1251
 109   2.0000      -1.048264       -28.5247
 110   2.0000      -1.045654       -28.4537
 111   2.0000      -1.023359       -27.8470
 112   2.0000      -1.022510       -27.8239
 113   2.0000      -1.018181       -27.7061
 114   2.0000      -1.017864       -27.6975
 115   2.0000      -1.008823       -27.4515
 116   2.0000      -1.008006       -27.4292
 117   2.0000      -1.004232       -27.3265
 118   2.0000      -1.002814       -27.2880
 119   2.0000      -0.995892       -27.0996
 120   2.0000      -0.995604       -27.0918
 121   2.0000      -0.993141       -27.0247
 122   2.0000      -0.991524       -26.9807
 123   2.0000      -0.983741       -26.7690
 124   2.0000      -0.975613       -26.5478
 125   2.0000      -0.960975       -26.1495
 126   2.0000      -0.956728       -26.0339
 127   2.0000      -0.953792       -25.9540
 128   2.0000      -0.952601       -25.9216
 129   2.0000      -0.922195       -25.0942
 130   2.0000      -0.917258       -24.9599
 131   2.0000      -0.904834       -24.6218
 132   2.0000      -0.904113       -24.6022
 133   2.0000      -0.894373       -24.3371
 134   2.0000      -0.887648       -24.1541
 135   2.0000      -0.879932       -23.9442
 136   2.0000      -0.872551       -23.7433
 137   2.0000      -0.871158       -23.7054
 138   2.0000      -0.869303       -23.6549
 139   2.0000      -0.867732       -23.6122
 140   2.0000      -0.861605       -23.4455
 141   2.0000      -0.856688       -23.3117
 142   2.0000      -0.852678       -23.2025
 143   2.0000      -0.836903       -22.7733
 144   2.0000      -0.829776       -22.5794
 145   2.0000      -0.809429       -22.0257
 146   2.0000      -0.808323       -21.9956
 147   2.0000      -0.804637       -21.8953
 148   2.0000      -0.782774       -21.3004
 149   2.0000      -0.778701       -21.1895
 150   2.0000      -0.777991       -21.1702
 151   2.0000      -0.764407       -20.8006
 152   2.0000      -0.755395       -20.5553
 153   2.0000      -0.754229       -20.5236
 154   2.0000      -0.744768       -20.2662
 155   2.0000      -0.740623       -20.1534
 156   2.0000      -0.724649       -19.7187
 157   2.0000      -0.713714       -19.4211
 158   2.0000      -0.707917       -19.2634
 159   2.0000      -0.704736       -19.1769
 160   2.0000      -0.702857       -19.1257
 161   2.0000      -0.695973       -18.9384
 162   2.0000      -0.691930       -18.8284
 163   2.0000      -0.684848       -18.6357
 164   2.0000      -0.682719       -18.5777
 165   2.0000      -0.679425       -18.4881
 166   2.0000      -0.675859       -18.3911
 167   2.0000      -0.669624       -18.2214
 168   2.0000      -0.661374       -17.9969
 169   2.0000      -0.650556       -17.7025
 170   2.0000      -0.645511       -17.5652
 171   2.0000      -0.641323       -17.4513
 172   2.0000      -0.633028       -17.2256
 173   2.0000      -0.625580       -17.0229
 174   2.0000      -0.619499       -16.8574
 175   2.0000      -0.618301       -16.8248
 176   2.0000      -0.613575       -16.6962
 177   2.0000      -0.612595       -16.6696
 178   2.0000      -0.608064       -16.5463
 179   2.0000      -0.601638       -16.3714
 180   2.0000      -0.595332       -16.1998
 181   2.0000      -0.589980       -16.0542
 182   2.0000      -0.586753       -15.9664
 183   2.0000      -0.580961       -15.8088
 184   2.0000      -0.577676       -15.7194
 185   2.0000      -0.569737       -15.5033
 186   2.0000      -0.564703       -15.3664
 187   2.0000      -0.558105       -15.1868
 188   2.0000      -0.554537       -15.0897
 189   2.0000      -0.550146       -14.9702
 190   2.0000      -0.547766       -14.9055
 191   2.0000      -0.545487       -14.8434
 192   2.0000      -0.541906       -14.7460
 193   2.0000      -0.539982       -14.6937
 194   2.0000      -0.539432       -14.6787
 195   2.0000      -0.538760       -14.6604
 196   2.0000      -0.534890       -14.5551
 197   2.0000      -0.530539       -14.4367
 198   2.0000      -0.524585       -14.2747
 199   2.0000      -0.523767       -14.2524
 200   2.0000      -0.523453       -14.2439
 201   2.0000      -0.522227       -14.2105
 202   2.0000      -0.518558       -14.1107
 203   2.0000      -0.516132       -14.0447
 204   2.0000      -0.509099       -13.8533
 205   2.0000      -0.507829       -13.8187
 206   2.0000      -0.507239       -13.8027
 207   2.0000      -0.505786       -13.7631
 208   2.0000      -0.501955       -13.6589
 209   2.0000      -0.500704       -13.6248
 210   2.0000      -0.497828       -13.5466
 211   2.0000      -0.496381       -13.5072
 212   2.0000      -0.495719       -13.4892
 213   2.0000      -0.492055       -13.3895
 214   2.0000      -0.491117       -13.3640
 215   2.0000      -0.489929       -13.3316
 216   2.0000      -0.489176       -13.3112
 217   2.0000      -0.487577       -13.2676
 218   2.0000      -0.485427       -13.2091
 219   2.0000      -0.480678       -13.0799
 220   2.0000      -0.479377       -13.0445
 221   2.0000      -0.478330       -13.0160
 222   2.0000      -0.476654       -12.9704
 223   2.0000      -0.475913       -12.9503
 224   2.0000      -0.473875       -12.8948
 225   2.0000      -0.472192       -12.8490
 226   2.0000      -0.471727       -12.8363
 227   2.0000      -0.465821       -12.6756
 228   2.0000      -0.462462       -12.5842
 229   2.0000      -0.461961       -12.5706
 230   2.0000      -0.459417       -12.5014
 231   2.0000      -0.458375       -12.4730
 232   2.0000      -0.456858       -12.4317
 233   2.0000      -0.453714       -12.3462
 234   2.0000      -0.451254       -12.2792
 235   2.0000      -0.449621       -12.2348
 236   2.0000      -0.449302       -12.2261
 237   2.0000      -0.447229       -12.1697
 238   2.0000      -0.445803       -12.1309
 239   2.0000      -0.444832       -12.1045
 240   2.0000      -0.444371       -12.0920
 241   2.0000      -0.443897       -12.0791
 242   2.0000      -0.442653       -12.0452
 243   2.0000      -0.441371       -12.0103
 244   2.0000      -0.441084       -12.0025
 245   2.0000      -0.440728       -11.9928
 246   2.0000      -0.440387       -11.9835
 247   2.0000      -0.439558       -11.9610
 248   2.0000      -0.439320       -11.9545
 249   2.0000      -0.438207       -11.9242
 250   2.0000      -0.436993       -11.8912
 251   2.0000      -0.436825       -11.8866
 252   2.0000      -0.427545       -11.6341
 253   2.0000      -0.427356       -11.6289
 254   2.0000      -0.426392       -11.6027
 255   2.0000      -0.425857       -11.5882
 256   2.0000      -0.423640       -11.5278
 257   2.0000      -0.420581       -11.4446
 258   2.0000      -0.417341       -11.3564
 259   2.0000      -0.414627       -11.2826
 260   2.0000      -0.407968       -11.1014
 261   2.0000      -0.406638       -11.0652
 262   2.0000      -0.403990       -10.9931
 263   2.0000      -0.398198       -10.8355
 264   2.0000      -0.395540       -10.7632
 265   2.0000      -0.383098       -10.4246
 266   2.0000      -0.377599       -10.2750
 267   2.0000      -0.368264       -10.0210
 268   2.0000      -0.359358        -9.7786
 269   2.0000      -0.350326        -9.5329
 270   2.0000      -0.346289        -9.4230
 271   2.0000      -0.342641        -9.3237
 272   2.0000      -0.341410        -9.2903
 273   2.0000      -0.336675        -9.1614
 274   2.0000      -0.336498        -9.1566
 275   2.0000      -0.333048        -9.0627
 276   2.0000      -0.330329        -8.9887
 277   2.0000      -0.323949        -8.8151
 278   2.0000      -0.320927        -8.7329
 279   2.0000      -0.310902        -8.4601
 280   2.0000      -0.307102        -8.3567
 281   2.0000      -0.302928        -8.2431
 282   2.0000      -0.274456        -7.4683
 283   2.0000      -0.247144        -6.7251
 284   0.0000      -0.117221        -3.1897
 285   0.0000      -0.106499        -2.8980
 286   0.0000      -0.088402        -2.4055
 287   0.0000      -0.082847        -2.2544
 288   0.0000      -0.080506        -2.1907

MULLIKEN ATOMIC CHARGES
-----------------------
   0 C :   -0.075223
   1 C :   -0.079869
   2 C :    0.115954
   3 C :   -0.077088
   4 C :    0.115526
   5 C :   -0.083223
   6 C :    0.012613
   7 C :    0.019913
   8 C :    0.272452
   9 C :   -0.330294
  10 C :   -0.173947
  11 N :    0.158240
  12 C :   -0.200919
  13 N :    0.166540
  14 C :   -0.134935
  15 C :    0.133382
  16 O :   -0.144309
  17 C :    0.075154
  18 C :   -0.112000
  19 C :   -0.001827
  20 C :   -0.003940
  21 C :   -0.072488
  22 S :    0.211933
  23 C :   -0.091170
  24 C :    0.034358
  25 C :    0.306165
  26 C :   -0.296459
  27 C :   -0.184487
  28 N :    0.177389
  29 C :   -0.188557
  30 N :    0.171486
  31 C :   -0.051410
  32 C :   -0.111742
  33 S :    0.165193
  34 C :    0.152546
  35 C :   -0.058722
  36 C :   -0.057445
  37 C :    0.151756
  38 C :   -0.007259
  39 C :    0.012089
  40 N :   -0.277498
  41 Se:    0.570733
  42 N :   -0.330946
  43 C :   -0.092780
  44 C :   -0.054677
  45 C :    0.023889
  46 C :   -0.086175
  47 S :    0.227263
  48 C :   -0.083345
  49 C :    0.019334
  50 C :    0.308040
  51 C :   -0.298509
  52 C :   -0.190992
  53 N :    0.175155
  54 C :   -0.184090
  55 N :    0.166246
  56 C :    0.000990
  57 C :   -0.089936
  58 S :    0.206066
  59 C :    0.039416
  60 C :   -0.138510
  61 C :    0.138302
  62 O :   -0.140848
  63 C :    0.006116
  64 C :    0.028549
  65 C :   -0.076359
  66 C :   -0.080965
  67 C :   -0.079424
  68 C :   -0.080144
  69 C :    0.116409
  70 C :    0.115922
  71 C :    0.252744
  72 C :   -0.327277
  73 C :   -0.209024
  74 N :    0.172748
  75 C :   -0.173354
  76 N :    0.149142
  77 H :   -0.004865
  78 H :    0.026365
  79 H :    0.028845
  80 H :    0.025697
  81 H :    0.027835
  82 H :    0.016703
  83 H :    0.029487
  84 H :   -0.017065
  85 H :    0.021022
  86 H :    0.023304
  87 H :    0.019265
  88 H :   -0.004310
  89 H :   -0.009907
  90 H :    0.003595
  91 H :    0.018421
  92 H :    0.031939
  93 H :   -0.011556
  94 H :   -0.016246
  95 H :    0.026921
  96 H :    0.030213
  97 H :    0.017123
  98 H :    0.023566
  99 H :    0.028260
 100 H :    0.027799
Sum of atomic charges:   -0.0000000

LOEWDIN ATOMIC CHARGES
----------------------
   0 C :   -0.005135
   1 C :   -0.001488
   2 C :   -0.041654
   3 C :   -0.007155
   4 C :   -0.042584
   5 C :    0.007765
   6 C :   -0.050762
   7 C :   -0.014709
   8 C :    0.068074
   9 C :   -0.137435
  10 C :   -0.018424
  11 N :   -0.048391
  12 C :   -0.015598
  13 N :   -0.048667
  14 C :   -0.088205
  15 C :    0.083875
  16 O :   -0.144033
  17 C :    0.037247
  18 C :   -0.180454
  19 C :    0.006307
  20 C :   -0.064993
  21 C :   -0.161375
  22 S :    0.498415
  23 C :   -0.179950
  24 C :   -0.061849
  25 C :    0.083192
  26 C :   -0.097791
  27 C :   -0.016267
  28 N :   -0.030755
  29 C :   -0.013526
  30 N :   -0.033315
  31 C :   -0.018098
  32 C :   -0.151983
  33 S :    0.478524
  34 C :   -0.041316
  35 C :   -0.019665
  36 C :   -0.001974
  37 C :   -0.043669
  38 C :   -0.037984
  39 C :   -0.029294
  40 N :   -0.235781
  41 Se:    0.601021
  42 N :   -0.270382
  43 C :   -0.154272
  44 C :   -0.025888
  45 C :   -0.060044
  46 C :   -0.195460
  47 S :    0.523689
  48 C :   -0.149170
  49 C :   -0.075129
  50 C :    0.082908
  51 C :   -0.103334
  52 C :   -0.017763
  53 N :   -0.030489
  54 C :   -0.014202
  55 N :   -0.037928
  56 C :    0.011803
  57 C :   -0.180337
  58 S :    0.508596
  59 C :    0.047313
  60 C :   -0.100467
  61 C :    0.083743
  62 O :   -0.141868
  63 C :   -0.049360
  64 C :   -0.015716
  65 C :   -0.008156
  66 C :   -0.002794
  67 C :   -0.007299
  68 C :    0.008088
  69 C :   -0.042653
  70 C :   -0.041983
  71 C :    0.064338
  72 C :   -0.146652
  73 C :   -0.037478
  74 N :   -0.049800
  75 C :   -0.019439
  76 N :   -0.053727
  77 H :    0.037537
  78 H :    0.036563
  79 H :    0.039218
  80 H :    0.037486
  81 H :    0.038449
  82 H :    0.032928
  83 H :    0.038760
  84 H :    0.036139
  85 H :    0.045203
  86 H :    0.042477
  87 H :    0.038939
  88 H :    0.026057
  89 H :    0.037848
  90 H :    0.037481
  91 H :    0.046762
  92 H :    0.054617
  93 H :    0.035455
  94 H :    0.036537
  95 H :    0.037993
  96 H :    0.039131
  97 H :    0.033245
  98 H :    0.035502
  99 H :    0.038990
 100 H :    0.037854

  Mayer bond orders larger than 0.100000
B(  0-C ,  1-C ) :   1.3742 B(  0-C ,  7-C ) :   1.3543 B(  0-C , 77-H ) :   0.9874
B(  1-C ,  2-C ) :   1.0939 B(  1-C ,  3-C ) :   1.3738 B(  2-C , 78-H ) :   0.9510
B(  2-C , 79-H ) :   0.9395 B(  2-C , 80-H ) :   0.9402 B(  3-C ,  4-C ) :   1.0932
B(  3-C ,  5-C ) :   1.3560 B(  4-C , 81-H ) :   0.9404 B(  4-C , 82-H ) :   0.9522
B(  4-C , 83-H ) :   0.9404 B(  5-C ,  6-C ) :   1.3588 B(  5-C , 84-H ) :   1.0110
B(  6-C ,  7-C ) :   1.3334 B(  6-C , 15-C ) :   0.9253 B(  7-C ,  8-C ) :   0.9991
B(  8-C ,  9-C ) :   1.6493 B(  8-C , 14-C ) :   1.0291 B(  9-C , 10-C ) :   1.1275
B(  9-C , 12-C ) :   1.1706 B( 10-C , 11-N ) :   2.9936 B( 12-C , 13-N ) :   2.9983
B( 14-C , 15-C ) :   0.9360 B( 14-C , 17-C ) :   1.6927 B( 15-C , 16-O ) :   2.2628
B( 17-C , 18-C ) :   1.1183 B( 17-C , 85-H ) :   0.9260 B( 18-C , 19-C ) :   1.4080
B( 18-C , 22-S ) :   1.0916 B( 19-C , 20-C ) :   1.3505 B( 19-C , 86-H ) :   0.9818
B( 20-C , 21-C ) :   1.4164 B( 20-C , 25-C ) :   0.9946 B( 21-C , 22-S ) :   1.1507
B( 21-C , 23-C ) :   1.1895 B( 23-C , 24-C ) :   1.4361 B( 23-C , 33-S ) :   1.1240
B( 24-C , 25-C ) :   0.9952 B( 24-C , 31-C ) :   1.2479 B( 25-C , 26-C ) :   1.7176
B( 26-C , 27-C ) :   1.1370 B( 26-C , 29-C ) :   1.1356 B( 27-C , 28-N ) :   2.9894
B( 29-C , 30-N ) :   2.9851 B( 31-C , 32-C ) :   1.4758 B( 31-C , 87-H ) :   0.9817
B( 32-C , 33-S ) :   1.0947 B( 32-C , 34-C ) :   1.1306 B( 34-C , 35-C ) :   1.4319
B( 34-C , 37-C ) :   0.1086 B( 34-C , 39-C ) :   1.1665 B( 35-C , 36-C ) :   1.2491
B( 35-C , 88-H ) :   0.9837 B( 36-C , 37-C ) :   1.4470 B( 36-C , 89-H ) :   0.9944
B( 37-C , 38-C ) :   1.1499 B( 37-C , 43-C ) :   1.1083 B( 38-C , 39-C ) :   1.1228
B( 38-C , 42-N ) :   1.5569 B( 39-C , 40-N ) :   1.5938 B( 40-N , 41-Se) :   1.2401
B( 40-N , 42-N ) :   0.1246 B( 41-Se, 42-N ) :   1.2242 B( 43-C , 44-C ) :   1.4390
B( 43-C , 47-S ) :   1.1280 B( 44-C , 45-C ) :   1.3154 B( 44-C , 90-H ) :   0.9857
B( 45-C , 46-C ) :   1.4156 B( 45-C , 50-C ) :   0.9992 B( 46-C , 47-S ) :   1.0862
B( 46-C , 48-C ) :   1.2073 B( 48-C , 49-C ) :   1.3999 B( 48-C , 58-S ) :   1.1582
B( 49-C , 50-C ) :   0.9942 B( 49-C , 56-C ) :   1.3004 B( 50-C , 51-C ) :   1.7101
B( 51-C , 52-C ) :   1.1317 B( 51-C , 54-C ) :   1.1369 B( 52-C , 53-N ) :   2.9942
B( 54-C , 55-N ) :   2.9839 B( 56-C , 57-C ) :   1.4023 B( 56-C , 91-H ) :   1.0016
B( 57-C , 58-S ) :   1.0836 B( 57-C , 59-C ) :   1.1388 B( 59-C , 60-C ) :   1.6516
B( 59-C , 92-H ) :   0.9431 B( 60-C , 61-C ) :   0.9344 B( 60-C , 71-C ) :   1.0292
B( 61-C , 62-O ) :   2.2684 B( 61-C , 63-C ) :   0.9237 B( 63-C , 64-C ) :   1.3354
B( 63-C , 68-C ) :   1.3660 B( 64-C , 65-C ) :   1.3535 B( 64-C , 71-C ) :   1.0047
B( 65-C , 66-C ) :   1.3750 B( 65-C , 93-H ) :   0.9865 B( 66-C , 67-C ) :   1.3751
B( 66-C , 70-C ) :   1.0941 B( 67-C , 68-C ) :   1.3554 B( 67-C , 69-C ) :   1.0940
B( 68-C , 94-H ) :   1.0092 B( 69-C , 95-H ) :   0.9398 B( 69-C , 96-H ) :   0.9404
B( 69-C , 97-H ) :   0.9518 B( 70-C , 98-H ) :   0.9509 B( 70-C , 99-H ) :   0.9389
B( 70-C ,100-H ) :   0.9406 B( 71-C , 72-C ) :   1.6490 B( 72-C , 73-C ) :   1.1527
B( 72-C , 75-C ) :   1.1344 B( 73-C , 74-N ) :   3.0239 B( 75-C , 76-N ) :   2.9903

-----------------------------------------------------------------------------
         ABSORPTION SPECTRUM VIA TRANSITION ELECTRIC DIPOLE MOMENTS
-----------------------------------------------------------------------------
State   Energy  Wavelength   fosc         T2         TX        TY        TZ
        (cm-1)    (nm)                  (au**2)     (au)      (au)      (au)
-----------------------------------------------------------------------------
   0   12324.2    811.4   0.820686306  21.92278   2.85614  -3.65022   0.66418
   1   13612.0    734.6   0.001238309   0.02995   0.01281   0.11023  -0.13279
   2   17481.2    572.0   0.872367570  16.42870  -2.35179   3.23014  -0.68118
   3   20837.8    479.9   0.080143310   1.26617   0.52881   0.30065  -0.94664
   4   21096.4    474.0   0.021410169   0.33411  -0.13823  -0.45576   0.32755
   5   21295.4    469.6   0.391100178   6.04613  -1.38794   1.86628   0.79796
   6   23196.8    431.1   0.022422826   0.31823   0.15151   0.20781   0.50208
   7   26485.9    377.6   0.010684477   0.13280   0.02730   0.06428  -0.35767
   8   26787.3    373.3   0.047720912   0.58648   0.05978  -0.76031  -0.06950
   9   27031.7    369.9   0.006767026   0.08241  -0.05131   0.27511  -0.06401
  10   27951.5    357.8   0.415468620   4.89338   1.75531  -1.28093   0.41410
  11   28380.1    352.4   0.003168212   0.03675   0.15657   0.10048  -0.04626
  12   28799.8    347.2   0.292898132   3.34813   1.68434  -0.71480  -0.01339
  13   29380.3    340.4   0.065502422   0.73397  -0.07761   0.69288  -0.49785
  14   29730.4    336.4   0.060370887   0.66850  -0.11634   0.80679   0.06364
  15   29979.4    333.6   0.166692737   1.83050  -0.33139  -0.57972   1.17669
  16   30235.7    330.7   0.375323749   4.08659   0.88017   0.57145  -1.72781
  17   30365.1    329.3   0.020940561   0.22703   0.46665   0.06120  -0.07432
  18   30601.6    326.8   0.146786204   1.57912  -0.39356  -0.41583   1.11862
  19   30778.7    324.9   0.130528619   1.39615  -0.14261  -0.94121   0.69995
  20   31395.0    318.5   0.717824922   7.52721  -2.05170   1.75447  -0.48944
  21   31793.6    314.5   0.067688523   0.70089  -0.45000   0.59267   0.38358
  22   32413.9    308.5   0.012756843   0.12956   0.21569  -0.28462  -0.04513
  23   32691.8    305.9   0.267338133   2.69214   0.47694   0.83997  -1.32632
  24   32824.7    304.6   0.221666314   2.22318   1.08909  -0.85114   0.55913
  25   32850.4    304.4   0.023185340   0.23235  -0.40514   0.07123   0.25128
  26   32905.5    303.9   0.262605237   2.62730   0.69726   0.75402  -1.25403
  27   33170.7    301.5   0.100617761   0.99861  -0.55952  -0.78706   0.25707
  28   33455.6    298.9   0.035263207   0.34700   0.53016  -0.25609   0.01866
  29   33705.0    296.7   0.297903140   2.90975  -1.62062   0.30686   0.43495
  30   33792.1    295.9   0.026607602   0.25922  -0.29224   0.25259  -0.33167
  31   33889.3    295.1   0.030251883   0.29388   0.52561   0.00780  -0.13249
  32   33973.0    294.4   0.113581678   1.10065   1.03217   0.17282  -0.07357
  33   34608.8    288.9   0.055991616   0.53261   0.70075  -0.15107  -0.13688
  34   35188.3    284.2   0.040070509   0.37489   0.53496  -0.29466   0.04339
  35   35325.6    283.1   0.208305803   1.94128   0.97840   0.15998  -0.97899
  36   35369.1    282.7   0.098747323   0.91913  -0.14622   0.52737  -0.78716
  37   35758.1    279.7   0.070524138   0.64929  -0.78434   0.03957   0.18039
  38   35867.3    278.8   0.001686190   0.01548   0.03049   0.05139   0.10912
  39   36322.1    275.3   0.187395186   1.69849  -1.22328   0.29021  -0.34332
  40   36502.0    274.0   0.007631145   0.06883  -0.22659  -0.12103   0.05324
  41   36626.9    273.0   0.000666468   0.00599   0.01621  -0.07321   0.01918
  42   36706.7    272.4   0.270579227   2.42675   1.37032  -0.52561   0.52221
  43   36965.7    270.5   0.460398843   4.10025  -1.72787   0.82642  -0.65708
  44   37094.1    269.6   0.119030179   1.05640   0.90884  -0.00696   0.47995
  45   37252.3    268.4   0.061859869   0.54668  -0.59960   0.38762   0.19211
  46   37650.2    265.6   0.002956033   0.02585  -0.14719  -0.04250  -0.04875
  47   37702.6    265.2   0.018669341   0.16302  -0.09066   0.31371  -0.23746
  48   37726.6    265.1   0.000644311   0.00562   0.05118  -0.04987   0.02272
  49   38056.7    262.8   0.026927169   0.23294   0.37402  -0.15676   0.26167
  50   38330.2    260.9   0.129397660   1.11138  -1.01209   0.02710   0.29381
  51   38444.9    260.1   0.047062902   0.40301   0.37266   0.50000  -0.11888
  52   38562.9    259.3   0.012735806   0.10873   0.26179   0.10246   0.17232
  53   38959.2    256.7   0.002377689   0.02009  -0.12364  -0.06413   0.02631
  54   39117.8    255.6   0.028278073   0.23799   0.43511  -0.22020  -0.01331
  55   39243.5    254.8   0.035669339   0.29923   0.33843  -0.05134  -0.42669
  56   39483.4    253.3   0.055349672   0.46150   0.21932  -0.27057   0.58326
  57   39707.8    251.8   0.008557510   0.07095  -0.01750  -0.23333   0.12729
  58   39970.3    250.2   0.040412504   0.33285  -0.26926  -0.02367   0.50970
  59   40170.3    248.9   0.010324201   0.08461  -0.05098  -0.25585  -0.12865
  60   40254.0    248.4   0.113488348   0.92815  -0.28161   0.42099  -0.81952

FINAL SINGLE POINT ENERGY     -6988.441914437589

DIPOLE MOMENT
-------------
                                X             Y             Z
Electronic contribution:      7.76924     -18.55533       7.10553
Nuclear contribution   :     -7.24397      19.73410      -8.69654
                        -----------------------------------------
Total Dipole Moment    :      0.52527       1.17877      -1.59101
                        -----------------------------------------
Magnitude (a.u.)       :      2.04859
Magnitude (Debye)      :      5.20710

Rotational constants in cm-1:     0.002119     0.000177     0.000166
Rotational constants in MHz :    63.533108     5.296626     4.990042

                             ****ORCA TERMINATED NORMALLY****
TOTAL RUN TIME: 0 days 0 hours 12 minutes 21 seconds 953 msec
