                         Program Version 4.2.0 -  RELEASE  -
|  1> # ORCA input file
|  2> # SCF done       -198.193919519788          0.000838495532
|  3> ! CAM-B3LYP def2-SVP def2/J RIJCOSX Grid4 TightSCF
|  4> %maxcore 5000
|  5> %tddft
|  6>     Mode sTDDFT
|  7>     Ethresh 5.0
|  8>     maxcore 5000
|  9> end
| 10>
| 11> %pal
| 12>   nprocs 6
| 13>   end
| 14> * xyz 0 1
| 15>    C       -2.74158        -0.76067        -2.29313
| 16>    C       -3.19509        -0.49265        -3.58132
| 17>    C       -4.33090         0.46027        -3.77327
| 18>    C       -2.59453        -1.10810        -4.69185
| 19>    C       -3.07717        -0.80910        -6.07433
| 20>    C       -1.54584        -2.00158        -4.50007
| 21>    C       -1.10524        -2.26542        -3.21897
| 22>    C       -1.69218        -1.64444        -2.10394
| 23>    C       -1.01248        -2.10098        -0.89972
| 24>    C       -1.19460        -1.59310         0.35971
| 25>    C       -2.13553        -0.58993         0.67507
| 26>    N       -2.88424         0.21813         0.99796
| 27>    C       -0.45315        -1.95499         1.50443
| 28>    N        0.11616        -2.18261         2.47585
| 29>    C       -0.04890        -3.11719        -1.29648
| 30>    C       -0.03440        -3.17650        -2.78329
| 31>    O        0.66657        -3.85817        -3.49978
| 32>    C        0.57135        -3.95752        -0.41862
| 33>    C        1.55790        -4.94549        -0.62853
| 34>    C        2.40413        -5.22065        -1.69411
| 35>    C        3.26070        -6.28113        -1.42142
| 36>    C        3.06468        -6.83328        -0.13670
| 37>    S        1.85400        -6.02770         0.73934
| 38>    C        3.96082        -7.91532         0.03091
| 39>    C        4.73475        -8.04619        -1.13558
| 40>    C        4.32687        -7.01839        -2.08326
| 41>    C        4.85353        -6.79350        -3.31997
| 42>    C        5.89027        -7.59417        -3.84767
| 43>    N        6.73122        -8.23785        -4.28688
| 44>    C        4.42688        -5.74255        -4.16168
| 45>    N        4.11673        -4.89041        -4.86231
| 46>    C        5.65493        -9.09076        -1.05958
| 47>    C        5.58199        -9.76121         0.14770
| 48>    S        4.35713        -9.08053         1.21028
| 49>    C        6.35594       -10.88365         0.57901
| 50>    C        6.11028       -11.52685         1.78287
| 51>    C        6.85460       -12.62108         2.20239
| 52>    F        6.50319       -13.16004         3.38926
| 53>    C        7.91372       -13.18430         1.49587
| 54>    C        8.19178       -12.53926         0.25687
| 55>    C        7.42303       -11.40985        -0.19974
| 56>    N        7.85065       -10.96909        -1.38097
| 57>    S        9.08280       -11.87061        -1.87221
| 58>    N        9.14140       -12.86755        -0.61703
| 59>    C        8.66490       -14.31276         1.95361
| 60>    C        9.76455       -14.88345         1.33199
| 61>    C       10.25414       -15.97808         2.03796
| 62>    C        9.51792       -16.24596         3.20690
| 63>    S        8.23861       -15.14842         3.43968
| 64>    C       10.08326       -17.37703         3.84318
| 65>    C       11.17704       -17.82888         3.07912
| 66>    C       11.32219       -16.96007         1.92182
| 67>    C       12.25659       -17.04685         0.93265
| 68>    C       13.24322       -18.05590         0.91849
| 69>    N       14.04315       -18.87696         0.89674
| 70>    C       12.29473       -16.13962        -0.14789
| 71>    N       12.33102       -15.40823        -1.03002
| 72>    C       11.77801       -18.96129         3.62105
| 73>    C       11.17868       -19.36080         4.80527
| 74>    S        9.81219       -18.32901         5.22520
| 75>    C       11.50176       -20.52045         5.55090
| 76>    C       11.13950       -20.85610         6.81601
| 77>    C       11.12899       -22.29319         7.22503
| 78>    O       11.67065       -23.20989         6.65312
| 79>    C       10.26285       -22.33634         8.41657
| 80>    C        9.91789       -21.02720         8.79974
| 81>    C        9.08306       -20.82778         9.88461
| 82>    C        8.59535       -21.92507        10.58852
| 83>    C        8.95062       -23.22980        10.20871
| 84>    C        9.78838       -23.42788         9.11568
| 85>    C        8.43109       -24.40556        10.97175
| 86>    C        7.68820       -21.70277        11.75569
| 87>    C       10.59040       -20.08565         7.91342
| 88>    C       10.89056       -18.78291         8.21248
| 89>    C       11.77903       -18.00358         7.44345
| 90>    N       12.52167       -17.35751         6.85266
| 91>    C       10.41893       -18.11600         9.36071
| 92>    N       10.04639       -17.52846        10.27365
| 93>    H       -3.22144        -0.27926        -1.45617
| 94>    H       -4.68271         0.83891        -2.81767
| 95>    H       -5.16063        -0.03025        -4.28113
| 96>    H       -4.02158         1.30401        -4.38913
| 97>    H       -4.13067        -1.06743        -6.17692
| 98>    H       -2.50817        -1.36977        -6.81062
| 99>    H       -2.97753         0.25373        -6.29237
|100>    H       -1.07109        -2.48918        -5.33834
|101>    H        0.25236        -3.89220         0.61575
|102>    H        2.37271        -4.66793        -2.61538
|103>    H        6.35294        -9.37384        -1.82570
|104>    H        5.31581       -11.18727         2.43013
|105>    H       10.16234       -14.49820         0.41162
|106>    H       12.62572       -19.47325         3.20255
|107>    H       12.03579       -21.28954         5.00051
|108>    H        8.79337       -19.83264        10.18432
|109>    H       10.07215       -24.42366         8.80958
|110>    H        7.34165       -24.41767        10.96126
|111>    H        8.74866       -24.35721        12.01282
|112>    H        8.79309       -25.33497        10.54109
|113>    H        7.51968       -20.64168        11.91663
|114>    H        8.12042       -22.12709        12.66110
|115>    H        6.72674       -22.18849        11.59184
|116> *
|117>
|118>                          ****END OF INPUT****

CARTESIAN COORDINATES (ANGSTROEM)
---------------------------------
  C     -2.741580   -0.760670   -2.293130
  C     -3.195090   -0.492650   -3.581320
  C     -4.330900    0.460270   -3.773270
  C     -2.594530   -1.108100   -4.691850
  C     -3.077170   -0.809100   -6.074330
  C     -1.545840   -2.001580   -4.500070
  C     -1.105240   -2.265420   -3.218970
  C     -1.692180   -1.644440   -2.103940
  C     -1.012480   -2.100980   -0.899720
  C     -1.194600   -1.593100    0.359710
  C     -2.135530   -0.589930    0.675070
  N     -2.884240    0.218130    0.997960
  C     -0.453150   -1.954990    1.504430
  N      0.116160   -2.182610    2.475850
  C     -0.048900   -3.117190   -1.296480
  C     -0.034400   -3.176500   -2.783290
  O      0.666570   -3.858170   -3.499780
  C      0.571350   -3.957520   -0.418620
  C      1.557900   -4.945490   -0.628530
  C      2.404130   -5.220650   -1.694110
  C      3.260700   -6.281130   -1.421420
  C      3.064680   -6.833280   -0.136700
  S      1.854000   -6.027700    0.739340
  C      3.960820   -7.915320    0.030910
  C      4.734750   -8.046190   -1.135580
  C      4.326870   -7.018390   -2.083260
  C      4.853530   -6.793500   -3.319970
  C      5.890270   -7.594170   -3.847670
  N      6.731220   -8.237850   -4.286880
  C      4.426880   -5.742550   -4.161680
  N      4.116730   -4.890410   -4.862310
  C      5.654930   -9.090760   -1.059580
  C      5.581990   -9.761210    0.147700
  S      4.357130   -9.080530    1.210280
  C      6.355940  -10.883650    0.579010
  C      6.110280  -11.526850    1.782870
  C      6.854600  -12.621080    2.202390
  F      6.503190  -13.160040    3.389260
  C      7.913720  -13.184300    1.495870
  C      8.191780  -12.539260    0.256870
  C      7.423030  -11.409850   -0.199740
  N      7.850650  -10.969090   -1.380970
  S      9.082800  -11.870610   -1.872210
  N      9.141400  -12.867550   -0.617030
  C      8.664900  -14.312760    1.953610
  C      9.764550  -14.883450    1.331990
  C     10.254140  -15.978080    2.037960
  C      9.517920  -16.245960    3.206900
  S      8.238610  -15.148420    3.439680
  C     10.083260  -17.377030    3.843180
  C     11.177040  -17.828880    3.079120
  C     11.322190  -16.960070    1.921820
  C     12.256590  -17.046850    0.932650
  C     13.243220  -18.055900    0.918490
  N     14.043150  -18.876960    0.896740
  C     12.294730  -16.139620   -0.147890
  N     12.331020  -15.408230   -1.030020
  C     11.778010  -18.961290    3.621050
  C     11.178680  -19.360800    4.805270
  S      9.812190  -18.329010    5.225200
  C     11.501760  -20.520450    5.550900
  C     11.139500  -20.856100    6.816010
  C     11.128990  -22.293190    7.225030
  O     11.670650  -23.209890    6.653120
  C     10.262850  -22.336340    8.416570
  C      9.917890  -21.027200    8.799740
  C      9.083060  -20.827780    9.884610
  C      8.595350  -21.925070   10.588520
  C      8.950620  -23.229800   10.208710
  C      9.788380  -23.427880    9.115680
  C      8.431090  -24.405560   10.971750
  C      7.688200  -21.702770   11.755690
  C     10.590400  -20.085650    7.913420
  C     10.890560  -18.782910    8.212480
  C     11.779030  -18.003580    7.443450
  N     12.521670  -17.357510    6.852660
  C     10.418930  -18.116000    9.360710
  N     10.046390  -17.528460   10.273650
  H     -3.221440   -0.279260   -1.456170
  H     -4.682710    0.838910   -2.817670
  H     -5.160630   -0.030250   -4.281130
  H     -4.021580    1.304010   -4.389130
  H     -4.130670   -1.067430   -6.176920
  H     -2.508170   -1.369770   -6.810620
  H     -2.977530    0.253730   -6.292370
  H     -1.071090   -2.489180   -5.338340
  H      0.252360   -3.892200    0.615750
  H      2.372710   -4.667930   -2.615380
  H      6.352940   -9.373840   -1.825700
  H      5.315810  -11.187270    2.430130
  H     10.162340  -14.498200    0.411620
  H     12.625720  -19.473250    3.202550
  H     12.035790  -21.289540    5.000510
  H      8.793370  -19.832640   10.184320
  H     10.072150  -24.423660    8.809580
  H      7.341650  -24.417670   10.961260
  H      8.748660  -24.357210   12.012820
  H      8.793090  -25.334970   10.541090
  H      7.519680  -20.641680   11.916630
  H      8.120420  -22.127090   12.661100
  H      6.726740  -22.188490   11.591840

 Total Charge           Charge          ....    0
 Multiplicity           Mult            ....    1
 Number of Electrons    NEL             ....  558
 Basis Dimension        Dim             .... 1227

ORBITAL ENERGIES
----------------

  NO   OCC          E(Eh)            E(eV)
   0   2.0000     -89.042413     -2422.9672
   1   2.0000     -88.999336     -2421.7950
   2   2.0000     -88.998296     -2421.7668
   3   2.0000     -88.994016     -2421.6503
   4   2.0000     -88.991987     -2421.5951
   5   2.0000     -24.816635      -675.2950
   6   2.0000     -19.220431      -523.0145
   7   2.0000     -19.214520      -522.8537
   8   2.0000     -14.457654      -393.4128
   9   2.0000     -14.455019      -393.3411
  10   2.0000     -14.433783      -392.7632
  11   2.0000     -14.431377      -392.6977
  12   2.0000     -14.430145      -392.6642
  13   2.0000     -14.429521      -392.6472
  14   2.0000     -14.418342      -392.3430
  15   2.0000     -14.416568      -392.2948
  16   2.0000     -14.415226      -392.2582
  17   2.0000     -14.415028      -392.2529
  18   2.0000     -10.392671      -282.7990
  19   2.0000     -10.371286      -282.2170
  20   2.0000     -10.370728      -282.2019
  21   2.0000     -10.366195      -282.0785
  22   2.0000     -10.365257      -282.0530
  23   2.0000     -10.356980      -281.8278
  24   2.0000     -10.353036      -281.7204
  25   2.0000     -10.348592      -281.5995
  26   2.0000     -10.347433      -281.5680
  27   2.0000     -10.346231      -281.5353
  28   2.0000     -10.344373      -281.4847
  29   2.0000     -10.343711      -281.4667
  30   2.0000     -10.342868      -281.4437
  31   2.0000     -10.342274      -281.4276
  32   2.0000     -10.342243      -281.4267
  33   2.0000     -10.342027      -281.4209
  34   2.0000     -10.336292      -281.2648
  35   2.0000     -10.333536      -281.1898
  36   2.0000     -10.332791      -281.1695
  37   2.0000     -10.331889      -281.1450
  38   2.0000     -10.331432      -281.1326
  39   2.0000     -10.331220      -281.1268
  40   2.0000     -10.330420      -281.1050
  41   2.0000     -10.330179      -281.0985
  42   2.0000     -10.329632      -281.0836
  43   2.0000     -10.328464      -281.0518
  44   2.0000     -10.326864      -281.0082
  45   2.0000     -10.326651      -281.0025
  46   2.0000     -10.322676      -280.8943
  47   2.0000     -10.321358      -280.8584
  48   2.0000     -10.319179      -280.7991
  49   2.0000     -10.318288      -280.7749
  50   2.0000     -10.316851      -280.7358
  51   2.0000     -10.315624      -280.7024
  52   2.0000     -10.313635      -280.6483
  53   2.0000     -10.311800      -280.5983
  54   2.0000     -10.311743      -280.5968
  55   2.0000     -10.308806      -280.5169
  56   2.0000     -10.306521      -280.4547
  57   2.0000     -10.306038      -280.4416
  58   2.0000     -10.305031      -280.4142
  59   2.0000     -10.303484      -280.3720
  60   2.0000     -10.303205      -280.3645
  61   2.0000     -10.302207      -280.3373
  62   2.0000     -10.298782      -280.2441
  63   2.0000     -10.298282      -280.2305
  64   2.0000     -10.298145      -280.2268
  65   2.0000     -10.298067      -280.2246
  66   2.0000     -10.297873      -280.2194
  67   2.0000     -10.297758      -280.2162
  68   2.0000     -10.291107      -280.0353
  69   2.0000     -10.290766      -280.0260
  70   2.0000     -10.290140      -280.0090
  71   2.0000     -10.290007      -280.0053
  72   2.0000     -10.289114      -279.9810
  73   2.0000     -10.288425      -279.9623
  74   2.0000     -10.278536      -279.6932
  75   2.0000     -10.277977      -279.6780
  76   2.0000     -10.277440      -279.6634
  77   2.0000     -10.276341      -279.6335
  78   2.0000      -8.133857      -221.3335
  79   2.0000      -8.093964      -220.2479
  80   2.0000      -8.093184      -220.2267
  81   2.0000      -8.088212      -220.0914
  82   2.0000      -8.085994      -220.0311
  83   2.0000      -6.105123      -166.1288
  84   2.0000      -6.097171      -165.9125
  85   2.0000      -6.096328      -165.8895
  86   2.0000      -6.063182      -164.9876
  87   2.0000      -6.062267      -164.9627
  88   2.0000      -6.059049      -164.8751
  89   2.0000      -6.058152      -164.8507
  90   2.0000      -6.057462      -164.8319
  91   2.0000      -6.056337      -164.8013
  92   2.0000      -6.055728      -164.7847
  93   2.0000      -6.055326      -164.7738
  94   2.0000      -6.053224      -164.7166
  95   2.0000      -6.050849      -164.6520
  96   2.0000      -6.050647      -164.6465
  97   2.0000      -6.048479      -164.5875
  98   2.0000      -1.330566       -36.2065
  99   2.0000      -1.144446       -31.1420
 100   2.0000      -1.135500       -30.8985
 101   2.0000      -1.129833       -30.7443
 102   2.0000      -1.053413       -28.6648
 103   2.0000      -1.047966       -28.5166
 104   2.0000      -1.025381       -27.9020
 105   2.0000      -1.022534       -27.8246
 106   2.0000      -1.020026       -27.7563
 107   2.0000      -1.019494       -27.7418
 108   2.0000      -1.012514       -27.5519
 109   2.0000      -1.008912       -27.4539
 110   2.0000      -1.007992       -27.4288
 111   2.0000      -1.006127       -27.3781
 112   2.0000      -0.998259       -27.1640
 113   2.0000      -0.997059       -27.1313
 114   2.0000      -0.995801       -27.0971
 115   2.0000      -0.994760       -27.0688
 116   2.0000      -0.993295       -27.0289
 117   2.0000      -0.986640       -26.8478
 118   2.0000      -0.965858       -26.2823
 119   2.0000      -0.961133       -26.1538
 120   2.0000      -0.956508       -26.0279
 121   2.0000      -0.954816       -25.9819
 122   2.0000      -0.927206       -25.2306
 123   2.0000      -0.920453       -25.0468
 124   2.0000      -0.906506       -24.6673
 125   2.0000      -0.905995       -24.6534
 126   2.0000      -0.901191       -24.5226
 127   2.0000      -0.890722       -24.2378
 128   2.0000      -0.884211       -24.0606
 129   2.0000      -0.883016       -24.0281
 130   2.0000      -0.873878       -23.7794
 131   2.0000      -0.873365       -23.7655
 132   2.0000      -0.871673       -23.7194
 133   2.0000      -0.866372       -23.5752
 134   2.0000      -0.862312       -23.4647
 135   2.0000      -0.857182       -23.3251
 136   2.0000      -0.841238       -22.8912
 137   2.0000      -0.833332       -22.6761
 138   2.0000      -0.813715       -22.1423
 139   2.0000      -0.810271       -22.0486
 140   2.0000      -0.809693       -22.0329
 141   2.0000      -0.787797       -21.4370
 142   2.0000      -0.783688       -21.3252
 143   2.0000      -0.779948       -21.2235
 144   2.0000      -0.772114       -21.0103
 145   2.0000      -0.756582       -20.5877
 146   2.0000      -0.755864       -20.5681
 147   2.0000      -0.749521       -20.3955
 148   2.0000      -0.746654       -20.3175
 149   2.0000      -0.733062       -19.9476
 150   2.0000      -0.726316       -19.7641
 151   2.0000      -0.712336       -19.3837
 152   2.0000      -0.708496       -19.2792
 153   2.0000      -0.704168       -19.1614
 154   2.0000      -0.696501       -18.9527
 155   2.0000      -0.693243       -18.8641
 156   2.0000      -0.690533       -18.7903
 157   2.0000      -0.686995       -18.6941
 158   2.0000      -0.682555       -18.5733
 159   2.0000      -0.680194       -18.5090
 160   2.0000      -0.674434       -18.3523
 161   2.0000      -0.667245       -18.1567
 162   2.0000      -0.655883       -17.8475
 163   2.0000      -0.653186       -17.7741
 164   2.0000      -0.649509       -17.6740
 165   2.0000      -0.644056       -17.5257
 166   2.0000      -0.637408       -17.3448
 167   2.0000      -0.635176       -17.2840
 168   2.0000      -0.621971       -16.9247
 169   2.0000      -0.621558       -16.9134
 170   2.0000      -0.620236       -16.8775
 171   2.0000      -0.612962       -16.6795
 172   2.0000      -0.611014       -16.6265
 173   2.0000      -0.609227       -16.5779
 174   2.0000      -0.602790       -16.4028
 175   2.0000      -0.594907       -16.1883
 176   2.0000      -0.590571       -16.0703
 177   2.0000      -0.585482       -15.9318
 178   2.0000      -0.584452       -15.9038
 179   2.0000      -0.575426       -15.6581
 180   2.0000      -0.567267       -15.4361
 181   2.0000      -0.563790       -15.3415
 182   2.0000      -0.563385       -15.3305
 183   2.0000      -0.556233       -15.1359
 184   2.0000      -0.554636       -15.0924
 185   2.0000      -0.550476       -14.9792
 186   2.0000      -0.549677       -14.9575
 187   2.0000      -0.545122       -14.8335
 188   2.0000      -0.543261       -14.7829
 189   2.0000      -0.541906       -14.7460
 190   2.0000      -0.540936       -14.7196
 191   2.0000      -0.537117       -14.6157
 192   2.0000      -0.535920       -14.5831
 193   2.0000      -0.528470       -14.3804
 194   2.0000      -0.527878       -14.3643
 195   2.0000      -0.526849       -14.3363
 196   2.0000      -0.524542       -14.2735
 197   2.0000      -0.523143       -14.2355
 198   2.0000      -0.520114       -14.1530
 199   2.0000      -0.517021       -14.0688
 200   2.0000      -0.512838       -13.9550
 201   2.0000      -0.510113       -13.8809
 202   2.0000      -0.508638       -13.8407
 203   2.0000      -0.504801       -13.7363
 204   2.0000      -0.503727       -13.7071
 205   2.0000      -0.502235       -13.6665
 206   2.0000      -0.500413       -13.6169
 207   2.0000      -0.497111       -13.5271
 208   2.0000      -0.495336       -13.4788
 209   2.0000      -0.493417       -13.4266
 210   2.0000      -0.492369       -13.3980
 211   2.0000      -0.491128       -13.3643
 212   2.0000      -0.490047       -13.3349
 213   2.0000      -0.489271       -13.3137
 214   2.0000      -0.488773       -13.3002
 215   2.0000      -0.486966       -13.2510
 216   2.0000      -0.483626       -13.1601
 217   2.0000      -0.478428       -13.0187
 218   2.0000      -0.478408       -13.0181
 219   2.0000      -0.477261       -12.9869
 220   2.0000      -0.474984       -12.9250
 221   2.0000      -0.472697       -12.8628
 222   2.0000      -0.471474       -12.8294
 223   2.0000      -0.463661       -12.6168
 224   2.0000      -0.462508       -12.5855
 225   2.0000      -0.460867       -12.5408
 226   2.0000      -0.459013       -12.4904
 227   2.0000      -0.456903       -12.4330
 228   2.0000      -0.455697       -12.4001
 229   2.0000      -0.453543       -12.3415
 230   2.0000      -0.450657       -12.2630
 231   2.0000      -0.449407       -12.2290
 232   2.0000      -0.448737       -12.2108
 233   2.0000      -0.448004       -12.1908
 234   2.0000      -0.447106       -12.1664
 235   2.0000      -0.446276       -12.1438
 236   2.0000      -0.445712       -12.1284
 237   2.0000      -0.444830       -12.1044
 238   2.0000      -0.443092       -12.0571
 239   2.0000      -0.442079       -12.0296
 240   2.0000      -0.441849       -12.0233
 241   2.0000      -0.441503       -12.0139
 242   2.0000      -0.439867       -11.9694
 243   2.0000      -0.439781       -11.9670
 244   2.0000      -0.438964       -11.9448
 245   2.0000      -0.438835       -11.9413
 246   2.0000      -0.437480       -11.9044
 247   2.0000      -0.428822       -11.6688
 248   2.0000      -0.428416       -11.6578
 249   2.0000      -0.428088       -11.6489
 250   2.0000      -0.425724       -11.5845
 251   2.0000      -0.425333       -11.5739
 252   2.0000      -0.423274       -11.5179
 253   2.0000      -0.421571       -11.4715
 254   2.0000      -0.418517       -11.3884
 255   2.0000      -0.413784       -11.2596
 256   2.0000      -0.410988       -11.1836
 257   2.0000      -0.408509       -11.1161
 258   2.0000      -0.407254       -11.0819
 259   2.0000      -0.400080       -10.8867
 260   2.0000      -0.388634       -10.5753
 261   2.0000      -0.383686       -10.4406
 262   2.0000      -0.382451       -10.4070
 263   2.0000      -0.363187        -9.8828
 264   2.0000      -0.358082        -9.7439
 265   2.0000      -0.350676        -9.5424
 266   2.0000      -0.349108        -9.4997
 267   2.0000      -0.346977        -9.4417
 268   2.0000      -0.340047        -9.2532
 269   2.0000      -0.337677        -9.1886
 270   2.0000      -0.336102        -9.1458
 271   2.0000      -0.332138        -9.0379
 272   2.0000      -0.327810        -8.9202
 273   2.0000      -0.323468        -8.8020
 274   2.0000      -0.313935        -8.5426
 275   2.0000      -0.308966        -8.4074
 276   2.0000      -0.305088        -8.3019
 277   2.0000      -0.278630        -7.5819
 278   2.0000      -0.253483        -6.8976
 279   0.0000      -0.120419        -3.2768
 280   0.0000      -0.109494        -2.9795
 281   0.0000      -0.090071        -2.4510
 282   0.0000      -0.084391        -2.2964
 283   0.0000      -0.079743        -2.1699

MULLIKEN ATOMIC CHARGES
-----------------------
   0 C :   -0.073477
   1 C :   -0.080774
   2 C :    0.114322
   3 C :   -0.079153
   4 C :    0.117174
   5 C :   -0.073168
   6 C :   -0.012007
   7 C :    0.037645
   8 C :    0.299710
   9 C :   -0.345090
  10 C :   -0.181903
  11 N :    0.146373
  12 C :   -0.200116
  13 N :    0.156492
  14 C :   -0.085912
  15 C :    0.155544
  16 O :   -0.146578
  17 C :    0.027851
  18 C :   -0.112381
  19 C :    0.005425
  20 C :   -0.010240
  21 C :   -0.086467
  22 S :    0.205321
  23 C :   -0.087127
  24 C :    0.032285
  25 C :    0.308349
  26 C :   -0.296476
  27 C :   -0.188187
  28 N :    0.176456
  29 C :   -0.192005
  30 N :    0.192985
  31 C :   -0.049102
  32 C :   -0.114963
  33 S :    0.171093
  34 C :    0.167961
  35 C :   -0.137506
  36 C :    0.181072
  37 F :   -0.187981
  38 C :    0.116177
  39 C :   -0.007469
  40 C :    0.011722
  41 N :   -0.277047
  42 S :    0.559935
  43 N :   -0.287303
  44 C :   -0.130851
  45 C :   -0.062207
  46 C :    0.038699
  47 C :   -0.095202
  48 S :    0.207347
  49 C :   -0.085087
  50 C :    0.026444
  51 C :    0.302144
  52 C :   -0.297289
  53 C :   -0.193238
  54 N :    0.180184
  55 C :   -0.187509
  56 N :    0.176354
  57 C :    0.003130
  58 C :   -0.089062
  59 S :    0.202095
  60 C :    0.045043
  61 C :   -0.140411
  62 C :    0.142153
  63 O :   -0.139283
  64 C :    0.004603
  65 C :    0.028314
  66 C :   -0.075118
  67 C :   -0.080315
  68 C :   -0.079014
  69 C :   -0.078405
  70 C :    0.115724
  71 C :    0.114994
  72 C :    0.240352
  73 C :   -0.326642
  74 C :   -0.207542
  75 N :    0.175738
  76 C :   -0.175462
  77 N :    0.155934
  78 H :   -0.013799
  79 H :    0.025326
  80 H :    0.027360
  81 H :    0.028529
  82 H :    0.027796
  83 H :    0.018474
  84 H :    0.029739
  85 H :   -0.014959
  86 H :    0.015644
  87 H :    0.038015
  88 H :    0.025010
  89 H :    0.003993
  90 H :    0.023981
  91 H :    0.017691
  92 H :    0.031820
  93 H :   -0.010837
  94 H :   -0.016275
  95 H :    0.028095
  96 H :    0.029764
  97 H :    0.017260
  98 H :    0.023808
  99 H :    0.029058
 100 H :    0.026429
Sum of atomic charges:   -0.0000000

LOEWDIN ATOMIC CHARGES
----------------------
   0 C :   -0.004861
   1 C :   -0.002871
   2 C :   -0.041846
   3 C :   -0.005195
   4 C :   -0.042538
   5 C :    0.009146
   6 C :   -0.047356
   7 C :   -0.019383
   8 C :    0.078157
   9 C :   -0.141749
  10 C :   -0.017706
  11 N :   -0.053639
  12 C :   -0.024886
  13 N :   -0.053602
  14 C :   -0.090127
  15 C :    0.086603
  16 O :   -0.135444
  17 C :    0.036482
  18 C :   -0.174079
  19 C :    0.016514
  20 C :   -0.071343
  21 C :   -0.165029
  22 S :    0.495616
  23 C :   -0.181549
  24 C :   -0.058491
  25 C :    0.075110
  26 C :   -0.090979
  27 C :   -0.016422
  28 N :   -0.026950
  29 C :   -0.021931
  30 N :   -0.015613
  31 C :   -0.014660
  32 C :   -0.155494
  33 S :    0.478986
  34 C :   -0.030465
  35 C :   -0.045491
  36 C :    0.088360
  37 F :   -0.061012
  38 C :   -0.073342
  39 C :   -0.032615
  40 C :   -0.043690
  41 N :   -0.270424
  42 S :    0.678718
  43 N :   -0.274531
  44 C :   -0.159061
  45 C :   -0.018032
  46 C :   -0.060152
  47 C :   -0.190414
  48 S :    0.495301
  49 C :   -0.152985
  50 C :   -0.072482
  51 C :    0.080535
  52 C :   -0.098521
  53 C :   -0.017406
  54 N :   -0.029399
  55 C :   -0.016459
  56 N :   -0.029985
  57 C :    0.011891
  58 C :   -0.177373
  59 S :    0.508883
  60 C :    0.046423
  61 C :   -0.098373
  62 C :    0.084215
  63 O :   -0.140786
  64 C :   -0.049268
  65 C :   -0.015929
  66 C :   -0.007781
  67 C :   -0.002603
  68 C :   -0.007091
  69 C :    0.008243
  70 C :   -0.042640
  71 C :   -0.041902
  72 C :    0.061424
  73 C :   -0.146505
  74 C :   -0.037246
  75 N :   -0.047418
  76 C :   -0.020109
  77 N :   -0.052027
  78 H :    0.036123
  79 H :    0.035964
  80 H :    0.037994
  81 H :    0.038898
  82 H :    0.038513
  83 H :    0.033739
  84 H :    0.039268
  85 H :    0.037181
  86 H :    0.042670
  87 H :    0.044488
  88 H :    0.040767
  89 H :    0.035858
  90 H :    0.038593
  91 H :    0.046943
  92 H :    0.054577
  93 H :    0.035572
  94 H :    0.036516
  95 H :    0.038238
  96 H :    0.039105
  97 H :    0.033253
  98 H :    0.035526
  99 H :    0.039202
 100 H :    0.037660

  Mayer bond orders larger than 0.100000
B(  0-C ,  1-C ) :   1.3786 B(  0-C ,  7-C ) :   1.3476 B(  0-C , 78-H ) :   0.9845
B(  1-C ,  2-C ) :   1.0938 B(  1-C ,  3-C ) :   1.3728 B(  2-C , 79-H ) :   0.9508
B(  2-C , 80-H ) :   0.9406 B(  2-C , 81-H ) :   0.9395 B(  3-C ,  4-C ) :   1.0938
B(  3-C ,  5-C ) :   1.3507 B(  4-C , 82-H ) :   0.9401 B(  4-C , 83-H ) :   0.9514
B(  4-C , 84-H ) :   0.9402 B(  5-C ,  6-C ) :   1.3605 B(  5-C , 85-H ) :   1.0106
B(  6-C ,  7-C ) :   1.3325 B(  6-C , 15-C ) :   0.9534 B(  7-C ,  8-C ) :   0.9904
B(  8-C ,  9-C ) :   1.6340 B(  8-C , 14-C ) :   1.0648 B(  9-C , 10-C ) :   1.1426
B(  9-C , 12-C ) :   1.1374 B( 10-C , 11-N ) :   2.9707 B( 12-C , 13-N ) :   2.9898
B( 14-C , 15-C ) :   0.9329 B( 14-C , 17-C ) :   1.6226 B( 15-C , 16-O ) :   2.1853
B( 17-C , 18-C ) :   1.1895 B( 17-C , 86-H ) :   0.9192 B( 18-C , 19-C ) :   1.4175
B( 18-C , 22-S ) :   1.0805 B( 19-C , 20-C ) :   1.3102 B( 19-C , 87-H ) :   0.9734
B( 20-C , 21-C ) :   1.3901 B( 20-C , 25-C ) :   0.9937 B( 21-C , 22-S ) :   1.1617
B( 21-C , 23-C ) :   1.1931 B( 23-C , 24-C ) :   1.4351 B( 23-C , 33-S ) :   1.1232
B( 24-C , 25-C ) :   0.9958 B( 24-C , 31-C ) :   1.2478 B( 25-C , 26-C ) :   1.7166
B( 26-C , 27-C ) :   1.1378 B( 26-C , 29-C ) :   1.1355 B( 27-C , 28-N ) :   2.9850
B( 29-C , 30-N ) :   2.9967 B( 31-C , 32-C ) :   1.4768 B( 31-C , 88-H ) :   0.9825
B( 32-C , 33-S ) :   1.0951 B( 32-C , 34-C ) :   1.1359 B( 34-C , 35-C ) :   1.3852
B( 34-C , 38-C ) :   0.1128 B( 34-C , 40-C ) :   1.1869 B( 35-C , 36-C ) :   1.2631
B( 35-C , 89-H ) :   0.9893 B( 36-C , 37-F ) :   1.0863 B( 36-C , 38-C ) :   1.3703
B( 38-C , 39-C ) :   1.1738 B( 38-C , 44-C ) :   1.1318 B( 39-C , 40-C ) :   1.1525
B( 39-C , 43-N ) :   1.5327 B( 40-C , 41-N ) :   1.5368 B( 41-N , 42-S ) :   1.2719
B( 41-N , 43-N ) :   0.1419 B( 42-S , 43-N ) :   1.2635 B( 44-C , 45-C ) :   1.4628
B( 44-C , 48-S ) :   1.1022 B( 45-C , 46-C ) :   1.2654 B( 45-C , 90-H ) :   0.9806
B( 46-C , 47-C ) :   1.4201 B( 46-C , 51-C ) :   0.9978 B( 47-C , 48-S ) :   1.1035
B( 47-C , 49-C ) :   1.2078 B( 49-C , 50-C ) :   1.4050 B( 49-C , 59-S ) :   1.1577
B( 50-C , 51-C ) :   0.9892 B( 50-C , 57-C ) :   1.3003 B( 51-C , 52-C ) :   1.7168
B( 52-C , 53-C ) :   1.1328 B( 52-C , 55-C ) :   1.1401 B( 53-C , 54-N ) :   2.9967
B( 55-C , 56-N ) :   2.9869 B( 57-C , 58-C ) :   1.4070 B( 57-C , 91-H ) :   1.0021
B( 58-C , 59-S ) :   1.0848 B( 58-C , 60-C ) :   1.1395 B( 60-C , 61-C ) :   1.6540
B( 60-C , 92-H ) :   0.9470 B( 61-C , 62-C ) :   0.9318 B( 61-C , 72-C ) :   1.0296
B( 62-C , 63-O ) :   2.2727 B( 62-C , 64-C ) :   0.9234 B( 64-C , 65-C ) :   1.3343
B( 64-C , 69-C ) :   1.3622 B( 65-C , 66-C ) :   1.3551 B( 65-C , 72-C ) :   1.0035
B( 66-C , 67-C ) :   1.3733 B( 66-C , 93-H ) :   0.9887 B( 67-C , 68-C ) :   1.3748
B( 67-C , 71-C ) :   1.0937 B( 68-C , 69-C ) :   1.3574 B( 68-C , 70-C ) :   1.0934
B( 69-C , 94-H ) :   1.0106 B( 70-C , 95-H ) :   0.9402 B( 70-C , 96-H ) :   0.9408
B( 70-C , 97-H ) :   0.9518 B( 71-C , 98-H ) :   0.9511 B( 71-C , 99-H ) :   0.9394
B( 71-C ,100-H ) :   0.9408 B( 72-C , 73-C ) :   1.6557 B( 73-C , 74-C ) :   1.1505
B( 73-C , 76-C ) :   1.1352 B( 74-C , 75-N ) :   3.0264 B( 76-C , 77-N ) :   2.9947

-----------------------------------------------------------------------------
         ABSORPTION SPECTRUM VIA TRANSITION ELECTRIC DIPOLE MOMENTS
-----------------------------------------------------------------------------
State   Energy  Wavelength   fosc         T2         TX        TY        TZ
        (cm-1)    (nm)                  (au**2)     (au)      (au)      (au)
-----------------------------------------------------------------------------
   0   13168.1    759.4   0.845579035  21.14001   2.30104  -3.57552   1.74954
   1   14343.5    697.2   0.065145214   1.49522  -0.89880   0.76329   0.32366
   2   18942.0    527.9   1.221865362  21.23605  -2.20875   3.54392  -1.94887
   3   21660.5    461.7   0.153652882   2.33532  -0.98519   1.16663  -0.06079
   4   21706.9    460.7   0.352423938   5.34495  -1.31123   0.71452   1.76496
   5   23426.2    426.9   0.215179652   3.02395  -1.21976   1.23436   0.11169
   6   24085.4    415.2   0.042175850   0.57648   0.65460  -0.38050  -0.05659
   7   26953.5    371.0   0.021809454   0.26638   0.47949   0.19095  -0.00251
   8   27115.6    368.8   0.017317693   0.21026  -0.07111  -0.24224  -0.38277
   9   27588.2    362.5   0.016048593   0.19151  -0.09540  -0.42703   0.00722
  10   28259.2    353.9   0.181537137   2.11486  -0.52851   0.98098  -0.93446
  11   28650.8    349.0   0.020675747   0.23757   0.30828   0.37740  -0.01041
  12   28821.3    347.0   0.124224243   1.41895   0.33541   0.92722  -0.66836
  13   29400.2    340.1   0.096957919   1.08570  -0.27618   0.74039  -0.67915
  14   29755.1    336.1   0.185244898   2.04956  -1.23011   0.24869   0.68887
  15   30053.4    332.7   0.060016322   0.65743   0.37280   0.39089  -0.60470
  16   30149.0    331.7   0.362837052   3.96200   0.56653   0.76482  -1.74817
  17   30783.5    324.8   0.086056385   0.92032   0.20731   0.00346  -0.93666
  18   31091.2    321.6   0.039226764   0.41536   0.01443  -0.14752   0.62720
  19   31559.7    316.9   0.401558317   4.18881  -1.02279   0.26356   1.75307
  20   31925.2    313.2   0.549406732   5.66547   1.28811  -1.83750   0.79361
  21   32433.4    308.3   0.048065719   0.48789   0.59581   0.20058  -0.30440
  22   32534.6    307.4   0.170741048   1.72770  -0.10968  -1.12131   0.67701
  23   32693.3    305.9   0.013147991   0.13240  -0.32304   0.11667  -0.12013
  24   33009.8    302.9   0.118788174   1.18469  -0.39804   0.35132   0.95017
  25   33116.4    302.0   0.030272154   0.30094  -0.29400  -0.10242  -0.45168
  26   33466.7    298.8   0.163182632   1.60523  -0.86862   0.70785  -0.59133
  27   33533.0    298.2   0.075687561   0.74307  -0.54772   0.66470   0.03520
  28   33865.5    295.3   0.192280690   1.86919  -0.75613  -1.00796   0.53055
  29   33981.1    294.3   0.021107944   0.20450   0.03140  -0.01453  -0.45089
  30   34387.6    290.8   0.008806679   0.08431  -0.15207   0.23974   0.06092
  31   34559.3    289.4   0.140569770   1.33907  -0.19375   0.95829  -0.61905
  32   34812.6    287.3   0.112235842   1.06138  -0.71045   0.45296   0.59285
  33   34975.4    285.9   0.119852232   1.12813  -0.14546   0.54582  -0.89947
  34   35650.0    280.5   0.004343514   0.04011  -0.16241   0.05837  -0.10161
  35   35683.4    280.2   0.378913657   3.49582  -0.95612  -0.52075   1.52003
  36   36037.8    277.5   0.399329898   3.64796  -0.17339  -0.19151  -1.89241
  37   36280.0    275.6   0.137224160   1.24520   0.05470  -0.15962   1.10305
  38   36630.9    273.0   0.030897864   0.27769   0.02832   0.52414   0.04656
  39   36782.0    271.9   0.058137557   0.52035  -0.26698  -0.65027  -0.16192
  40   36871.3    271.2   0.077394337   0.69103  -0.35497  -0.74692   0.08449
  41   36899.9    271.0   0.171534151   1.53039   0.61103   1.05146  -0.22687
  42   37109.1    269.5   0.139830834   1.24050  -0.32363   1.06116   0.09854
  43   37152.2    269.2   0.037822755   0.33515   0.36969  -0.37895   0.23426
  44   37623.2    265.8   0.116827758   1.02227  -0.45307   0.88600  -0.17892
  45   37829.4    264.3   0.019949224   0.17361  -0.11086   0.39773  -0.05598
  46   38103.6    262.4   0.042567094   0.36778   0.17396  -0.26694  -0.51600
  47   38181.6    261.9   0.179832836   1.55056   0.49293  -0.45345  -1.04975
  48   38324.0    260.9   0.008999825   0.07731   0.04202   0.26573  -0.07023
  49   39049.2    256.1   0.014475127   0.12204  -0.06363  -0.22761   0.25726
  50   39267.2    254.7   0.043980367   0.36873  -0.08027   0.42271  -0.42849
  51   39346.1    254.2   0.016562367   0.13858  -0.03685   0.36165   0.08020
  52   39471.8    253.3   0.045485248   0.37937  -0.09410   0.12386   0.59596
  53   39742.1    251.6   0.042370206   0.35098  -0.16430   0.56035  -0.09998
  54   39830.7    251.1   0.078315674   0.64730   0.46663  -0.46833  -0.45850
  55   40216.3    248.7   0.024403422   0.19977  -0.31205   0.31802   0.03539

FINAL SINGLE POINT ENERGY     -5084.295239747656

DIPOLE MOMENT
-------------
                                X             Y             Z
Electronic contribution:     46.78459      -2.26051     -14.72060
Nuclear contribution   :    -50.59592       0.80973      14.81905
                        -----------------------------------------
Total Dipole Moment    :     -3.81133      -1.45078       0.09844
                        -----------------------------------------
Magnitude (a.u.)       :      4.07930
Magnitude (Debye)      :     10.36875

Rotational constants in cm-1:     0.001598     0.000177     0.000163
Rotational constants in MHz :    47.921672     5.308969     4.878200

                             ****ORCA TERMINATED NORMALLY****
TOTAL RUN TIME: 0 days 0 hours 10 minutes 50 seconds 143 msec
