                         Program Version 4.2.0 -  RELEASE  -
|  1> # ORCA input file
|  2> # SCF done       -205.760976139509          0.000984926399
|  3> ! CAM-B3LYP def2-SVP def2/J RIJCOSX Grid4 TightSCF
|  4> %maxcore 5000
|  5> %tddft
|  6>     Mode sTDDFT
|  7>     Ethresh 5.0
|  8>     maxcore 5000
|  9> end
| 10>
| 11> %pal
| 12>   nprocs 6
| 13>   end
| 14> * xyz 0 1
| 15>    C       -1.61428         0.06835        -1.10123
| 16>    C       -0.99582         1.31503        -1.12727
| 17>    C       -1.83636         2.55021        -1.07242
| 18>    C        0.40289         1.41660        -1.20284
| 19>    C        1.06342         2.75703        -1.23370
| 20>    C        1.17531         0.26070        -1.24708
| 21>    C        0.55423        -0.97147        -1.22030
| 22>    C       -0.84440        -1.08189        -1.14885
| 23>    C       -1.20474        -2.49301        -1.14005
| 24>    C       -2.47659        -2.99579        -1.22312
| 25>    C       -3.63833        -2.19628        -1.25967
| 26>    N       -4.62000        -1.60170        -1.28454
| 27>    C       -2.80485        -4.36430        -1.32335
| 28>    N       -3.14601        -5.45587        -1.42955
| 29>    C        0.02898        -3.26218        -1.11750
| 30>    C        1.16584        -2.31009        -1.24629
| 31>    O        2.35080        -2.56057        -1.29556
| 32>    C        0.10317        -4.59047        -0.81445
| 33>    C        1.22417        -5.44968        -0.82917
| 34>    C        2.44701        -5.36442        -1.47882
| 35>    C        3.25035        -6.47093        -1.22818
| 36>    C        2.64285        -7.41359        -0.37035
| 37>    S        1.07161        -6.95599         0.08465
| 38>    C        3.55894        -8.46774        -0.13343
| 39>    C        4.73973        -8.20017        -0.85096
| 40>    C        4.57947        -6.94820        -1.57446
| 41>    C        5.48776        -6.36569        -2.40835
| 42>    C        6.75572        -6.93950        -2.64382
| 43>    N        7.78862        -7.39930        -2.83608
| 44>    C        5.22765        -5.16929        -3.11158
| 45>    N        5.03279        -4.21372        -3.71368
| 46>    C        5.71479        -9.17517        -0.66752
| 47>    C        5.29050       -10.17510         0.19217
| 48>    S        3.65430        -9.91078         0.76821
| 49>    C        6.07350       -11.29184         0.61824
| 50>    C        5.65418       -12.23506         1.54978
| 51>    F        4.41746       -12.14011         2.07447
| 52>    C        6.45392       -13.28939         2.00298
| 53>    F        5.91278       -14.11109         2.92268
| 54>    C        7.75512       -13.51614         1.56796
| 55>    C        8.20005       -12.59167         0.58891
| 56>    C        7.38706       -11.51315         0.13192
| 57>    N        8.10618       -10.83418        -0.77265
| 58>    N        9.24126       -11.46809        -0.83579
| 59>    N        9.36799       -12.50830        -0.06326
| 60>    C       10.28323       -11.05477        -1.72323
| 61>    C        8.60007       -14.55688         2.06220
| 62>    C        9.90182       -14.80246         1.65595
| 63>    C       10.47335       -15.85861         2.35806
| 64>    C        9.59780       -16.42124         3.30484
| 65>    S        8.07647       -15.65619         3.32571
| 66>    C       10.28149       -17.46151         3.98105
| 67>    C       11.58350       -17.56694         3.45519
| 68>    C       11.74613       -16.56132         2.41827
| 69>    C       12.85559       -16.31327         1.66489
| 70>    C       14.04065       -17.06780         1.79834
| 71>    N       15.00033       -17.68732         1.89541
| 72>    C       12.89085       -15.28538         0.69858
| 73>    N       12.92750       -14.45049        -0.08665
| 74>    C       12.33229       -18.56721         4.07057
| 75>    C       11.63407       -19.19417         5.08825
| 76>    S        9.99200       -18.57054         5.23712
| 77>    C       12.10294       -20.26487         5.89111
| 78>    C       11.66103       -20.67395         7.10726
| 79>    C       11.95389       -22.06226         7.57631
| 80>    O       12.76511       -22.82472         7.10554
| 81>    C       10.99885       -22.29824         8.67278
| 82>    C       10.29557       -21.11209         8.95282
| 83>    C        9.32525       -21.10792         9.93918
| 84>    C        9.06150       -22.27456        10.65087
| 85>    C        9.77604       -23.45257        10.37722
| 86>    C       10.74540       -23.45679         9.37932
| 87>    C        9.49921       -24.70019        11.15250
| 88>    C        8.01123       -22.26254        11.71446
| 89>    C       10.80848       -20.04789         8.09912
| 90>    C       10.73230       -18.70702         8.36915
| 91>    C       11.48161       -17.73207         7.67912
| 92>    N       12.10788       -16.91930         7.16417
| 93>    C        9.96803       -18.16303         9.42116
| 94>    N        9.35119       -17.67108        10.25466
| 95>    H       -2.68932         0.01592        -1.03632
| 96>    H       -2.89150         2.29703        -1.01904
| 97>    H       -1.67016         3.16490        -1.95639
| 98>    H       -1.57731         3.15103        -0.20119
| 99>    H        0.72374         3.33190        -2.09461
|100>    H        2.14339         2.65272        -1.28966
|101>    H        0.81403         3.32728        -0.33934
|102>    H        2.25219         0.31396        -1.30513
|103>    H       -0.80830        -5.06906        -0.47408
|104>    H        2.72276        -4.53044        -2.09649
|105>    H        6.69192        -9.18521        -1.11289
|106>    H       10.12845       -10.00696        -1.97171
|107>    H       10.25329       -11.65126        -2.63685
|108>    H       11.24548       -11.20712        -1.23778
|109>    H       10.37845       -14.21850         0.89082
|110>    H       13.34986       -18.81651         3.82936
|111>    H       12.87503       -20.88286         5.44204
|112>    H        8.76108       -20.21451        10.15695
|113>    H       11.30470       -24.35273         9.15516
|114>    H        8.45883       -25.00131        11.03437
|115>    H        9.67495       -24.53754        12.21527
|116>    H       10.13653       -25.51286        10.81543
|117>    H        7.55888       -21.27843        11.79895
|118>    H        8.44197       -22.53052        12.67854
|119>    H        7.23020       -22.98843        11.49053
|120> *
|121>
|122>                          ****END OF INPUT****

CARTESIAN COORDINATES (ANGSTROEM)
---------------------------------
  C     -1.614280    0.068350   -1.101230
  C     -0.995820    1.315030   -1.127270
  C     -1.836360    2.550210   -1.072420
  C      0.402890    1.416600   -1.202840
  C      1.063420    2.757030   -1.233700
  C      1.175310    0.260700   -1.247080
  C      0.554230   -0.971470   -1.220300
  C     -0.844400   -1.081890   -1.148850
  C     -1.204740   -2.493010   -1.140050
  C     -2.476590   -2.995790   -1.223120
  C     -3.638330   -2.196280   -1.259670
  N     -4.620000   -1.601700   -1.284540
  C     -2.804850   -4.364300   -1.323350
  N     -3.146010   -5.455870   -1.429550
  C      0.028980   -3.262180   -1.117500
  C      1.165840   -2.310090   -1.246290
  O      2.350800   -2.560570   -1.295560
  C      0.103170   -4.590470   -0.814450
  C      1.224170   -5.449680   -0.829170
  C      2.447010   -5.364420   -1.478820
  C      3.250350   -6.470930   -1.228180
  C      2.642850   -7.413590   -0.370350
  S      1.071610   -6.955990    0.084650
  C      3.558940   -8.467740   -0.133430
  C      4.739730   -8.200170   -0.850960
  C      4.579470   -6.948200   -1.574460
  C      5.487760   -6.365690   -2.408350
  C      6.755720   -6.939500   -2.643820
  N      7.788620   -7.399300   -2.836080
  C      5.227650   -5.169290   -3.111580
  N      5.032790   -4.213720   -3.713680
  C      5.714790   -9.175170   -0.667520
  C      5.290500  -10.175100    0.192170
  S      3.654300   -9.910780    0.768210
  C      6.073500  -11.291840    0.618240
  C      5.654180  -12.235060    1.549780
  F      4.417460  -12.140110    2.074470
  C      6.453920  -13.289390    2.002980
  F      5.912780  -14.111090    2.922680
  C      7.755120  -13.516140    1.567960
  C      8.200050  -12.591670    0.588910
  C      7.387060  -11.513150    0.131920
  N      8.106180  -10.834180   -0.772650
  N      9.241260  -11.468090   -0.835790
  N      9.367990  -12.508300   -0.063260
  C     10.283230  -11.054770   -1.723230
  C      8.600070  -14.556880    2.062200
  C      9.901820  -14.802460    1.655950
  C     10.473350  -15.858610    2.358060
  C      9.597800  -16.421240    3.304840
  S      8.076470  -15.656190    3.325710
  C     10.281490  -17.461510    3.981050
  C     11.583500  -17.566940    3.455190
  C     11.746130  -16.561320    2.418270
  C     12.855590  -16.313270    1.664890
  C     14.040650  -17.067800    1.798340
  N     15.000330  -17.687320    1.895410
  C     12.890850  -15.285380    0.698580
  N     12.927500  -14.450490   -0.086650
  C     12.332290  -18.567210    4.070570
  C     11.634070  -19.194170    5.088250
  S      9.992000  -18.570540    5.237120
  C     12.102940  -20.264870    5.891110
  C     11.661030  -20.673950    7.107260
  C     11.953890  -22.062260    7.576310
  O     12.765110  -22.824720    7.105540
  C     10.998850  -22.298240    8.672780
  C     10.295570  -21.112090    8.952820
  C      9.325250  -21.107920    9.939180
  C      9.061500  -22.274560   10.650870
  C      9.776040  -23.452570   10.377220
  C     10.745400  -23.456790    9.379320
  C      9.499210  -24.700190   11.152500
  C      8.011230  -22.262540   11.714460
  C     10.808480  -20.047890    8.099120
  C     10.732300  -18.707020    8.369150
  C     11.481610  -17.732070    7.679120
  N     12.107880  -16.919300    7.164170
  C      9.968030  -18.163030    9.421160
  N      9.351190  -17.671080   10.254660
  H     -2.689320    0.015920   -1.036320
  H     -2.891500    2.297030   -1.019040
  H     -1.670160    3.164900   -1.956390
  H     -1.577310    3.151030   -0.201190
  H      0.723740    3.331900   -2.094610
  H      2.143390    2.652720   -1.289660
  H      0.814030    3.327280   -0.339340
  H      2.252190    0.313960   -1.305130
  H     -0.808300   -5.069060   -0.474080
  H      2.722760   -4.530440   -2.096490
  H      6.691920   -9.185210   -1.112890
  H     10.128450  -10.006960   -1.971710
  H     10.253290  -11.651260   -2.636850
  H     11.245480  -11.207120   -1.237780
  H     10.378450  -14.218500    0.890820
  H     13.349860  -18.816510    3.829360
  H     12.875030  -20.882860    5.442040
  H      8.761080  -20.214510   10.156950
  H     11.304700  -24.352730    9.155160
  H      8.458830  -25.001310   11.034370
  H      9.674950  -24.537540   12.215270
  H     10.136530  -25.512860   10.815430
  H      7.558880  -21.278430   11.798950
  H      8.441970  -22.530520   12.678540
  H      7.230200  -22.988430   11.490530

 Total Charge           Charge          ....    0
 Multiplicity           Mult            ....    1
 Number of Electrons    NEL             ....  566
 Basis Dimension        Dim             .... 1261

ORBITAL ENERGIES
----------------

  NO   OCC          E(Eh)            E(eV)
   0   2.0000     -88.994791     -2421.6714
   1   2.0000     -88.994360     -2421.6596
   2   2.0000     -88.993762     -2421.6434
   3   2.0000     -88.993126     -2421.6261
   4   2.0000     -24.817491      -675.3183
   5   2.0000     -24.817212      -675.3107
   6   2.0000     -19.216548      -522.9088
   7   2.0000     -19.215955      -522.8927
   8   2.0000     -14.560942      -396.2234
   9   2.0000     -14.463110      -393.5612
  10   2.0000     -14.462643      -393.5485
  11   2.0000     -14.432622      -392.7316
  12   2.0000     -14.432025      -392.7154
  13   2.0000     -14.431184      -392.6925
  14   2.0000     -14.428577      -392.6216
  15   2.0000     -14.417505      -392.3203
  16   2.0000     -14.416420      -392.2907
  17   2.0000     -14.414867      -392.2485
  18   2.0000     -14.412619      -392.1873
  19   2.0000     -10.392249      -282.7875
  20   2.0000     -10.391787      -282.7749
  21   2.0000     -10.367850      -282.1236
  22   2.0000     -10.367356      -282.1101
  23   2.0000     -10.366433      -282.0850
  24   2.0000     -10.366359      -282.0830
  25   2.0000     -10.354185      -281.7517
  26   2.0000     -10.353617      -281.7362
  27   2.0000     -10.345702      -281.5209
  28   2.0000     -10.344350      -281.4841
  29   2.0000     -10.343793      -281.4689
  30   2.0000     -10.342651      -281.4378
  31   2.0000     -10.340590      -281.3818
  32   2.0000     -10.339162      -281.3429
  33   2.0000     -10.334111      -281.2055
  34   2.0000     -10.333491      -281.1886
  35   2.0000     -10.333152      -281.1794
  36   2.0000     -10.332778      -281.1692
  37   2.0000     -10.332761      -281.1687
  38   2.0000     -10.332276      -281.1555
  39   2.0000     -10.331283      -281.1285
  40   2.0000     -10.330612      -281.1102
  41   2.0000     -10.330193      -281.0988
  42   2.0000     -10.329012      -281.0667
  43   2.0000     -10.328907      -281.0639
  44   2.0000     -10.328139      -281.0430
  45   2.0000     -10.327784      -281.0333
  46   2.0000     -10.327590      -281.0280
  47   2.0000     -10.326140      -280.9886
  48   2.0000     -10.325095      -280.9601
  49   2.0000     -10.323845      -280.9261
  50   2.0000     -10.320122      -280.8248
  51   2.0000     -10.318486      -280.7803
  52   2.0000     -10.317921      -280.7649
  53   2.0000     -10.315747      -280.7057
  54   2.0000     -10.312049      -280.6051
  55   2.0000     -10.307916      -280.4927
  56   2.0000     -10.307118      -280.4709
  57   2.0000     -10.306961      -280.4667
  58   2.0000     -10.306907      -280.4652
  59   2.0000     -10.306337      -280.4497
  60   2.0000     -10.304373      -280.3962
  61   2.0000     -10.299986      -280.2769
  62   2.0000     -10.299820      -280.2724
  63   2.0000     -10.299677      -280.2685
  64   2.0000     -10.299561      -280.2653
  65   2.0000     -10.299548      -280.2650
  66   2.0000     -10.299434      -280.2618
  67   2.0000     -10.299118      -280.2533
  68   2.0000     -10.295950      -280.1671
  69   2.0000     -10.295573      -280.1568
  70   2.0000     -10.291871      -280.0560
  71   2.0000     -10.291645      -280.0499
  72   2.0000     -10.290243      -280.0117
  73   2.0000     -10.287816      -279.9457
  74   2.0000     -10.287692      -279.9423
  75   2.0000     -10.285901      -279.8936
  76   2.0000     -10.279143      -279.7097
  77   2.0000     -10.277948      -279.6772
  78   2.0000     -10.276113      -279.6272
  79   2.0000     -10.274391      -279.5804
  80   2.0000      -8.089184      -220.1179
  81   2.0000      -8.088981      -220.1124
  82   2.0000      -8.087857      -220.0818
  83   2.0000      -8.087276      -220.0660
  84   2.0000      -6.058291      -164.8545
  85   2.0000      -6.058243      -164.8532
  86   2.0000      -6.057179      -164.8242
  87   2.0000      -6.056573      -164.8077
  88   2.0000      -6.054169      -164.7423
  89   2.0000      -6.053998      -164.7377
  90   2.0000      -6.052752      -164.7038
  91   2.0000      -6.052158      -164.6876
  92   2.0000      -6.051729      -164.6759
  93   2.0000      -6.051407      -164.6672
  94   2.0000      -6.050292      -164.6368
  95   2.0000      -6.049725      -164.6214
  96   2.0000      -1.339619       -36.4529
  97   2.0000      -1.322354       -35.9831
  98   2.0000      -1.240955       -33.7681
  99   2.0000      -1.131790       -30.7976
 100   2.0000      -1.131158       -30.7804
 101   2.0000      -1.048961       -28.5437
 102   2.0000      -1.048719       -28.5371
 103   2.0000      -1.024145       -27.8684
 104   2.0000      -1.023061       -27.8389
 105   2.0000      -1.021071       -27.7847
 106   2.0000      -1.017131       -27.6776
 107   2.0000      -1.015786       -27.6409
 108   2.0000      -1.014612       -27.6090
 109   2.0000      -1.008887       -27.4532
 110   2.0000      -1.007293       -27.4098
 111   2.0000      -1.001433       -27.2504
 112   2.0000      -0.998103       -27.1598
 113   2.0000      -0.997001       -27.1298
 114   2.0000      -0.994872       -27.0718
 115   2.0000      -0.993452       -27.0332
 116   2.0000      -0.991848       -26.9895
 117   2.0000      -0.965177       -26.2638
 118   2.0000      -0.962948       -26.2032
 119   2.0000      -0.956229       -26.0203
 120   2.0000      -0.953860       -25.9559
 121   2.0000      -0.943749       -25.6807
 122   2.0000      -0.927233       -25.2313
 123   2.0000      -0.919456       -25.0197
 124   2.0000      -0.907482       -24.6938
 125   2.0000      -0.903828       -24.5944
 126   2.0000      -0.901896       -24.5418
 127   2.0000      -0.889509       -24.2048
 128   2.0000      -0.884626       -24.0719
 129   2.0000      -0.874778       -23.8039
 130   2.0000      -0.872431       -23.7400
 131   2.0000      -0.870668       -23.6921
 132   2.0000      -0.865086       -23.5402
 133   2.0000      -0.859055       -23.3761
 134   2.0000      -0.858827       -23.3699
 135   2.0000      -0.844203       -22.9719
 136   2.0000      -0.832586       -22.6558
 137   2.0000      -0.830139       -22.5892
 138   2.0000      -0.811469       -22.0812
 139   2.0000      -0.808489       -22.0001
 140   2.0000      -0.806825       -21.9548
 141   2.0000      -0.785265       -21.3681
 142   2.0000      -0.782663       -21.2974
 143   2.0000      -0.781254       -21.2590
 144   2.0000      -0.766952       -20.8698
 145   2.0000      -0.757452       -20.6113
 146   2.0000      -0.755976       -20.5712
 147   2.0000      -0.752101       -20.4657
 148   2.0000      -0.744605       -20.2617
 149   2.0000      -0.742010       -20.1911
 150   2.0000      -0.720957       -19.6182
 151   2.0000      -0.712272       -19.3819
 152   2.0000      -0.707348       -19.2479
 153   2.0000      -0.705236       -19.1905
 154   2.0000      -0.697264       -18.9735
 155   2.0000      -0.690921       -18.8009
 156   2.0000      -0.689009       -18.7489
 157   2.0000      -0.686158       -18.6713
 158   2.0000      -0.683193       -18.5906
 159   2.0000      -0.681464       -18.5436
 160   2.0000      -0.675677       -18.3861
 161   2.0000      -0.671658       -18.2768
 162   2.0000      -0.661945       -18.0125
 163   2.0000      -0.658985       -17.9319
 164   2.0000      -0.649928       -17.6854
 165   2.0000      -0.646928       -17.6038
 166   2.0000      -0.642986       -17.4965
 167   2.0000      -0.636858       -17.3298
 168   2.0000      -0.634461       -17.2646
 169   2.0000      -0.626503       -17.0480
 170   2.0000      -0.623198       -16.9581
 171   2.0000      -0.621139       -16.9020
 172   2.0000      -0.617902       -16.8140
 173   2.0000      -0.613944       -16.7063
 174   2.0000      -0.607710       -16.5366
 175   2.0000      -0.605545       -16.4777
 176   2.0000      -0.603144       -16.4124
 177   2.0000      -0.601570       -16.3696
 178   2.0000      -0.590958       -16.0808
 179   2.0000      -0.586378       -15.9561
 180   2.0000      -0.584437       -15.9033
 181   2.0000      -0.575960       -15.6727
 182   2.0000      -0.573568       -15.6076
 183   2.0000      -0.566534       -15.4162
 184   2.0000      -0.565568       -15.3899
 185   2.0000      -0.560715       -15.2578
 186   2.0000      -0.554340       -15.0844
 187   2.0000      -0.550855       -14.9895
 188   2.0000      -0.550345       -14.9756
 189   2.0000      -0.543525       -14.7901
 190   2.0000      -0.542674       -14.7669
 191   2.0000      -0.541891       -14.7456
 192   2.0000      -0.539929       -14.6922
 193   2.0000      -0.537051       -14.6139
 194   2.0000      -0.535127       -14.5615
 195   2.0000      -0.530424       -14.4336
 196   2.0000      -0.527325       -14.3493
 197   2.0000      -0.525200       -14.2914
 198   2.0000      -0.524684       -14.2774
 199   2.0000      -0.523107       -14.2345
 200   2.0000      -0.521655       -14.1949
 201   2.0000      -0.520829       -14.1725
 202   2.0000      -0.519407       -14.1338
 203   2.0000      -0.514470       -13.9995
 204   2.0000      -0.512425       -13.9438
 205   2.0000      -0.509466       -13.8633
 206   2.0000      -0.506720       -13.7885
 207   2.0000      -0.506314       -13.7775
 208   2.0000      -0.504457       -13.7270
 209   2.0000      -0.501280       -13.6405
 210   2.0000      -0.499913       -13.6033
 211   2.0000      -0.499045       -13.5797
 212   2.0000      -0.495295       -13.4777
 213   2.0000      -0.493759       -13.4359
 214   2.0000      -0.491768       -13.3817
 215   2.0000      -0.491412       -13.3720
 216   2.0000      -0.489611       -13.3230
 217   2.0000      -0.488180       -13.2840
 218   2.0000      -0.486808       -13.2467
 219   2.0000      -0.485794       -13.2191
 220   2.0000      -0.484827       -13.1928
 221   2.0000      -0.479150       -13.0383
 222   2.0000      -0.476785       -12.9740
 223   2.0000      -0.475751       -12.9459
 224   2.0000      -0.475223       -12.9315
 225   2.0000      -0.472746       -12.8641
 226   2.0000      -0.469846       -12.7852
 227   2.0000      -0.463166       -12.6034
 228   2.0000      -0.463115       -12.6020
 229   2.0000      -0.458882       -12.4868
 230   2.0000      -0.456538       -12.4230
 231   2.0000      -0.456153       -12.4125
 232   2.0000      -0.452725       -12.3193
 233   2.0000      -0.450659       -12.2630
 234   2.0000      -0.450438       -12.2570
 235   2.0000      -0.447991       -12.1905
 236   2.0000      -0.447717       -12.1830
 237   2.0000      -0.446598       -12.1525
 238   2.0000      -0.445882       -12.1331
 239   2.0000      -0.443941       -12.0803
 240   2.0000      -0.443300       -12.0628
 241   2.0000      -0.441649       -12.0179
 242   2.0000      -0.441452       -12.0125
 243   2.0000      -0.440968       -11.9993
 244   2.0000      -0.440731       -11.9929
 245   2.0000      -0.440365       -11.9829
 246   2.0000      -0.440126       -11.9764
 247   2.0000      -0.439879       -11.9697
 248   2.0000      -0.439142       -11.9497
 249   2.0000      -0.438891       -11.9428
 250   2.0000      -0.437186       -11.8964
 251   2.0000      -0.429166       -11.6782
 252   2.0000      -0.427270       -11.6266
 253   2.0000      -0.426075       -11.5941
 254   2.0000      -0.425709       -11.5841
 255   2.0000      -0.423977       -11.5370
 256   2.0000      -0.420346       -11.4382
 257   2.0000      -0.419248       -11.4083
 258   2.0000      -0.414692       -11.2843
 259   2.0000      -0.412267       -11.2184
 260   2.0000      -0.408718       -11.1218
 261   2.0000      -0.407735       -11.0950
 262   2.0000      -0.404195       -10.9987
 263   2.0000      -0.401351       -10.9213
 264   2.0000      -0.390606       -10.6289
 265   2.0000      -0.382536       -10.4093
 266   2.0000      -0.381590       -10.3836
 267   2.0000      -0.357637        -9.7318
 268   2.0000      -0.352721        -9.5980
 269   2.0000      -0.350240        -9.5305
 270   2.0000      -0.345318        -9.3966
 271   2.0000      -0.339880        -9.2486
 272   2.0000      -0.338819        -9.2197
 273   2.0000      -0.337130        -9.1738
 274   2.0000      -0.334436        -9.1005
 275   2.0000      -0.331153        -9.0111
 276   2.0000      -0.324660        -8.8344
 277   2.0000      -0.323462        -8.8019
 278   2.0000      -0.313065        -8.5189
 279   2.0000      -0.308136        -8.3848
 280   2.0000      -0.303355        -8.2547
 281   2.0000      -0.276475        -7.5233
 282   2.0000      -0.251815        -6.8522
 283   0.0000      -0.115966        -3.1556
 284   0.0000      -0.108174        -2.9436
 285   0.0000      -0.086041        -2.3413
 286   0.0000      -0.083860        -2.2819
 287   0.0000      -0.067841        -1.8461

MULLIKEN ATOMIC CHARGES
-----------------------
   0 C :   -0.077104
   1 C :   -0.077908
   2 C :    0.109758
   3 C :   -0.074032
   4 C :    0.113769
   5 C :   -0.076280
   6 C :   -0.013338
   7 C :    0.039691
   8 C :    0.299048
   9 C :   -0.341580
  10 C :   -0.184315
  11 N :    0.149353
  12 C :   -0.205424
  13 N :    0.158033
  14 C :   -0.094292
  15 C :    0.153903
  16 O :   -0.150988
  17 C :    0.025014
  18 C :   -0.114474
  19 C :    0.027082
  20 C :   -0.018083
  21 C :   -0.091068
  22 S :    0.206185
  23 C :   -0.093227
  24 C :    0.037229
  25 C :    0.311641
  26 C :   -0.298550
  27 C :   -0.186812
  28 N :    0.169189
  29 C :   -0.191441
  30 N :    0.187461
  31 C :   -0.066342
  32 C :   -0.130499
  33 S :    0.215715
  34 C :    0.098942
  35 C :    0.114171
  36 F :   -0.177584
  37 C :    0.113592
  38 F :   -0.178604
  39 C :    0.097555
  40 C :   -0.032549
  41 C :   -0.036570
  42 N :   -0.059387
  43 N :   -0.054076
  44 N :   -0.061413
  45 C :    0.138036
  46 C :   -0.129614
  47 C :   -0.068414
  48 C :    0.036314
  49 C :   -0.092054
  50 S :    0.214718
  51 C :   -0.087046
  52 C :    0.025631
  53 C :    0.304059
  54 C :   -0.296572
  55 C :   -0.193034
  56 N :    0.177591
  57 C :   -0.184507
  58 N :    0.172590
  59 C :    0.013394
  60 C :   -0.104418
  61 S :    0.203614
  62 C :    0.048577
  63 C :   -0.139004
  64 C :    0.142603
  65 O :   -0.141087
  66 C :    0.003676
  67 C :    0.027365
  68 C :   -0.073229
  69 C :   -0.081928
  70 C :   -0.080105
  71 C :   -0.075323
  72 C :    0.117087
  73 C :    0.115862
  74 C :    0.246436
  75 C :   -0.327271
  76 C :   -0.203053
  77 N :    0.171894
  78 C :   -0.174899
  79 N :    0.154179
  80 H :   -0.013185
  81 H :    0.026622
  82 H :    0.028451
  83 H :    0.027257
  84 H :    0.028864
  85 H :    0.019134
  86 H :    0.027601
  87 H :   -0.014983
  88 H :    0.020579
  89 H :    0.032432
  90 H :    0.018832
  91 H :    0.068810
  92 H :    0.061306
  93 H :    0.066428
  94 H :    0.019273
  95 H :    0.016595
  96 H :    0.033388
  97 H :   -0.010297
  98 H :   -0.016189
  99 H :    0.027572
 100 H :    0.029839
 101 H :    0.017808
 102 H :    0.023528
 103 H :    0.029253
 104 H :    0.027623
Sum of atomic charges:   -0.0000000

LOEWDIN ATOMIC CHARGES
----------------------
   0 C :   -0.005436
   1 C :   -0.003281
   2 C :   -0.042296
   3 C :   -0.005374
   4 C :   -0.042737
   5 C :    0.008253
   6 C :   -0.046948
   7 C :   -0.019092
   8 C :    0.077820
   9 C :   -0.142292
  10 C :   -0.017963
  11 N :   -0.054641
  12 C :   -0.025064
  13 N :   -0.053924
  14 C :   -0.092435
  15 C :    0.085455
  16 O :   -0.137707
  17 C :    0.038542
  18 C :   -0.177574
  19 C :    0.020974
  20 C :   -0.074522
  21 C :   -0.160814
  22 S :    0.493594
  23 C :   -0.191009
  24 C :   -0.059749
  25 C :    0.079085
  26 C :   -0.097126
  27 C :   -0.012390
  28 N :   -0.036278
  29 C :   -0.020646
  30 N :   -0.021187
  31 C :   -0.018822
  32 C :   -0.160437
  33 S :    0.496584
  34 C :   -0.064219
  35 C :    0.057712
  36 F :   -0.052938
  37 C :    0.057433
  38 F :   -0.053001
  39 C :   -0.063202
  40 C :   -0.041362
  41 C :   -0.042563
  42 N :   -0.075901
  43 N :    0.166587
  44 N :   -0.077494
  45 C :    0.036829
  46 C :   -0.161879
  47 C :   -0.017552
  48 C :   -0.060449
  49 C :   -0.188371
  50 S :    0.498451
  51 C :   -0.153482
  52 C :   -0.071278
  53 C :    0.082342
  54 C :   -0.099109
  55 C :   -0.017433
  56 N :   -0.029367
  57 C :   -0.014171
  58 N :   -0.034496
  59 C :    0.011841
  60 C :   -0.178559
  61 S :    0.507429
  62 C :    0.046470
  63 C :   -0.096453
  64 C :    0.084226
  65 O :   -0.140452
  66 C :   -0.049406
  67 C :   -0.015945
  68 C :   -0.007648
  69 C :   -0.001999
  70 C :   -0.006610
  71 C :    0.008420
  72 C :   -0.042425
  73 C :   -0.041741
  74 C :    0.062199
  75 C :   -0.145001
  76 C :   -0.035763
  77 N :   -0.049031
  78 C :   -0.020021
  79 N :   -0.051520
  80 H :    0.036131
  81 H :    0.036115
  82 H :    0.038558
  83 H :    0.037899
  84 H :    0.038853
  85 H :    0.033744
  86 H :    0.038338
  87 H :    0.036890
  88 H :    0.043291
  89 H :    0.045022
  90 H :    0.037842
  91 H :    0.048632
  92 H :    0.045221
  93 H :    0.047943
  94 H :    0.038006
  95 H :    0.046812
  96 H :    0.054509
  97 H :    0.035899
  98 H :    0.036729
  99 H :    0.038330
 100 H :    0.039125
 101 H :    0.033479
 102 H :    0.035637
 103 H :    0.039347
 104 H :    0.037989

  Mayer bond orders larger than 0.100000
B(  0-C ,  1-C ) :   1.3782 B(  0-C ,  7-C ) :   1.3478 B(  0-C , 80-H ) :   0.9844
B(  1-C ,  2-C ) :   1.0928 B(  1-C ,  3-C ) :   1.3738 B(  2-C , 81-H ) :   0.9512
B(  2-C , 82-H ) :   0.9404 B(  2-C , 83-H ) :   0.9410 B(  3-C ,  4-C ) :   1.0927
B(  3-C ,  5-C ) :   1.3495 B(  4-C , 84-H ) :   0.9407 B(  4-C , 85-H ) :   0.9517
B(  4-C , 86-H ) :   0.9407 B(  5-C ,  6-C ) :   1.3633 B(  5-C , 87-H ) :   1.0101
B(  6-C ,  7-C ) :   1.3324 B(  6-C , 15-C ) :   0.9493 B(  7-C ,  8-C ) :   0.9933
B(  8-C ,  9-C ) :   1.6375 B(  8-C , 14-C ) :   1.0637 B(  9-C , 10-C ) :   1.1416
B(  9-C , 12-C ) :   1.1384 B( 10-C , 11-N ) :   2.9719 B( 12-C , 13-N ) :   2.9950
B( 14-C , 15-C ) :   0.9367 B( 14-C , 17-C ) :   1.6216 B( 15-C , 16-O ) :   2.1941
B( 17-C , 18-C ) :   1.1815 B( 17-C , 88-H ) :   0.9256 B( 18-C , 19-C ) :   1.4213
B( 18-C , 22-S ) :   1.0763 B( 19-C , 20-C ) :   1.3245 B( 19-C , 89-H ) :   0.9763
B( 20-C , 21-C ) :   1.3934 B( 20-C , 25-C ) :   0.9913 B( 21-C , 22-S ) :   1.1654
B( 21-C , 23-C ) :   1.1965 B( 23-C , 24-C ) :   1.4284 B( 23-C , 33-S ) :   1.1041
B( 24-C , 25-C ) :   0.9988 B( 24-C , 31-C ) :   1.2568 B( 25-C , 26-C ) :   1.7142
B( 26-C , 27-C ) :   1.1382 B( 26-C , 29-C ) :   1.1339 B( 27-C , 28-N ) :   2.9878
B( 29-C , 30-N ) :   2.9971 B( 31-C , 32-C ) :   1.4684 B( 31-C , 90-H ) :   0.9786
B( 32-C , 33-S ) :   1.1028 B( 32-C , 34-C ) :   1.1457 B( 34-C , 35-C ) :   1.3612
B( 34-C , 39-C ) :   0.1292 B( 34-C , 41-C ) :   1.1723 B( 35-C , 36-F ) :   1.1340
B( 35-C , 37-C ) :   1.2076 B( 37-C , 38-F ) :   1.1321 B( 37-C , 39-C ) :   1.3584
B( 39-C , 40-C ) :   1.1756 B( 39-C , 46-C ) :   1.1470 B( 40-C , 41-C ) :   1.2230
B( 40-C , 44-N ) :   1.4713 B( 41-C , 42-N ) :   1.4728 B( 42-N , 43-N ) :   1.2407
B( 42-N , 44-N ) :   0.1569 B( 43-N , 44-N ) :   1.2350 B( 43-N , 45-C ) :   0.9463
B( 45-C , 91-H ) :   0.9643 B( 45-C , 92-H ) :   0.9684 B( 45-C , 93-H ) :   0.9661
B( 46-C , 47-C ) :   1.4648 B( 46-C , 50-S ) :   1.1013 B( 47-C , 48-C ) :   1.2575
B( 47-C , 94-H ) :   0.9804 B( 48-C , 49-C ) :   1.4282 B( 48-C , 53-C ) :   0.9979
B( 49-C , 50-S ) :   1.1051 B( 49-C , 51-C ) :   1.2040 B( 51-C , 52-C ) :   1.4095
B( 51-C , 61-S ) :   1.1542 B( 52-C , 53-C ) :   0.9896 B( 52-C , 59-C ) :   1.2994
B( 53-C , 54-C ) :   1.7163 B( 54-C , 55-C ) :   1.1329 B( 54-C , 57-C ) :   1.1367
B( 55-C , 56-N ) :   2.9959 B( 57-C , 58-N ) :   2.9887 B( 59-C , 60-C ) :   1.4167
B( 59-C , 95-H ) :   0.9998 B( 60-C , 61-S ) :   1.0892 B( 60-C , 62-C ) :   1.1173
B( 62-C , 63-C ) :   1.6692 B( 62-C , 96-H ) :   0.9477 B( 63-C , 64-C ) :   0.9305
B( 63-C , 74-C ) :   1.0260 B( 64-C , 65-O ) :   2.2723 B( 64-C , 66-C ) :   0.9226
B( 66-C , 67-C ) :   1.3334 B( 66-C , 71-C ) :   1.3641 B( 67-C , 68-C ) :   1.3524
B( 67-C , 74-C ) :   1.0054 B( 68-C , 69-C ) :   1.3757 B( 68-C , 97-H ) :   0.9871
B( 69-C , 70-C ) :   1.3735 B( 69-C , 73-C ) :   1.0943 B( 70-C , 71-C ) :   1.3569
B( 70-C , 72-C ) :   1.0942 B( 71-C , 98-H ) :   1.0093 B( 72-C , 99-H ) :   0.9401
B( 72-C ,100-H ) :   0.9406 B( 72-C ,101-H ) :   0.9515 B( 73-C ,102-H ) :   0.9507
B( 73-C ,103-H ) :   0.9391 B( 73-C ,104-H ) :   0.9407 B( 74-C , 75-C ) :   1.6562
B( 75-C , 76-C ) :   1.1521 B( 75-C , 78-C ) :   1.1343 B( 76-C , 77-N ) :   3.0208
B( 78-C , 79-N ) :   2.9925

-----------------------------------------------------------------------------
         ABSORPTION SPECTRUM VIA TRANSITION ELECTRIC DIPOLE MOMENTS
-----------------------------------------------------------------------------
State   Energy  Wavelength   fosc         T2         TX        TY        TZ
        (cm-1)    (nm)                  (au**2)     (au)      (au)      (au)
-----------------------------------------------------------------------------
   0   13251.7    754.6   0.682567543  16.95697  -2.12475   3.10478  -1.67414
   1   14248.9    701.8   0.062750864   1.44982   0.84193  -0.83358  -0.21475
   2   19993.6    500.2   1.587968318  26.14726   2.41149  -3.79519   2.43486
   3   21776.5    459.2   0.682438809  10.31694   2.33239  -1.96192  -1.01378
   4   22292.9    448.6   0.001829094   0.02701  -0.14739  -0.05549   0.04701
   5   23770.1    420.7   0.044634436   0.61818  -0.70059   0.35351  -0.04878
   6   25445.6    393.0   0.180649457   2.33722  -0.68303   1.24291  -0.57085
   7   27030.8    369.9   0.019598984   0.23870  -0.02458  -0.48002  -0.08763
   8   27278.4    366.6   0.138230031   1.66824  -0.04076  -1.19376   0.49143
   9   28062.3    356.4   0.045500353   0.53379  -0.24462  -0.68544  -0.06422
  10   28471.4    351.2   0.065264121   0.75464  -0.13932   0.65608  -0.55209
  11   28999.9    344.8   0.025737160   0.29217  -0.12966  -0.43069  -0.29978
  12   29305.9    341.2   0.045540906   0.51159  -0.44517  -0.33734   0.44678
  13   30046.0    332.8   0.087710738   0.96104   0.88345   0.29583  -0.30503
  14   30264.0    330.4   0.192234437   2.09112  -0.63452  -0.61985   1.14205
  15   30437.8    328.5   0.011593661   0.12540  -0.11742  -0.16439   0.29083
  16   30652.3    326.2   0.376333250   4.04190   1.43036   0.27092  -1.38657
  17   31225.4    320.3   0.038762535   0.40868  -0.58594  -0.24655  -0.06754
  18   31296.4    319.5   0.338143769   3.55699  -1.11064  -1.08003   1.07565
  19   32049.7    312.0   0.443268931   4.55322   0.28276  -1.91423   0.89945
  20   32504.5    307.6   0.194918351   1.97417   1.10496  -0.84182  -0.21115
  21   32580.8    306.9   0.072725481   0.73485   0.43163  -0.66450  -0.32709
  22   32846.6    304.4   0.096101028   0.96319   0.19712  -0.66261   0.69662
  23   33064.6    302.4   0.060408042   0.60146  -0.71246  -0.19192  -0.23881
  24   33118.6    301.9   0.153107306   1.52195  -1.15857  -0.21306   0.36643
  25   33255.1    300.7   0.035819813   0.35460   0.26924   0.52900  -0.04765
  26   33440.0    299.0   0.046915452   0.46188   0.50028   0.03589  -0.45860
  27   33873.9    295.2   0.125209338   1.21688   0.18329  -1.08556  -0.06952
  28   33918.2    294.8   0.105396329   1.02298   0.22454   0.93114  -0.32488
  29   34218.0    292.2   0.052835943   0.50834   0.45709   0.50911  -0.20052
  30   34991.0    285.8   0.163528572   1.53855   0.90962   0.40732  -0.73840
  31   35072.1    285.1   0.028018138   0.26300  -0.04707  -0.49315  -0.13261
  32   35307.3    283.2   0.014470209   0.13492  -0.11857  -0.30331   0.16990
  33   35628.5    280.7   0.096556117   0.89219   0.75478   0.27458  -0.49709
  34   35845.8    279.0   0.110734249   1.01700   0.33556   0.41541  -0.85547
  35   36347.7    275.1   0.634288952   5.74495   1.59009   1.78217  -0.20106
  36   36557.3    273.5   0.039664199   0.35719  -0.03603   0.59233  -0.07101
  37   36750.0    272.1   0.020259730   0.18149  -0.23624  -0.27170   0.22773
  38   36807.0    271.7   0.064003379   0.57246  -0.24072   0.69874  -0.16211
  39   36871.0    271.2   0.086018442   0.76804   0.26817  -0.83018   0.08319
  40   37035.2    270.0   0.197045147   1.75157  -0.08926   1.28652  -0.29744
  41   37191.6    268.9   0.103650365   0.91749  -0.03829  -0.95142   0.10406
  42   37446.3    267.0   0.017351305   0.15255   0.34228   0.17792   0.06110
  43   37848.7    264.2   0.042391821   0.36873   0.45607  -0.18749  -0.35437
  44   37959.0    263.4   0.019112503   0.16576  -0.35389  -0.10170   0.17372
  45   38415.2    260.3   0.195833208   1.67826  -1.21017  -0.46153   0.02712
  46   38935.3    256.8   0.005458709   0.04616   0.19458  -0.09082  -0.00667
  47   39488.1    253.2   0.063853195   0.53234   0.67569   0.10436  -0.25475
  48   39513.5    253.1   0.085707092   0.71408   0.24739   0.42201  -0.68905
  49   39782.4    251.4   0.292176407   2.41785   0.96399  -1.21466  -0.11486
  50   40140.7    249.1   0.080345128   0.65895  -0.62296   0.43371  -0.28770

FINAL SINGLE POINT ENERGY     -4879.905014041344

DIPOLE MOMENT
-------------
                                X             Y             Z
Electronic contribution:      9.71479     -21.06714     -23.58017
Nuclear contribution   :    -10.38087      20.14590      25.00866
                        -----------------------------------------
Total Dipole Moment    :     -0.66608      -0.92124       1.42849
                        -----------------------------------------
Magnitude (a.u.)       :      1.82563
Magnitude (Debye)      :      4.64038

Rotational constants in cm-1:     0.001618     0.000177     0.000165
Rotational constants in MHz :    48.514284     5.304980     4.940589

                             ****ORCA TERMINATED NORMALLY****
TOTAL RUN TIME: 0 days 0 hours 11 minutes 29 seconds 428 msec
