                         Program Version 4.2.0 -  RELEASE  -
|  1> # ORCA input file
|  2> # SCF done       -194.242621412662          0.000736277356
|  3> ! CAM-B3LYP def2-SVP def2/J RIJCOSX Grid4 TightSCF
|  4> %maxcore 5000
|  5> %tddft
|  6>     Mode sTDDFT
|  7>     Ethresh 5.0
|  8>     maxcore 5000
|  9> end
| 10>
| 11> %pal
| 12>   nprocs 6
| 13>   end
| 14> * xyz 0 1
| 15>    C        3.13284         0.38018         2.45317
| 16>    C        2.33577         1.52030         2.49789
| 17>    C        2.87454         2.81096         1.97063
| 18>    C        1.03997         1.46307         3.03706
| 19>    C        0.19275         2.69306         3.09716
| 20>    C        0.54394         0.25465         3.51550
| 21>    C        1.33778        -0.87371         3.46480
| 22>    C        2.64328        -0.81776         2.94325
| 23>    C        3.26272        -2.13229         3.06956
| 24>    C        4.61299        -2.36385         3.08146
| 25>    C        5.58202        -1.37193         2.81982
| 26>    N        6.41329        -0.60629         2.62122
| 27>    C        5.20909        -3.58537         3.45121
| 28>    N        5.75482        -4.54245         3.77525
| 29>    C        2.21518        -3.05764         3.45717
| 30>    C        1.03404        -2.24950         3.88887
| 31>    O        0.03735        -2.67103         4.42895
| 32>    C        2.11403        -4.41181         3.42107
| 33>    C        2.94564        -5.32791         2.73239
| 34>    C        3.74051        -5.10200         1.62009
| 35>    C        4.42700        -6.24391         1.22467
| 36>    C        4.15583        -7.35674         2.04432
| 37>    S        3.02765        -7.00109         3.26699
| 38>    C        4.95416        -8.44181         1.60163
| 39>    C        5.72041        -8.01738         0.50119
| 40>    C        5.41728        -6.62166         0.23085
| 41>    C        5.97159        -5.81619        -0.72003
| 42>    C        6.94033        -6.27966        -1.63508
| 43>    N        7.72300        -6.64913        -2.38701
| 44>    C        5.60362        -4.45928        -0.83929
| 45>    N        5.29552        -3.35802        -0.92580
| 46>    C        6.56855        -9.01023         0.01451
| 47>    C        6.46377       -10.18227         0.74042
| 48>    S        5.28411       -10.05758         2.03730
| 49>    C        7.22268       -11.37832         0.55717
| 50>    C        7.14593       -12.46632         1.42805
| 51>    N        7.87414       -13.56711         1.36799
| 52>    C        8.77262       -13.73515         0.40829
| 53>    C        8.92759       -12.73331        -0.58696
| 54>    C        8.14871       -11.53167        -0.50832
| 55>    N        8.43395       -10.69876        -1.50890
| 56>    S        9.55991       -11.35952        -2.44256
| 57>    N        9.74949       -12.73675        -1.63256
| 58>    C        9.58881       -14.90448         0.42594
| 59>    C        9.58636       -15.89138         1.39843
| 60>    C       10.54707       -16.86394         1.14269
| 61>    C       11.27564       -16.61108        -0.03839
| 62>    S       10.77989       -15.17916        -0.82349
| 63>    C       12.24596       -17.63262        -0.19447
| 64>    C       12.13293       -18.52585         0.88880
| 65>    C       11.06658       -18.07109         1.76456
| 66>    C       10.67993       -18.64236         2.94106
| 67>    C       11.31353       -19.80121         3.43767
| 68>    N       11.83628       -20.74361         3.82995
| 69>    C        9.63584       -18.12009         3.73339
| 70>    N        8.78267       -17.70978         4.37988
| 71>    C       13.08514       -19.53739         0.85778
| 72>    C       13.92930       -19.42808        -0.23591
| 73>    S       13.49997       -18.06526        -1.26043
| 74>    C       15.01280       -20.26485        -0.59775
| 75>    C       15.73959       -21.08441         0.20548
| 76>    C       16.55182       -22.17722        -0.41261
| 77>    O       16.82727       -22.28840        -1.58492
| 78>    C       16.87662       -23.08522         0.69854
| 79>    C       16.42615       -22.52894         1.90978
| 80>    C       16.59430       -23.23171         3.08978
| 81>    C       17.22330       -24.47315         3.06852
| 82>    C       17.69012       -25.01469         1.85938
| 83>    C       17.50681       -24.31334         0.67208
| 84>    C       18.37946       -26.34091         1.84305
| 85>    C       17.40144       -25.22533         4.34774
| 86>    C       15.85675       -21.21232         1.64563
| 87>    C       15.72563       -20.21484         2.57530
| 88>    C       15.40614       -18.87812         2.26667
| 89>    N       15.18497       -17.76920         2.06668
| 90>    C       15.99395       -20.38416         3.95037
| 91>    N       16.20199       -20.46076         5.07613
| 92>    H        4.12087         0.44149         2.02505
| 93>    H        3.88363         2.68054         1.59013
| 94>    H        2.89454         3.56499         2.75679
| 95>    H        2.24404         3.19047         1.16726
| 96>    H        0.68176         3.46580         3.68944
| 97>    H       -0.77405         2.47397         3.54183
| 98>    H        0.03333         3.09729         2.09797
| 99>    H       -0.45116         0.18986         3.92958
|100>    H        1.25920        -4.82816         3.94495
|101>    H        3.78195        -4.15456         1.11386
|102>    H        7.24352        -8.91019        -0.81580
|103>    H        6.44961       -12.43559         2.25666
|104>    H        8.91359       -15.86031         2.23545
|105>    H       13.15154       -20.33995         1.56971
|106>    H       15.26630       -20.30418        -1.65255
|107>    H       16.23257       -22.83697         4.02608
|108>    H       17.85404       -24.71587        -0.26773
|109>    H       17.72303       -27.11840         2.23254
|110>    H       19.26903       -26.31739         2.47164
|111>    H       18.67497       -26.60945         0.83264
|112>    H       16.98712       -24.66830         5.18327
|113>    H       18.45847       -25.40562         4.54025
|114>    H       16.90713       -26.19478         4.29435
|115> *
|116>
|117>                          ****END OF INPUT****

CARTESIAN COORDINATES (ANGSTROEM)
---------------------------------
  C      3.132840    0.380180    2.453170
  C      2.335770    1.520300    2.497890
  C      2.874540    2.810960    1.970630
  C      1.039970    1.463070    3.037060
  C      0.192750    2.693060    3.097160
  C      0.543940    0.254650    3.515500
  C      1.337780   -0.873710    3.464800
  C      2.643280   -0.817760    2.943250
  C      3.262720   -2.132290    3.069560
  C      4.612990   -2.363850    3.081460
  C      5.582020   -1.371930    2.819820
  N      6.413290   -0.606290    2.621220
  C      5.209090   -3.585370    3.451210
  N      5.754820   -4.542450    3.775250
  C      2.215180   -3.057640    3.457170
  C      1.034040   -2.249500    3.888870
  O      0.037350   -2.671030    4.428950
  C      2.114030   -4.411810    3.421070
  C      2.945640   -5.327910    2.732390
  C      3.740510   -5.102000    1.620090
  C      4.427000   -6.243910    1.224670
  C      4.155830   -7.356740    2.044320
  S      3.027650   -7.001090    3.266990
  C      4.954160   -8.441810    1.601630
  C      5.720410   -8.017380    0.501190
  C      5.417280   -6.621660    0.230850
  C      5.971590   -5.816190   -0.720030
  C      6.940330   -6.279660   -1.635080
  N      7.723000   -6.649130   -2.387010
  C      5.603620   -4.459280   -0.839290
  N      5.295520   -3.358020   -0.925800
  C      6.568550   -9.010230    0.014510
  C      6.463770  -10.182270    0.740420
  S      5.284110  -10.057580    2.037300
  C      7.222680  -11.378320    0.557170
  C      7.145930  -12.466320    1.428050
  N      7.874140  -13.567110    1.367990
  C      8.772620  -13.735150    0.408290
  C      8.927590  -12.733310   -0.586960
  C      8.148710  -11.531670   -0.508320
  N      8.433950  -10.698760   -1.508900
  S      9.559910  -11.359520   -2.442560
  N      9.749490  -12.736750   -1.632560
  C      9.588810  -14.904480    0.425940
  C      9.586360  -15.891380    1.398430
  C     10.547070  -16.863940    1.142690
  C     11.275640  -16.611080   -0.038390
  S     10.779890  -15.179160   -0.823490
  C     12.245960  -17.632620   -0.194470
  C     12.132930  -18.525850    0.888800
  C     11.066580  -18.071090    1.764560
  C     10.679930  -18.642360    2.941060
  C     11.313530  -19.801210    3.437670
  N     11.836280  -20.743610    3.829950
  C      9.635840  -18.120090    3.733390
  N      8.782670  -17.709780    4.379880
  C     13.085140  -19.537390    0.857780
  C     13.929300  -19.428080   -0.235910
  S     13.499970  -18.065260   -1.260430
  C     15.012800  -20.264850   -0.597750
  C     15.739590  -21.084410    0.205480
  C     16.551820  -22.177220   -0.412610
  O     16.827270  -22.288400   -1.584920
  C     16.876620  -23.085220    0.698540
  C     16.426150  -22.528940    1.909780
  C     16.594300  -23.231710    3.089780
  C     17.223300  -24.473150    3.068520
  C     17.690120  -25.014690    1.859380
  C     17.506810  -24.313340    0.672080
  C     18.379460  -26.340910    1.843050
  C     17.401440  -25.225330    4.347740
  C     15.856750  -21.212320    1.645630
  C     15.725630  -20.214840    2.575300
  C     15.406140  -18.878120    2.266670
  N     15.184970  -17.769200    2.066680
  C     15.993950  -20.384160    3.950370
  N     16.201990  -20.460760    5.076130
  H      4.120870    0.441490    2.025050
  H      3.883630    2.680540    1.590130
  H      2.894540    3.564990    2.756790
  H      2.244040    3.190470    1.167260
  H      0.681760    3.465800    3.689440
  H     -0.774050    2.473970    3.541830
  H      0.033330    3.097290    2.097970
  H     -0.451160    0.189860    3.929580
  H      1.259200   -4.828160    3.944950
  H      3.781950   -4.154560    1.113860
  H      7.243520   -8.910190   -0.815800
  H      6.449610  -12.435590    2.256660
  H      8.913590  -15.860310    2.235450
  H     13.151540  -20.339950    1.569710
  H     15.266300  -20.304180   -1.652550
  H     16.232570  -22.836970    4.026080
  H     17.854040  -24.715870   -0.267730
  H     17.723030  -27.118400    2.232540
  H     19.269030  -26.317390    2.471640
  H     18.674970  -26.609450    0.832640
  H     16.987120  -24.668300    5.183270
  H     18.458470  -25.405620    4.540250
  H     16.907130  -26.194780    4.294350

 Total Charge           Charge          ....    0
 Multiplicity           Mult            ....    1
 Number of Electrons    NEL             ....  550
 Basis Dimension        Dim             .... 1213

ORBITAL ENERGIES
----------------

  NO   OCC          E(Eh)            E(eV)
   0   2.0000     -89.049012     -2423.1468
   1   2.0000     -88.994413     -2421.6611
   2   2.0000     -88.994139     -2421.6536
   3   2.0000     -88.992410     -2421.6066
   4   2.0000     -88.990868     -2421.5646
   5   2.0000     -19.214687      -522.8582
   6   2.0000     -19.214066      -522.8413
   7   2.0000     -14.466079      -393.6420
   8   2.0000     -14.459666      -393.4675
   9   2.0000     -14.431756      -392.7080
  10   2.0000     -14.430955      -392.6862
  11   2.0000     -14.430055      -392.6618
  12   2.0000     -14.428429      -392.6175
  13   2.0000     -14.428114      -392.6089
  14   2.0000     -14.416161      -392.2837
  15   2.0000     -14.415738      -392.2722
  16   2.0000     -14.412017      -392.1709
  17   2.0000     -14.411878      -392.1671
  18   2.0000     -10.365718      -282.0655
  19   2.0000     -10.365566      -282.0614
  20   2.0000     -10.364855      -282.0420
  21   2.0000     -10.364609      -282.0353
  22   2.0000     -10.352738      -281.7123
  23   2.0000     -10.352134      -281.6959
  24   2.0000     -10.349746      -281.6309
  25   2.0000     -10.347978      -281.5828
  26   2.0000     -10.343824      -281.4698
  27   2.0000     -10.342713      -281.4395
  28   2.0000     -10.342239      -281.4266
  29   2.0000     -10.341505      -281.4066
  30   2.0000     -10.341204      -281.3985
  31   2.0000     -10.340259      -281.3727
  32   2.0000     -10.339641      -281.3559
  33   2.0000     -10.335034      -281.2306
  34   2.0000     -10.332652      -281.1658
  35   2.0000     -10.332100      -281.1507
  36   2.0000     -10.331369      -281.1309
  37   2.0000     -10.330177      -281.0984
  38   2.0000     -10.328989      -281.0661
  39   2.0000     -10.328827      -281.0617
  40   2.0000     -10.328364      -281.0491
  41   2.0000     -10.327043      -281.0131
  42   2.0000     -10.325904      -280.9821
  43   2.0000     -10.322794      -280.8975
  44   2.0000     -10.322647      -280.8935
  45   2.0000     -10.322363      -280.8858
  46   2.0000     -10.317883      -280.7639
  47   2.0000     -10.317631      -280.7570
  48   2.0000     -10.317300      -280.7480
  49   2.0000     -10.314551      -280.6732
  50   2.0000     -10.314549      -280.6732
  51   2.0000     -10.309488      -280.5354
  52   2.0000     -10.309343      -280.5315
  53   2.0000     -10.306257      -280.4475
  54   2.0000     -10.305837      -280.4361
  55   2.0000     -10.305587      -280.4293
  56   2.0000     -10.305455      -280.4257
  57   2.0000     -10.303176      -280.3637
  58   2.0000     -10.301141      -280.3083
  59   2.0000     -10.300789      -280.2987
  60   2.0000     -10.299953      -280.2760
  61   2.0000     -10.299080      -280.2522
  62   2.0000     -10.297817      -280.2178
  63   2.0000     -10.296429      -280.1801
  64   2.0000     -10.296178      -280.1732
  65   2.0000     -10.296053      -280.1699
  66   2.0000     -10.295802      -280.1630
  67   2.0000     -10.289075      -279.9800
  68   2.0000     -10.288546      -279.9656
  69   2.0000     -10.288012      -279.9510
  70   2.0000     -10.287544      -279.9383
  71   2.0000     -10.287320      -279.9322
  72   2.0000     -10.286885      -279.9204
  73   2.0000     -10.276489      -279.6375
  74   2.0000     -10.276305      -279.6325
  75   2.0000     -10.273928      -279.5678
  76   2.0000     -10.273844      -279.5655
  77   2.0000      -8.140392      -221.5113
  78   2.0000      -8.089112      -220.1159
  79   2.0000      -8.088870      -220.1093
  80   2.0000      -8.086821      -220.0536
  81   2.0000      -8.084480      -219.9899
  82   2.0000      -6.111592      -166.3049
  83   2.0000      -6.103730      -166.0909
  84   2.0000      -6.102917      -166.0688
  85   2.0000      -6.058252      -164.8534
  86   2.0000      -6.058018      -164.8471
  87   2.0000      -6.056069      -164.7940
  88   2.0000      -6.054118      -164.7409
  89   2.0000      -6.053867      -164.7341
  90   2.0000      -6.053781      -164.7317
  91   2.0000      -6.051885      -164.6802
  92   2.0000      -6.051615      -164.6728
  93   2.0000      -6.051367      -164.6661
  94   2.0000      -6.049306      -164.6100
  95   2.0000      -6.049244      -164.6083
  96   2.0000      -6.047037      -164.5482
  97   2.0000      -1.149317       -31.2745
  98   2.0000      -1.129711       -30.7410
  99   2.0000      -1.129049       -30.7230
 100   2.0000      -1.064838       -28.9757
 101   2.0000      -1.047790       -28.5118
 102   2.0000      -1.046372       -28.4732
 103   2.0000      -1.022990       -27.8370
 104   2.0000      -1.021961       -27.8090
 105   2.0000      -1.017993       -27.7010
 106   2.0000      -1.017584       -27.6899
 107   2.0000      -1.009482       -27.4694
 108   2.0000      -1.008046       -27.4303
 109   2.0000      -1.006997       -27.4018
 110   2.0000      -0.999710       -27.2035
 111   2.0000      -0.996185       -27.1076
 112   2.0000      -0.995978       -27.1019
 113   2.0000      -0.995568       -27.0908
 114   2.0000      -0.990765       -26.9601
 115   2.0000      -0.990576       -26.9549
 116   2.0000      -0.963876       -26.2284
 117   2.0000      -0.961656       -26.1680
 118   2.0000      -0.953819       -25.9547
 119   2.0000      -0.953716       -25.9519
 120   2.0000      -0.929887       -25.3035
 121   2.0000      -0.921133       -25.0653
 122   2.0000      -0.913723       -24.8637
 123   2.0000      -0.904469       -24.6118
 124   2.0000      -0.903762       -24.5926
 125   2.0000      -0.897771       -24.4296
 126   2.0000      -0.888938       -24.1892
 127   2.0000      -0.882454       -24.0128
 128   2.0000      -0.871212       -23.7069
 129   2.0000      -0.870910       -23.6987
 130   2.0000      -0.869753       -23.6672
 131   2.0000      -0.863666       -23.5015
 132   2.0000      -0.858093       -23.3499
 133   2.0000      -0.857451       -23.3324
 134   2.0000      -0.839327       -22.8393
 135   2.0000      -0.831322       -22.6214
 136   2.0000      -0.814650       -22.1678
 137   2.0000      -0.808115       -21.9899
 138   2.0000      -0.807779       -21.9808
 139   2.0000      -0.784159       -21.3380
 140   2.0000      -0.781679       -21.2706
 141   2.0000      -0.778729       -21.1903
 142   2.0000      -0.773070       -21.0363
 143   2.0000      -0.756445       -20.5839
 144   2.0000      -0.755725       -20.5643
 145   2.0000      -0.749507       -20.3951
 146   2.0000      -0.744830       -20.2679
 147   2.0000      -0.738597       -20.0982
 148   2.0000      -0.723960       -19.7000
 149   2.0000      -0.709057       -19.2944
 150   2.0000      -0.706675       -19.2296
 151   2.0000      -0.704615       -19.1736
 152   2.0000      -0.695208       -18.9176
 153   2.0000      -0.692497       -18.8438
 154   2.0000      -0.686029       -18.6678
 155   2.0000      -0.682662       -18.5762
 156   2.0000      -0.681424       -18.5425
 157   2.0000      -0.675163       -18.3721
 158   2.0000      -0.670113       -18.2347
 159   2.0000      -0.665629       -18.1127
 160   2.0000      -0.651762       -17.7354
 161   2.0000      -0.648836       -17.6557
 162   2.0000      -0.642985       -17.4965
 163   2.0000      -0.636666       -17.3246
 164   2.0000      -0.632276       -17.2051
 165   2.0000      -0.624902       -17.0044
 166   2.0000      -0.620335       -16.8802
 167   2.0000      -0.617048       -16.7907
 168   2.0000      -0.614761       -16.7285
 169   2.0000      -0.610262       -16.6061
 170   2.0000      -0.608507       -16.5583
 171   2.0000      -0.598645       -16.2900
 172   2.0000      -0.592523       -16.1234
 173   2.0000      -0.586743       -15.9661
 174   2.0000      -0.584827       -15.9139
 175   2.0000      -0.576596       -15.6900
 176   2.0000      -0.575468       -15.6593
 177   2.0000      -0.572581       -15.5807
 178   2.0000      -0.560820       -15.2607
 179   2.0000      -0.556241       -15.1361
 180   2.0000      -0.550174       -14.9710
 181   2.0000      -0.549768       -14.9600
 182   2.0000      -0.548476       -14.9248
 183   2.0000      -0.546702       -14.8765
 184   2.0000      -0.539758       -14.6876
 185   2.0000      -0.539251       -14.6738
 186   2.0000      -0.537450       -14.6248
 187   2.0000      -0.535137       -14.5618
 188   2.0000      -0.530418       -14.4334
 189   2.0000      -0.524481       -14.2719
 190   2.0000      -0.523958       -14.2576
 191   2.0000      -0.523445       -14.2437
 192   2.0000      -0.521301       -14.1853
 193   2.0000      -0.518089       -14.0979
 194   2.0000      -0.517324       -14.0771
 195   2.0000      -0.513317       -13.9681
 196   2.0000      -0.511767       -13.9259
 197   2.0000      -0.509377       -13.8608
 198   2.0000      -0.506677       -13.7874
 199   2.0000      -0.505026       -13.7425
 200   2.0000      -0.501705       -13.6521
 201   2.0000      -0.500655       -13.6235
 202   2.0000      -0.499916       -13.6034
 203   2.0000      -0.495824       -13.4921
 204   2.0000      -0.494995       -13.4695
 205   2.0000      -0.491577       -13.3765
 206   2.0000      -0.489613       -13.3230
 207   2.0000      -0.488371       -13.2893
 208   2.0000      -0.488144       -13.2831
 209   2.0000      -0.487194       -13.2572
 210   2.0000      -0.483620       -13.1600
 211   2.0000      -0.478928       -13.0323
 212   2.0000      -0.477446       -12.9920
 213   2.0000      -0.476372       -12.9627
 214   2.0000      -0.475786       -12.9468
 215   2.0000      -0.473691       -12.8898
 216   2.0000      -0.472186       -12.8488
 217   2.0000      -0.471801       -12.8384
 218   2.0000      -0.471264       -12.8237
 219   2.0000      -0.462274       -12.5791
 220   2.0000      -0.461521       -12.5586
 221   2.0000      -0.458929       -12.4881
 222   2.0000      -0.458807       -12.4848
 223   2.0000      -0.457020       -12.4361
 224   2.0000      -0.452999       -12.3267
 225   2.0000      -0.452095       -12.3021
 226   2.0000      -0.449735       -12.2379
 227   2.0000      -0.448893       -12.2150
 228   2.0000      -0.447443       -12.1756
 229   2.0000      -0.445067       -12.1109
 230   2.0000      -0.444468       -12.0946
 231   2.0000      -0.443496       -12.0681
 232   2.0000      -0.442708       -12.0467
 233   2.0000      -0.442136       -12.0311
 234   2.0000      -0.440962       -11.9992
 235   2.0000      -0.440642       -11.9905
 236   2.0000      -0.439805       -11.9677
 237   2.0000      -0.439225       -11.9519
 238   2.0000      -0.439085       -11.9481
 239   2.0000      -0.438486       -11.9318
 240   2.0000      -0.436778       -11.8853
 241   2.0000      -0.436731       -11.8841
 242   2.0000      -0.427620       -11.6361
 243   2.0000      -0.426577       -11.6078
 244   2.0000      -0.425567       -11.5803
 245   2.0000      -0.425441       -11.5768
 246   2.0000      -0.425342       -11.5741
 247   2.0000      -0.421612       -11.4726
 248   2.0000      -0.417717       -11.3666
 249   2.0000      -0.416327       -11.3288
 250   2.0000      -0.414062       -11.2672
 251   2.0000      -0.407151       -11.0791
 252   2.0000      -0.406936       -11.0733
 253   2.0000      -0.403569       -10.9817
 254   2.0000      -0.403498       -10.9797
 255   2.0000      -0.387094       -10.5334
 256   2.0000      -0.384965       -10.4754
 257   2.0000      -0.377899       -10.2832
 258   2.0000      -0.371221       -10.1014
 259   2.0000      -0.361025        -9.8240
 260   2.0000      -0.355683        -9.6786
 261   2.0000      -0.349580        -9.5125
 262   2.0000      -0.348504        -9.4833
 263   2.0000      -0.343733        -9.3534
 264   2.0000      -0.336820        -9.1653
 265   2.0000      -0.336302        -9.1512
 266   2.0000      -0.333088        -9.0638
 267   2.0000      -0.330520        -8.9939
 268   2.0000      -0.324288        -8.8243
 269   2.0000      -0.322025        -8.7628
 270   2.0000      -0.312692        -8.5088
 271   2.0000      -0.306792        -8.3482
 272   2.0000      -0.304115        -8.2754
 273   2.0000      -0.276068        -7.5122
 274   2.0000      -0.250010        -6.8031
 275   0.0000      -0.117517        -3.1978
 276   0.0000      -0.106261        -2.8915
 277   0.0000      -0.089712        -2.4412
 278   0.0000      -0.083682        -2.2771
 279   0.0000      -0.080980        -2.2036

MULLIKEN ATOMIC CHARGES
-----------------------
   0 C :   -0.068833
   1 C :   -0.086156
   2 C :    0.117635
   3 C :   -0.080592
   4 C :    0.118696
   5 C :   -0.075294
   6 C :    0.006658
   7 C :    0.020578
   8 C :    0.274241
   9 C :   -0.339540
  10 C :   -0.171788
  11 N :    0.157065
  12 C :   -0.193852
  13 N :    0.165026
  14 C :   -0.133775
  15 C :    0.135481
  16 O :   -0.142987
  17 C :    0.074660
  18 C :   -0.120920
  19 C :   -0.002088
  20 C :   -0.003846
  21 C :   -0.072390
  22 S :    0.216946
  23 C :   -0.092969
  24 C :    0.031822
  25 C :    0.308214
  26 C :   -0.290227
  27 C :   -0.185149
  28 N :    0.172479
  29 C :   -0.187748
  30 N :    0.170159
  31 C :   -0.062084
  32 C :   -0.094703
  33 S :    0.180151
  34 C :    0.073791
  35 C :   -0.058897
  36 N :   -0.025458
  37 C :    0.014211
  38 C :   -0.011687
  39 C :    0.057334
  40 N :   -0.280606
  41 S :    0.556212
  42 N :   -0.293880
  43 C :   -0.095479
  44 C :   -0.061240
  45 C :    0.040808
  46 C :   -0.085352
  47 S :    0.227924
  48 C :   -0.072482
  49 C :   -0.002795
  50 C :    0.304561
  51 C :   -0.291616
  52 C :   -0.185450
  53 N :    0.169851
  54 C :   -0.193150
  55 N :    0.182453
  56 C :   -0.006860
  57 C :   -0.115398
  58 S :    0.216205
  59 C :    0.073668
  60 C :   -0.127754
  61 C :    0.133766
  62 O :   -0.143000
  63 C :    0.011831
  64 C :    0.019803
  65 C :   -0.074538
  66 C :   -0.081818
  67 C :   -0.076476
  68 C :   -0.083419
  69 C :    0.118074
  70 C :    0.118782
  71 C :    0.267930
  72 C :   -0.331215
  73 C :   -0.196327
  74 N :    0.165931
  75 C :   -0.174030
  76 N :    0.159255
  77 H :   -0.006877
  78 H :    0.025664
  79 H :    0.028959
  80 H :    0.027234
  81 H :    0.029086
  82 H :    0.015783
  83 H :    0.027974
  84 H :   -0.018179
  85 H :    0.022370
  86 H :    0.025079
  87 H :    0.021474
  88 H :    0.013458
  89 H :    0.021025
  90 H :    0.025920
  91 H :    0.021577
  92 H :   -0.004345
  93 H :   -0.018035
  94 H :    0.027883
  95 H :    0.029129
  96 H :    0.016160
  97 H :    0.025858
  98 H :    0.028143
  99 H :    0.026323
Sum of atomic charges:   -0.0000000

LOEWDIN ATOMIC CHARGES
----------------------
   0 C :   -0.004313
   1 C :   -0.001580
   2 C :   -0.041691
   3 C :   -0.006851
   4 C :   -0.042494
   5 C :    0.007938
   6 C :   -0.050678
   7 C :   -0.014691
   8 C :    0.068256
   9 C :   -0.136895
  10 C :   -0.018384
  11 N :   -0.048454
  12 C :   -0.015829
  13 N :   -0.049879
  14 C :   -0.086202
  15 C :    0.083540
  16 O :   -0.143420
  17 C :    0.038812
  18 C :   -0.181868
  19 C :    0.002760
  20 C :   -0.065531
  21 C :   -0.160626
  22 S :    0.500707
  23 C :   -0.179038
  24 C :   -0.061338
  25 C :    0.083307
  26 C :   -0.097981
  27 C :   -0.016698
  28 N :   -0.029767
  29 C :   -0.013519
  30 N :   -0.033838
  31 C :   -0.020208
  32 C :   -0.155601
  33 S :    0.482661
  34 C :   -0.070313
  35 C :    0.013167
  36 N :   -0.061473
  37 C :   -0.002063
  38 C :   -0.070154
  39 C :   -0.029686
  40 N :   -0.274014
  41 S :    0.679155
  42 N :   -0.288459
  43 C :   -0.178161
  44 C :    0.005953
  45 C :   -0.064271
  46 C :   -0.179265
  47 S :    0.519971
  48 C :   -0.162568
  49 C :   -0.062717
  50 C :    0.081985
  51 C :   -0.098432
  52 C :   -0.012911
  53 N :   -0.034821
  54 C :   -0.018704
  55 N :   -0.026547
  56 C :    0.002013
  57 C :   -0.179451
  58 S :    0.500273
  59 C :    0.038155
  60 C :   -0.084495
  61 C :    0.083799
  62 O :   -0.143198
  63 C :   -0.050712
  64 C :   -0.014583
  65 C :   -0.004292
  66 C :   -0.001054
  67 C :   -0.006791
  68 C :    0.007934
  69 C :   -0.042449
  70 C :   -0.041327
  71 C :    0.067592
  72 C :   -0.135869
  73 C :   -0.015930
  74 N :   -0.048813
  75 C :   -0.018690
  76 N :   -0.047143
  77 H :    0.037569
  78 H :    0.036577
  79 H :    0.039097
  80 H :    0.038005
  81 H :    0.038923
  82 H :    0.032866
  83 H :    0.038425
  84 H :    0.036088
  85 H :    0.045785
  86 H :    0.042422
  87 H :    0.039767
  88 H :    0.020288
  89 H :    0.047279
  90 H :    0.042277
  91 H :    0.045727
  92 H :    0.037897
  93 H :    0.035989
  94 H :    0.038522
  95 H :    0.038871
  96 H :    0.032838
  97 H :    0.036656
  98 H :    0.038938
  99 H :    0.037945

  Mayer bond orders larger than 0.100000
B(  0-C ,  1-C ) :   1.3776 B(  0-C ,  7-C ) :   1.3528 B(  0-C , 77-H ) :   0.9861
B(  1-C ,  2-C ) :   1.0956 B(  1-C ,  3-C ) :   1.3730 B(  2-C , 78-H ) :   0.9503
B(  2-C , 79-H ) :   0.9388 B(  2-C , 80-H ) :   0.9400 B(  3-C ,  4-C ) :   1.0946
B(  3-C ,  5-C ) :   1.3569 B(  4-C , 81-H ) :   0.9402 B(  4-C , 82-H ) :   0.9511
B(  4-C , 83-H ) :   0.9399 B(  5-C ,  6-C ) :   1.3620 B(  5-C , 84-H ) :   1.0085
B(  6-C ,  7-C ) :   1.3334 B(  6-C , 15-C ) :   0.9238 B(  7-C ,  8-C ) :   1.0006
B(  8-C ,  9-C ) :   1.6538 B(  8-C , 14-C ) :   1.0242 B(  9-C , 10-C ) :   1.1296
B(  9-C , 12-C ) :   1.1679 B( 10-C , 11-N ) :   2.9922 B( 12-C , 13-N ) :   2.9998
B( 14-C , 15-C ) :   0.9345 B( 14-C , 17-C ) :   1.7004 B( 15-C , 16-O ) :   2.2683
B( 17-C , 18-C ) :   1.1067 B( 17-C , 85-H ) :   0.9313 B( 18-C , 19-C ) :   1.4146
B( 18-C , 22-S ) :   1.0934 B( 19-C , 20-C ) :   1.3460 B( 19-C , 86-H ) :   0.9846
B( 20-C , 21-C ) :   1.4203 B( 20-C , 25-C ) :   0.9960 B( 21-C , 22-S ) :   1.1507
B( 21-C , 23-C ) :   1.1893 B( 23-C , 24-C ) :   1.4387 B( 23-C , 33-S ) :   1.1222
B( 24-C , 25-C ) :   0.9943 B( 24-C , 31-C ) :   1.2519 B( 25-C , 26-C ) :   1.7171
B( 26-C , 27-C ) :   1.1334 B( 26-C , 29-C ) :   1.1344 B( 27-C , 28-N ) :   2.9881
B( 29-C , 30-N ) :   2.9834 B( 31-C , 32-C ) :   1.4784 B( 31-C , 87-H ) :   0.9858
B( 32-C , 33-S ) :   1.1009 B( 32-C , 34-C ) :   1.1163 B( 34-C , 35-C ) :   1.3983
B( 34-C , 37-C ) :   0.1020 B( 34-C , 39-C ) :   1.2163 B( 35-C , 36-N ) :   1.4705
B( 35-C , 88-H ) :   0.9776 B( 36-N , 37-C ) :   1.6647 B( 37-C , 38-C ) :   1.1336
B( 37-C , 43-C ) :   1.1341 B( 38-C , 39-C ) :   1.1932 B( 38-C , 42-N ) :   1.5170
B( 39-C , 40-N ) :   1.5111 B( 40-N , 41-S ) :   1.2721 B( 40-N , 42-N ) :   0.1469
B( 41-S , 42-N ) :   1.2729 B( 43-C , 44-C ) :   1.4123 B( 43-C , 47-S ) :   1.1219
B( 44-C , 45-C ) :   1.2665 B( 44-C , 89-H ) :   1.0145 B( 45-C , 46-C ) :   1.4069
B( 45-C , 50-C ) :   0.9915 B( 46-C , 47-S ) :   1.1156 B( 46-C , 48-C ) :   1.1973
B( 48-C , 49-C ) :   1.4163 B( 48-C , 58-S ) :   1.1487 B( 49-C , 50-C ) :   1.0012
B( 49-C , 56-C ) :   1.3452 B( 50-C , 51-C ) :   1.7185 B( 51-C , 52-C ) :   1.1355
B( 51-C , 54-C ) :   1.1341 B( 52-C , 53-N ) :   2.9816 B( 54-C , 55-N ) :   3.0010
B( 56-C , 57-C ) :   1.4142 B( 56-C , 90-H ) :   0.9836 B( 57-C , 58-S ) :   1.0957
B( 57-C , 59-C ) :   1.1084 B( 59-C , 60-C ) :   1.7007 B( 59-C , 91-H ) :   0.9319
B( 60-C , 61-C ) :   0.9339 B( 60-C , 71-C ) :   1.0239 B( 61-C , 62-O ) :   2.2681
B( 61-C , 63-C ) :   0.9249 B( 63-C , 64-C ) :   1.3328 B( 63-C , 68-C ) :   1.3571
B( 64-C , 65-C ) :   1.3534 B( 64-C , 71-C ) :   1.0000 B( 65-C , 66-C ) :   1.3753
B( 65-C , 92-H ) :   0.9873 B( 66-C , 67-C ) :   1.3721 B( 66-C , 70-C ) :   1.0948
B( 67-C , 68-C ) :   1.3568 B( 67-C , 69-C ) :   1.0941 B( 68-C , 93-H ) :   1.0108
B( 69-C , 94-H ) :   0.9398 B( 69-C , 95-H ) :   0.9404 B( 69-C , 96-H ) :   0.9517
B( 70-C , 97-H ) :   0.9507 B( 70-C , 98-H ) :   0.9387 B( 70-C , 99-H ) :   0.9400
B( 71-C , 72-C ) :   1.6572 B( 72-C , 73-C ) :   1.1662 B( 72-C , 75-C ) :   1.1277
B( 73-C , 74-N ) :   3.0011 B( 75-C , 76-N ) :   2.9946

-----------------------------------------------------------------------------
         ABSORPTION SPECTRUM VIA TRANSITION ELECTRIC DIPOLE MOMENTS
-----------------------------------------------------------------------------
State   Energy  Wavelength   fosc         T2         TX        TY        TZ
        (cm-1)    (nm)                  (au**2)     (au)      (au)      (au)
-----------------------------------------------------------------------------
   0   12803.1    781.1   0.794723838  20.43503  -2.47268   3.76449   0.38666
   1   14144.0    707.0   0.097107178   2.26024   1.01689  -1.05410   0.33921
   2   17690.8    565.3   0.976546554  18.17279  -2.22303   3.63602   0.10152
   3   20877.6    479.0   0.183611678   2.89531   0.78922   0.85498   1.24155
   4   21327.4    468.9   0.092677452   1.43058  -0.81865   0.84161  -0.22818
   5   21791.9    458.9   0.060644164   0.91616   0.76850  -0.56973  -0.03121
   6   23806.1    420.1   0.001257144   0.01738   0.11517   0.05858  -0.02624
   7   26703.3    374.5   0.026562345   0.32747  -0.06226  -0.49137   0.28663
   8   26878.9    372.0   0.001832692   0.02245   0.08091   0.02731  -0.12310
   9   27029.4    370.0   0.020008140   0.24369  -0.23869  -0.24241  -0.35771
  10   28310.5    353.2   0.327307183   3.80612  -1.24487   1.39849   0.54833
  11   28748.9    347.8   0.032129802   0.36793   0.42943  -0.29637  -0.30932
  12   29087.0    343.8   0.292281996   3.30810   1.23192  -0.77688  -1.08946
  13   29519.8    338.8   0.127485107   1.42175  -0.57216   0.99810  -0.31333
  14   29712.9    336.6   0.013048471   0.14457  -0.15360  -0.07664   0.33928
  15   30022.4    333.1   0.054862055   0.60159   0.09025   0.64462  -0.42180
  16   30114.8    332.1   0.329987837   3.60739  -0.33234  -1.54932   1.04716
  17   30231.6    330.8   0.166143895   1.80925  -0.34701   0.86360  -0.97109
  18   30588.6    326.9   0.030914663   0.33272  -0.19798  -0.51338   0.17310
  19   30786.0    324.8   0.064164809   0.68615  -0.18444   0.56402  -0.57794
  20   31049.6    322.1   0.066295813   0.70292   0.69912   0.46029   0.04786
  21   31432.9    318.1   0.690924544   7.23639   1.39537  -2.29481  -0.15218
  22   31864.9    313.8   0.037861284   0.39116   0.40601   0.45788  -0.12910
  23   32078.0    311.7   0.154434322   1.58494  -0.54243   1.13341  -0.07797
  24   32806.6    304.8   0.042995134   0.43145   0.51896  -0.04706  -0.39989
  25   33178.5    301.4   0.419617584   4.16363   0.62012  -1.83635   0.63790
  26   33305.8    300.2   0.026444910   0.26140  -0.36608  -0.35181   0.06010
  27   33353.1    299.8   0.230495774   2.27511  -0.61325  -0.50204   1.28335
  28   33697.3    296.8   0.158495197   1.54845   0.75344  -0.90595  -0.40005
  29   33806.1    295.8   0.114738148   1.11735  -0.45703   0.21185   0.92929
  30   33872.5    295.2   0.046488969   0.45183   0.50142  -0.35483   0.27296
  31   34210.3    292.3   0.203503132   1.95835   0.97687  -0.49455  -0.87149
  32   34893.4    286.6   0.068900333   0.65006   0.45642   0.08051  -0.65974
  33   35032.5    285.4   0.072814417   0.68426  -0.55199   0.15992   0.59497
  34   35116.3    284.8   0.111331948   1.04373   0.70593  -0.05890  -0.73615
  35   35220.1    283.9   0.121373340   1.13451  -0.40231   0.95380  -0.25086
  36   35786.2    279.4   0.015477827   0.14239  -0.33367   0.04056   0.17148
  37   36116.2    276.9   0.026904416   0.24524   0.05274   0.48263   0.09761
  38   36428.1    274.5   0.036162340   0.32681   0.38376  -0.42124  -0.04575
  39   36727.3    272.3   0.111739581   1.00160  -0.94866  -0.17893  -0.26388
  40   36792.1    271.8   0.612357201   5.47930  -1.33720   1.81662   0.62537
  41   36963.4    270.5   0.079344560   0.70668   0.48897  -0.65730  -0.18853
  42   37370.0    267.6   0.005178428   0.04562  -0.14489   0.01079   0.15655
  43   37504.6    266.6   0.080006240   0.70229   0.51354  -0.65619  -0.08931
  44   37696.6    265.3   0.070772398   0.61807  -0.28988  -0.36805   0.63133
  45   37775.2    264.7   0.037240511   0.32455   0.43346  -0.15323  -0.33643
  46   37947.6    263.5   0.003075235   0.02668   0.02064  -0.03549   0.15809
  47   38094.5    262.5   0.013520666   0.11685  -0.18244   0.04439   0.28564
  48   38211.9    261.7   0.062971179   0.54252   0.68903  -0.07167  -0.25024
  49   38354.5    260.7   0.207186145   1.77836  -0.93768   0.66844   0.67254
  50   38740.4    258.1   0.055723814   0.47354   0.52358   0.13955   0.42418
  51   38829.7    257.5   0.031783331   0.26947   0.28906   0.36830  -0.22422
  52   38906.0    257.0   0.032297066   0.27329   0.21410  -0.32820  -0.34603
  53   38928.6    256.9   0.028504454   0.24106  -0.13502  -0.32896   0.33855
  54   39140.6    255.5   0.039485896   0.33212   0.07617  -0.21900  -0.52759
  55   39423.3    253.7   0.002610180   0.02180   0.07729   0.00002  -0.12579
  56   39719.9    251.8   0.005215790   0.04323  -0.19527   0.05600  -0.04432
  57   39946.7    250.3   0.036039697   0.29701   0.16009   0.07419  -0.51564
  58   40040.7    249.7   0.013173975   0.10832  -0.20549  -0.01951  -0.25633
  59   40256.1    248.4   0.012205697   0.09982  -0.03445  -0.30019  -0.09228

FINAL SINGLE POINT ENERGY     -5001.167859034135

DIPOLE MOMENT
-------------
                                X             Y             Z
Electronic contribution:     -7.48730      -5.68585     -20.78801
Nuclear contribution   :      6.08307       4.79930      18.93440
                        -----------------------------------------
Total Dipole Moment    :     -1.40423      -0.88655      -1.85361
                        -----------------------------------------
Magnitude (a.u.)       :      2.48872
Magnitude (Debye)      :      6.32581

Rotational constants in cm-1:     0.002737     0.000170     0.000166
Rotational constants in MHz :    82.052715     5.096138     4.985545

                             ****ORCA TERMINATED NORMALLY****
TOTAL RUN TIME: 0 days 0 hours 11 minutes 42 seconds 96 msec
