                         Program Version 4.2.0 -  RELEASE  -
|  1> # ORCA input file
|  2> # SCF done       -176.196394620612          0.000771058617
|  3> ! CAM-B3LYP def2-SVP def2/J RIJCOSX Grid4 TightSCF
|  4> %maxcore 5000
|  5> %tddft
|  6>     Mode sTDDFT
|  7>     Ethresh 5.0
|  8>     maxcore 5000
|  9> end
| 10>
| 11> %pal
| 12>   nprocs 6
| 13>   end
| 14> * xyz 0 1
| 15>    C       -2.02499        -7.06979        -6.41228
| 16>    C       -2.53578        -8.16703        -7.10175
| 17>    C       -3.59282        -7.95160        -8.13776
| 18>    C       -2.06741        -9.46076        -6.82952
| 19>    C       -2.61900       -10.63701        -7.57037
| 20>    C       -1.08417        -9.64636        -5.86251
| 21>    C       -0.58390        -8.55446        -5.18415
| 22>    C       -1.04878        -7.25580        -5.44965
| 23>    C       -0.35145        -6.31484        -4.57447
| 24>    C       -0.59281        -4.96256        -4.51266
| 25>    C       -1.53248        -4.29181        -5.32029
| 26>    N       -2.27903        -3.68351        -5.94690
| 27>    C        0.02740        -4.05484        -3.63094
| 28>    N        0.47021        -3.25272        -2.93714
| 29>    C        0.58501        -7.07192        -3.78124
| 30>    C        0.44751        -8.50467        -4.13211
| 31>    O        1.05154        -9.44981        -3.66177
| 32>    C        1.47643        -6.57128        -2.85621
| 33>    C        2.33097        -7.34484        -2.07466
| 34>    C        3.18103        -6.80878        -1.12616
| 35>    C        4.01216        -7.52963        -0.24080
| 36>    C        4.69999        -6.74449         0.64011
| 37>    C        4.45686        -5.36619         0.47659
| 38>    S        3.33201        -5.08980        -0.82883
| 39>    C        4.97447        -4.31675         1.22719
| 40>    C        5.77257        -4.39919         2.38536
| 41>    C        6.05767        -3.18346         2.93593
| 42>    C        5.52862        -2.08358         2.22057
| 43>    S        4.64079        -2.65447         0.82774
| 44>    C        5.64522        -0.76978         2.63665
| 45>    C        5.27850         0.41317         1.99461
| 46>    C        4.95141         0.71685         0.66674
| 47>    F        4.93934        -0.19018        -0.31437
| 48>    C        4.70760         2.05819         0.41917
| 49>    F        4.35390         2.49259        -0.79407
| 50>    C        4.81111         2.89218         1.53986
| 51>    S        5.24353         1.90082         2.91817
| 52>    C        4.61967         4.26024         1.73521
| 53>    C        4.50881         5.28989         0.81942
| 54>    C        4.25107         6.63395         1.17970
| 55>    C        4.26656         7.50873         0.13271
| 56>    C        4.55864         6.89853        -1.10348
| 57>    S        4.76751         5.18015        -0.90562
| 58>    C        4.71329         7.51357        -2.33954
| 59>    C        4.58150         8.88297        -2.64546
| 60>    C        4.84827         9.18055        -3.95121
| 61>    C        5.20859         8.06163        -4.73385
| 62>    S        5.16636         6.60885        -3.76199
| 63>    C        5.56280         8.07252        -6.06951
| 64>    C        5.95017         6.93165        -6.76624
| 65>    C        6.33981         6.81547        -8.08049
| 66>    C        7.11051         5.61106        -8.48690
| 67>    O        7.25527         4.59435        -7.84334
| 68>    C        7.69342         5.94862        -9.79773
| 69>    C        7.23424         7.21468       -10.19989
| 70>    C        7.68979         7.75508       -11.38867
| 71>    C        8.58666         7.03643       -12.17604
| 72>    C        9.02725         5.76629       -11.77620
| 73>    C        8.57466         5.22744       -10.57570
| 74>    C        9.98164         4.99174       -12.62832
| 75>    C        9.07693         7.63281       -13.45716
| 76>    C        6.28562         7.71403        -9.20234
| 77>    C        5.38946         8.73500        -9.41632
| 78>    C        4.29899         9.03907        -8.57860
| 79>    N        3.36926         9.31748        -7.96377
| 80>    C        5.38774         9.54786       -10.56684
| 81>    N        5.34750        10.25849       -11.46890
| 82>    H       -2.40106        -6.08595        -6.64213
| 83>    H       -3.85086        -6.89879        -8.21139
| 84>    H       -4.49239        -8.51433        -7.89001
| 85>    H       -3.24865        -8.29457        -9.11317
| 86>    H       -2.46370       -10.52213        -8.64268
| 87>    H       -3.69186       -10.72689        -7.40163
| 88>    H       -2.13866       -11.55612        -7.24597
| 89>    H       -0.70922       -10.63365        -5.63666
| 90>    H        1.51749        -5.49912        -2.70736
| 91>    H        2.31495        -8.41917        -2.19067
| 92>    H        4.06723        -8.60311        -0.27404
| 93>    H        5.37319        -7.12213         1.38852
| 94>    H        6.09765        -5.33870         2.79381
| 95>    H        6.63955        -3.04280         3.82958
| 96>    H        6.06526        -0.63428         3.62603
| 97>    H        4.58635         4.56437         2.77454
| 98>    H        4.05898         6.91271         2.20067
| 99>    H        4.08903         8.56471         0.22490
|100>    H        4.29814         9.60974        -1.90576
|101>    H        4.79564        10.16705        -4.37581
|102>    H        5.56700         9.03509        -6.55864
|103>    H        6.05149         6.01542        -6.19042
|104>    H        7.37031         8.73211       -11.71496
|105>    H        8.90386         4.25314       -10.24648
|106>    H       10.90900         5.54673       -12.76761
|107>    H        9.55534         4.81103       -13.61459
|108>    H       10.21536         4.03446       -12.17048
|109>    H        8.63974         8.61438       -13.61780
|110>    H        8.81597         6.99411       -14.30033
|111>    H       10.16204         7.73175       -13.44299
|112> *
|113>
|114>                          ****END OF INPUT****

CARTESIAN COORDINATES (ANGSTROEM)
---------------------------------
  C     -2.024990   -7.069790   -6.412280
  C     -2.535780   -8.167030   -7.101750
  C     -3.592820   -7.951600   -8.137760
  C     -2.067410   -9.460760   -6.829520
  C     -2.619000  -10.637010   -7.570370
  C     -1.084170   -9.646360   -5.862510
  C     -0.583900   -8.554460   -5.184150
  C     -1.048780   -7.255800   -5.449650
  C     -0.351450   -6.314840   -4.574470
  C     -0.592810   -4.962560   -4.512660
  C     -1.532480   -4.291810   -5.320290
  N     -2.279030   -3.683510   -5.946900
  C      0.027400   -4.054840   -3.630940
  N      0.470210   -3.252720   -2.937140
  C      0.585010   -7.071920   -3.781240
  C      0.447510   -8.504670   -4.132110
  O      1.051540   -9.449810   -3.661770
  C      1.476430   -6.571280   -2.856210
  C      2.330970   -7.344840   -2.074660
  C      3.181030   -6.808780   -1.126160
  C      4.012160   -7.529630   -0.240800
  C      4.699990   -6.744490    0.640110
  C      4.456860   -5.366190    0.476590
  S      3.332010   -5.089800   -0.828830
  C      4.974470   -4.316750    1.227190
  C      5.772570   -4.399190    2.385360
  C      6.057670   -3.183460    2.935930
  C      5.528620   -2.083580    2.220570
  S      4.640790   -2.654470    0.827740
  C      5.645220   -0.769780    2.636650
  C      5.278500    0.413170    1.994610
  C      4.951410    0.716850    0.666740
  F      4.939340   -0.190180   -0.314370
  C      4.707600    2.058190    0.419170
  F      4.353900    2.492590   -0.794070
  C      4.811110    2.892180    1.539860
  S      5.243530    1.900820    2.918170
  C      4.619670    4.260240    1.735210
  C      4.508810    5.289890    0.819420
  C      4.251070    6.633950    1.179700
  C      4.266560    7.508730    0.132710
  C      4.558640    6.898530   -1.103480
  S      4.767510    5.180150   -0.905620
  C      4.713290    7.513570   -2.339540
  C      4.581500    8.882970   -2.645460
  C      4.848270    9.180550   -3.951210
  C      5.208590    8.061630   -4.733850
  S      5.166360    6.608850   -3.761990
  C      5.562800    8.072520   -6.069510
  C      5.950170    6.931650   -6.766240
  C      6.339810    6.815470   -8.080490
  C      7.110510    5.611060   -8.486900
  O      7.255270    4.594350   -7.843340
  C      7.693420    5.948620   -9.797730
  C      7.234240    7.214680  -10.199890
  C      7.689790    7.755080  -11.388670
  C      8.586660    7.036430  -12.176040
  C      9.027250    5.766290  -11.776200
  C      8.574660    5.227440  -10.575700
  C      9.981640    4.991740  -12.628320
  C      9.076930    7.632810  -13.457160
  C      6.285620    7.714030   -9.202340
  C      5.389460    8.735000   -9.416320
  C      4.298990    9.039070   -8.578600
  N      3.369260    9.317480   -7.963770
  C      5.387740    9.547860  -10.566840
  N      5.347500   10.258490  -11.468900
  H     -2.401060   -6.085950   -6.642130
  H     -3.850860   -6.898790   -8.211390
  H     -4.492390   -8.514330   -7.890010
  H     -3.248650   -8.294570   -9.113170
  H     -2.463700  -10.522130   -8.642680
  H     -3.691860  -10.726890   -7.401630
  H     -2.138660  -11.556120   -7.245970
  H     -0.709220  -10.633650   -5.636660
  H      1.517490   -5.499120   -2.707360
  H      2.314950   -8.419170   -2.190670
  H      4.067230   -8.603110   -0.274040
  H      5.373190   -7.122130    1.388520
  H      6.097650   -5.338700    2.793810
  H      6.639550   -3.042800    3.829580
  H      6.065260   -0.634280    3.626030
  H      4.586350    4.564370    2.774540
  H      4.058980    6.912710    2.200670
  H      4.089030    8.564710    0.224900
  H      4.298140    9.609740   -1.905760
  H      4.795640   10.167050   -4.375810
  H      5.567000    9.035090   -6.558640
  H      6.051490    6.015420   -6.190420
  H      7.370310    8.732110  -11.714960
  H      8.903860    4.253140  -10.246480
  H     10.909000    5.546730  -12.767610
  H      9.555340    4.811030  -13.614590
  H     10.215360    4.034460  -12.170480
  H      8.639740    8.614380  -13.617800
  H      8.815970    6.994110  -14.300330
  H     10.162040    7.731750  -13.442990

 Total Charge           Charge          ....    0
 Multiplicity           Mult            ....    1
 Number of Electrons    NEL             ....  496
 Basis Dimension        Dim             .... 1108

ORBITAL ENERGIES
----------------

  NO   OCC          E(Eh)            E(eV)
   0   2.0000     -88.980620     -2421.2858
   1   2.0000     -88.961439     -2420.7638
   2   2.0000     -88.961400     -2420.7628
   3   2.0000     -88.957794     -2420.6646
   4   2.0000     -88.956963     -2420.6420
   5   2.0000     -24.808322      -675.0688
   6   2.0000     -24.807969      -675.0592
   7   2.0000     -19.198834      -522.4268
   8   2.0000     -19.194957      -522.3213
   9   2.0000     -14.398793      -391.8111
  10   2.0000     -14.398308      -391.7979
  11   2.0000     -14.397141      -391.7661
  12   2.0000     -14.395867      -391.7314
  13   2.0000     -10.383343      -282.5451
  14   2.0000     -10.382906      -282.5332
  15   2.0000     -10.348719      -281.6029
  16   2.0000     -10.344973      -281.5010
  17   2.0000     -10.334074      -281.2044
  18   2.0000     -10.333716      -281.1947
  19   2.0000     -10.330146      -281.0976
  20   2.0000     -10.329543      -281.0812
  21   2.0000     -10.328452      -281.0515
  22   2.0000     -10.328205      -281.0447
  23   2.0000     -10.324616      -280.9471
  24   2.0000     -10.323689      -280.9219
  25   2.0000     -10.323488      -280.9164
  26   2.0000     -10.323112      -280.9062
  27   2.0000     -10.322885      -280.9000
  28   2.0000     -10.322680      -280.8944
  29   2.0000     -10.321299      -280.8568
  30   2.0000     -10.320742      -280.8417
  31   2.0000     -10.313037      -280.6320
  32   2.0000     -10.312486      -280.6170
  33   2.0000     -10.303366      -280.3688
  34   2.0000     -10.303017      -280.3593
  35   2.0000     -10.302968      -280.3580
  36   2.0000     -10.302459      -280.3442
  37   2.0000     -10.302278      -280.3392
  38   2.0000     -10.302233      -280.3380
  39   2.0000     -10.302049      -280.3330
  40   2.0000     -10.301959      -280.3306
  41   2.0000     -10.300456      -280.2897
  42   2.0000     -10.300048      -280.2786
  43   2.0000     -10.295896      -280.1656
  44   2.0000     -10.295541      -280.1559
  45   2.0000     -10.292368      -280.0696
  46   2.0000     -10.292177      -280.0644
  47   2.0000     -10.285239      -279.8756
  48   2.0000     -10.284446      -279.8540
  49   2.0000     -10.282558      -279.8026
  50   2.0000     -10.282309      -279.7959
  51   2.0000     -10.282011      -279.7877
  52   2.0000     -10.281905      -279.7849
  53   2.0000     -10.280452      -279.7453
  54   2.0000     -10.276432      -279.6359
  55   2.0000     -10.275393      -279.6076
  56   2.0000     -10.274568      -279.5852
  57   2.0000     -10.274184      -279.5748
  58   2.0000     -10.273899      -279.5670
  59   2.0000     -10.273621      -279.5595
  60   2.0000     -10.273200      -279.5480
  61   2.0000     -10.270506      -279.4747
  62   2.0000     -10.270468      -279.4736
  63   2.0000     -10.266797      -279.3738
  64   2.0000     -10.266163      -279.3565
  65   2.0000     -10.264114      -279.3007
  66   2.0000     -10.263957      -279.2965
  67   2.0000      -8.076233      -219.7655
  68   2.0000      -8.057655      -219.2599
  69   2.0000      -8.057621      -219.2590
  70   2.0000      -8.054114      -219.1636
  71   2.0000      -8.053011      -219.1336
  72   2.0000      -6.045668      -164.5110
  73   2.0000      -6.042061      -164.4128
  74   2.0000      -6.037413      -164.2864
  75   2.0000      -6.027330      -164.0120
  76   2.0000      -6.027326      -164.0119
  77   2.0000      -6.023740      -163.9143
  78   2.0000      -6.023118      -163.8974
  79   2.0000      -6.023098      -163.8968
  80   2.0000      -6.022604      -163.8834
  81   2.0000      -6.019685      -163.8039
  82   2.0000      -6.018671      -163.7764
  83   2.0000      -6.018599      -163.7744
  84   2.0000      -6.018566      -163.7735
  85   2.0000      -6.015207      -163.6821
  86   2.0000      -6.014184      -163.6543
  87   2.0000      -1.329519       -36.1781
  88   2.0000      -1.316417       -35.8215
  89   2.0000      -1.111768       -30.2528
  90   2.0000      -1.109153       -30.1816
  91   2.0000      -1.016340       -27.6560
  92   2.0000      -1.011518       -27.5248
  93   2.0000      -1.008394       -27.4398
  94   2.0000      -1.000131       -27.2149
  95   2.0000      -0.999782       -27.2054
  96   2.0000      -0.989073       -26.9140
  97   2.0000      -0.987495       -26.8711
  98   2.0000      -0.979283       -26.6476
  99   2.0000      -0.978793       -26.6343
 100   2.0000      -0.976346       -26.5677
 101   2.0000      -0.975641       -26.5485
 102   2.0000      -0.940110       -25.5817
 103   2.0000      -0.940037       -25.5797
 104   2.0000      -0.923875       -25.1399
 105   2.0000      -0.910347       -24.7718
 106   2.0000      -0.902183       -24.5496
 107   2.0000      -0.890351       -24.2277
 108   2.0000      -0.886969       -24.1357
 109   2.0000      -0.886508       -24.1231
 110   2.0000      -0.870183       -23.6789
 111   2.0000      -0.864862       -23.5341
 112   2.0000      -0.857808       -23.3422
 113   2.0000      -0.857742       -23.3403
 114   2.0000      -0.854422       -23.2500
 115   2.0000      -0.854166       -23.2430
 116   2.0000      -0.847943       -23.0737
 117   2.0000      -0.841497       -22.8983
 118   2.0000      -0.835186       -22.7266
 119   2.0000      -0.831382       -22.6230
 120   2.0000      -0.818372       -22.2690
 121   2.0000      -0.807116       -21.9627
 122   2.0000      -0.794892       -21.6301
 123   2.0000      -0.794510       -21.6197
 124   2.0000      -0.787179       -21.4202
 125   2.0000      -0.772407       -21.0183
 126   2.0000      -0.752840       -20.4858
 127   2.0000      -0.744507       -20.2591
 128   2.0000      -0.738040       -20.0831
 129   2.0000      -0.734340       -19.9824
 130   2.0000      -0.722560       -19.6619
 131   2.0000      -0.717362       -19.5204
 132   2.0000      -0.704087       -19.1592
 133   2.0000      -0.697581       -18.9822
 134   2.0000      -0.689698       -18.7676
 135   2.0000      -0.685856       -18.6631
 136   2.0000      -0.676563       -18.4102
 137   2.0000      -0.674098       -18.3431
 138   2.0000      -0.669717       -18.2239
 139   2.0000      -0.666648       -18.1404
 140   2.0000      -0.661872       -18.0104
 141   2.0000      -0.649714       -17.6796
 142   2.0000      -0.649524       -17.6744
 143   2.0000      -0.642393       -17.4804
 144   2.0000      -0.639100       -17.3908
 145   2.0000      -0.636921       -17.3315
 146   2.0000      -0.631802       -17.1922
 147   2.0000      -0.627830       -17.0841
 148   2.0000      -0.625974       -17.0336
 149   2.0000      -0.619149       -16.8479
 150   2.0000      -0.617501       -16.8030
 151   2.0000      -0.602213       -16.3871
 152   2.0000      -0.599129       -16.3031
 153   2.0000      -0.594009       -16.1638
 154   2.0000      -0.592156       -16.1134
 155   2.0000      -0.590679       -16.0732
 156   2.0000      -0.582926       -15.8622
 157   2.0000      -0.578524       -15.7424
 158   2.0000      -0.563578       -15.3357
 159   2.0000      -0.560699       -15.2574
 160   2.0000      -0.557486       -15.1700
 161   2.0000      -0.556277       -15.1371
 162   2.0000      -0.550535       -14.9808
 163   2.0000      -0.546291       -14.8653
 164   2.0000      -0.538290       -14.6476
 165   2.0000      -0.535092       -14.5606
 166   2.0000      -0.532983       -14.5032
 167   2.0000      -0.532678       -14.4949
 168   2.0000      -0.527053       -14.3418
 169   2.0000      -0.525911       -14.3108
 170   2.0000      -0.524497       -14.2723
 171   2.0000      -0.522019       -14.2049
 172   2.0000      -0.516918       -14.0660
 173   2.0000      -0.513241       -13.9660
 174   2.0000      -0.512744       -13.9525
 175   2.0000      -0.512397       -13.9430
 176   2.0000      -0.509851       -13.8737
 177   2.0000      -0.508521       -13.8375
 178   2.0000      -0.507636       -13.8135
 179   2.0000      -0.507144       -13.8001
 180   2.0000      -0.503614       -13.7040
 181   2.0000      -0.502601       -13.6765
 182   2.0000      -0.498610       -13.5679
 183   2.0000      -0.493661       -13.4332
 184   2.0000      -0.492397       -13.3988
 185   2.0000      -0.489987       -13.3332
 186   2.0000      -0.488344       -13.2885
 187   2.0000      -0.484492       -13.1837
 188   2.0000      -0.480382       -13.0719
 189   2.0000      -0.479181       -13.0392
 190   2.0000      -0.478876       -13.0309
 191   2.0000      -0.477625       -12.9968
 192   2.0000      -0.476933       -12.9780
 193   2.0000      -0.476003       -12.9527
 194   2.0000      -0.472294       -12.8518
 195   2.0000      -0.468907       -12.7596
 196   2.0000      -0.468828       -12.7574
 197   2.0000      -0.465447       -12.6655
 198   2.0000      -0.464909       -12.6508
 199   2.0000      -0.463985       -12.6257
 200   2.0000      -0.459943       -12.5157
 201   2.0000      -0.459806       -12.5120
 202   2.0000      -0.458910       -12.4876
 203   2.0000      -0.450799       -12.2669
 204   2.0000      -0.448661       -12.2087
 205   2.0000      -0.438088       -11.9210
 206   2.0000      -0.436077       -11.8663
 207   2.0000      -0.434953       -11.8357
 208   2.0000      -0.434453       -11.8221
 209   2.0000      -0.431881       -11.7521
 210   2.0000      -0.431225       -11.7342
 211   2.0000      -0.430765       -11.7217
 212   2.0000      -0.429368       -11.6837
 213   2.0000      -0.428744       -11.6667
 214   2.0000      -0.427512       -11.6332
 215   2.0000      -0.426609       -11.6086
 216   2.0000      -0.425472       -11.5777
 217   2.0000      -0.424053       -11.5391
 218   2.0000      -0.423243       -11.5170
 219   2.0000      -0.416009       -11.3202
 220   2.0000      -0.411211       -11.1896
 221   2.0000      -0.409697       -11.1484
 222   2.0000      -0.409414       -11.1407
 223   2.0000      -0.407378       -11.0853
 224   2.0000      -0.404180       -10.9983
 225   2.0000      -0.402935       -10.9644
 226   2.0000      -0.400707       -10.9038
 227   2.0000      -0.390493       -10.6259
 228   2.0000      -0.389171       -10.5899
 229   2.0000      -0.386525       -10.5179
 230   2.0000      -0.373024       -10.1505
 231   2.0000      -0.356708        -9.7065
 232   2.0000      -0.350295        -9.5320
 233   2.0000      -0.349471        -9.5096
 234   2.0000      -0.336803        -9.1649
 235   2.0000      -0.335237        -9.1223
 236   2.0000      -0.333983        -9.0881
 237   2.0000      -0.333406        -9.0725
 238   2.0000      -0.320528        -8.7220
 239   2.0000      -0.320035        -8.7086
 240   2.0000      -0.318028        -8.6540
 241   2.0000      -0.317539        -8.6407
 242   2.0000      -0.306220        -8.3327
 243   2.0000      -0.293887        -7.9971
 244   2.0000      -0.290166        -7.8958
 245   2.0000      -0.280062        -7.6209
 246   2.0000      -0.237707        -6.4683
 247   2.0000      -0.212518        -5.7829
 248   0.0000      -0.121509        -3.3064
 249   0.0000      -0.094677        -2.5763
 250   0.0000      -0.059274        -1.6129
 251   0.0000      -0.049823        -1.3557
 252   0.0000      -0.041151        -1.1198

MULLIKEN ATOMIC CHARGES
-----------------------
   0 C :   -0.078778
   1 C :   -0.081682
   2 C :    0.114203
   3 C :   -0.079735
   4 C :    0.116327
   5 C :   -0.079123
   6 C :   -0.007860
   7 C :    0.037858
   8 C :    0.327472
   9 C :   -0.361437
  10 C :   -0.182006
  11 N :    0.136333
  12 C :   -0.192833
  13 N :    0.137017
  14 C :   -0.088878
  15 C :    0.138215
  16 O :   -0.163857
  17 C :   -0.041828
  18 C :   -0.021593
  19 C :    0.000675
  20 C :    0.027617
  21 C :    0.040079
  22 C :   -0.051190
  23 S :    0.116832
  24 C :   -0.043113
  25 C :    0.029613
  26 C :    0.037477
  27 C :   -0.040879
  28 S :    0.144716
  29 C :    0.042134
  30 C :   -0.179648
  31 C :    0.223488
  32 F :   -0.158280
  33 C :    0.221823
  34 F :   -0.159110
  35 C :   -0.179383
  36 S :    0.148359
  37 C :    0.039989
  38 C :   -0.035475
  39 C :    0.035897
  40 C :    0.030935
  41 C :   -0.039719
  42 S :    0.133120
  43 C :   -0.056295
  44 C :    0.036974
  45 C :    0.037563
  46 C :   -0.021738
  47 S :    0.114606
  48 C :    0.002991
  49 C :    0.017228
  50 C :   -0.126484
  51 C :    0.138140
  52 O :   -0.152712
  53 C :   -0.003602
  54 C :    0.029258
  55 C :   -0.077491
  56 C :   -0.083390
  57 C :   -0.080765
  58 C :   -0.078406
  59 C :    0.117929
  60 C :    0.117759
  61 C :    0.292176
  62 C :   -0.349495
  63 C :   -0.218025
  64 N :    0.158752
  65 C :   -0.177226
  66 N :    0.137894
  67 H :   -0.017677
  68 H :    0.024569
  69 H :    0.022927
  70 H :    0.024596
  71 H :    0.025641
  72 H :    0.026272
  73 H :    0.013046
  74 H :   -0.025010
  75 H :    0.015183
  76 H :    0.017858
  77 H :    0.001547
  78 H :   -0.006882
  79 H :   -0.007018
  80 H :   -0.005202
  81 H :   -0.004750
  82 H :   -0.003794
  83 H :   -0.004126
  84 H :   -0.005115
  85 H :   -0.004932
  86 H :    0.004047
  87 H :    0.006912
  88 H :    0.016037
  89 H :   -0.015573
  90 H :   -0.022400
  91 H :    0.024098
  92 H :    0.025804
  93 H :    0.013848
  94 H :    0.022056
  95 H :    0.024900
  96 H :    0.023728
Sum of atomic charges:   -0.0000000

LOEWDIN ATOMIC CHARGES
----------------------
   0 C :   -0.007859
   1 C :   -0.007165
   2 C :   -0.042756
   3 C :   -0.010963
   4 C :   -0.043639
   5 C :    0.003493
   6 C :   -0.047446
   7 C :   -0.016681
   8 C :    0.073773
   9 C :   -0.151411
  10 C :   -0.017695
  11 N :   -0.066743
  12 C :   -0.021226
  13 N :   -0.063144
  14 C :   -0.099733
  15 C :    0.082847
  16 O :   -0.157223
  17 C :    0.044927
  18 C :   -0.065384
  19 C :   -0.109495
  20 C :   -0.036657
  21 C :   -0.013913
  22 C :   -0.185146
  23 S :    0.414469
  24 C :   -0.161150
  25 C :   -0.034008
  26 C :   -0.021219
  27 C :   -0.149544
  28 S :    0.422586
  29 C :   -0.066841
  30 C :   -0.196806
  31 C :    0.026320
  32 F :   -0.037243
  33 C :    0.025014
  34 F :   -0.037921
  35 C :   -0.194803
  36 S :    0.447170
  37 C :   -0.069015
  38 C :   -0.147693
  39 C :   -0.021389
  40 C :   -0.032710
  41 C :   -0.162097
  42 S :    0.416281
  43 C :   -0.183014
  44 C :   -0.012774
  45 C :   -0.031194
  46 C :   -0.106090
  47 S :    0.407300
  48 C :   -0.062245
  49 C :    0.046300
  50 C :   -0.098810
  51 C :    0.079500
  52 O :   -0.152489
  53 C :   -0.048880
  54 C :   -0.014750
  55 C :   -0.010267
  56 C :   -0.006918
  57 C :   -0.011642
  58 C :    0.004800
  59 C :   -0.043369
  60 C :   -0.042681
  61 C :    0.070900
  62 C :   -0.151408
  63 C :   -0.024195
  64 N :   -0.061152
  65 C :   -0.018561
  66 N :   -0.065124
  67 H :    0.035091
  68 H :    0.035480
  69 H :    0.036139
  70 H :    0.036567
  71 H :    0.036967
  72 H :    0.037208
  73 H :    0.031465
  74 H :    0.033159
  75 H :    0.031935
  76 H :    0.038796
  77 H :    0.039100
  78 H :    0.034514
  79 H :    0.034160
  80 H :    0.035877
  81 H :    0.038903
  82 H :    0.039210
  83 H :    0.036182
  84 H :    0.034793
  85 H :    0.035429
  86 H :    0.040797
  87 H :    0.037989
  88 H :    0.034594
  89 H :    0.034570
  90 H :    0.034298
  91 H :    0.036456
  92 H :    0.037110
  93 H :    0.031877
  94 H :    0.034769
  95 H :    0.037126
  96 H :    0.036045

  Mayer bond orders larger than 0.100000
B(  0-C ,  1-C ) :   1.3687 B(  0-C ,  7-C ) :   1.3579 B(  0-C , 67-H ) :   0.9833
B(  1-C ,  2-C ) :   1.0938 B(  1-C ,  3-C ) :   1.3853 B(  2-C , 68-H ) :   0.9507
B(  2-C , 69-H ) :   0.9403 B(  2-C , 70-H ) :   0.9410 B(  3-C ,  4-C ) :   1.0924
B(  3-C ,  5-C ) :   1.3459 B(  4-C , 71-H ) :   0.9409 B(  4-C , 72-H ) :   0.9411
B(  4-C , 73-H ) :   0.9515 B(  5-C ,  6-C ) :   1.3642 B(  5-C , 74-H ) :   1.0096
B(  6-C ,  7-C ) :   1.3388 B(  6-C , 15-C ) :   0.9426 B(  7-C ,  8-C ) :   0.9771
B(  8-C ,  9-C ) :   1.5926 B(  8-C , 14-C ) :   1.0999 B(  9-C , 10-C ) :   1.1502
B(  9-C , 12-C ) :   1.1509 B( 10-C , 11-N ) :   2.9599 B( 12-C , 13-N ) :   2.9615
B( 14-C , 15-C ) :   0.9543 B( 14-C , 17-C ) :   1.5087 B( 15-C , 16-O ) :   2.1860
B( 17-C , 18-C ) :   1.2415 B( 17-C , 75-H ) :   0.9436 B( 18-C , 19-C ) :   1.4315
B( 18-C , 76-H ) :   0.9762 B( 19-C , 20-C ) :   1.1775 B( 19-C , 23-S ) :   1.0767
B( 20-C , 21-C ) :   1.5406 B( 20-C , 77-H ) :   1.0016 B( 21-C , 22-C ) :   1.2187
B( 21-C , 78-H ) :   0.9952 B( 22-C , 23-S ) :   1.0573 B( 22-C , 24-C ) :   1.4478
B( 24-C , 25-C ) :   1.2041 B( 24-C , 28-S ) :   1.0725 B( 25-C , 26-C ) :   1.5652
B( 25-C , 79-H ) :   0.9952 B( 26-C , 27-C ) :   1.1623 B( 26-C , 80-H ) :   1.0004
B( 27-C , 28-S ) :   1.0575 B( 27-C , 29-C ) :   1.5580 B( 29-C , 30-C ) :   1.2050
B( 29-C , 81-H ) :   0.9433 B( 30-C , 31-C ) :   1.3561 B( 30-C , 35-C ) :   0.1101
B( 30-C , 36-S ) :   1.0925 B( 31-C , 32-F ) :   1.1557 B( 31-C , 33-C ) :   1.2937
B( 33-C , 34-F ) :   1.1534 B( 33-C , 35-C ) :   1.3542 B( 35-C , 36-S ) :   1.0936
B( 35-C , 37-C ) :   1.2053 B( 37-C , 38-C ) :   1.5596 B( 37-C , 82-H ) :   0.9435
B( 38-C , 39-C ) :   1.1615 B( 38-C , 42-S ) :   1.0568 B( 39-C , 40-C ) :   1.5674
B( 39-C , 83-H ) :   1.0006 B( 40-C , 41-C ) :   1.2030 B( 40-C , 84-H ) :   0.9946
B( 41-C , 42-S ) :   1.0636 B( 41-C , 43-C ) :   1.4577 B( 43-C , 44-C ) :   1.2177
B( 43-C , 47-S ) :   1.0533 B( 44-C , 45-C ) :   1.5474 B( 44-C , 85-H ) :   0.9939
B( 45-C , 46-C ) :   1.1759 B( 45-C , 86-H ) :   1.0015 B( 46-C , 47-S ) :   1.0758
B( 46-C , 48-C ) :   1.5131 B( 48-C , 49-C ) :   1.2019 B( 48-C , 87-H ) :   0.9634
B( 49-C , 50-C ) :   1.5607 B( 49-C , 88-H ) :   0.9371 B( 50-C , 51-C ) :   0.9531
B( 50-C , 61-C ) :   1.0686 B( 51-C , 52-O ) :   2.2431 B( 51-C , 53-C ) :   0.9259
B( 53-C , 54-C ) :   1.3362 B( 53-C , 58-C ) :   1.3701 B( 54-C , 55-C ) :   1.3594
B( 54-C , 61-C ) :   0.9910 B( 55-C , 56-C ) :   1.3678 B( 55-C , 89-H ) :   0.9844
B( 56-C , 57-C ) :   1.3866 B( 56-C , 60-C ) :   1.0947 B( 57-C , 58-C ) :   1.3481
B( 57-C , 59-C ) :   1.0931 B( 58-C , 90-H ) :   1.0088 B( 59-C , 91-H ) :   0.9407
B( 59-C , 92-H ) :   0.9409 B( 59-C , 93-H ) :   0.9514 B( 60-C , 94-H ) :   0.9504
B( 60-C , 95-H ) :   0.9395 B( 60-C , 96-H ) :   0.9409 B( 61-C , 62-C ) :   1.6064
B( 62-C , 63-C ) :   1.1676 B( 62-C , 65-C ) :   1.1354 B( 63-C , 64-N ) :   3.0075
B( 65-C , 66-N ) :   2.9753

-----------------------------------------------------------------------------
         ABSORPTION SPECTRUM VIA TRANSITION ELECTRIC DIPOLE MOMENTS
-----------------------------------------------------------------------------
State   Energy  Wavelength   fosc         T2         TX        TY        TZ
        (cm-1)    (nm)                  (au**2)     (au)      (au)      (au)
-----------------------------------------------------------------------------
   0    7852.1   1273.6   1.111437872  46.59911   2.24367   6.22842  -1.66488
   1   13554.5    737.8   0.148228729   3.60019  -0.41759  -0.07900  -1.84921
   2   14115.0    708.5   1.639124513  38.23021  -1.41809  -0.52412  -5.99538
   3   19562.6    511.2   0.195499068   3.28998   1.21082  -1.34469  -0.12529
   4   20940.0    477.6   0.062457035   0.98193  -0.81718   0.53587   0.16431
   5   22233.8    449.8   0.035055312   0.51906  -0.14940   0.62378   0.32808
   6   22474.7    444.9   0.228428176   3.34604  -0.64728   1.71001   0.05423
   7   24010.6    416.5   0.146588346   2.00989  -0.71970   1.22118  -0.02533
   8   24551.7    407.3   0.131389431   1.76179   0.46163  -1.17506  -0.40978
   9   25688.8    389.3   0.173182410   2.21940   1.16489  -0.90976  -0.18652
  10   25977.0    385.0   0.103196599   1.30783  -1.04171   0.37756  -0.28306
  11   26426.4    378.4   0.002281786   0.02843   0.16383  -0.00068   0.03981
  12   27220.1    367.4   0.015772591   0.19076  -0.23585   0.14362   0.33839
  13   27736.3    360.5   0.021665417   0.25715  -0.20731   0.15682  -0.43541
  14   28321.5    353.1   0.045552878   0.52951   0.16738   0.18845   0.68263
  15   28979.3    345.1   0.022696573   0.25784   0.08011  -0.45500  -0.21069
  16   29490.3    339.1   0.054396579   0.60725   0.65104  -0.38497   0.18760
  17   30118.5    332.0   0.166089669   1.81545   0.35806   0.16661   1.28821
  18   30432.5    328.6   0.017614478   0.19055   0.34244   0.26585  -0.05106
  19   30757.3    325.1   0.006963444   0.07453   0.20419   0.12744  -0.12885
  20   31368.5    318.8   0.046210691   0.48498  -0.00208   0.05024   0.69459
  21   31514.9    317.3   0.012336147   0.12887  -0.03170  -0.24762  -0.25796
  22   31595.9    316.5   0.033980126   0.35405  -0.47393  -0.04368  -0.35713
  23   32197.7    310.6   0.006812343   0.06965   0.12713   0.21349   0.08895
  24   32318.4    309.4   0.006516284   0.06638   0.24251   0.08675   0.00650
  25   32360.3    309.0   0.017691729   0.17998  -0.32721  -0.14768   0.22607
  26   32459.0    308.1   0.026205051   0.26578   0.32351   0.33395   0.22271
  27   32548.7    307.2   0.038958186   0.39404   0.14005  -0.57209  -0.21711
  28   33005.7    303.0   0.025040315   0.24976  -0.24898   0.43317   0.01144
  29   33661.2    297.1   0.152887609   1.49527  -0.21347   0.83523   0.86723
  30   34491.0    289.9   0.052637194   0.50241   0.20717  -0.58522  -0.34207
  31   34538.8    289.5   0.004070950   0.03880  -0.06927  -0.17533  -0.05712
  32   35065.1    285.2   0.027742141   0.26046  -0.25138   0.44210   0.04261
  33   35647.3    280.5   0.016269580   0.15025  -0.19155  -0.23665  -0.23992
  34   35814.3    279.2   0.254980723   2.34383  -0.08575  -1.38135  -0.65449
  35   35952.6    278.1   0.046305063   0.42401   0.44571   0.42919   0.20284
  36   36096.6    277.0   0.078105045   0.71234  -0.63454  -0.51011  -0.22247
  37   36411.1    274.6   0.031390030   0.28381   0.51922   0.11057  -0.04473
  38   36515.6    273.9   0.708251704   6.38536  -1.15183   2.15771   0.63478
  39   36983.2    270.4   0.033789069   0.30078  -0.40698  -0.28446   0.23287
  40   37024.8    270.1   0.006312139   0.05613  -0.22930  -0.05899   0.00808
  41   37132.9    269.3   0.043875634   0.38899  -0.61418   0.07528   0.07816
  42   37887.4    263.9   0.138946231   1.20733  -0.44842   0.94397  -0.33938
  43   37944.7    263.5   0.023749885   0.20606   0.10589  -0.43784  -0.05604
  44   37977.0    263.3   0.002404883   0.02085  -0.07751   0.10541   0.06106
  45   38046.9    262.8   0.127485741   1.10311  -0.40055   0.96785  -0.07705
  46   39088.9    255.8   0.014945796   0.12588  -0.29986   0.14166  -0.12607
  47   39369.5    254.0   0.003656664   0.03058   0.01868   0.12916  -0.11639
  48   39638.0    252.3   0.018365500   0.15253  -0.17383   0.34974   0.00090
  49   39686.5    252.0   0.006201182   0.05144   0.06912  -0.16211   0.14277
  50   40107.6    249.3   0.002445448   0.02007   0.02717  -0.10382  -0.09249
  51   40221.3    248.6   0.016946557   0.13871   0.14419  -0.16483   0.30124

FINAL SINGLE POINT ENERGY     -4631.811302591629

DIPOLE MOMENT
-------------
                                X             Y             Z
Electronic contribution:      3.90487      23.74418      63.00656
Nuclear contribution   :     -1.01744     -25.35406     -58.74175
                        -----------------------------------------
Total Dipole Moment    :      2.88743      -1.60987       4.26481
                        -----------------------------------------
Magnitude (a.u.)       :      5.39607
Magnitude (Debye)      :     13.71571

Rotational constants in cm-1:     0.000783     0.000330     0.000259
Rotational constants in MHz :    23.487229     9.884736     7.758211

                             ****ORCA TERMINATED NORMALLY****
TOTAL RUN TIME: 0 days 0 hours 10 minutes 6 seconds 789 msec
