                         Program Version 4.2.0 -  RELEASE  -
|  1> # ORCA input file
|  2> # SCF done       -186.706477675285          0.000277771501
|  3> ! CAM-B3LYP def2-SVP def2/J RIJCOSX Grid4 TightSCF
|  4> %maxcore 5000
|  5> %tddft
|  6>     Mode sTDDFT
|  7>     Ethresh 5.0
|  8>     maxcore 5000
|  9> end
| 10>
| 11> %pal
| 12>   nprocs 6
| 13>   end
| 14> * xyz 0 1
| 15>    C       -4.65374        -4.31950        -1.06906
| 16>    C       -5.31123        -4.35055        -2.29538
| 17>    C       -6.69268        -3.78918        -2.39966
| 18>    C       -4.68800        -4.90472        -3.42588
| 19>    C       -5.39528        -4.93215        -4.74201
| 20>    C       -3.40622        -5.43318        -3.31532
| 21>    C       -2.76215        -5.40124        -2.09488
| 22>    C       -3.37572        -4.84242        -0.96096
| 23>    C       -2.46256        -4.94709         0.16802
| 24>    C       -2.64116        -4.37938         1.40132
| 25>    C       -3.79221        -3.65315         1.77405
| 26>    N       -4.70520        -3.06045         2.13819
| 27>    C       -1.69676        -4.40405         2.44968
| 28>    N       -0.96953        -4.36720         3.33764
| 29>    C       -1.29096        -5.68467        -0.28082
| 30>    C       -1.42643        -5.91113        -1.74783
| 31>    O       -0.64442        -6.45710        -2.49488
| 32>    C       -0.36837        -6.24663         0.54929
| 33>    C        0.82837        -6.92684         0.21983
| 34>    C        1.62817        -6.88530        -0.91178
| 35>    C        2.74292        -7.70958        -0.79232
| 36>    C        2.79500        -8.39372         0.43784
| 37>    S        1.50013        -7.98813         1.46057
| 38>    C        3.93271        -9.24223         0.43747
| 39>    C        4.60686        -9.08349        -0.78929
| 40>    C        3.89214        -8.10476        -1.59413
| 41>    C        4.23568        -7.64134        -2.82888
| 42>    C        5.37737        -8.10819        -3.51632
| 43>    N        6.29910        -8.48176        -4.08616
| 44>    C        3.49714        -6.64532        -3.50524
| 45>    N        2.93084        -5.82151        -4.06567
| 46>    C        5.73994        -9.89280        -0.88420
| 47>    C        5.90695       -10.65312         0.25367
| 48>    S        4.67946       -10.38002         1.46301
| 49>    C        6.92149       -11.62608         0.53543
| 50>    N        6.82168       -12.27601         1.69183
| 51>    C        7.75458       -13.19698         1.91905
| 52>    N        8.75723       -13.47519         1.07908
| 53>    C        8.76584       -12.75908        -0.02774
| 54>    N        7.88755       -11.83525        -0.36490
| 55>    C        7.64867       -13.93485         3.14320
| 56>    C        8.44464       -14.96631         3.59385
| 57>    C        7.99688       -15.44927         4.82408
| 58>    C        6.85940       -14.76199         5.29317
| 59>    S        6.34167       -13.53702         4.22952
| 60>    C        6.47595       -15.32380         6.54046
| 61>    C        7.36431       -16.36924         6.84937
| 62>    C        8.35602       -16.47376         5.79013
| 63>    C        9.40907       -17.33888         5.74631
| 64>    C        9.63467       -18.27300         6.77994
| 65>    N        9.80155       -19.03275         7.62250
| 66>    C       10.32982       -17.36178         4.67713
| 67>    N       11.07933       -17.39321         3.81054
| 68>    C        7.08003       -16.98020         8.06578
| 69>    C        5.98961       -16.40326         8.69749
| 70>    S        5.29022       -15.10572         7.74034
| 71>    C        5.37963       -16.75458         9.92624
| 72>    C        5.87959       -17.48754        10.95377
| 73>    C        4.92022       -18.07080        11.94468
| 74>    O        3.75900       -17.76294        12.07962
| 75>    C        5.68487       -19.11166        12.64667
| 76>    C        7.02892       -19.07053        12.23244
| 77>    C        7.92801       -19.99267        12.73851
| 78>    C        7.49632       -20.94073        13.66198
| 79>    C        6.15730       -20.96488        14.08645
| 80>    C        5.25240       -20.04453        13.56804
| 81>    C        5.70023       -21.97632        15.08744
| 82>    C        8.47262       -21.93539        14.20133
| 83>    C        7.20568       -17.96255        11.29952
| 84>    C        8.39786       -17.34467        11.02958
| 85>    C        8.51412       -16.13752        10.31351
| 86>    N        8.64932       -15.14266         9.75639
| 87>    C        9.64186       -17.79432        11.52203
| 88>    N       10.67600       -18.11430        11.90187
| 89>    H       -5.15472        -3.89437        -0.21408
| 90>    H       -7.02615        -3.40304        -1.44053
| 91>    H       -7.39301        -4.55578        -2.72977
| 92>    H       -6.72261        -2.98110        -3.12967
| 93>    H       -6.32503        -5.49509        -4.66500
| 94>    H       -4.77256        -5.39193        -5.50428
| 95>    H       -5.64915        -3.92209        -5.06176
| 96>    H       -2.90792        -5.86556        -4.17003
| 97>    H       -0.57690        -6.21929         1.61295
| 98>    H        1.39735        -6.28180        -1.76927
| 99>    H        6.41531        -9.95131        -1.71797
|100>    H        9.56793       -12.95126        -0.72916
|101>    H        9.29021       -15.32595         3.03658
|102>    H        7.60522       -17.83035         8.46080
|103>    H        4.34326       -16.45240        10.04612
|104>    H        8.95750       -19.99722        12.41678
|105>    H        4.21816       -20.04973        13.87805
|106>    H        5.86690       -22.98635        14.71441
|107>    H        4.64207       -21.85534        15.30196
|108>    H        6.25819       -21.87396        16.01755
|109>    H        9.45949       -21.77741        13.77580
|110>    H        8.15109       -22.95070        13.97137
|111>    H        8.54366       -21.85118        15.28513
|112> *
|113>
|114>                          ****END OF INPUT****

CARTESIAN COORDINATES (ANGSTROEM)
---------------------------------
  C     -4.653740   -4.319500   -1.069060
  C     -5.311230   -4.350550   -2.295380
  C     -6.692680   -3.789180   -2.399660
  C     -4.688000   -4.904720   -3.425880
  C     -5.395280   -4.932150   -4.742010
  C     -3.406220   -5.433180   -3.315320
  C     -2.762150   -5.401240   -2.094880
  C     -3.375720   -4.842420   -0.960960
  C     -2.462560   -4.947090    0.168020
  C     -2.641160   -4.379380    1.401320
  C     -3.792210   -3.653150    1.774050
  N     -4.705200   -3.060450    2.138190
  C     -1.696760   -4.404050    2.449680
  N     -0.969530   -4.367200    3.337640
  C     -1.290960   -5.684670   -0.280820
  C     -1.426430   -5.911130   -1.747830
  O     -0.644420   -6.457100   -2.494880
  C     -0.368370   -6.246630    0.549290
  C      0.828370   -6.926840    0.219830
  C      1.628170   -6.885300   -0.911780
  C      2.742920   -7.709580   -0.792320
  C      2.795000   -8.393720    0.437840
  S      1.500130   -7.988130    1.460570
  C      3.932710   -9.242230    0.437470
  C      4.606860   -9.083490   -0.789290
  C      3.892140   -8.104760   -1.594130
  C      4.235680   -7.641340   -2.828880
  C      5.377370   -8.108190   -3.516320
  N      6.299100   -8.481760   -4.086160
  C      3.497140   -6.645320   -3.505240
  N      2.930840   -5.821510   -4.065670
  C      5.739940   -9.892800   -0.884200
  C      5.906950  -10.653120    0.253670
  S      4.679460  -10.380020    1.463010
  C      6.921490  -11.626080    0.535430
  N      6.821680  -12.276010    1.691830
  C      7.754580  -13.196980    1.919050
  N      8.757230  -13.475190    1.079080
  C      8.765840  -12.759080   -0.027740
  N      7.887550  -11.835250   -0.364900
  C      7.648670  -13.934850    3.143200
  C      8.444640  -14.966310    3.593850
  C      7.996880  -15.449270    4.824080
  C      6.859400  -14.761990    5.293170
  S      6.341670  -13.537020    4.229520
  C      6.475950  -15.323800    6.540460
  C      7.364310  -16.369240    6.849370
  C      8.356020  -16.473760    5.790130
  C      9.409070  -17.338880    5.746310
  C      9.634670  -18.273000    6.779940
  N      9.801550  -19.032750    7.622500
  C     10.329820  -17.361780    4.677130
  N     11.079330  -17.393210    3.810540
  C      7.080030  -16.980200    8.065780
  C      5.989610  -16.403260    8.697490
  S      5.290220  -15.105720    7.740340
  C      5.379630  -16.754580    9.926240
  C      5.879590  -17.487540   10.953770
  C      4.920220  -18.070800   11.944680
  O      3.759000  -17.762940   12.079620
  C      5.684870  -19.111660   12.646670
  C      7.028920  -19.070530   12.232440
  C      7.928010  -19.992670   12.738510
  C      7.496320  -20.940730   13.661980
  C      6.157300  -20.964880   14.086450
  C      5.252400  -20.044530   13.568040
  C      5.700230  -21.976320   15.087440
  C      8.472620  -21.935390   14.201330
  C      7.205680  -17.962550   11.299520
  C      8.397860  -17.344670   11.029580
  C      8.514120  -16.137520   10.313510
  N      8.649320  -15.142660    9.756390
  C      9.641860  -17.794320   11.522030
  N     10.676000  -18.114300   11.901870
  H     -5.154720   -3.894370   -0.214080
  H     -7.026150   -3.403040   -1.440530
  H     -7.393010   -4.555780   -2.729770
  H     -6.722610   -2.981100   -3.129670
  H     -6.325030   -5.495090   -4.665000
  H     -4.772560   -5.391930   -5.504280
  H     -5.649150   -3.922090   -5.061760
  H     -2.907920   -5.865560   -4.170030
  H     -0.576900   -6.219290    1.612950
  H      1.397350   -6.281800   -1.769270
  H      6.415310   -9.951310   -1.717970
  H      9.567930  -12.951260   -0.729160
  H      9.290210  -15.325950    3.036580
  H      7.605220  -17.830350    8.460800
  H      4.343260  -16.452400   10.046120
  H      8.957500  -19.997220   12.416780
  H      4.218160  -20.049730   13.878050
  H      5.866900  -22.986350   14.714410
  H      4.642070  -21.855340   15.301960
  H      6.258190  -21.873960   16.017550
  H      9.459490  -21.777410   13.775800
  H      8.151090  -22.950700   13.971370
  H      8.543660  -21.851180   15.285130

 Total Charge           Charge          ....    0
 Multiplicity           Mult            ....    1
 Number of Electrons    NEL             ....  522
 Basis Dimension        Dim             .... 1167

ORBITAL ENERGIES
----------------

  NO   OCC          E(Eh)            E(eV)
   0   2.0000     -88.999543     -2421.8007
   1   2.0000     -88.999510     -2421.7998
   2   2.0000     -88.999459     -2421.7984
   3   2.0000     -88.998413     -2421.7699
   4   2.0000     -19.221605      -523.0465
   5   2.0000     -19.218412      -522.9596
   6   2.0000     -14.437897      -392.8751
   7   2.0000     -14.435165      -392.8008
   8   2.0000     -14.433305      -392.7502
   9   2.0000     -14.432831      -392.7373
  10   2.0000     -14.431679      -392.7060
  11   2.0000     -14.428799      -392.6276
  12   2.0000     -14.428662      -392.6239
  13   2.0000     -14.420121      -392.3914
  14   2.0000     -14.419259      -392.3680
  15   2.0000     -14.417112      -392.3096
  16   2.0000     -14.415130      -392.2556
  17   2.0000     -10.382574      -282.5242
  18   2.0000     -10.382256      -282.5156
  19   2.0000     -10.373027      -282.2644
  20   2.0000     -10.370342      -282.1914
  21   2.0000     -10.369872      -282.1786
  22   2.0000     -10.369076      -282.1569
  23   2.0000     -10.364772      -282.0398
  24   2.0000     -10.357223      -281.8344
  25   2.0000     -10.357093      -281.8308
  26   2.0000     -10.346842      -281.5519
  27   2.0000     -10.346726      -281.5487
  28   2.0000     -10.345895      -281.5261
  29   2.0000     -10.345193      -281.5070
  30   2.0000     -10.344194      -281.4798
  31   2.0000     -10.343968      -281.4737
  32   2.0000     -10.343566      -281.4627
  33   2.0000     -10.343312      -281.4558
  34   2.0000     -10.335378      -281.2399
  35   2.0000     -10.332908      -281.1727
  36   2.0000     -10.332516      -281.1620
  37   2.0000     -10.332442      -281.1600
  38   2.0000     -10.332429      -281.1597
  39   2.0000     -10.331046      -281.1220
  40   2.0000     -10.330166      -281.0981
  41   2.0000     -10.326376      -280.9950
  42   2.0000     -10.326158      -280.9890
  43   2.0000     -10.324433      -280.9421
  44   2.0000     -10.322042      -280.8770
  45   2.0000     -10.321326      -280.8576
  46   2.0000     -10.319925      -280.8194
  47   2.0000     -10.317442      -280.7519
  48   2.0000     -10.314628      -280.6753
  49   2.0000     -10.314036      -280.6592
  50   2.0000     -10.313268      -280.6383
  51   2.0000     -10.312891      -280.6280
  52   2.0000     -10.312666      -280.6219
  53   2.0000     -10.312273      -280.6112
  54   2.0000     -10.312071      -280.6057
  55   2.0000     -10.310815      -280.5715
  56   2.0000     -10.306065      -280.4423
  57   2.0000     -10.304480      -280.3991
  58   2.0000     -10.304302      -280.3943
  59   2.0000     -10.304214      -280.3919
  60   2.0000     -10.300022      -280.2779
  61   2.0000     -10.299675      -280.2684
  62   2.0000     -10.299346      -280.2595
  63   2.0000     -10.298862      -280.2463
  64   2.0000     -10.291962      -280.0585
  65   2.0000     -10.291932      -280.0577
  66   2.0000     -10.291848      -280.0554
  67   2.0000     -10.291015      -280.0328
  68   2.0000     -10.290418      -280.0165
  69   2.0000     -10.290409      -280.0163
  70   2.0000     -10.279205      -279.7114
  71   2.0000     -10.278738      -279.6987
  72   2.0000     -10.277590      -279.6674
  73   2.0000     -10.276414      -279.6354
  74   2.0000      -8.094394      -220.2597
  75   2.0000      -8.094232      -220.2552
  76   2.0000      -8.093581      -220.2375
  77   2.0000      -8.092583      -220.2104
  78   2.0000      -6.063497      -164.9962
  79   2.0000      -6.063386      -164.9931
  80   2.0000      -6.062753      -164.9759
  81   2.0000      -6.061751      -164.9486
  82   2.0000      -6.059366      -164.8837
  83   2.0000      -6.059200      -164.8792
  84   2.0000      -6.058478      -164.8596
  85   2.0000      -6.057466      -164.8320
  86   2.0000      -6.056926      -164.8173
  87   2.0000      -6.056767      -164.8130
  88   2.0000      -6.056230      -164.7984
  89   2.0000      -6.055221      -164.7709
  90   2.0000      -1.138967       -30.9929
  91   2.0000      -1.137106       -30.9422
  92   2.0000      -1.133670       -30.8487
  93   2.0000      -1.054296       -28.6888
  94   2.0000      -1.053425       -28.6652
  95   2.0000      -1.027002       -27.9461
  96   2.0000      -1.025763       -27.9124
  97   2.0000      -1.022892       -27.8343
  98   2.0000      -1.021623       -27.7998
  99   2.0000      -1.019521       -27.7426
 100   2.0000      -1.016876       -27.6706
 101   2.0000      -1.011293       -27.5187
 102   2.0000      -1.009421       -27.4677
 103   2.0000      -1.001266       -27.2458
 104   2.0000      -0.999656       -27.2020
 105   2.0000      -0.999445       -27.1963
 106   2.0000      -0.998172       -27.1616
 107   2.0000      -0.996092       -27.1051
 108   2.0000      -0.993926       -27.0461
 109   2.0000      -0.965309       -26.2674
 110   2.0000      -0.965097       -26.2616
 111   2.0000      -0.957973       -26.0678
 112   2.0000      -0.957183       -26.0463
 113   2.0000      -0.924214       -25.1491
 114   2.0000      -0.923695       -25.1350
 115   2.0000      -0.907789       -24.7022
 116   2.0000      -0.907671       -24.6990
 117   2.0000      -0.894676       -24.3454
 118   2.0000      -0.893149       -24.3038
 119   2.0000      -0.877065       -23.8662
 120   2.0000      -0.875540       -23.8247
 121   2.0000      -0.874181       -23.7877
 122   2.0000      -0.874019       -23.7833
 123   2.0000      -0.865653       -23.5556
 124   2.0000      -0.864362       -23.5205
 125   2.0000      -0.846997       -23.0479
 126   2.0000      -0.843110       -22.9422
 127   2.0000      -0.827248       -22.5106
 128   2.0000      -0.815285       -22.1850
 129   2.0000      -0.811494       -22.0819
 130   2.0000      -0.810676       -22.0596
 131   2.0000      -0.787654       -21.4332
 132   2.0000      -0.786026       -21.3889
 133   2.0000      -0.776655       -21.1339
 134   2.0000      -0.772933       -21.0326
 135   2.0000      -0.758433       -20.6380
 136   2.0000      -0.756118       -20.5750
 137   2.0000      -0.747277       -20.3344
 138   2.0000      -0.741506       -20.1774
 139   2.0000      -0.720750       -19.6126
 140   2.0000      -0.712025       -19.3752
 141   2.0000      -0.710594       -19.3362
 142   2.0000      -0.700876       -19.0718
 143   2.0000      -0.696124       -18.9425
 144   2.0000      -0.693512       -18.8714
 145   2.0000      -0.689616       -18.7654
 146   2.0000      -0.688194       -18.7267
 147   2.0000      -0.683088       -18.5878
 148   2.0000      -0.679219       -18.4825
 149   2.0000      -0.673299       -18.3214
 150   2.0000      -0.662072       -18.0159
 151   2.0000      -0.658991       -17.9321
 152   2.0000      -0.650843       -17.7103
 153   2.0000      -0.643461       -17.5095
 154   2.0000      -0.637046       -17.3349
 155   2.0000      -0.633398       -17.2356
 156   2.0000      -0.625592       -17.0232
 157   2.0000      -0.622779       -16.9467
 158   2.0000      -0.616362       -16.7721
 159   2.0000      -0.612431       -16.6651
 160   2.0000      -0.609803       -16.5936
 161   2.0000      -0.605539       -16.4776
 162   2.0000      -0.598889       -16.2966
 163   2.0000      -0.588475       -16.0132
 164   2.0000      -0.581764       -15.8306
 165   2.0000      -0.575802       -15.6684
 166   2.0000      -0.571731       -15.5576
 167   2.0000      -0.568840       -15.4789
 168   2.0000      -0.558809       -15.2060
 169   2.0000      -0.555599       -15.1186
 170   2.0000      -0.553404       -15.0589
 171   2.0000      -0.553052       -15.0493
 172   2.0000      -0.550646       -14.9838
 173   2.0000      -0.545657       -14.8481
 174   2.0000      -0.543049       -14.7771
 175   2.0000      -0.542385       -14.7591
 176   2.0000      -0.537386       -14.6230
 177   2.0000      -0.535883       -14.5821
 178   2.0000      -0.529005       -14.3950
 179   2.0000      -0.528102       -14.3704
 180   2.0000      -0.527419       -14.3518
 181   2.0000      -0.525786       -14.3074
 182   2.0000      -0.525191       -14.2912
 183   2.0000      -0.520904       -14.1745
 184   2.0000      -0.519145       -14.1266
 185   2.0000      -0.513665       -13.9775
 186   2.0000      -0.510490       -13.8911
 187   2.0000      -0.509114       -13.8537
 188   2.0000      -0.506255       -13.7759
 189   2.0000      -0.504570       -13.7301
 190   2.0000      -0.504078       -13.7167
 191   2.0000      -0.501240       -13.6394
 192   2.0000      -0.498968       -13.5776
 193   2.0000      -0.495055       -13.4711
 194   2.0000      -0.492661       -13.4060
 195   2.0000      -0.491222       -13.3668
 196   2.0000      -0.490757       -13.3542
 197   2.0000      -0.490516       -13.3476
 198   2.0000      -0.488272       -13.2866
 199   2.0000      -0.481750       -13.1091
 200   2.0000      -0.480382       -13.0719
 201   2.0000      -0.480183       -13.0664
 202   2.0000      -0.478436       -13.0189
 203   2.0000      -0.476930       -12.9779
 204   2.0000      -0.474680       -12.9167
 205   2.0000      -0.474326       -12.9071
 206   2.0000      -0.473792       -12.8925
 207   2.0000      -0.464862       -12.6495
 208   2.0000      -0.463041       -12.6000
 209   2.0000      -0.461574       -12.5601
 210   2.0000      -0.459567       -12.5054
 211   2.0000      -0.458071       -12.4647
 212   2.0000      -0.456848       -12.4315
 213   2.0000      -0.453360       -12.3366
 214   2.0000      -0.451838       -12.2951
 215   2.0000      -0.451360       -12.2821
 216   2.0000      -0.449143       -12.2218
 217   2.0000      -0.448919       -12.2157
 218   2.0000      -0.447537       -12.1781
 219   2.0000      -0.447358       -12.1732
 220   2.0000      -0.446838       -12.1591
 221   2.0000      -0.445177       -12.1139
 222   2.0000      -0.444647       -12.0995
 223   2.0000      -0.443895       -12.0790
 224   2.0000      -0.443174       -12.0594
 225   2.0000      -0.442448       -12.0396
 226   2.0000      -0.441851       -12.0234
 227   2.0000      -0.441769       -12.0212
 228   2.0000      -0.440739       -11.9931
 229   2.0000      -0.439735       -11.9658
 230   2.0000      -0.437146       -11.8953
 231   2.0000      -0.430431       -11.7126
 232   2.0000      -0.429604       -11.6901
 233   2.0000      -0.428926       -11.6717
 234   2.0000      -0.428461       -11.6590
 235   2.0000      -0.424327       -11.5465
 236   2.0000      -0.423980       -11.5371
 237   2.0000      -0.416870       -11.3436
 238   2.0000      -0.415253       -11.2996
 239   2.0000      -0.410659       -11.1746
 240   2.0000      -0.410122       -11.1600
 241   2.0000      -0.408276       -11.1098
 242   2.0000      -0.407331       -11.0840
 243   2.0000      -0.383623       -10.4389
 244   2.0000      -0.378183       -10.2909
 245   2.0000      -0.359882        -9.7929
 246   2.0000      -0.359761        -9.7896
 247   2.0000      -0.358093        -9.7442
 248   2.0000      -0.354978        -9.6594
 249   2.0000      -0.348259        -9.4766
 250   2.0000      -0.343650        -9.3512
 251   2.0000      -0.339679        -9.2431
 252   2.0000      -0.339218        -9.2306
 253   2.0000      -0.333464        -9.0740
 254   2.0000      -0.331522        -9.0212
 255   2.0000      -0.326611        -8.8875
 256   2.0000      -0.325879        -8.8676
 257   2.0000      -0.310491        -8.4489
 258   2.0000      -0.309849        -8.4314
 259   2.0000      -0.277323        -7.5464
 260   2.0000      -0.276132        -7.5139
 261   0.0000      -0.115804        -3.1512
 262   0.0000      -0.114539        -3.1168
 263   0.0000      -0.088568        -2.4101
 264   0.0000      -0.086996        -2.3673
 265   0.0000      -0.066107        -1.7989

MULLIKEN ATOMIC CHARGES
-----------------------
   0 C :   -0.079508
   1 C :   -0.080547
   2 C :    0.115773
   3 C :   -0.077273
   4 C :    0.119476
   5 C :   -0.074365
   6 C :   -0.014687
   7 C :    0.043431
   8 C :    0.297615
   9 C :   -0.347475
  10 C :   -0.181281
  11 N :    0.150955
  12 C :   -0.201329
  13 N :    0.162135
  14 C :   -0.088482
  15 C :    0.153380
  16 O :   -0.146305
  17 C :    0.018364
  18 C :   -0.111040
  19 C :    0.035594
  20 C :   -0.015127
  21 C :   -0.090238
  22 S :    0.207307
  23 C :   -0.092855
  24 C :    0.010776
  25 C :    0.301140
  26 C :   -0.292554
  27 C :   -0.197481
  28 N :    0.186377
  29 C :   -0.186682
  30 N :    0.186634
  31 C :   -0.033575
  32 C :   -0.062826
  33 S :    0.243380
  34 C :   -0.018828
  35 N :   -0.091901
  36 C :   -0.021285
  37 N :   -0.085254
  38 C :    0.121620
  39 N :   -0.085752
  40 C :   -0.067957
  41 C :   -0.026058
  42 C :    0.010384
  43 C :   -0.094929
  44 S :    0.242166
  45 C :   -0.080076
  46 C :    0.001941
  47 C :    0.301476
  48 C :   -0.286809
  49 C :   -0.185563
  50 N :    0.170500
  51 C :   -0.195022
  52 N :    0.188712
  53 C :   -0.004360
  54 C :   -0.107688
  55 S :    0.216310
  56 C :    0.075084
  57 C :   -0.126443
  58 C :    0.131092
  59 O :   -0.142563
  60 C :    0.011487
  61 C :    0.020303
  62 C :   -0.071247
  63 C :   -0.082150
  64 C :   -0.077694
  65 C :   -0.077059
  66 C :    0.117605
  67 C :    0.114359
  68 C :    0.264896
  69 C :   -0.330082
  70 C :   -0.203021
  71 N :    0.170943
  72 C :   -0.168919
  73 N :    0.162714
  74 H :   -0.012789
  75 H :    0.025512
  76 H :    0.027280
  77 H :    0.029574
  78 H :    0.028074
  79 H :    0.018265
  80 H :    0.029501
  81 H :   -0.015236
  82 H :    0.023088
  83 H :    0.032710
  84 H :    0.027355
  85 H :    0.028693
  86 H :    0.026690
  87 H :    0.025050
  88 H :    0.020441
  89 H :   -0.004917
  90 H :   -0.016502
  91 H :    0.028218
  92 H :    0.016937
  93 H :    0.029045
  94 H :    0.026118
  95 H :    0.027787
  96 H :    0.029468
Sum of atomic charges:   -0.0000000

LOEWDIN ATOMIC CHARGES
----------------------
   0 C :   -0.004728
   1 C :   -0.002262
   2 C :   -0.041787
   3 C :   -0.004537
   4 C :   -0.042214
   5 C :    0.009506
   6 C :   -0.047477
   7 C :   -0.018911
   8 C :    0.077051
   9 C :   -0.139418
  10 C :   -0.017698
  11 N :   -0.051641
  12 C :   -0.025131
  13 N :   -0.051140
  14 C :   -0.086321
  15 C :    0.085486
  16 O :   -0.134439
  17 C :    0.037464
  18 C :   -0.173297
  19 C :    0.018920
  20 C :   -0.067459
  21 C :   -0.169133
  22 S :    0.495272
  23 C :   -0.175146
  24 C :   -0.065095
  25 C :    0.074768
  26 C :   -0.092269
  27 C :   -0.018583
  28 N :   -0.024412
  29 C :   -0.019541
  30 N :   -0.019407
  31 C :    0.009578
  32 C :   -0.191404
  33 S :    0.518344
  34 C :    0.037125
  35 N :   -0.138454
  36 C :    0.037723
  37 N :   -0.108599
  38 C :    0.085002
  39 N :   -0.109115
  40 C :   -0.194402
  41 C :    0.011972
  42 C :   -0.067796
  43 C :   -0.169782
  44 S :    0.518381
  45 C :   -0.169148
  46 C :   -0.059370
  47 C :    0.080125
  48 C :   -0.095510
  49 C :   -0.012469
  50 N :   -0.032062
  51 C :   -0.019628
  52 N :   -0.023241
  53 C :    0.004513
  54 C :   -0.175787
  55 S :    0.501989
  56 C :    0.035262
  57 C :   -0.082068
  58 C :    0.084544
  59 O :   -0.141532
  60 C :   -0.051151
  61 C :   -0.014484
  62 C :   -0.004432
  63 C :   -0.000451
  64 C :   -0.006273
  65 C :    0.008442
  66 C :   -0.042253
  67 C :   -0.041455
  68 C :    0.066868
  69 C :   -0.134493
  70 C :   -0.015974
  71 N :   -0.045819
  72 C :   -0.018427
  73 N :   -0.044450
  74 H :    0.036293
  75 H :    0.036087
  76 H :    0.038320
  77 H :    0.039142
  78 H :    0.038768
  79 H :    0.033861
  80 H :    0.039296
  81 H :    0.037151
  82 H :    0.043821
  83 H :    0.045288
  84 H :    0.050068
  85 H :    0.028109
  86 H :    0.050163
  87 H :    0.042339
  88 H :    0.045477
  89 H :    0.037865
  90 H :    0.036489
  91 H :    0.038621
  92 H :    0.033159
  93 H :    0.039046
  94 H :    0.036670
  95 H :    0.038332
  96 H :    0.039377

  Mayer bond orders larger than 0.100000
B(  0-C ,  1-C ) :   1.3785 B(  0-C ,  7-C ) :   1.3458 B(  0-C , 74-H ) :   0.9849
B(  1-C ,  2-C ) :   1.0950 B(  1-C ,  3-C ) :   1.3714 B(  2-C , 75-H ) :   0.9506
B(  2-C , 76-H ) :   0.9397 B(  2-C , 77-H ) :   0.9391 B(  3-C ,  4-C ) :   1.0943
B(  3-C ,  5-C ) :   1.3506 B(  4-C , 78-H ) :   0.9393 B(  4-C , 79-H ) :   0.9512
B(  4-C , 80-H ) :   0.9397 B(  5-C ,  6-C ) :   1.3617 B(  5-C , 81-H ) :   1.0102
B(  6-C ,  7-C ) :   1.3297 B(  6-C , 15-C ) :   0.9505 B(  7-C ,  8-C ) :   0.9929
B(  8-C ,  9-C ) :   1.6461 B(  8-C , 14-C ) :   1.0565 B(  9-C , 10-C ) :   1.1443
B(  9-C , 12-C ) :   1.1347 B( 10-C , 11-N ) :   2.9726 B( 12-C , 13-N ) :   2.9976
B( 14-C , 15-C ) :   0.9307 B( 14-C , 17-C ) :   1.6390 B( 15-C , 16-O ) :   2.2015
B( 17-C , 18-C ) :   1.1631 B( 17-C , 82-H ) :   0.9282 B( 18-C , 19-C ) :   1.4294
B( 18-C , 22-S ) :   1.0867 B( 19-C , 20-C ) :   1.3209 B( 19-C , 83-H ) :   0.9758
B( 20-C , 21-C ) :   1.4070 B( 20-C , 25-C ) :   0.9944 B( 21-C , 22-S ) :   1.1573
B( 21-C , 23-C ) :   1.1920 B( 23-C , 24-C ) :   1.4257 B( 23-C , 33-S ) :   1.1387
B( 24-C , 25-C ) :   0.9934 B( 24-C , 31-C ) :   1.2674 B( 25-C , 26-C ) :   1.7229
B( 26-C , 27-C ) :   1.1361 B( 26-C , 29-C ) :   1.1338 B( 27-C , 28-N ) :   3.0002
B( 29-C , 30-N ) :   2.9935 B( 31-C , 32-C ) :   1.4807 B( 31-C , 84-H ) :   1.0070
B( 32-C , 33-S ) :   1.1126 B( 32-C , 34-C ) :   1.0261 B( 34-C , 35-N ) :   1.5636
B( 34-C , 39-N ) :   1.5943 B( 35-N , 36-C ) :   1.5620 B( 36-C , 37-N ) :   1.5942
B( 36-C , 40-C ) :   1.0300 B( 37-N , 38-C ) :   1.4994 B( 38-C , 39-N ) :   1.4979
B( 38-C , 85-H ) :   0.9766 B( 40-C , 41-C ) :   1.4794 B( 40-C , 44-S ) :   1.1097
B( 41-C , 42-C ) :   1.2671 B( 41-C , 86-H ) :   1.0074 B( 42-C , 43-C ) :   1.4275
B( 42-C , 47-C ) :   0.9941 B( 43-C , 44-S ) :   1.1426 B( 43-C , 45-C ) :   1.1875
B( 45-C , 46-C ) :   1.4290 B( 45-C , 55-S ) :   1.1480 B( 46-C , 47-C ) :   0.9986
B( 46-C , 53-C ) :   1.3449 B( 47-C , 48-C ) :   1.7207 B( 48-C , 49-C ) :   1.1362
B( 48-C , 51-C ) :   1.1333 B( 49-C , 50-N ) :   2.9818 B( 51-C , 52-N ) :   3.0034
B( 53-C , 54-C ) :   1.4141 B( 53-C , 87-H ) :   0.9805 B( 54-C , 55-S ) :   1.1010
B( 54-C , 56-C ) :   1.1107 B( 56-C , 57-C ) :   1.7095 B( 56-C , 88-H ) :   0.9260
B( 57-C , 58-C ) :   0.9320 B( 57-C , 68-C ) :   1.0201 B( 58-C , 59-O ) :   2.2642
B( 58-C , 60-C ) :   0.9264 B( 60-C , 61-C ) :   1.3303 B( 60-C , 65-C ) :   1.3607
B( 61-C , 62-C ) :   1.3546 B( 61-C , 68-C ) :   1.0013 B( 62-C , 63-C ) :   1.3757
B( 62-C , 89-H ) :   0.9872 B( 63-C , 64-C ) :   1.3705 B( 63-C , 67-C ) :   1.0944
B( 64-C , 65-C ) :   1.3581 B( 64-C , 66-C ) :   1.0940 B( 65-C , 90-H ) :   1.0093
B( 66-C , 91-H ) :   0.9403 B( 66-C , 92-H ) :   0.9516 B( 66-C , 93-H ) :   0.9401
B( 67-C , 94-H ) :   0.9511 B( 67-C , 95-H ) :   0.9407 B( 67-C , 96-H ) :   0.9390
B( 68-C , 69-C ) :   1.6601 B( 69-C , 70-C ) :   1.1711 B( 69-C , 72-C ) :   1.1248
B( 70-C , 71-N ) :   2.9990 B( 72-C , 73-N ) :   2.9963

-----------------------------------------------------------------------------
         ABSORPTION SPECTRUM VIA TRANSITION ELECTRIC DIPOLE MOMENTS
-----------------------------------------------------------------------------
State   Energy  Wavelength   fosc         T2         TX        TY        TZ
        (cm-1)    (nm)                  (au**2)     (au)      (au)      (au)
-----------------------------------------------------------------------------
   0   15733.7    635.6   0.237381324   4.96697   0.49563  -1.28922   1.74907
   1   16344.1    611.8   0.205468146   4.13866   1.71741  -1.07009  -0.20989
   2   22568.9    443.1   0.953308657  13.90588   1.20675  -1.98305   2.91842
   3   23647.1    422.9   0.998282010  13.89795  -3.09340   1.88133   0.88849
   4   24482.9    408.4   0.013093566   0.17606  -0.34915   0.22208  -0.06956
   5   25251.8    396.0   0.003669879   0.04784   0.15033  -0.15469   0.03629
   6   26889.9    371.9   0.017338693   0.21228   0.38256   0.21761   0.13627
   7   27103.7    369.0   0.019054416   0.23144   0.17854  -0.14904   0.42113
   8   28563.2    350.1   0.315140951   3.63224  -0.56453   1.05914  -1.48046
   9   28788.6    347.4   0.033483382   0.38290   0.29438   0.46696   0.27963
  10   29144.1    343.1   0.268990442   3.03851   0.60856   0.71029  -1.47094
  11   29882.0    334.6   0.240963132   2.65471  -0.90983  -0.29950   1.31804
  12   29981.9    333.5   0.001476553   0.01621  -0.05074   0.11677   0.00157
  13   30405.6    328.9   0.346329871   3.74984   1.75829  -0.38690  -0.71314
  14   30580.1    327.0   1.099892346  11.84095   0.94471  -2.60872   2.03545
  15   31165.7    320.9   0.199633480   2.10878  -0.36306   0.26163  -1.38149
  16   31927.2    313.2   0.151252377   1.55962  -1.17106   0.34682  -0.26065
  17   31986.2    312.6   0.040711031   0.41901   0.36242   0.26329  -0.46727
  18   32423.9    308.4   0.023473317   0.23833  -0.46947  -0.10860   0.07834
  19   32933.4    303.6   0.003173510   0.03172  -0.00110   0.17675   0.02191
  20   33035.0    302.7   0.078766083   0.78495   0.13255  -0.76404  -0.42852
  21   33172.9    301.5   0.172632841   1.71323  -0.49031  -0.53382   1.08989
  22   33309.1    300.2   0.067775500   0.66986  -0.57748   0.38589   0.43297
  23   33378.7    299.6   0.223829519   2.20761  -0.38944   0.91333  -1.10534
  24   33494.5    298.6   0.142072512   1.39641   0.74128  -0.57783   0.71626
  25   33627.2    297.4   0.191043244   1.87032  -1.10681  -0.65774   0.46116
  26   34064.6    293.6   0.041682407   0.40283   0.13835  -0.19253  -0.58875
  27   34285.3    291.7   0.006414030   0.06159   0.14365   0.20103  -0.02321
  28   34361.6    291.0   0.071750594   0.68743   0.16979  -0.47414   0.65863
  29   34682.9    288.3   0.001588806   0.01508   0.06596   0.05778   0.08598
  30   34850.0    286.9   0.019698910   0.18609  -0.37680   0.08081   0.19384
  31   35081.3    285.1   0.063706259   0.59784   0.67382  -0.20009  -0.32212
  32   35395.4    282.5   0.120418688   1.12001  -0.82507   0.44937   0.48717
  33   35494.1    281.7   0.092947424   0.86210  -0.79222   0.33118   0.35327
  34   35778.6    279.5   0.087531829   0.80541  -0.68407  -0.46192   0.35227
  35   35880.8    278.7   0.003681866   0.03378   0.00538   0.18297   0.01654
  36   36015.0    277.7   0.226205004   2.06773   0.09140   0.29320   1.40478
  37   36077.7    277.2   0.070505363   0.64337   0.43668   0.10359   0.66479
  38   36193.0    276.3   0.247064883   2.24730   0.12311  -0.28081  -1.46741
  39   36346.3    275.1   0.068680268   0.62208   0.35107   0.01099  -0.70619
  40   36620.8    273.1   0.438870488   3.94534  -1.42914  -0.98343   0.96735
  41   36656.3    272.8   0.002215407   0.01990  -0.01363  -0.09544   0.10297
  42   36914.0    270.9   0.023538846   0.20993  -0.08181  -0.44352   0.08079
  43   37435.7    267.1   0.048185102   0.42374   0.46519  -0.35621  -0.28365
  44   38130.3    262.3   0.245916112   2.12321  -0.75269   0.43283   1.17018
  45   38203.7    261.8   0.033157995   0.28573  -0.47622  -0.16609  -0.17709
  46   38832.5    257.5   0.005158910   0.04374  -0.09710  -0.12359   0.13797
  47   38992.9    256.5   0.001069964   0.00903  -0.04958   0.05675   0.05792
  48   39367.9    254.0   0.099676771   0.83354  -0.71453  -0.26217   0.50424
  49   39823.2    251.1   0.000248536   0.00205  -0.02729  -0.03191   0.01707
  50   40178.4    248.9   0.037321689   0.30580  -0.44587  -0.09197  -0.31392

FINAL SINGLE POINT ENERGY     -4527.022240803673

DIPOLE MOMENT
-------------
                                X             Y             Z
Electronic contribution:     40.89323      14.41466     -17.50815
Nuclear contribution   :    -44.05020     -16.53443      17.57187
                        -----------------------------------------
Total Dipole Moment    :     -3.15697      -2.11976       0.06372
                        -----------------------------------------
Magnitude (a.u.)       :      3.80315
Magnitude (Debye)      :      9.66684

Rotational constants in cm-1:     0.001365     0.000230     0.000202
Rotational constants in MHz :    40.926991     6.898446     6.064226

                             ****ORCA TERMINATED NORMALLY****
TOTAL RUN TIME: 0 days 0 hours 9 minutes 26 seconds 805 msec
