                         Program Version 4.2.0 -  RELEASE  -
|  1> # ORCA input file
|  2> # SCF done       -192.850930921063          0.000818131481
|  3> ! CAM-B3LYP def2-SVP def2/J RIJCOSX Grid4 TightSCF
|  4> %maxcore 5000
|  5> %tddft
|  6>     Mode sTDDFT
|  7>     Ethresh 5.0
|  8>     maxcore 5000
|  9> end
| 10>
| 11> %pal
| 12>   nprocs 6
| 13>   end
| 14> * xyz 0 1
| 15>    C       -2.10407        -1.08308        -1.39313
| 16>    C       -2.38036        -0.64739        -2.68584
| 17>    C       -3.16287         0.61124        -2.88217
| 18>    C       -1.93217        -1.37867        -3.79829
| 19>    C       -2.23814        -0.91251        -5.18479
| 20>    C       -1.19809        -2.54344        -3.60337
| 21>    C       -0.92735        -2.96638        -2.31785
| 22>    C       -1.37906        -2.24781        -1.19933
| 23>    C       -0.95708        -2.94388         0.00931
| 24>    C       -1.31658        -2.59787         1.28541
| 25>    C       -2.10896        -1.47347         1.60272
| 26>    N       -2.74189        -0.57483         1.93376
| 27>    C       -0.99066        -3.30332         2.46334
| 28>    N       -0.78902        -3.82302         3.46783
| 29>    C       -0.15627        -4.09220        -0.39764
| 30>    C       -0.17146        -4.15076        -1.88527
| 31>    O        0.35170        -4.96706        -2.61306
| 32>    C        0.56060        -4.86361         0.47041
| 33>    C        1.34534        -6.01849         0.25411
| 34>    C        1.50304        -6.85722        -0.84004
| 35>    C        2.39261        -7.89273        -0.58122
| 36>    C        2.92392        -7.85509         0.72475
| 37>    S        2.31008        -6.56014         1.63557
| 38>    C        3.85393        -8.91938         0.86148
| 39>    C        3.91130        -9.62140        -0.35237
| 40>    C        2.96951        -9.02705        -1.28735
| 41>    C        2.66575        -9.47458        -2.53777
| 42>    C        3.26609       -10.63169        -3.08224
| 43>    N        3.73202       -11.58480        -3.51610
| 44>    C        1.69878        -8.86158        -3.36523
| 45>    N        0.90586        -8.40271        -4.05349
| 46>    C        4.85081       -10.65530        -0.33607
| 47>    C        5.48594       -10.74742         0.88223
| 48>    S        4.91687        -9.55477         2.03581
| 49>    C        6.53987       -11.66413         1.23173
| 50>    C        6.71039       -12.24636         2.47560
| 51>    C        5.89584       -12.09104         3.59732
| 52>    N        5.22863       -11.97584         4.52478
| 53>    S        8.08659       -13.30647         2.52775
| 54>    C        8.47109       -12.95838         0.87223
| 55>    C        7.55344       -12.07419         0.31730
| 56>    C        7.62161       -11.57591        -0.99456
| 57>    N        7.66227       -11.13821        -2.05402
| 58>    C        9.62472       -13.52675         0.26358
| 59>    C       10.23624       -13.15787        -0.92139
| 60>    C       11.37553       -13.91995        -1.17479
| 61>    C       11.62467       -14.88734        -0.18421
| 62>    S       10.46895       -14.84620         1.06624
| 63>    C       12.79526       -15.60857        -0.53455
| 64>    C       13.28982       -15.08294        -1.74241
| 65>    C       12.41501       -14.01076        -2.18753
| 66>    C       12.55456       -13.26534        -3.31978
| 67>    C       13.62042       -13.49294        -4.21732
| 68>    N       14.49436       -13.68784        -4.93336
| 69>    C       11.67591       -12.21331        -3.65901
| 70>    N       10.98683       -11.33916        -3.93062
| 71>    C       14.44090       -15.72607        -2.18111
| 72>    C       14.82504       -16.75022        -1.33029
| 73>    S       13.75459       -16.88571         0.05573
| 74>    C       15.95225       -17.60280        -1.42923
| 75>    C       16.71418       -17.86978        -2.52032
| 76>    C       18.08883       -18.42988        -2.31840
| 77>    O       18.51612       -18.92256        -1.30093
| 78>    C       18.78695       -18.18427        -3.58889
| 79>    C       17.88050       -17.67038        -4.53475
| 80>    C       18.33066       -17.32385        -5.79641
| 81>    C       19.67295       -17.49933        -6.12067
| 82>    C       20.57035       -18.03013        -5.17871
| 83>    C       20.11772       -18.36865        -3.90767
| 84>    C       22.00846       -18.22720        -5.53442
| 85>    C       20.15326       -17.11641        -7.48288
| 86>    C       16.54963       -17.62171        -3.94045
| 87>    C       15.37340       -17.60656        -4.64152
| 88>    C       14.10555       -17.77774        -4.05210
| 89>    N       13.05804       -17.93796        -3.61007
| 90>    C       15.30200       -17.50726        -6.04773
| 91>    N       15.19100       -17.43418        -7.18711
| 92>    H       -2.45735        -0.50057        -0.55768
| 93>    H       -3.42921         1.05377        -1.92640
| 94>    H       -4.07717         0.40937        -3.43918
| 95>    H       -2.58390         1.33630        -3.45326
| 96>    H       -1.82416         0.08083        -5.35532
| 97>    H       -3.31490        -0.84997        -5.33881
| 98>    H       -1.82076        -1.59420        -5.92057
| 99>    H       -0.83972        -3.12277        -4.44108
|100>    H        0.56153        -4.54469         1.50647
|101>    H        0.99880        -6.69062        -1.77470
|102>    H        5.05266       -11.31294        -1.16141
|103>    H        9.87505       -12.36809        -1.55374
|104>    H       15.00444       -15.44416        -3.05133
|105>    H       16.30073       -18.05014        -0.50332
|106>    H       17.65880       -16.90383        -6.52829
|107>    H       20.79337       -18.77316        -3.16902
|108>    H       22.46390       -17.28107        -5.82508
|109>    H       22.10393       -18.90986        -6.37818
|110>    H       22.56148       -18.63544        -4.69308
|111>    H       19.33507       -16.73622        -8.08783
|112>    H       20.59064       -17.97587        -7.98944
|113>    H       20.92340       -16.34862        -7.41483
|114> *
|115>
|116>                          ****END OF INPUT****

CARTESIAN COORDINATES (ANGSTROEM)
---------------------------------
  C     -2.104070   -1.083080   -1.393130
  C     -2.380360   -0.647390   -2.685840
  C     -3.162870    0.611240   -2.882170
  C     -1.932170   -1.378670   -3.798290
  C     -2.238140   -0.912510   -5.184790
  C     -1.198090   -2.543440   -3.603370
  C     -0.927350   -2.966380   -2.317850
  C     -1.379060   -2.247810   -1.199330
  C     -0.957080   -2.943880    0.009310
  C     -1.316580   -2.597870    1.285410
  C     -2.108960   -1.473470    1.602720
  N     -2.741890   -0.574830    1.933760
  C     -0.990660   -3.303320    2.463340
  N     -0.789020   -3.823020    3.467830
  C     -0.156270   -4.092200   -0.397640
  C     -0.171460   -4.150760   -1.885270
  O      0.351700   -4.967060   -2.613060
  C      0.560600   -4.863610    0.470410
  C      1.345340   -6.018490    0.254110
  C      1.503040   -6.857220   -0.840040
  C      2.392610   -7.892730   -0.581220
  C      2.923920   -7.855090    0.724750
  S      2.310080   -6.560140    1.635570
  C      3.853930   -8.919380    0.861480
  C      3.911300   -9.621400   -0.352370
  C      2.969510   -9.027050   -1.287350
  C      2.665750   -9.474580   -2.537770
  C      3.266090  -10.631690   -3.082240
  N      3.732020  -11.584800   -3.516100
  C      1.698780   -8.861580   -3.365230
  N      0.905860   -8.402710   -4.053490
  C      4.850810  -10.655300   -0.336070
  C      5.485940  -10.747420    0.882230
  S      4.916870   -9.554770    2.035810
  C      6.539870  -11.664130    1.231730
  C      6.710390  -12.246360    2.475600
  C      5.895840  -12.091040    3.597320
  N      5.228630  -11.975840    4.524780
  S      8.086590  -13.306470    2.527750
  C      8.471090  -12.958380    0.872230
  C      7.553440  -12.074190    0.317300
  C      7.621610  -11.575910   -0.994560
  N      7.662270  -11.138210   -2.054020
  C      9.624720  -13.526750    0.263580
  C     10.236240  -13.157870   -0.921390
  C     11.375530  -13.919950   -1.174790
  C     11.624670  -14.887340   -0.184210
  S     10.468950  -14.846200    1.066240
  C     12.795260  -15.608570   -0.534550
  C     13.289820  -15.082940   -1.742410
  C     12.415010  -14.010760   -2.187530
  C     12.554560  -13.265340   -3.319780
  C     13.620420  -13.492940   -4.217320
  N     14.494360  -13.687840   -4.933360
  C     11.675910  -12.213310   -3.659010
  N     10.986830  -11.339160   -3.930620
  C     14.440900  -15.726070   -2.181110
  C     14.825040  -16.750220   -1.330290
  S     13.754590  -16.885710    0.055730
  C     15.952250  -17.602800   -1.429230
  C     16.714180  -17.869780   -2.520320
  C     18.088830  -18.429880   -2.318400
  O     18.516120  -18.922560   -1.300930
  C     18.786950  -18.184270   -3.588890
  C     17.880500  -17.670380   -4.534750
  C     18.330660  -17.323850   -5.796410
  C     19.672950  -17.499330   -6.120670
  C     20.570350  -18.030130   -5.178710
  C     20.117720  -18.368650   -3.907670
  C     22.008460  -18.227200   -5.534420
  C     20.153260  -17.116410   -7.482880
  C     16.549630  -17.621710   -3.940450
  C     15.373400  -17.606560   -4.641520
  C     14.105550  -17.777740   -4.052100
  N     13.058040  -17.937960   -3.610070
  C     15.302000  -17.507260   -6.047730
  N     15.191000  -17.434180   -7.187110
  H     -2.457350   -0.500570   -0.557680
  H     -3.429210    1.053770   -1.926400
  H     -4.077170    0.409370   -3.439180
  H     -2.583900    1.336300   -3.453260
  H     -1.824160    0.080830   -5.355320
  H     -3.314900   -0.849970   -5.338810
  H     -1.820760   -1.594200   -5.920570
  H     -0.839720   -3.122770   -4.441080
  H      0.561530   -4.544690    1.506470
  H      0.998800   -6.690620   -1.774700
  H      5.052660  -11.312940   -1.161410
  H      9.875050  -12.368090   -1.553740
  H     15.004440  -15.444160   -3.051330
  H     16.300730  -18.050140   -0.503320
  H     17.658800  -16.903830   -6.528290
  H     20.793370  -18.773160   -3.169020
  H     22.463900  -17.281070   -5.825080
  H     22.103930  -18.909860   -6.378180
  H     22.561480  -18.635440   -4.693080
  H     19.335070  -16.736220   -8.087830
  H     20.590640  -17.975870   -7.989440
  H     20.923400  -16.348620   -7.414830

 Total Charge           Charge          ....    0
 Multiplicity           Mult            ....    1
 Number of Electrons    NEL             ....  548
 Basis Dimension        Dim             .... 1208

ORBITAL ENERGIES
----------------

  NO   OCC          E(Eh)            E(eV)
   0   2.0000     -89.011600     -2422.1288
   1   2.0000     -89.010752     -2422.1057
   2   2.0000     -89.005021     -2421.9498
   3   2.0000     -89.001005     -2421.8405
   4   2.0000     -88.996150     -2421.7084
   5   2.0000     -19.221726      -523.0498
   6   2.0000     -19.218703      -522.9675
   7   2.0000     -14.440753      -392.9529
   8   2.0000     -14.436455      -392.8359
   9   2.0000     -14.430098      -392.6629
  10   2.0000     -14.430004      -392.6604
  11   2.0000     -14.428523      -392.6201
  12   2.0000     -14.428086      -392.6082
  13   2.0000     -14.423328      -392.4787
  14   2.0000     -14.417900      -392.3310
  15   2.0000     -14.417463      -392.3191
  16   2.0000     -14.413449      -392.2099
  17   2.0000     -10.377147      -282.3765
  18   2.0000     -10.372553      -282.2515
  19   2.0000     -10.370341      -282.1913
  20   2.0000     -10.369409      -282.1660
  21   2.0000     -10.368057      -282.1292
  22   2.0000     -10.362745      -281.9846
  23   2.0000     -10.359989      -281.9096
  24   2.0000     -10.354802      -281.7685
  25   2.0000     -10.353957      -281.7455
  26   2.0000     -10.350847      -281.6609
  27   2.0000     -10.350173      -281.6425
  28   2.0000     -10.350115      -281.6410
  29   2.0000     -10.348753      -281.6039
  30   2.0000     -10.348275      -281.5909
  31   2.0000     -10.345403      -281.5127
  32   2.0000     -10.345200      -281.5072
  33   2.0000     -10.342146      -281.4241
  34   2.0000     -10.341978      -281.4195
  35   2.0000     -10.341115      -281.3960
  36   2.0000     -10.340493      -281.3791
  37   2.0000     -10.339329      -281.3474
  38   2.0000     -10.337792      -281.3056
  39   2.0000     -10.334979      -281.2291
  40   2.0000     -10.331949      -281.1466
  41   2.0000     -10.330073      -281.0956
  42   2.0000     -10.329457      -281.0788
  43   2.0000     -10.329350      -281.0759
  44   2.0000     -10.328294      -281.0472
  45   2.0000     -10.327029      -281.0128
  46   2.0000     -10.326725      -281.0045
  47   2.0000     -10.324490      -280.9437
  48   2.0000     -10.323004      -280.9032
  49   2.0000     -10.321952      -280.8746
  50   2.0000     -10.320411      -280.8327
  51   2.0000     -10.320141      -280.8253
  52   2.0000     -10.318658      -280.7850
  53   2.0000     -10.318122      -280.7704
  54   2.0000     -10.316622      -280.7295
  55   2.0000     -10.312988      -280.6307
  56   2.0000     -10.312317      -280.6124
  57   2.0000     -10.309307      -280.5305
  58   2.0000     -10.308644      -280.5125
  59   2.0000     -10.307205      -280.4733
  60   2.0000     -10.304803      -280.4079
  61   2.0000     -10.302570      -280.3472
  62   2.0000     -10.301857      -280.3278
  63   2.0000     -10.301394      -280.3152
  64   2.0000     -10.300412      -280.2885
  65   2.0000     -10.296316      -280.1770
  66   2.0000     -10.295892      -280.1655
  67   2.0000     -10.294480      -280.1271
  68   2.0000     -10.293515      -280.1008
  69   2.0000     -10.293293      -280.0947
  70   2.0000     -10.288011      -279.9510
  71   2.0000     -10.287738      -279.9436
  72   2.0000     -10.286016      -279.8967
  73   2.0000     -10.280768      -279.7539
  74   2.0000     -10.278295      -279.6866
  75   2.0000     -10.275869      -279.6206
  76   2.0000     -10.274373      -279.5799
  77   2.0000      -8.106337      -220.5846
  78   2.0000      -8.106041      -220.5766
  79   2.0000      -8.099656      -220.4028
  80   2.0000      -8.095257      -220.2831
  81   2.0000      -8.090939      -220.1656
  82   2.0000      -6.075647      -165.3267
  83   2.0000      -6.075539      -165.3238
  84   2.0000      -6.071399      -165.2112
  85   2.0000      -6.071174      -165.2050
  86   2.0000      -6.068839      -165.1415
  87   2.0000      -6.068618      -165.1355
  88   2.0000      -6.067867      -165.1151
  89   2.0000      -6.064632      -165.0270
  90   2.0000      -6.064552      -165.0249
  91   2.0000      -6.062152      -164.9595
  92   2.0000      -6.060214      -164.9068
  93   2.0000      -6.060029      -164.9018
  94   2.0000      -6.057661      -164.8373
  95   2.0000      -6.055881      -164.7889
  96   2.0000      -6.053499      -164.7241
  97   2.0000      -1.137040       -30.9404
  98   2.0000      -1.134099       -30.8604
  99   2.0000      -1.063162       -28.9301
 100   2.0000      -1.054887       -28.7049
 101   2.0000      -1.047638       -28.5077
 102   2.0000      -1.031421       -28.0664
 103   2.0000      -1.025282       -27.8993
 104   2.0000      -1.021966       -27.8091
 105   2.0000      -1.018586       -27.7171
 106   2.0000      -1.016997       -27.6739
 107   2.0000      -1.015183       -27.6245
 108   2.0000      -1.013461       -27.5777
 109   2.0000      -1.006900       -27.3991
 110   2.0000      -1.005054       -27.3489
 111   2.0000      -1.003252       -27.2999
 112   2.0000      -1.002490       -27.2791
 113   2.0000      -0.997334       -27.1388
 114   2.0000      -0.996632       -27.1197
 115   2.0000      -0.993051       -27.0223
 116   2.0000      -0.974576       -26.5196
 117   2.0000      -0.965478       -26.2720
 118   2.0000      -0.960547       -26.1378
 119   2.0000      -0.954565       -25.9750
 120   2.0000      -0.935641       -25.4601
 121   2.0000      -0.925851       -25.1937
 122   2.0000      -0.911774       -24.8106
 123   2.0000      -0.908364       -24.7178
 124   2.0000      -0.907232       -24.6870
 125   2.0000      -0.903927       -24.5971
 126   2.0000      -0.896252       -24.3883
 127   2.0000      -0.887728       -24.1563
 128   2.0000      -0.878685       -23.9102
 129   2.0000      -0.876409       -23.8483
 130   2.0000      -0.873522       -23.7697
 131   2.0000      -0.871206       -23.7067
 132   2.0000      -0.868338       -23.6287
 133   2.0000      -0.862174       -23.4609
 134   2.0000      -0.842824       -22.9344
 135   2.0000      -0.836116       -22.7519
 136   2.0000      -0.814219       -22.1560
 137   2.0000      -0.811044       -22.0696
 138   2.0000      -0.808280       -21.9944
 139   2.0000      -0.798947       -21.7405
 140   2.0000      -0.790856       -21.5203
 141   2.0000      -0.783889       -21.3307
 142   2.0000      -0.770593       -20.9689
 143   2.0000      -0.765522       -20.8309
 144   2.0000      -0.759978       -20.6800
 145   2.0000      -0.753088       -20.4926
 146   2.0000      -0.745624       -20.2895
 147   2.0000      -0.737200       -20.0602
 148   2.0000      -0.719996       -19.5921
 149   2.0000      -0.715410       -19.4673
 150   2.0000      -0.707837       -19.2612
 151   2.0000      -0.705246       -19.1907
 152   2.0000      -0.696902       -18.9637
 153   2.0000      -0.695416       -18.9232
 154   2.0000      -0.689391       -18.7593
 155   2.0000      -0.688754       -18.7419
 156   2.0000      -0.683026       -18.5861
 157   2.0000      -0.679382       -18.4869
 158   2.0000      -0.672500       -18.2997
 159   2.0000      -0.662825       -18.0364
 160   2.0000      -0.654557       -17.8114
 161   2.0000      -0.648852       -17.6562
 162   2.0000      -0.646336       -17.5877
 163   2.0000      -0.636433       -17.3182
 164   2.0000      -0.633557       -17.2400
 165   2.0000      -0.625872       -17.0308
 166   2.0000      -0.620447       -16.8832
 167   2.0000      -0.615254       -16.7419
 168   2.0000      -0.613989       -16.7075
 169   2.0000      -0.608119       -16.5478
 170   2.0000      -0.606063       -16.4918
 171   2.0000      -0.597966       -16.2715
 172   2.0000      -0.589502       -16.0412
 173   2.0000      -0.581716       -15.8293
 174   2.0000      -0.578084       -15.7305
 175   2.0000      -0.574148       -15.6234
 176   2.0000      -0.565136       -15.3781
 177   2.0000      -0.563437       -15.3319
 178   2.0000      -0.560974       -15.2649
 179   2.0000      -0.556245       -15.1362
 180   2.0000      -0.551277       -15.0010
 181   2.0000      -0.550108       -14.9692
 182   2.0000      -0.545331       -14.8392
 183   2.0000      -0.543941       -14.8014
 184   2.0000      -0.542116       -14.7517
 185   2.0000      -0.541099       -14.7240
 186   2.0000      -0.537001       -14.6125
 187   2.0000      -0.532188       -14.4816
 188   2.0000      -0.530402       -14.4330
 189   2.0000      -0.527243       -14.3470
 190   2.0000      -0.525570       -14.3015
 191   2.0000      -0.525183       -14.2910
 192   2.0000      -0.524305       -14.2671
 193   2.0000      -0.522124       -14.2077
 194   2.0000      -0.521228       -14.1833
 195   2.0000      -0.514752       -14.0071
 196   2.0000      -0.513628       -13.9765
 197   2.0000      -0.510333       -13.8869
 198   2.0000      -0.505638       -13.7591
 199   2.0000      -0.503880       -13.7113
 200   2.0000      -0.503226       -13.6935
 201   2.0000      -0.500625       -13.6227
 202   2.0000      -0.498480       -13.5643
 203   2.0000      -0.494516       -13.4565
 204   2.0000      -0.492781       -13.4092
 205   2.0000      -0.490703       -13.3527
 206   2.0000      -0.489812       -13.3285
 207   2.0000      -0.488086       -13.2815
 208   2.0000      -0.487400       -13.2628
 209   2.0000      -0.486652       -13.2425
 210   2.0000      -0.482748       -13.1362
 211   2.0000      -0.480333       -13.0705
 212   2.0000      -0.478980       -13.0337
 213   2.0000      -0.477302       -12.9880
 214   2.0000      -0.476934       -12.9780
 215   2.0000      -0.475235       -12.9318
 216   2.0000      -0.471536       -12.8311
 217   2.0000      -0.469463       -12.7747
 218   2.0000      -0.465744       -12.6735
 219   2.0000      -0.464805       -12.6480
 220   2.0000      -0.461408       -12.5556
 221   2.0000      -0.459326       -12.4989
 222   2.0000      -0.457215       -12.4415
 223   2.0000      -0.456363       -12.4183
 224   2.0000      -0.455425       -12.3927
 225   2.0000      -0.454310       -12.3624
 226   2.0000      -0.453177       -12.3316
 227   2.0000      -0.452494       -12.3130
 228   2.0000      -0.450327       -12.2540
 229   2.0000      -0.449304       -12.2262
 230   2.0000      -0.448262       -12.1978
 231   2.0000      -0.447535       -12.1780
 232   2.0000      -0.447191       -12.1687
 233   2.0000      -0.446566       -12.1517
 234   2.0000      -0.446186       -12.1413
 235   2.0000      -0.444632       -12.0991
 236   2.0000      -0.443906       -12.0793
 237   2.0000      -0.442439       -12.0394
 238   2.0000      -0.441089       -12.0026
 239   2.0000      -0.439658       -11.9637
 240   2.0000      -0.438001       -11.9186
 241   2.0000      -0.437463       -11.9040
 242   2.0000      -0.434595       -11.8259
 243   2.0000      -0.433079       -11.7847
 244   2.0000      -0.432903       -11.7799
 245   2.0000      -0.431927       -11.7533
 246   2.0000      -0.430276       -11.7084
 247   2.0000      -0.426409       -11.6032
 248   2.0000      -0.425961       -11.5910
 249   2.0000      -0.425264       -11.5720
 250   2.0000      -0.421881       -11.4800
 251   2.0000      -0.420362       -11.4386
 252   2.0000      -0.416355       -11.3296
 253   2.0000      -0.411040       -11.1850
 254   2.0000      -0.408848       -11.1253
 255   2.0000      -0.405376       -11.0309
 256   2.0000      -0.397174       -10.8077
 257   2.0000      -0.388739       -10.5781
 258   2.0000      -0.371610       -10.1120
 259   2.0000      -0.367547       -10.0014
 260   2.0000      -0.361664        -9.8414
 261   2.0000      -0.354970        -9.6592
 262   2.0000      -0.343896        -9.3579
 263   2.0000      -0.341904        -9.3037
 264   2.0000      -0.339565        -9.2400
 265   2.0000      -0.336970        -9.1694
 266   2.0000      -0.335312        -9.1243
 267   2.0000      -0.330486        -8.9930
 268   2.0000      -0.325886        -8.8678
 269   2.0000      -0.321421        -8.7463
 270   2.0000      -0.312204        -8.4955
 271   2.0000      -0.306983        -8.3534
 272   2.0000      -0.278189        -7.5699
 273   2.0000      -0.271500        -7.3879
 274   0.0000      -0.122647        -3.3374
 275   0.0000      -0.112449        -3.0599
 276   0.0000      -0.092224        -2.5095
 277   0.0000      -0.085573        -2.3286
 278   0.0000      -0.074957        -2.0397

MULLIKEN ATOMIC CHARGES
-----------------------
   0 C :   -0.075611
   1 C :   -0.080786
   2 C :    0.114763
   3 C :   -0.078923
   4 C :    0.119371
   5 C :   -0.073334
   6 C :   -0.010312
   7 C :    0.038539
   8 C :    0.312208
   9 C :   -0.354582
  10 C :   -0.181647
  11 N :    0.147403
  12 C :   -0.194529
  13 N :    0.155399
  14 C :   -0.084287
  15 C :    0.155966
  16 O :   -0.146912
  17 C :    0.031989
  18 C :   -0.115346
  19 C :   -0.001083
  20 C :   -0.007308
  21 C :   -0.084412
  22 S :    0.210073
  23 C :   -0.092602
  24 C :    0.012398
  25 C :    0.307104
  26 C :   -0.290434
  27 C :   -0.191143
  28 N :    0.184882
  29 C :   -0.190799
  30 N :    0.192033
  31 C :   -0.003375
  32 C :   -0.183499
  33 S :    0.232678
  34 C :    0.302045
  35 C :   -0.333743
  36 C :   -0.218066
  37 N :    0.167109
  38 S :    0.230783
  39 C :   -0.023109
  40 C :   -0.093799
  41 C :   -0.260532
  42 N :    0.184502
  43 C :   -0.088904
  44 C :   -0.042589
  45 C :    0.019749
  46 C :   -0.092522
  47 S :    0.201459
  48 C :   -0.077085
  49 C :   -0.002408
  50 C :    0.310073
  51 C :   -0.281032
  52 C :   -0.184112
  53 N :    0.171347
  54 C :   -0.194181
  55 N :    0.198693
  56 C :   -0.002471
  57 C :   -0.109590
  58 S :    0.220758
  59 C :    0.080352
  60 C :   -0.129623
  61 C :    0.133848
  62 O :   -0.139562
  63 C :    0.010116
  64 C :    0.022070
  65 C :   -0.070498
  66 C :   -0.084511
  67 C :   -0.079611
  68 C :   -0.077035
  69 C :    0.117634
  70 C :    0.115958
  71 C :    0.261677
  72 C :   -0.328033
  73 C :   -0.197776
  74 N :    0.167682
  75 C :   -0.171384
  76 N :    0.163617
  77 H :   -0.014763
  78 H :    0.025658
  79 H :    0.027974
  80 H :    0.027480
  81 H :    0.027526
  82 H :    0.029383
  83 H :    0.018634
  84 H :   -0.014111
  85 H :    0.008888
  86 H :    0.039984
  87 H :    0.030518
  88 H :    0.031007
  89 H :    0.026756
  90 H :    0.021160
  91 H :   -0.004012
  92 H :   -0.016075
  93 H :    0.028516
  94 H :    0.031079
  95 H :    0.017164
  96 H :    0.027099
  97 H :    0.028737
  98 H :    0.030219
Sum of atomic charges:   -0.0000000

LOEWDIN ATOMIC CHARGES
----------------------
   0 C :   -0.004939
   1 C :   -0.002938
   2 C :   -0.041899
   3 C :   -0.004740
   4 C :   -0.042400
   5 C :    0.009615
   6 C :   -0.047244
   7 C :   -0.019560
   8 C :    0.078900
   9 C :   -0.141487
  10 C :   -0.017079
  11 N :   -0.053816
  12 C :   -0.024376
  13 N :   -0.052409
  14 C :   -0.089667
  15 C :    0.087700
  16 O :   -0.133693
  17 C :    0.037922
  18 C :   -0.173609
  19 C :    0.014912
  20 C :   -0.069423
  21 C :   -0.165987
  22 S :    0.499736
  23 C :   -0.178488
  24 C :   -0.058303
  25 C :    0.073668
  26 C :   -0.088163
  27 C :   -0.017140
  28 N :   -0.021870
  29 C :   -0.021697
  30 N :   -0.014469
  31 C :   -0.007592
  32 C :   -0.174383
  33 S :    0.512582
  34 C :   -0.011556
  35 C :   -0.231291
  36 C :   -0.073737
  37 N :   -0.033264
  38 S :    0.492406
  39 C :   -0.134867
  40 C :   -0.103586
  41 C :   -0.036056
  42 N :   -0.027047
  43 C :   -0.193799
  44 C :   -0.002189
  45 C :   -0.061307
  46 C :   -0.165842
  47 S :    0.480459
  48 C :   -0.172364
  49 C :   -0.056629
  50 C :    0.076647
  51 C :   -0.086821
  52 C :   -0.011600
  53 N :   -0.027740
  54 C :   -0.024616
  55 N :   -0.007515
  56 C :    0.002750
  57 C :   -0.173080
  58 S :    0.503395
  59 C :    0.034437
  60 C :   -0.078094
  61 C :    0.084599
  62 O :   -0.139731
  63 C :   -0.051169
  64 C :   -0.014505
  65 C :   -0.003717
  66 C :    0.000090
  67 C :   -0.005687
  68 C :    0.008818
  69 C :   -0.042311
  70 C :   -0.041505
  71 C :    0.066014
  72 C :   -0.133522
  73 C :   -0.016195
  74 N :   -0.045667
  75 C :   -0.019012
  76 N :   -0.042378
  77 H :    0.036002
  78 H :    0.035998
  79 H :    0.038615
  80 H :    0.038101
  81 H :    0.038572
  82 H :    0.039097
  83 H :    0.034012
  84 H :    0.037599
  85 H :    0.042437
  86 H :    0.043508
  87 H :    0.046966
  88 H :    0.049318
  89 H :    0.042496
  90 H :    0.045994
  91 H :    0.038292
  92 H :    0.036747
  93 H :    0.038867
  94 H :    0.039644
  95 H :    0.033333
  96 H :    0.037068
  97 H :    0.039362
  98 H :    0.039091

  Mayer bond orders larger than 0.100000
B(  0-C ,  1-C ) :   1.3791 B(  0-C ,  7-C ) :   1.3434 B(  0-C , 77-H ) :   0.9843
B(  1-C ,  2-C ) :   1.0950 B(  1-C ,  3-C ) :   1.3728 B(  2-C , 78-H ) :   0.9506
B(  2-C , 79-H ) :   0.9394 B(  2-C , 80-H ) :   0.9401 B(  3-C ,  4-C ) :   1.0939
B(  3-C ,  5-C ) :   1.3493 B(  4-C , 81-H ) :   0.9397 B(  4-C , 82-H ) :   0.9398
B(  4-C , 83-H ) :   0.9511 B(  5-C ,  6-C ) :   1.3587 B(  5-C , 84-H ) :   1.0109
B(  6-C ,  7-C ) :   1.3340 B(  6-C , 15-C ) :   0.9571 B(  7-C ,  8-C ) :   0.9873
B(  8-C ,  9-C ) :   1.6281 B(  8-C , 14-C ) :   1.0674 B(  9-C , 10-C ) :   1.1471
B(  9-C , 12-C ) :   1.1368 B( 10-C , 11-N ) :   2.9670 B( 12-C , 13-N ) :   2.9772
B( 14-C , 15-C ) :   0.9283 B( 14-C , 17-C ) :   1.6253 B( 15-C , 16-O ) :   2.1741
B( 17-C , 18-C ) :   1.1911 B( 17-C , 85-H ) :   0.9130 B( 18-C , 19-C ) :   1.4184
B( 18-C , 22-S ) :   1.0853 B( 19-C , 20-C ) :   1.3039 B( 19-C , 86-H ) :   0.9697
B( 20-C , 21-C ) :   1.3984 B( 20-C , 25-C ) :   0.9943 B( 21-C , 22-S ) :   1.1618
B( 21-C , 23-C ) :   1.1849 B( 23-C , 24-C ) :   1.4361 B( 23-C , 33-S ) :   1.1336
B( 24-C , 25-C ) :   0.9901 B( 24-C , 31-C ) :   1.2931 B( 25-C , 26-C ) :   1.7216
B( 26-C , 27-C ) :   1.1370 B( 26-C , 29-C ) :   1.1364 B( 27-C , 28-N ) :   2.9871
B( 29-C , 30-N ) :   2.9956 B( 31-C , 32-C ) :   1.4822 B( 31-C , 87-H ) :   0.9826
B( 32-C , 33-S ) :   1.1175 B( 32-C , 34-C ) :   1.0356 B( 34-C , 35-C ) :   1.4981
B( 34-C , 40-C ) :   1.2843 B( 35-C , 36-C ) :   1.2250 B( 35-C , 38-S ) :   1.1088
B( 35-C , 39-C ) :   0.1162 B( 36-C , 37-N ) :   2.9969 B( 38-S , 39-C ) :   1.1464
B( 39-C , 40-C ) :   1.5095 B( 39-C , 43-C ) :   1.1390 B( 40-C , 41-C ) :   1.1260
B( 41-C , 42-N ) :   2.9459 B( 43-C , 44-C ) :   1.4705 B( 43-C , 47-S ) :   1.0856
B( 44-C , 45-C ) :   1.2952 B( 44-C , 88-H ) :   0.9835 B( 45-C , 46-C ) :   1.4341
B( 45-C , 50-C ) :   0.9903 B( 46-C , 47-S ) :   1.1374 B( 46-C , 48-C ) :   1.1900
B( 48-C , 49-C ) :   1.4258 B( 48-C , 58-S ) :   1.1404 B( 49-C , 50-C ) :   0.9984
B( 49-C , 56-C ) :   1.3475 B( 50-C , 51-C ) :   1.7212 B( 51-C , 52-C ) :   1.1371
B( 51-C , 54-C ) :   1.1323 B( 52-C , 53-N ) :   2.9783 B( 54-C , 55-N ) :   2.9918
B( 56-C , 57-C ) :   1.4143 B( 56-C , 89-H ) :   0.9795 B( 57-C , 58-S ) :   1.1054
B( 57-C , 59-C ) :   1.1064 B( 59-C , 60-C ) :   1.7168 B( 59-C , 90-H ) :   0.9287
B( 60-C , 61-C ) :   0.9293 B( 60-C , 71-C ) :   1.0179 B( 61-C , 62-O ) :   2.2690
B( 61-C , 63-C ) :   0.9241 B( 63-C , 64-C ) :   1.3314 B( 63-C , 68-C ) :   1.3616
B( 64-C , 65-C ) :   1.3542 B( 64-C , 71-C ) :   1.0017 B( 65-C , 66-C ) :   1.3783
B( 65-C , 91-H ) :   0.9865 B( 66-C , 67-C ) :   1.3706 B( 66-C , 70-C ) :   1.0951
B( 67-C , 68-C ) :   1.3584 B( 67-C , 69-C ) :   1.0945 B( 68-C , 92-H ) :   1.0084
B( 69-C , 93-H ) :   0.9396 B( 69-C , 94-H ) :   0.9401 B( 69-C , 95-H ) :   0.9513
B( 70-C , 96-H ) :   0.9504 B( 70-C , 97-H ) :   0.9384 B( 70-C , 98-H ) :   0.9401
B( 71-C , 72-C ) :   1.6603 B( 72-C , 73-C ) :   1.1667 B( 72-C , 75-C ) :   1.1272
B( 73-C , 74-N ) :   2.9995 B( 75-C , 76-N ) :   2.9964

-----------------------------------------------------------------------------
         ABSORPTION SPECTRUM VIA TRANSITION ELECTRIC DIPOLE MOMENTS
-----------------------------------------------------------------------------
State   Energy  Wavelength   fosc         T2         TX        TY        TZ
        (cm-1)    (nm)                  (au**2)     (au)      (au)      (au)
-----------------------------------------------------------------------------
   0   14967.4    668.1   0.313073704   6.88612  -2.06114   1.39793   0.82682
   1   16364.6    611.1   0.215737083   4.34006  -1.33402   1.58249  -0.23705
   2   22156.7    451.3   1.133739470  16.84553   3.00271  -2.24296  -1.67285
   3   22511.7    444.2   0.274635518   4.01629  -1.40228   1.42406   0.14818
   4   23691.1    422.1   0.788970128  10.96352  -1.94589   2.65076  -0.38800
   5   24532.5    407.6   0.056821877   0.76252   0.64976  -0.57027  -0.12298
   6   25776.0    388.0   0.012557286   0.16038  -0.10297  -0.23139  -0.31022
   7   27364.7    365.4   0.358250522   4.30994  -1.98328   0.52761   0.31330
   8   27557.2    362.9   0.199020658   2.37760   1.30060  -0.48823  -0.66908
   9   27843.4    359.2   0.005784494   0.06839  -0.24514  -0.09097  -0.00501
  10   28701.0    348.4   0.142062228   1.62951  -0.60200   0.66770  -0.90625
  11   28877.3    346.3   0.047134320   0.53735   0.14659  -0.36308   0.61971
  12   29189.7    342.6   0.005048202   0.05694  -0.19421   0.09080   0.10475
  13   29455.8    339.5   0.012598874   0.14081   0.25804   0.24471  -0.11976
  14   30096.3    332.3   0.317078794   3.46840  -0.26817  -1.64119   0.83845
  15   30211.1    331.0   0.148184279   1.61477  -0.67606   0.43458   0.98431
  16   31148.2    321.0   0.598947203   6.33041  -1.49519   0.77212  -1.87047
  17   31411.6    318.4   0.283190142   2.96800   0.16362   0.24493   1.69742
  18   31584.1    316.6   0.053565126   0.55833  -0.66081  -0.34147   0.07112
  19   32529.3    307.4   0.133335647   1.34942  -0.46729   0.57883   0.89220
  20   32637.8    306.4   0.132976933   1.34131   1.05906  -0.39520  -0.25205
  21   32748.7    305.4   0.006561056   0.06596   0.14603  -0.03695  -0.20801
  22   32933.8    303.6   0.087511084   0.87478   0.24533   0.06654  -0.90009
  23   32957.5    303.4   0.097406771   0.97299   0.86795  -0.27602  -0.37876
  24   33069.9    302.4   0.067065976   0.66764  -0.19244  -0.09788   0.78806
  25   33196.5    301.2   0.196737362   1.95106  -1.28198   0.50941  -0.21931
  26   33324.4    300.1   0.050462061   0.49851   0.43602  -0.38482  -0.40040
  27   33402.1    299.4   0.193736812   1.90947  -0.23182   0.94703  -0.97922
  28   33584.8    297.8   0.058969784   0.57805   0.26385  -0.29287   0.65012
  29   33989.8    294.2   0.017859717   0.17298  -0.11348   0.00509  -0.40010
  30   34011.4    294.0   0.016523014   0.15993  -0.30930   0.19774  -0.15863
  31   34859.6    286.9   0.082148354   0.77580  -0.40842   0.49648  -0.60208
  32   34977.5    285.9   0.120437719   1.13357  -0.19630   0.69681  -0.78070
  33   35510.6    281.6   0.042238118   0.39158  -0.00779   0.20728   0.59039
  34   35598.8    280.9   0.045150733   0.41755   0.43763  -0.08331   0.46807
  35   35719.2    280.0   0.047629705   0.43899   0.01569   0.06208  -0.65946
  36   35872.8    278.8   0.131152790   1.20362  -0.26213   0.83521  -0.66131
  37   36050.5    277.4   0.506047280   4.62121  -0.35605   0.44057   2.07372
  38   36267.0    275.7   0.380571904   3.45462   1.84374  -0.06122   0.22693
  39   37188.0    268.9   0.029103857   0.25765   0.47455   0.05814   0.17051
  40   37520.5    266.5   0.038477221   0.33761   0.08339  -0.06040  -0.57184
  41   37621.2    265.8   0.084764921   0.74175  -0.79900   0.30012  -0.11528
  42   37722.0    265.1   0.158354384   1.38201   0.44144  -0.67990  -0.85140
  43   37749.9    264.9   0.147017087   1.28212  -0.87615   0.18126  -0.69398
  44   38132.2    262.2   0.012028177   0.10384   0.06734  -0.16673   0.26742
  45   38515.9    259.6   0.023594794   0.20167  -0.07852  -0.07848   0.43514
  46   38905.0    257.0   0.000499660   0.00423  -0.00440   0.01532   0.06304
  47   39197.3    255.1   0.013886176   0.11663   0.20596  -0.17123   0.21187
  48   39425.5    253.6   0.057827866   0.48288   0.04682   0.11780  -0.68323
  49   39768.9    251.5   0.013959696   0.11556  -0.31534   0.06292  -0.11029
  50   39822.3    251.1   0.033046816   0.27320   0.24860   0.01739  -0.45945
  51   40015.0    249.9   0.003035629   0.02497  -0.04726   0.00242  -0.15078
  52   40136.3    249.2   0.002175871   0.01785  -0.00805   0.03346  -0.12908

FINAL SINGLE POINT ENERGY     -4983.912224469055

DIPOLE MOMENT
-------------
                                X             Y             Z
Electronic contribution:    -15.95606     -28.95554      53.35825
Nuclear contribution   :     19.73568      28.66844     -53.19564
                        -----------------------------------------
Total Dipole Moment    :      3.77962      -0.28710       0.16262
                        -----------------------------------------
Magnitude (a.u.)       :      3.79400
Magnitude (Debye)      :      9.64358

Rotational constants in cm-1:     0.001948     0.000187     0.000176
Rotational constants in MHz :    58.414416     5.609011     5.274782

                             ****ORCA TERMINATED NORMALLY****
TOTAL RUN TIME: 0 days 0 hours 9 minutes 52 seconds 593 msec
