                         Program Version 4.2.0 -  RELEASE  -
|  1> # ORCA input file
|  2> # SCF done       -210.610128361079          0.000688915308
|  3> ! CAM-B3LYP def2-SVP def2/J RIJCOSX Grid4 TightSCF
|  4> %maxcore 5000
|  5> %tddft
|  6>     Mode sTDDFT
|  7>     Ethresh 5.0
|  8>     maxcore 5000
|  9> end
| 10>
| 11> %pal
| 12>   nprocs 6
| 13>   end
| 14> * xyz 0 1
| 15>    C        3.01730        -3.25897         9.29574
| 16>    C        2.84997        -1.98883         9.83994
| 17>    C        1.50123        -1.34575         9.79917
| 18>    C        3.93527        -1.31608        10.42537
| 19>    C        3.74875         0.04173        11.02176
| 20>    C        5.18965        -1.91728        10.44862
| 21>    C        5.35143        -3.17382         9.90046
| 22>    C        4.26383        -3.85844         9.32731
| 23>    C        4.71477        -5.17334         8.88819
| 24>    C        3.91632        -6.27476         8.72670
| 25>    C        2.50816        -6.23211         8.76446
| 26>    N        1.36051        -6.24360         8.76722
| 27>    C        4.42439        -7.58359         8.59574
| 28>    N        4.80592        -8.66403         8.52438
| 29>    C        6.16228        -5.17095         8.96142
| 30>    C        6.56907        -3.99529         9.79042
| 31>    O        7.67584        -3.76483        10.21755
| 32>    C        7.11598        -5.92612         8.35826
| 33>    C        7.00670        -6.79059         7.24170
| 34>    C        7.93254        -7.75270         6.86836
| 35>    C        7.56916        -8.41199         5.69839
| 36>    C        6.36848        -7.91740         5.14842
| 37>    S        5.69238        -6.65998         6.07524
| 38>    C        6.07500        -8.64197         3.97444
| 39>    C        7.08529        -9.60643         3.77227
| 40>    C        8.07477        -9.46569         4.83378
| 41>    C        9.25530       -10.13446         4.95699
| 42>    C        9.72182       -11.05589         3.99273
| 43>    N       10.14818       -11.76472         3.19999
| 44>    C       10.13596        -9.89959         6.03566
| 45>    N       10.85561        -9.71076         6.90766
| 46>    C        6.85423       -10.41458         2.66706
| 47>    C        5.67756       -10.06158         2.01278
| 48>    S        4.85640        -8.70972         2.78232
| 49>    C        5.12566       -10.68169         0.87758
| 50>    C        5.56595       -11.85686         0.25044
| 51>    C        4.75796       -12.22744        -0.88042
| 52>    N        5.07929       -13.27637        -1.64041
| 53>    C        6.12161       -13.98681        -1.27163
| 54>    C        6.53528       -15.09846        -2.16823
| 55>    O        6.03754       -15.27536        -3.25793
| 56>    C        7.62473       -15.94268        -1.64535
| 57>    C        8.25497       -15.70939        -0.48975
| 58>    C        7.92482       -14.59124         0.41296
| 59>    O        8.46430       -14.43802         1.48583
| 60>    C        6.85019       -13.68802        -0.07797
| 61>    N        6.58493       -12.62345         0.64571
| 62>    C        3.67925       -11.35625        -1.09528
| 63>    S        3.71380       -10.07296         0.07140
| 64>    C        2.67304       -11.47784        -2.07045
| 65>    C        2.44531       -12.57947        -2.88897
| 66>    C        1.33674       -12.38991        -3.70277
| 67>    C        0.72891       -11.12764        -3.52932
| 68>    S        1.50510       -10.18921        -2.33479
| 69>    C       -0.37823       -11.03116        -4.40155
| 70>    C       -0.48048       -12.23661        -5.12615
| 71>    C        0.57014       -13.13907        -4.68845
| 72>    C        0.72319       -14.44363        -5.05206
| 73>    C       -0.13966       -15.04261        -5.99537
| 74>    N       -0.84698       -15.51204        -6.76620
| 75>    C        1.69602       -15.29428        -4.48241
| 76>    N        2.45347       -16.01417        -4.01246
| 77>    C       -1.57977       -12.26230        -5.97545
| 78>    C       -2.32183       -11.09335        -5.90878
| 79>    S       -1.61409        -9.92872        -4.79836
| 80>    C       -3.50206       -10.75468        -6.61327
| 81>    C       -4.40983       -11.58905        -7.18292
| 82>    C       -5.35319       -11.04055        -8.20632
| 83>    O       -5.55859        -9.87079        -8.43378
| 84>    C       -5.90940       -12.22151        -8.88326
| 85>    C       -5.45732       -13.38968        -8.24230
| 86>    C       -5.83078       -14.62758        -8.73501
| 87>    C       -6.66390       -14.70366        -9.84751
| 88>    C       -7.12885       -13.53394       -10.47127
| 89>    C       -6.74031       -12.29050        -9.98369
| 90>    C       -8.03556       -13.61968       -11.65634
| 91>    C       -7.06340       -16.04472       -10.37227
| 92>    C       -4.64953       -13.01634        -7.08626
| 93>    C       -4.41235       -13.82156        -6.00364
| 94>    C       -3.84327       -13.38051        -4.79326
| 95>    N       -3.41448       -13.06841        -3.77462
| 96>    C       -4.80641       -15.17500        -5.93235
| 97>    N       -5.10897       -16.27568        -5.81804
| 98>    H        2.17423        -3.75822         8.84416
| 99>    H        0.77738        -1.99718         9.31764
|100>    H        1.54214        -0.40394         9.25285
|101>    H        1.15307        -1.12537        10.80759
|102>    H        3.00682         0.01124        11.81897
|103>    H        3.39302         0.74486        10.26926
|104>    H        4.68345         0.41448        11.43124
|105>    H        6.03571        -1.41520        10.89340
|106>    H        8.12426        -5.78839         8.73830
|107>    H        8.80649        -7.96907         7.45581
|108>    H        7.46709       -11.23207         2.33110
|109>    H        7.89727       -16.77750        -2.27686
|110>    H        9.05485       -16.35092        -0.14527
|111>    H        3.07762       -13.44883        -2.86154
|112>    H       -1.82156       -13.06986        -6.64225
|113>    H       -3.68868        -9.69603        -6.76604
|114>    H       -5.47490       -15.53676        -8.27681
|115>    H       -7.08312       -11.38022       -10.45240
|116>    H       -8.95257       -14.14860       -11.39889
|117>    H       -7.55645       -14.16897       -12.46607
|118>    H       -8.29579       -12.62785       -12.01530
|119>    H       -6.62531       -16.83891        -9.77451
|120>    H       -6.73784       -16.16430       -11.40508
|121>    H       -8.14715       -16.15378       -10.35487
|122> *
|123>
|124>                          ****END OF INPUT****

CARTESIAN COORDINATES (ANGSTROEM)
---------------------------------
  C      3.017300   -3.258970    9.295740
  C      2.849970   -1.988830    9.839940
  C      1.501230   -1.345750    9.799170
  C      3.935270   -1.316080   10.425370
  C      3.748750    0.041730   11.021760
  C      5.189650   -1.917280   10.448620
  C      5.351430   -3.173820    9.900460
  C      4.263830   -3.858440    9.327310
  C      4.714770   -5.173340    8.888190
  C      3.916320   -6.274760    8.726700
  C      2.508160   -6.232110    8.764460
  N      1.360510   -6.243600    8.767220
  C      4.424390   -7.583590    8.595740
  N      4.805920   -8.664030    8.524380
  C      6.162280   -5.170950    8.961420
  C      6.569070   -3.995290    9.790420
  O      7.675840   -3.764830   10.217550
  C      7.115980   -5.926120    8.358260
  C      7.006700   -6.790590    7.241700
  C      7.932540   -7.752700    6.868360
  C      7.569160   -8.411990    5.698390
  C      6.368480   -7.917400    5.148420
  S      5.692380   -6.659980    6.075240
  C      6.075000   -8.641970    3.974440
  C      7.085290   -9.606430    3.772270
  C      8.074770   -9.465690    4.833780
  C      9.255300  -10.134460    4.956990
  C      9.721820  -11.055890    3.992730
  N     10.148180  -11.764720    3.199990
  C     10.135960   -9.899590    6.035660
  N     10.855610   -9.710760    6.907660
  C      6.854230  -10.414580    2.667060
  C      5.677560  -10.061580    2.012780
  S      4.856400   -8.709720    2.782320
  C      5.125660  -10.681690    0.877580
  C      5.565950  -11.856860    0.250440
  C      4.757960  -12.227440   -0.880420
  N      5.079290  -13.276370   -1.640410
  C      6.121610  -13.986810   -1.271630
  C      6.535280  -15.098460   -2.168230
  O      6.037540  -15.275360   -3.257930
  C      7.624730  -15.942680   -1.645350
  C      8.254970  -15.709390   -0.489750
  C      7.924820  -14.591240    0.412960
  O      8.464300  -14.438020    1.485830
  C      6.850190  -13.688020   -0.077970
  N      6.584930  -12.623450    0.645710
  C      3.679250  -11.356250   -1.095280
  S      3.713800  -10.072960    0.071400
  C      2.673040  -11.477840   -2.070450
  C      2.445310  -12.579470   -2.888970
  C      1.336740  -12.389910   -3.702770
  C      0.728910  -11.127640   -3.529320
  S      1.505100  -10.189210   -2.334790
  C     -0.378230  -11.031160   -4.401550
  C     -0.480480  -12.236610   -5.126150
  C      0.570140  -13.139070   -4.688450
  C      0.723190  -14.443630   -5.052060
  C     -0.139660  -15.042610   -5.995370
  N     -0.846980  -15.512040   -6.766200
  C      1.696020  -15.294280   -4.482410
  N      2.453470  -16.014170   -4.012460
  C     -1.579770  -12.262300   -5.975450
  C     -2.321830  -11.093350   -5.908780
  S     -1.614090   -9.928720   -4.798360
  C     -3.502060  -10.754680   -6.613270
  C     -4.409830  -11.589050   -7.182920
  C     -5.353190  -11.040550   -8.206320
  O     -5.558590   -9.870790   -8.433780
  C     -5.909400  -12.221510   -8.883260
  C     -5.457320  -13.389680   -8.242300
  C     -5.830780  -14.627580   -8.735010
  C     -6.663900  -14.703660   -9.847510
  C     -7.128850  -13.533940  -10.471270
  C     -6.740310  -12.290500   -9.983690
  C     -8.035560  -13.619680  -11.656340
  C     -7.063400  -16.044720  -10.372270
  C     -4.649530  -13.016340   -7.086260
  C     -4.412350  -13.821560   -6.003640
  C     -3.843270  -13.380510   -4.793260
  N     -3.414480  -13.068410   -3.774620
  C     -4.806410  -15.175000   -5.932350
  N     -5.108970  -16.275680   -5.818040
  H      2.174230   -3.758220    8.844160
  H      0.777380   -1.997180    9.317640
  H      1.542140   -0.403940    9.252850
  H      1.153070   -1.125370   10.807590
  H      3.006820    0.011240   11.818970
  H      3.393020    0.744860   10.269260
  H      4.683450    0.414480   11.431240
  H      6.035710   -1.415200   10.893400
  H      8.124260   -5.788390    8.738300
  H      8.806490   -7.969070    7.455810
  H      7.467090  -11.232070    2.331100
  H      7.897270  -16.777500   -2.276860
  H      9.054850  -16.350920   -0.145270
  H      3.077620  -13.448830   -2.861540
  H     -1.821560  -13.069860   -6.642250
  H     -3.688680   -9.696030   -6.766040
  H     -5.474900  -15.536760   -8.276810
  H     -7.083120  -11.380220  -10.452400
  H     -8.952570  -14.148600  -11.398890
  H     -7.556450  -14.168970  -12.466070
  H     -8.295790  -12.627850  -12.015300
  H     -6.625310  -16.838910   -9.774510
  H     -6.737840  -16.164300  -11.405080
  H     -8.147150  -16.153780  -10.354870

 Total Charge           Charge          ....    0
 Multiplicity           Mult            ....    1
 Number of Electrons    NEL             ....  590
 Basis Dimension        Dim             .... 1302

ORBITAL ENERGIES
----------------

  NO   OCC          E(Eh)            E(eV)
   0   2.0000     -89.007856     -2422.0269
   1   2.0000     -88.998993     -2421.7857
   2   2.0000     -88.998933     -2421.7841
   3   2.0000     -88.995836     -2421.6998
   4   2.0000     -88.995305     -2421.6854
   5   2.0000     -19.227837      -523.2160
   6   2.0000     -19.227818      -523.2155
   7   2.0000     -19.215624      -522.8837
   8   2.0000     -19.215584      -522.8826
   9   2.0000     -14.454214      -393.3191
  10   2.0000     -14.454041      -393.3145
  11   2.0000     -14.433029      -392.7427
  12   2.0000     -14.431525      -392.7017
  13   2.0000     -14.427928      -392.6039
  14   2.0000     -14.427460      -392.5911
  15   2.0000     -14.417576      -392.3222
  16   2.0000     -14.417336      -392.3157
  17   2.0000     -14.416144      -392.2832
  18   2.0000     -14.412455      -392.1828
  19   2.0000     -10.376759      -282.3660
  20   2.0000     -10.376541      -282.3600
  21   2.0000     -10.367972      -282.1269
  22   2.0000     -10.367925      -282.1256
  23   2.0000     -10.366991      -282.1002
  24   2.0000     -10.366244      -282.0798
  25   2.0000     -10.354022      -281.7472
  26   2.0000     -10.353841      -281.7423
  27   2.0000     -10.345931      -281.5271
  28   2.0000     -10.345585      -281.5177
  29   2.0000     -10.345457      -281.5142
  30   2.0000     -10.345217      -281.5077
  31   2.0000     -10.344197      -281.4799
  32   2.0000     -10.344113      -281.4776
  33   2.0000     -10.343769      -281.4683
  34   2.0000     -10.343623      -281.4643
  35   2.0000     -10.342408      -281.4312
  36   2.0000     -10.342284      -281.4278
  37   2.0000     -10.341972      -281.4194
  38   2.0000     -10.341538      -281.4076
  39   2.0000     -10.340017      -281.3662
  40   2.0000     -10.339797      -281.3602
  41   2.0000     -10.339069      -281.3404
  42   2.0000     -10.338757      -281.3319
  43   2.0000     -10.333049      -281.1765
  44   2.0000     -10.331190      -281.1260
  45   2.0000     -10.328587      -281.0551
  46   2.0000     -10.328288      -281.0470
  47   2.0000     -10.326887      -281.0089
  48   2.0000     -10.326207      -280.9904
  49   2.0000     -10.323523      -280.9173
  50   2.0000     -10.323465      -280.9158
  51   2.0000     -10.320204      -280.8270
  52   2.0000     -10.319087      -280.7966
  53   2.0000     -10.318149      -280.7711
  54   2.0000     -10.315008      -280.6856
  55   2.0000     -10.312741      -280.6240
  56   2.0000     -10.312513      -280.6178
  57   2.0000     -10.311341      -280.5859
  58   2.0000     -10.311050      -280.5779
  59   2.0000     -10.309111      -280.5252
  60   2.0000     -10.308568      -280.5104
  61   2.0000     -10.308411      -280.5061
  62   2.0000     -10.308190      -280.5001
  63   2.0000     -10.305039      -280.4144
  64   2.0000     -10.304662      -280.4041
  65   2.0000     -10.304354      -280.3957
  66   2.0000     -10.301917      -280.3294
  67   2.0000     -10.300796      -280.2989
  68   2.0000     -10.299716      -280.2695
  69   2.0000     -10.299431      -280.2618
  70   2.0000     -10.299063      -280.2518
  71   2.0000     -10.297140      -280.1994
  72   2.0000     -10.296735      -280.1884
  73   2.0000     -10.291946      -280.0581
  74   2.0000     -10.291620      -280.0492
  75   2.0000     -10.290050      -280.0065
  76   2.0000     -10.289696      -279.9969
  77   2.0000     -10.288575      -279.9663
  78   2.0000     -10.287968      -279.9498
  79   2.0000     -10.279127      -279.7093
  80   2.0000     -10.278021      -279.6792
  81   2.0000     -10.277224      -279.6575
  82   2.0000     -10.274602      -279.5861
  83   2.0000      -8.102666      -220.4847
  84   2.0000      -8.093801      -220.2435
  85   2.0000      -8.093719      -220.2413
  86   2.0000      -8.090605      -220.1565
  87   2.0000      -8.089511      -220.1268
  88   2.0000      -6.071739      -165.2204
  89   2.0000      -6.067611      -165.1081
  90   2.0000      -6.065323      -165.0458
  91   2.0000      -6.063098      -164.9853
  92   2.0000      -6.063014      -164.9830
  93   2.0000      -6.059793      -164.8953
  94   2.0000      -6.058946      -164.8723
  95   2.0000      -6.058868      -164.8702
  96   2.0000      -6.058800      -164.8683
  97   2.0000      -6.056023      -164.7928
  98   2.0000      -6.055952      -164.7908
  99   2.0000      -6.055625      -164.7819
 100   2.0000      -6.054549      -164.7526
 101   2.0000      -6.053041      -164.7116
 102   2.0000      -6.051879      -164.6800
 103   2.0000      -1.145777       -31.1782
 104   2.0000      -1.140946       -31.0467
 105   2.0000      -1.130977       -30.7754
 106   2.0000      -1.130672       -30.7672
 107   2.0000      -1.106023       -30.0964
 108   2.0000      -1.051242       -28.6057
 109   2.0000      -1.050963       -28.5982
 110   2.0000      -1.033026       -28.1101
 111   2.0000      -1.024914       -27.8893
 112   2.0000      -1.022934       -27.8355
 113   2.0000      -1.022050       -27.8114
 114   2.0000      -1.019677       -27.7468
 115   2.0000      -1.017378       -27.6843
 116   2.0000      -1.007390       -27.4125
 117   2.0000      -1.006510       -27.3885
 118   2.0000      -1.004597       -27.3365
 119   2.0000      -0.998195       -27.1623
 120   2.0000      -0.997084       -27.1320
 121   2.0000      -0.996875       -27.1264
 122   2.0000      -0.993989       -27.0478
 123   2.0000      -0.991399       -26.9773
 124   2.0000      -0.966433       -26.2980
 125   2.0000      -0.962481       -26.1904
 126   2.0000      -0.956049       -26.0154
 127   2.0000      -0.954748       -25.9800
 128   2.0000      -0.940643       -25.5962
 129   2.0000      -0.926507       -25.2115
 130   2.0000      -0.920422       -25.0459
 131   2.0000      -0.907202       -24.6862
 132   2.0000      -0.905150       -24.6304
 133   2.0000      -0.897734       -24.4286
 134   2.0000      -0.890796       -24.2398
 135   2.0000      -0.883505       -24.0414
 136   2.0000      -0.880489       -23.9593
 137   2.0000      -0.874738       -23.8028
 138   2.0000      -0.873064       -23.7573
 139   2.0000      -0.871939       -23.7267
 140   2.0000      -0.863069       -23.4853
 141   2.0000      -0.862412       -23.4674
 142   2.0000      -0.860390       -23.4124
 143   2.0000      -0.839538       -22.8450
 144   2.0000      -0.831360       -22.6225
 145   2.0000      -0.811426       -22.0800
 146   2.0000      -0.809365       -22.0239
 147   2.0000      -0.806313       -21.9409
 148   2.0000      -0.803846       -21.8738
 149   2.0000      -0.797195       -21.6928
 150   2.0000      -0.783342       -21.3158
 151   2.0000      -0.780897       -21.2493
 152   2.0000      -0.778043       -21.1716
 153   2.0000      -0.762813       -20.7572
 154   2.0000      -0.757444       -20.6111
 155   2.0000      -0.754258       -20.5244
 156   2.0000      -0.752617       -20.4798
 157   2.0000      -0.735168       -20.0049
 158   2.0000      -0.725430       -19.7399
 159   2.0000      -0.708267       -19.2729
 160   2.0000      -0.705748       -19.2044
 161   2.0000      -0.700661       -19.0660
 162   2.0000      -0.698044       -18.9947
 163   2.0000      -0.693960       -18.8836
 164   2.0000      -0.689238       -18.7551
 165   2.0000      -0.687452       -18.7065
 166   2.0000      -0.682881       -18.5821
 167   2.0000      -0.682279       -18.5657
 168   2.0000      -0.676821       -18.4172
 169   2.0000      -0.672229       -18.2923
 170   2.0000      -0.669685       -18.2231
 171   2.0000      -0.664259       -18.0754
 172   2.0000      -0.651341       -17.7239
 173   2.0000      -0.648029       -17.6338
 174   2.0000      -0.638653       -17.3786
 175   2.0000      -0.634170       -17.2566
 176   2.0000      -0.627697       -17.0805
 177   2.0000      -0.623998       -16.9798
 178   2.0000      -0.621728       -16.9181
 179   2.0000      -0.619551       -16.8588
 180   2.0000      -0.614318       -16.7164
 181   2.0000      -0.611368       -16.6362
 182   2.0000      -0.605680       -16.4814
 183   2.0000      -0.601057       -16.3556
 184   2.0000      -0.599140       -16.3034
 185   2.0000      -0.588157       -16.0046
 186   2.0000      -0.586726       -15.9656
 187   2.0000      -0.575495       -15.6600
 188   2.0000      -0.572717       -15.5844
 189   2.0000      -0.570518       -15.5246
 190   2.0000      -0.567076       -15.4309
 191   2.0000      -0.564635       -15.3645
 192   2.0000      -0.560427       -15.2500
 193   2.0000      -0.555662       -15.1203
 194   2.0000      -0.552815       -15.0429
 195   2.0000      -0.551913       -15.0183
 196   2.0000      -0.547800       -14.9064
 197   2.0000      -0.543091       -14.7783
 198   2.0000      -0.540369       -14.7042
 199   2.0000      -0.539371       -14.6770
 200   2.0000      -0.538346       -14.6492
 201   2.0000      -0.536010       -14.5856
 202   2.0000      -0.531651       -14.4670
 203   2.0000      -0.528855       -14.3909
 204   2.0000      -0.526571       -14.3287
 205   2.0000      -0.525820       -14.3083
 206   2.0000      -0.525212       -14.2917
 207   2.0000      -0.523610       -14.2482
 208   2.0000      -0.521289       -14.1850
 209   2.0000      -0.518077       -14.0976
 210   2.0000      -0.514729       -14.0065
 211   2.0000      -0.510112       -13.8809
 212   2.0000      -0.509431       -13.8623
 213   2.0000      -0.508074       -13.8254
 214   2.0000      -0.507435       -13.8080
 215   2.0000      -0.505028       -13.7425
 216   2.0000      -0.503962       -13.7135
 217   2.0000      -0.500721       -13.6253
 218   2.0000      -0.499668       -13.5966
 219   2.0000      -0.498598       -13.5675
 220   2.0000      -0.496793       -13.5184
 221   2.0000      -0.494315       -13.4510
 222   2.0000      -0.493751       -13.4357
 223   2.0000      -0.491691       -13.3796
 224   2.0000      -0.491053       -13.3622
 225   2.0000      -0.489236       -13.3128
 226   2.0000      -0.488143       -13.2831
 227   2.0000      -0.485425       -13.2091
 228   2.0000      -0.482840       -13.1387
 229   2.0000      -0.480092       -13.0640
 230   2.0000      -0.478932       -13.0324
 231   2.0000      -0.476937       -12.9781
 232   2.0000      -0.475825       -12.9478
 233   2.0000      -0.474557       -12.9133
 234   2.0000      -0.472906       -12.8684
 235   2.0000      -0.472140       -12.8476
 236   2.0000      -0.462489       -12.5850
 237   2.0000      -0.461719       -12.5640
 238   2.0000      -0.460794       -12.5388
 239   2.0000      -0.457968       -12.4619
 240   2.0000      -0.457173       -12.4403
 241   2.0000      -0.455563       -12.3965
 242   2.0000      -0.453661       -12.3448
 243   2.0000      -0.451043       -12.2735
 244   2.0000      -0.450182       -12.2501
 245   2.0000      -0.449799       -12.2396
 246   2.0000      -0.447630       -12.1806
 247   2.0000      -0.446947       -12.1621
 248   2.0000      -0.445801       -12.1309
 249   2.0000      -0.445710       -12.1284
 250   2.0000      -0.443580       -12.0704
 251   2.0000      -0.443150       -12.0587
 252   2.0000      -0.441948       -12.0260
 253   2.0000      -0.441232       -12.0065
 254   2.0000      -0.439653       -11.9636
 255   2.0000      -0.439585       -11.9617
 256   2.0000      -0.439000       -11.9458
 257   2.0000      -0.438862       -11.9421
 258   2.0000      -0.438011       -11.9189
 259   2.0000      -0.437429       -11.9030
 260   2.0000      -0.430286       -11.7087
 261   2.0000      -0.428050       -11.6478
 262   2.0000      -0.426576       -11.6077
 263   2.0000      -0.426428       -11.6037
 264   2.0000      -0.425566       -11.5802
 265   2.0000      -0.425129       -11.5684
 266   2.0000      -0.420302       -11.4370
 267   2.0000      -0.418992       -11.4014
 268   2.0000      -0.412043       -11.2122
 269   2.0000      -0.409701       -11.1485
 270   2.0000      -0.408650       -11.1199
 271   2.0000      -0.404921       -11.0184
 272   2.0000      -0.401714       -10.9312
 273   2.0000      -0.390761       -10.6331
 274   2.0000      -0.380980       -10.3670
 275   2.0000      -0.372835       -10.1454
 276   2.0000      -0.366949        -9.9852
 277   2.0000      -0.363728        -9.8975
 278   2.0000      -0.358536        -9.7563
 279   2.0000      -0.353559        -9.6208
 280   2.0000      -0.351222        -9.5572
 281   2.0000      -0.347194        -9.4476
 282   2.0000      -0.345882        -9.4119
 283   2.0000      -0.339890        -9.2489
 284   2.0000      -0.338610        -9.2141
 285   2.0000      -0.337718        -9.1898
 286   2.0000      -0.334809        -9.1106
 287   2.0000      -0.331981        -9.0337
 288   2.0000      -0.326090        -8.8734
 289   2.0000      -0.324359        -8.8262
 290   2.0000      -0.312234        -8.4963
 291   2.0000      -0.308444        -8.3932
 292   2.0000      -0.303391        -8.2557
 293   2.0000      -0.278223        -7.5708
 294   2.0000      -0.241928        -6.5832
 295   0.0000      -0.125238        -3.4079
 296   0.0000      -0.109223        -2.9721
 297   0.0000      -0.094006        -2.5580
 298   0.0000      -0.088427        -2.4062
 299   0.0000      -0.083633        -2.2758

MULLIKEN ATOMIC CHARGES
-----------------------
   0 C :   -0.076332
   1 C :   -0.080797
   2 C :    0.117863
   3 C :   -0.080165
   4 C :    0.118328
   5 C :   -0.080495
   6 C :    0.005638
   7 C :    0.029651
   8 C :    0.242297
   9 C :   -0.322836
  10 C :   -0.174536
  11 N :    0.152587
  12 C :   -0.206554
  13 N :    0.172220
  14 C :   -0.134147
  15 C :    0.138798
  16 O :   -0.138830
  17 C :    0.042426
  18 C :   -0.091182
  19 C :    0.006344
  20 C :    0.022752
  21 C :   -0.079108
  22 S :    0.199903
  23 C :   -0.095736
  24 C :    0.033902
  25 C :    0.301174
  26 C :   -0.287167
  27 C :   -0.194821
  28 N :    0.197115
  29 C :   -0.191154
  30 N :    0.176468
  31 C :   -0.059520
  32 C :   -0.085828
  33 S :    0.184545
  34 C :   -0.113479
  35 C :    0.028579
  36 C :    0.023153
  37 N :    0.063470
  38 C :   -0.116255
  39 C :    0.141131
  40 O :   -0.096825
  41 C :   -0.011382
  42 C :   -0.011199
  43 C :    0.142661
  44 O :   -0.093352
  45 C :   -0.118138
  46 N :    0.065536
  47 C :   -0.115565
  48 S :    0.202522
  49 C :   -0.088042
  50 C :   -0.053218
  51 C :    0.029565
  52 C :   -0.097932
  53 S :    0.185600
  54 C :   -0.069951
  55 C :   -0.002143
  56 C :    0.305118
  57 C :   -0.284874
  58 C :   -0.185256
  59 N :    0.167431
  60 C :   -0.191524
  61 N :    0.197291
  62 C :   -0.005453
  63 C :   -0.112122
  64 S :    0.212362
  65 C :    0.069164
  66 C :   -0.126258
  67 C :    0.133186
  68 O :   -0.143058
  69 C :    0.006932
  70 C :    0.023097
  71 C :   -0.071340
  72 C :   -0.084067
  73 C :   -0.079253
  74 C :   -0.075780
  75 C :    0.116406
  76 C :    0.116322
  77 C :    0.267707
  78 C :   -0.337486
  79 C :   -0.195984
  80 N :    0.166678
  81 C :   -0.172800
  82 N :    0.161045
  83 H :   -0.011460
  84 H :    0.023626
  85 H :    0.026464
  86 H :    0.029000
  87 H :    0.030386
  88 H :    0.026980
  89 H :    0.017347
  90 H :   -0.016021
  91 H :    0.032711
  92 H :    0.018144
  93 H :    0.031399
  94 H :    0.022239
  95 H :    0.022220
  96 H :    0.031189
  97 H :    0.025131
  98 H :    0.021767
  99 H :   -0.005302
 100 H :   -0.017746
 101 H :    0.029251
 102 H :    0.028464
 103 H :    0.016338
 104 H :    0.026635
 105 H :    0.027459
 106 H :    0.028756
Sum of atomic charges:   -0.0000000

LOEWDIN ATOMIC CHARGES
----------------------
   0 C :   -0.008049
   1 C :   -0.002341
   2 C :   -0.041685
   3 C :   -0.007019
   4 C :   -0.042441
   5 C :    0.008471
   6 C :   -0.049391
   7 C :   -0.015833
   8 C :    0.061896
   9 C :   -0.146051
  10 C :   -0.019925
  11 N :   -0.051997
  12 C :   -0.037687
  13 N :   -0.048032
  14 C :   -0.097247
  15 C :    0.083984
  16 O :   -0.140053
  17 C :    0.045505
  18 C :   -0.176596
  19 C :    0.011525
  20 C :   -0.069606
  21 C :   -0.156006
  22 S :    0.505580
  23 C :   -0.184177
  24 C :   -0.052625
  25 C :    0.075902
  26 C :   -0.088866
  27 C :   -0.023710
  28 N :   -0.011499
  29 C :   -0.015797
  30 N :   -0.027007
  31 C :   -0.008308
  32 C :   -0.176066
  33 S :    0.466057
  34 C :   -0.193092
  35 C :   -0.040649
  36 C :   -0.042141
  37 N :    0.008509
  38 C :   -0.036748
  39 C :    0.055766
  40 O :   -0.090856
  41 C :   -0.011373
  42 C :   -0.011310
  43 C :    0.055171
  44 O :   -0.087920
  45 C :   -0.035221
  46 N :    0.007699
  47 C :   -0.189831
  48 S :    0.491699
  49 C :   -0.179768
  50 C :   -0.005424
  51 C :   -0.056165
  52 C :   -0.179091
  53 S :    0.466408
  54 C :   -0.163466
  55 C :   -0.062434
  56 C :    0.078688
  57 C :   -0.089424
  58 C :   -0.011076
  59 N :   -0.032276
  60 C :   -0.022471
  61 N :   -0.013233
  62 C :    0.002860
  63 C :   -0.179247
  64 S :    0.495833
  65 C :    0.036353
  66 C :   -0.084604
  67 C :    0.083646
  68 O :   -0.143242
  69 C :   -0.051120
  70 C :   -0.014283
  71 C :   -0.004246
  72 C :   -0.001065
  73 C :   -0.006870
  74 C :    0.008076
  75 C :   -0.042580
  76 C :   -0.041711
  77 C :    0.067378
  78 C :   -0.135668
  79 C :   -0.015204
  80 N :   -0.049576
  81 C :   -0.018466
  82 N :   -0.046558
  83 H :    0.035548
  84 H :    0.035572
  85 H :    0.037750
  86 H :    0.039298
  87 H :    0.039187
  88 H :    0.038242
  89 H :    0.033355
  90 H :    0.036709
  91 H :    0.054812
  92 H :    0.047146
  93 H :    0.045604
  94 H :    0.047171
  95 H :    0.047234
  96 H :    0.045509
  97 H :    0.042461
  98 H :    0.045461
  99 H :    0.037825
 100 H :    0.036061
 101 H :    0.038966
 102 H :    0.038575
 103 H :    0.032877
 104 H :    0.036788
 105 H :    0.038213
 106 H :    0.039051

  Mayer bond orders larger than 0.100000
B(  0-C ,  1-C ) :   1.3739 B(  0-C ,  7-C ) :   1.3539 B(  0-C , 83-H ) :   0.9875
B(  1-C ,  2-C ) :   1.0947 B(  1-C ,  3-C ) :   1.3735 B(  2-C , 84-H ) :   0.9507
B(  2-C , 85-H ) :   0.9401 B(  2-C , 86-H ) :   0.9388 B(  3-C ,  4-C ) :   1.0949
B(  3-C ,  5-C ) :   1.3563 B(  4-C , 87-H ) :   0.9401 B(  4-C , 88-H ) :   0.9396
B(  4-C , 89-H ) :   0.9515 B(  5-C ,  6-C ) :   1.3626 B(  5-C , 90-H ) :   1.0102
B(  6-C ,  7-C ) :   1.3327 B(  6-C , 15-C ) :   0.9242 B(  7-C ,  8-C ) :   1.0053
B(  8-C ,  9-C ) :   1.6536 B(  8-C , 14-C ) :   1.0273 B(  9-C , 10-C ) :   1.1345
B(  9-C , 12-C ) :   1.1495 B( 10-C , 11-N ) :   2.9921 B( 12-C , 13-N ) :   3.0247
B( 14-C , 15-C ) :   0.9314 B( 14-C , 17-C ) :   1.6553 B( 15-C , 16-O ) :   2.2724
B( 17-C , 18-C ) :   1.1340 B( 17-C , 91-H ) :   0.9470 B( 18-C , 19-C ) :   1.4048
B( 18-C , 22-S ) :   1.0864 B( 19-C , 20-C ) :   1.3006 B( 19-C , 92-H ) :   1.0015
B( 20-C , 21-C ) :   1.3978 B( 20-C , 25-C ) :   0.9954 B( 21-C , 22-S ) :   1.1479
B( 21-C , 23-C ) :   1.2222 B( 23-C , 24-C ) :   1.4150 B( 23-C , 33-S ) :   1.1155
B( 24-C , 25-C ) :   0.9879 B( 24-C , 31-C ) :   1.2809 B( 25-C , 26-C ) :   1.7206
B( 26-C , 27-C ) :   1.1321 B( 26-C , 29-C ) :   1.1342 B( 27-C , 28-N ) :   3.0022
B( 29-C , 30-N ) :   2.9925 B( 31-C , 32-C ) :   1.4451 B( 31-C , 93-H ) :   0.9890
B( 32-C , 33-S ) :   1.0887 B( 32-C , 34-C ) :   1.1923 B( 34-C , 35-C ) :   1.3661
B( 34-C , 47-C ) :   0.1509 B( 34-C , 48-S ) :   1.1498 B( 35-C , 36-C ) :   1.1899
B( 35-C , 46-N ) :   1.4393 B( 36-C , 37-N ) :   1.4389 B( 36-C , 47-C ) :   1.3625
B( 37-N , 38-C ) :   1.7141 B( 38-C , 39-C ) :   0.8882 B( 38-C , 45-C ) :   1.0939
B( 39-C , 40-O ) :   2.2442 B( 39-C , 41-C ) :   1.0223 B( 41-C , 42-C ) :   1.6869
B( 41-C , 94-H ) :   0.9950 B( 42-C , 43-C ) :   1.0236 B( 42-C , 95-H ) :   0.9957
B( 43-C , 44-O ) :   2.2430 B( 43-C , 45-C ) :   0.8864 B( 45-C , 46-N ) :   1.7183
B( 47-C , 48-S ) :   1.1555 B( 47-C , 49-C ) :   1.1889 B( 49-C , 50-C ) :   1.4504
B( 49-C , 53-S ) :   1.0869 B( 50-C , 51-C ) :   1.2819 B( 50-C , 96-H ) :   0.9869
B( 51-C , 52-C ) :   1.4190 B( 51-C , 56-C ) :   0.9866 B( 52-C , 53-S ) :   1.1196
B( 52-C , 54-C ) :   1.2081 B( 54-C , 55-C ) :   1.4129 B( 54-C , 64-S ) :   1.1438
B( 55-C , 56-C ) :   1.0018 B( 55-C , 62-C ) :   1.3456 B( 56-C , 57-C ) :   1.7210
B( 57-C , 58-C ) :   1.1360 B( 57-C , 60-C ) :   1.1334 B( 58-C , 59-N ) :   2.9804
B( 60-C , 61-N ) :   3.0012 B( 62-C , 63-C ) :   1.4118 B( 62-C , 97-H ) :   0.9836
B( 63-C , 64-S ) :   1.0926 B( 63-C , 65-C ) :   1.1100 B( 65-C , 66-C ) :   1.6984
B( 65-C , 98-H ) :   0.9309 B( 66-C , 67-C ) :   0.9332 B( 66-C , 77-C ) :   1.0237
B( 67-C , 68-O ) :   2.2665 B( 67-C , 69-C ) :   0.9263 B( 69-C , 70-C ) :   1.3330
B( 69-C , 74-C ) :   1.3604 B( 70-C , 71-C ) :   1.3523 B( 70-C , 77-C ) :   1.0013
B( 71-C , 72-C ) :   1.3768 B( 71-C , 99-H ) :   0.9875 B( 72-C , 73-C ) :   1.3728
B( 72-C , 76-C ) :   1.0946 B( 73-C , 74-C ) :   1.3572 B( 73-C , 75-C ) :   1.0940
B( 74-C ,100-H ) :   1.0097 B( 75-C ,101-H ) :   0.9405 B( 75-C ,102-H ) :   0.9401
B( 75-C ,103-H ) :   0.9515 B( 76-C ,104-H ) :   0.9506 B( 76-C ,105-H ) :   0.9405
B( 76-C ,106-H ) :   0.9388 B( 77-C , 78-C ) :   1.6551 B( 78-C , 79-C ) :   1.1708
B( 78-C , 81-C ) :   1.1288 B( 79-C , 80-N ) :   2.9994 B( 81-C , 82-N ) :   2.9946

-----------------------------------------------------------------------------
         ABSORPTION SPECTRUM VIA TRANSITION ELECTRIC DIPOLE MOMENTS
-----------------------------------------------------------------------------
State   Energy  Wavelength   fosc         T2         TX        TY        TZ
        (cm-1)    (nm)                  (au**2)     (au)      (au)      (au)
-----------------------------------------------------------------------------
   0   10247.3    975.9   0.862483377  27.70866  -2.65650  -1.80953  -4.16860
   1   12684.4    788.4   0.078769618   2.04440   1.17838  -0.77181  -0.24521
   2   14954.2    668.7   0.184381829   4.05912   1.18064   0.61456   1.51245
   3   18349.7    545.0   0.231059262   4.14543  -1.58461   1.21963   0.38335
   4   19352.2    516.7   0.112811751   1.91911  -1.23887   0.53863   0.30690
   5   20041.3    499.0   0.414850114   6.81460  -1.01008  -1.26602  -2.04732
   6   20582.6    485.8   0.244381168   3.90880   1.81916  -0.42736  -0.64561
   7   22229.3    449.9   0.003781123   0.05600   0.16218  -0.17121   0.01958
   8   24609.8    406.3   0.003471095   0.04643  -0.16626  -0.13041   0.04223
   9   25539.1    391.6   0.086132882   1.11030   0.55383  -0.88997  -0.10737
  10   25723.0    388.8   0.130014515   1.66397   0.74570   0.22871   1.02742
  11   25873.6    386.5   0.000132651   0.00169   0.00337   0.03426   0.02243
  12   26400.5    378.8   0.022789330   0.28418   0.35639   0.31168  -0.24499
  13   26584.6    376.2   0.002764766   0.03424   0.13296   0.12867   0.00190
  14   27109.1    368.9   0.383930964   4.66244   1.08882   0.78484   1.69143
  15   27550.0    363.0   0.200401455   2.39472  -0.91088  -0.43372  -1.17341
  16   27699.1    361.0   0.168200806   1.99912  -0.71684   1.21805  -0.04016
  17   28249.6    354.0   0.058637717   0.68335   0.49565   0.23454   0.61861
  18   28833.8    346.8   0.229420663   2.61942  -0.51569   1.47631   0.41711
  19   29054.6    344.2   0.043227507   0.48980   0.06198  -0.60031  -0.35439
  20   29324.1    341.0   0.260868777   2.92869   1.48907  -0.65737  -0.52841
  21   29585.3    338.0   0.054669144   0.60833   0.64999  -0.35330   0.24703
  22   29838.8    335.1   0.011479019   0.12665  -0.19579   0.03504   0.29511
  23   29913.5    334.3   0.037487035   0.41256   0.57138  -0.01819   0.29284
  24   30280.4    330.2   0.071341128   0.77563  -0.72513  -0.28052  -0.41367
  25   30582.2    327.0   0.004131053   0.04447  -0.17425  -0.00366  -0.11872
  26   30715.8    325.6   0.381596004   4.08995  -1.40209  -0.49568  -1.37055
  27   31355.8    318.9   0.092048590   0.96644  -0.30794  -0.24416  -0.90111
  28   31770.2    314.8   0.285466437   2.95809  -0.54175   1.54813   0.51759
  29   31978.8    312.7   0.237128204   2.44116  -1.29988   0.86142  -0.09718
  30   32418.9    308.5   0.078250261   0.79463  -0.63976   0.50645   0.35895
  31   32562.9    307.1   0.090127460   0.91119  -0.15543  -0.48475  -0.80750
  32   32679.6    306.0   0.014012906   0.14116  -0.27304  -0.21002  -0.15003
  33   32774.8    305.1   0.052660965   0.52896  -0.30121   0.45113  -0.48448
  34   32895.0    304.0   0.014890730   0.14903  -0.09301  -0.29188   0.23491
  35   33016.2    302.9   0.032573798   0.32480   0.03712  -0.53140   0.20257
  36   33257.0    300.7   0.042309137   0.41882   0.33427  -0.32274   0.45047
  37   33384.3    299.5   0.046198095   0.45557  -0.08473  -0.64851  -0.16681
  38   33667.4    297.0   0.247235360   2.41755   0.37431  -1.50726  -0.07487
  39   33825.2    295.6   0.002129140   0.02072  -0.06575   0.11775   0.05034
  40   34003.3    294.1   0.002736095   0.02649  -0.06743  -0.14812  -0.00203
  41   34216.1    292.3   0.121372699   1.16779   0.68048   0.25763   0.79898
  42   34333.4    291.3   0.091819496   0.88043   0.23006   0.78359   0.46204
  43   34602.7    289.0   0.033959873   0.32310   0.29830   0.26489   0.40490
  44   34884.1    286.7   0.002102755   0.01984   0.10042   0.07507   0.06423
  45   35098.3    284.9   0.101435331   0.95143  -0.64002   0.70253  -0.21967
  46   35164.3    284.4   0.062806386   0.58800  -0.54112   0.53358   0.10236
  47   35321.7    283.1   0.014737267   0.13736   0.25886   0.23716  -0.11877
  48   35484.3    281.8   0.011846226   0.10991  -0.15942   0.24595   0.15492
  49   35635.8    280.6   0.004899187   0.04526  -0.02207  -0.19991  -0.06934
  50   35824.0    279.1   0.091709750   0.84279  -0.51870  -0.30104  -0.69506
  51   35968.1    278.0   0.024220020   0.22168  -0.45376  -0.06926   0.10481
  52   36285.5    275.6   0.326323325   2.96068   0.13568   1.29836   1.12095
  53   36339.1    275.2   0.548880559   4.97255  -1.27013   1.08002  -1.48083
  54   36577.0    273.4   0.406239720   3.65637  -0.57766   1.70660   0.64046
  55   36773.9    271.9   0.207279752   1.85563  -0.42856  -1.23393  -0.38651
  56   36938.2    270.7   0.076977738   0.68606  -0.81690   0.11433  -0.07526
  57   37025.1    270.1   0.062528422   0.55598  -0.10200   0.70667   0.21493
  58   37285.6    268.2   0.026937500   0.23784  -0.14042   0.36338   0.29339
  59   37381.6    267.5   0.018663133   0.16436  -0.30630   0.26032   0.05269
  60   37741.0    265.0   0.079947383   0.69737   0.38025  -0.44021   0.59917
  61   37828.4    264.4   0.008099630   0.07049  -0.18766   0.05614  -0.17922
  62   37881.2    264.0   0.013485223   0.11720  -0.29460   0.15895  -0.07168
  63   37970.2    263.4   0.040640669   0.35237  -0.36208   0.44746  -0.14507
  64   38140.7    262.2   0.006423566   0.05545   0.06356  -0.22261  -0.04303
  65   38193.3    261.8   0.016465319   0.14192  -0.17248   0.33492  -0.00219
  66   38272.2    261.3   0.017079055   0.14691  -0.09881  -0.27799   0.24468
  67   38404.6    260.4   0.008176467   0.07009   0.20670  -0.07985   0.14487
  68   38530.4    259.5   0.087597203   0.74845  -0.43934  -0.22539  -0.71037
  69   38739.1    258.1   0.059014262   0.50151  -0.34798  -0.61481   0.04932
  70   39020.9    256.3   0.004969114   0.04192   0.19598   0.03055   0.05080
  71   39128.6    255.6   0.035050415   0.29490  -0.44416  -0.16850  -0.26312
  72   39322.2    254.3   0.010940097   0.09159  -0.29434   0.02267  -0.06667
  73   39376.7    254.0   0.074539131   0.62319  -0.76919   0.13670   0.11337
  74   39564.7    252.8   0.025793567   0.21462   0.05976  -0.44558  -0.11187
  75   39941.1    250.4   0.020455109   0.16860   0.25107   0.25301   0.20384
  76   40099.5    249.4   0.066976380   0.54987  -0.37401   0.57219   0.28737

FINAL SINGLE POINT ENERGY     -5287.639892218495

DIPOLE MOMENT
-------------
                                X             Y             Z
Electronic contribution:     51.38350     -23.04488       7.54582
Nuclear contribution   :    -52.96661      26.88952      -9.75951
                        -----------------------------------------
Total Dipole Moment    :     -1.58312       3.84464      -2.21369
                        -----------------------------------------
Magnitude (a.u.)       :      4.71041
Magnitude (Debye)      :     11.97291

Rotational constants in cm-1:     0.000984     0.000214     0.000181
Rotational constants in MHz :    29.503670     6.425446     5.431692

                             ****ORCA TERMINATED NORMALLY****
TOTAL RUN TIME: 0 days 0 hours 12 minutes 35 seconds 156 msec
