                         Program Version 4.2.0 -  RELEASE  -
|  1> # ORCA input file
|  2> # SCF done       -201.872332558377          0.000593564502
|  3> ! CAM-B3LYP def2-SVP def2/J RIJCOSX Grid4 TightSCF
|  4> %maxcore 5000
|  5> %tddft
|  6>     Mode sTDDFT
|  7>     Ethresh 5.0
|  8>     maxcore 5000
|  9> end
| 10>
| 11> %pal
| 12>   nprocs 6
| 13>   end
| 14> * xyz 0 1
| 15>    C        1.89550        -1.44374        -7.12813
| 16>    C        2.39422        -1.64551        -8.41251
| 17>    C        1.96452        -0.73217        -9.51500
| 18>    C        3.29233        -2.69266        -8.67384
| 19>    C        3.82604        -2.90521       -10.05363
| 20>    C        3.68397        -3.53626        -7.63962
| 21>    C        3.18375        -3.32939        -6.36995
| 22>    C        2.28562        -2.28254        -6.09802
| 23>    C        1.93277        -2.31402        -4.68197
| 24>    C        1.04537        -1.47141        -4.06726
| 25>    C        0.35758        -0.43112        -4.72862
| 26>    N       -0.23232         0.43159        -5.20343
| 27>    C        0.67068        -1.51388        -2.70736
| 28>    N        0.30672        -1.48422        -1.61858
| 29>    C        2.67379        -3.41007        -4.07795
| 30>    C        3.44887        -4.07746        -5.13591
| 31>    O        4.17092        -5.05266        -5.01257
| 32>    C        2.68364        -3.74480        -2.75210
| 33>    C        3.35429        -4.78343        -2.07963
| 34>    C        3.24831        -4.94438        -0.69416
| 35>    C        3.96385        -6.03374        -0.23219
| 36>    C        4.62365        -6.72217        -1.27612
| 37>    S        4.37459        -6.02104        -2.80859
| 38>    C        5.31166        -7.82644        -0.70962
| 39>    C        5.08501        -7.83428         0.68174
| 40>    C        4.23871        -6.70485         1.02871
| 41>    C        3.80356        -6.35152         2.27164
| 42>    C        4.14604        -7.09433         3.42160
| 43>    N        4.42780        -7.69861         4.35424
| 44>    C        2.98803        -5.22142         2.49330
| 45>    N        2.32796        -4.30357         2.68253
| 46>    C        5.70996        -8.89942         1.32082
| 47>    C        6.40630        -9.69636         0.42533
| 48>    S        6.29480        -9.11924        -1.23160
| 49>    C        7.13068       -10.87254         0.73068
| 50>    C        7.83107       -11.70694        -0.10858
| 51>    C        8.14831       -11.78080        -1.53534
| 52>    O        7.83881       -11.04062        -2.44006
| 53>    N        8.91235       -12.93519        -1.67250
| 54>    C        9.44197       -13.38549        -2.93573
| 55>    C        9.11108       -13.61936        -0.47884
| 56>    O        9.72795       -14.65326        -0.36434
| 57>    C        8.41627       -12.82210         0.53274
| 58>    C        8.18745       -12.88413         1.88718
| 59>    S        7.21791       -11.49923         2.37232
| 60>    C        8.59704       -13.86773         2.81774
| 61>    C        8.32770       -13.88696         4.17754
| 62>    C        8.84977       -15.02153         4.78903
| 63>    C        9.52172       -15.86518         3.88164
| 64>    S        9.52014       -15.26628         2.28536
| 65>    C        9.99729       -16.99732         4.59384
| 66>    C        9.62010       -16.86778         5.94419
| 67>    C        8.90333       -15.61581         6.11473
| 68>    C        8.41839       -15.10517         7.28259
| 69>    C        8.56490       -15.79649         8.50384
| 70>    N        8.68489       -16.37312         9.48774
| 71>    C        7.74655       -13.86592         7.33922
| 72>    N        7.19506       -12.86176         7.37951
| 73>    C       10.04743       -17.93019         6.73135
| 74>    C       10.75692       -18.87028         6.00012
| 75>    S       10.86187       -18.43256         4.30003
| 76>    C       11.31827       -20.09389         6.43699
| 77>    C       11.61930       -20.48770         7.70184
| 78>    C       11.79096       -21.94850         7.97715
| 79>    O       11.93195       -22.81990         7.15078
| 80>    C       11.68941       -22.07445         9.43903
| 81>    C       11.61345       -20.79471        10.01858
| 82>    C       11.47205       -20.67231        11.38951
| 83>    C       11.42171       -21.81592        12.18164
| 84>    C       11.51745       -23.09088        11.59974
| 85>    C       11.64742       -23.21215        10.22010
| 86>    C       11.47607       -24.31613        12.45499
| 87>    C       11.26582       -21.67529        13.66140
| 88>    C       11.72880       -19.78908         8.96774
| 89>    C       12.12817       -18.49308         9.16125
| 90>    C       12.45409       -17.60409         8.11861
| 91>    N       12.75481       -16.85480         7.30209
| 92>    C       12.35546       -17.92546        10.43314
| 93>    N       12.55956       -17.41772        11.44162
| 94>    H        1.20985        -0.63016        -6.95504
| 95>    H        1.25221         0.00323        -9.15163
| 96>    H        1.50106        -1.29815       -10.32218
| 97>    H        2.82332        -0.20759        -9.93295
| 98>    H        4.33324        -2.00952       -10.41091
| 99>    H        3.01430        -3.12161       -10.74790
|100>    H        4.52837        -3.73422       -10.07163
|101>    H        4.37232        -4.34904        -7.81714
|102>    H        2.09295        -3.12852        -2.08482
|103>    H        2.66388        -4.27981        -0.08253
|104>    H        5.67260        -9.10713         2.37549
|105>    H        8.97338       -12.79807        -3.72328
|106>    H        9.22008       -14.44432        -3.06775
|107>    H       10.52390       -13.24503        -2.96607
|108>    H        7.77536       -13.10743         4.67183
|109>    H        9.82075       -18.04777         7.77519
|110>    H       11.46974       -20.85129         5.67370
|111>    H       11.38539       -19.70234        11.85325
|112>    H       11.71731       -24.18357         9.75394
|113>    H       10.54359       -24.35963        13.01681
|114>    H       12.29310       -24.30762        13.17564
|115>    H       11.55804       -25.21319        11.84761
|116>    H       11.21233       -20.62825        13.94576
|117>    H       12.10756       -22.13372        14.17915
|118>    H       10.35952       -22.17625        14.00025
|119> *
|120>
|121>                          ****END OF INPUT****

CARTESIAN COORDINATES (ANGSTROEM)
---------------------------------
  C      1.895500   -1.443740   -7.128130
  C      2.394220   -1.645510   -8.412510
  C      1.964520   -0.732170   -9.515000
  C      3.292330   -2.692660   -8.673840
  C      3.826040   -2.905210  -10.053630
  C      3.683970   -3.536260   -7.639620
  C      3.183750   -3.329390   -6.369950
  C      2.285620   -2.282540   -6.098020
  C      1.932770   -2.314020   -4.681970
  C      1.045370   -1.471410   -4.067260
  C      0.357580   -0.431120   -4.728620
  N     -0.232320    0.431590   -5.203430
  C      0.670680   -1.513880   -2.707360
  N      0.306720   -1.484220   -1.618580
  C      2.673790   -3.410070   -4.077950
  C      3.448870   -4.077460   -5.135910
  O      4.170920   -5.052660   -5.012570
  C      2.683640   -3.744800   -2.752100
  C      3.354290   -4.783430   -2.079630
  C      3.248310   -4.944380   -0.694160
  C      3.963850   -6.033740   -0.232190
  C      4.623650   -6.722170   -1.276120
  S      4.374590   -6.021040   -2.808590
  C      5.311660   -7.826440   -0.709620
  C      5.085010   -7.834280    0.681740
  C      4.238710   -6.704850    1.028710
  C      3.803560   -6.351520    2.271640
  C      4.146040   -7.094330    3.421600
  N      4.427800   -7.698610    4.354240
  C      2.988030   -5.221420    2.493300
  N      2.327960   -4.303570    2.682530
  C      5.709960   -8.899420    1.320820
  C      6.406300   -9.696360    0.425330
  S      6.294800   -9.119240   -1.231600
  C      7.130680  -10.872540    0.730680
  C      7.831070  -11.706940   -0.108580
  C      8.148310  -11.780800   -1.535340
  O      7.838810  -11.040620   -2.440060
  N      8.912350  -12.935190   -1.672500
  C      9.441970  -13.385490   -2.935730
  C      9.111080  -13.619360   -0.478840
  O      9.727950  -14.653260   -0.364340
  C      8.416270  -12.822100    0.532740
  C      8.187450  -12.884130    1.887180
  S      7.217910  -11.499230    2.372320
  C      8.597040  -13.867730    2.817740
  C      8.327700  -13.886960    4.177540
  C      8.849770  -15.021530    4.789030
  C      9.521720  -15.865180    3.881640
  S      9.520140  -15.266280    2.285360
  C      9.997290  -16.997320    4.593840
  C      9.620100  -16.867780    5.944190
  C      8.903330  -15.615810    6.114730
  C      8.418390  -15.105170    7.282590
  C      8.564900  -15.796490    8.503840
  N      8.684890  -16.373120    9.487740
  C      7.746550  -13.865920    7.339220
  N      7.195060  -12.861760    7.379510
  C     10.047430  -17.930190    6.731350
  C     10.756920  -18.870280    6.000120
  S     10.861870  -18.432560    4.300030
  C     11.318270  -20.093890    6.436990
  C     11.619300  -20.487700    7.701840
  C     11.790960  -21.948500    7.977150
  O     11.931950  -22.819900    7.150780
  C     11.689410  -22.074450    9.439030
  C     11.613450  -20.794710   10.018580
  C     11.472050  -20.672310   11.389510
  C     11.421710  -21.815920   12.181640
  C     11.517450  -23.090880   11.599740
  C     11.647420  -23.212150   10.220100
  C     11.476070  -24.316130   12.454990
  C     11.265820  -21.675290   13.661400
  C     11.728800  -19.789080    8.967740
  C     12.128170  -18.493080    9.161250
  C     12.454090  -17.604090    8.118610
  N     12.754810  -16.854800    7.302090
  C     12.355460  -17.925460   10.433140
  N     12.559560  -17.417720   11.441620
  H      1.209850   -0.630160   -6.955040
  H      1.252210    0.003230   -9.151630
  H      1.501060   -1.298150  -10.322180
  H      2.823320   -0.207590   -9.932950
  H      4.333240   -2.009520  -10.410910
  H      3.014300   -3.121610  -10.747900
  H      4.528370   -3.734220  -10.071630
  H      4.372320   -4.349040   -7.817140
  H      2.092950   -3.128520   -2.084820
  H      2.663880   -4.279810   -0.082530
  H      5.672600   -9.107130    2.375490
  H      8.973380  -12.798070   -3.723280
  H      9.220080  -14.444320   -3.067750
  H     10.523900  -13.245030   -2.966070
  H      7.775360  -13.107430    4.671830
  H      9.820750  -18.047770    7.775190
  H     11.469740  -20.851290    5.673700
  H     11.385390  -19.702340   11.853250
  H     11.717310  -24.183570    9.753940
  H     10.543590  -24.359630   13.016810
  H     12.293100  -24.307620   13.175640
  H     11.558040  -25.213190   11.847610
  H     11.212330  -20.628250   13.945760
  H     12.107560  -22.133720   14.179150
  H     10.359520  -22.176250   14.000250

 Total Charge           Charge          ....    0
 Multiplicity           Mult            ....    1
 Number of Electrons    NEL             ....  566
 Basis Dimension        Dim             .... 1251

ORBITAL ENERGIES
----------------

  NO   OCC          E(Eh)            E(eV)
   0   2.0000     -88.996227     -2421.7105
   1   2.0000     -88.994868     -2421.6735
   2   2.0000     -88.994463     -2421.6624
   3   2.0000     -88.993401     -2421.6336
   4   2.0000     -88.990493     -2421.5544
   5   2.0000     -19.226876      -523.1899
   6   2.0000     -19.226789      -523.1875
   7   2.0000     -19.226408      -523.1772
   8   2.0000     -19.215612      -522.8834
   9   2.0000     -14.471375      -393.7861
  10   2.0000     -14.433617      -392.7587
  11   2.0000     -14.432601      -392.7310
  12   2.0000     -14.431718      -392.7070
  13   2.0000     -14.430292      -392.6682
  14   2.0000     -14.418367      -392.3437
  15   2.0000     -14.417462      -392.3191
  16   2.0000     -14.415157      -392.2564
  17   2.0000     -14.412694      -392.1893
  18   2.0000     -10.409642      -283.2608
  19   2.0000     -10.408572      -283.2317
  20   2.0000     -10.373985      -282.2905
  21   2.0000     -10.368242      -282.1342
  22   2.0000     -10.366579      -282.0889
  23   2.0000     -10.366442      -282.0852
  24   2.0000     -10.355754      -281.7944
  25   2.0000     -10.354830      -281.7692
  26   2.0000     -10.353167      -281.7240
  27   2.0000     -10.352947      -281.7180
  28   2.0000     -10.344188      -281.4797
  29   2.0000     -10.343893      -281.4716
  30   2.0000     -10.342933      -281.4455
  31   2.0000     -10.342376      -281.4304
  32   2.0000     -10.342247      -281.4269
  33   2.0000     -10.339137      -281.3422
  34   2.0000     -10.338143      -281.3152
  35   2.0000     -10.336752      -281.2773
  36   2.0000     -10.335162      -281.2340
  37   2.0000     -10.333933      -281.2006
  38   2.0000     -10.333864      -281.1987
  39   2.0000     -10.332590      -281.1641
  40   2.0000     -10.331856      -281.1441
  41   2.0000     -10.330023      -281.0942
  42   2.0000     -10.328765      -281.0600
  43   2.0000     -10.328145      -281.0431
  44   2.0000     -10.327516      -281.0260
  45   2.0000     -10.323650      -280.9208
  46   2.0000     -10.320721      -280.8411
  47   2.0000     -10.318800      -280.7888
  48   2.0000     -10.318241      -280.7736
  49   2.0000     -10.315266      -280.6927
  50   2.0000     -10.315172      -280.6901
  51   2.0000     -10.313168      -280.6356
  52   2.0000     -10.313096      -280.6336
  53   2.0000     -10.312792      -280.6253
  54   2.0000     -10.311856      -280.5999
  55   2.0000     -10.311805      -280.5985
  56   2.0000     -10.311142      -280.5804
  57   2.0000     -10.308889      -280.5191
  58   2.0000     -10.307359      -280.4775
  59   2.0000     -10.306711      -280.4599
  60   2.0000     -10.306521      -280.4547
  61   2.0000     -10.303945      -280.3846
  62   2.0000     -10.301915      -280.3294
  63   2.0000     -10.301171      -280.3091
  64   2.0000     -10.300869      -280.3009
  65   2.0000     -10.299896      -280.2744
  66   2.0000     -10.299468      -280.2628
  67   2.0000     -10.297086      -280.1980
  68   2.0000     -10.296712      -280.1878
  69   2.0000     -10.292952      -280.0855
  70   2.0000     -10.291183      -280.0373
  71   2.0000     -10.290459      -280.0176
  72   2.0000     -10.289654      -279.9957
  73   2.0000     -10.288608      -279.9673
  74   2.0000     -10.287941      -279.9491
  75   2.0000     -10.280170      -279.7377
  76   2.0000     -10.277403      -279.6624
  77   2.0000     -10.277151      -279.6555
  78   2.0000     -10.274631      -279.5869
  79   2.0000      -8.091030      -220.1681
  80   2.0000      -8.088526      -220.1000
  81   2.0000      -8.088143      -220.0896
  82   2.0000      -8.088110      -220.0887
  83   2.0000      -8.082814      -219.9446
  84   2.0000      -6.060159      -164.9053
  85   2.0000      -6.057863      -164.8428
  86   2.0000      -6.057785      -164.8407
  87   2.0000      -6.057454      -164.8317
  88   2.0000      -6.056005      -164.7923
  89   2.0000      -6.053536      -164.7251
  90   2.0000      -6.053408      -164.7216
  91   2.0000      -6.053383      -164.7209
  92   2.0000      -6.052976      -164.7098
  93   2.0000      -6.052212      -164.6891
  94   2.0000      -6.050836      -164.6516
  95   2.0000      -6.050499      -164.6424
  96   2.0000      -6.049672      -164.6199
  97   2.0000      -6.047455      -164.5596
  98   2.0000      -6.045405      -164.5038
  99   2.0000      -1.172910       -31.9165
 100   2.0000      -1.149679       -31.2844
 101   2.0000      -1.141877       -31.0721
 102   2.0000      -1.130754       -30.7694
 103   2.0000      -1.065095       -28.9827
 104   2.0000      -1.051345       -28.6086
 105   2.0000      -1.048884       -28.5416
 106   2.0000      -1.026656       -27.9367
 107   2.0000      -1.024398       -27.8753
 108   2.0000      -1.021750       -27.8032
 109   2.0000      -1.020029       -27.7564
 110   2.0000      -1.018110       -27.7042
 111   2.0000      -1.010747       -27.5038
 112   2.0000      -1.008673       -27.4474
 113   2.0000      -1.004770       -27.3412
 114   2.0000      -0.999424       -27.1957
 115   2.0000      -0.996855       -27.1258
 116   2.0000      -0.996395       -27.1133
 117   2.0000      -0.994620       -27.0650
 118   2.0000      -0.991650       -26.9842
 119   2.0000      -0.966906       -26.3109
 120   2.0000      -0.962631       -26.1945
 121   2.0000      -0.956625       -26.0311
 122   2.0000      -0.954945       -25.9854
 123   2.0000      -0.927741       -25.2451
 124   2.0000      -0.922370       -25.0990
 125   2.0000      -0.908043       -24.7091
 126   2.0000      -0.907174       -24.6855
 127   2.0000      -0.905186       -24.6314
 128   2.0000      -0.899326       -24.4719
 129   2.0000      -0.890574       -24.2337
 130   2.0000      -0.882778       -24.0216
 131   2.0000      -0.874715       -23.8022
 132   2.0000      -0.872002       -23.7284
 133   2.0000      -0.871394       -23.7118
 134   2.0000      -0.866080       -23.5672
 135   2.0000      -0.862382       -23.4666
 136   2.0000      -0.860563       -23.4171
 137   2.0000      -0.839514       -22.8443
 138   2.0000      -0.833068       -22.6689
 139   2.0000      -0.812718       -22.1152
 140   2.0000      -0.812127       -22.0991
 141   2.0000      -0.809111       -22.0170
 142   2.0000      -0.804790       -21.8994
 143   2.0000      -0.791216       -21.5301
 144   2.0000      -0.782897       -21.3037
 145   2.0000      -0.780445       -21.2370
 146   2.0000      -0.768813       -20.9205
 147   2.0000      -0.762102       -20.7379
 148   2.0000      -0.756125       -20.5752
 149   2.0000      -0.754058       -20.5190
 150   2.0000      -0.740942       -20.1621
 151   2.0000      -0.728226       -19.8160
 152   2.0000      -0.714606       -19.4454
 153   2.0000      -0.709371       -19.3030
 154   2.0000      -0.705408       -19.1951
 155   2.0000      -0.700615       -19.0647
 156   2.0000      -0.697950       -18.9922
 157   2.0000      -0.691754       -18.8236
 158   2.0000      -0.690512       -18.7898
 159   2.0000      -0.686375       -18.6772
 160   2.0000      -0.683611       -18.6020
 161   2.0000      -0.681568       -18.5464
 162   2.0000      -0.674349       -18.3500
 163   2.0000      -0.670935       -18.2571
 164   2.0000      -0.654746       -17.8166
 165   2.0000      -0.649436       -17.6721
 166   2.0000      -0.643572       -17.5125
 167   2.0000      -0.636841       -17.3293
 168   2.0000      -0.633894       -17.2491
 169   2.0000      -0.625516       -17.0211
 170   2.0000      -0.624069       -16.9818
 171   2.0000      -0.620982       -16.8978
 172   2.0000      -0.613159       -16.6849
 173   2.0000      -0.612509       -16.6672
 174   2.0000      -0.605522       -16.4771
 175   2.0000      -0.604115       -16.4388
 176   2.0000      -0.593373       -16.1465
 177   2.0000      -0.588746       -16.0206
 178   2.0000      -0.585361       -15.9285
 179   2.0000      -0.578809       -15.7502
 180   2.0000      -0.574477       -15.6323
 181   2.0000      -0.570493       -15.5239
 182   2.0000      -0.563263       -15.3272
 183   2.0000      -0.559955       -15.2371
 184   2.0000      -0.555782       -15.1236
 185   2.0000      -0.553873       -15.0716
 186   2.0000      -0.552560       -15.0359
 187   2.0000      -0.551828       -15.0160
 188   2.0000      -0.545637       -14.8475
 189   2.0000      -0.544136       -14.8067
 190   2.0000      -0.540531       -14.7086
 191   2.0000      -0.539081       -14.6691
 192   2.0000      -0.536350       -14.5948
 193   2.0000      -0.534541       -14.5456
 194   2.0000      -0.532568       -14.4919
 195   2.0000      -0.531347       -14.4587
 196   2.0000      -0.530176       -14.4268
 197   2.0000      -0.527250       -14.3472
 198   2.0000      -0.525579       -14.3017
 199   2.0000      -0.523904       -14.2562
 200   2.0000      -0.522736       -14.2244
 201   2.0000      -0.517917       -14.0932
 202   2.0000      -0.515358       -14.0236
 203   2.0000      -0.510069       -13.8797
 204   2.0000      -0.509670       -13.8688
 205   2.0000      -0.507027       -13.7969
 206   2.0000      -0.504090       -13.7170
 207   2.0000      -0.503558       -13.7025
 208   2.0000      -0.501008       -13.6331
 209   2.0000      -0.499516       -13.5925
 210   2.0000      -0.498054       -13.5527
 211   2.0000      -0.495957       -13.4957
 212   2.0000      -0.494810       -13.4645
 213   2.0000      -0.492139       -13.3918
 214   2.0000      -0.491494       -13.3742
 215   2.0000      -0.489374       -13.3166
 216   2.0000      -0.489185       -13.3114
 217   2.0000      -0.488060       -13.2808
 218   2.0000      -0.487504       -13.2656
 219   2.0000      -0.486509       -13.2386
 220   2.0000      -0.480718       -13.0810
 221   2.0000      -0.478971       -13.0335
 222   2.0000      -0.477892       -13.0041
 223   2.0000      -0.476911       -12.9774
 224   2.0000      -0.475432       -12.9372
 225   2.0000      -0.472748       -12.8641
 226   2.0000      -0.472225       -12.8499
 227   2.0000      -0.464793       -12.6477
 228   2.0000      -0.463598       -12.6151
 229   2.0000      -0.461418       -12.5558
 230   2.0000      -0.460589       -12.5333
 231   2.0000      -0.456918       -12.4334
 232   2.0000      -0.451876       -12.2962
 233   2.0000      -0.451075       -12.2744
 234   2.0000      -0.450811       -12.2672
 235   2.0000      -0.450418       -12.2565
 236   2.0000      -0.448106       -12.1936
 237   2.0000      -0.446428       -12.1479
 238   2.0000      -0.445446       -12.1212
 239   2.0000      -0.444494       -12.0953
 240   2.0000      -0.443794       -12.0763
 241   2.0000      -0.442910       -12.0522
 242   2.0000      -0.442625       -12.0444
 243   2.0000      -0.441876       -12.0241
 244   2.0000      -0.441753       -12.0207
 245   2.0000      -0.440987       -11.9999
 246   2.0000      -0.440480       -11.9861
 247   2.0000      -0.437975       -11.9179
 248   2.0000      -0.437703       -11.9105
 249   2.0000      -0.436834       -11.8869
 250   2.0000      -0.432419       -11.7667
 251   2.0000      -0.429013       -11.6740
 252   2.0000      -0.428647       -11.6641
 253   2.0000      -0.426747       -11.6124
 254   2.0000      -0.426422       -11.6035
 255   2.0000      -0.425991       -11.5918
 256   2.0000      -0.420103       -11.4316
 257   2.0000      -0.416750       -11.3404
 258   2.0000      -0.410485       -11.1699
 259   2.0000      -0.409351       -11.1390
 260   2.0000      -0.407192       -11.0803
 261   2.0000      -0.405030       -11.0214
 262   2.0000      -0.397467       -10.8156
 263   2.0000      -0.382606       -10.4112
 264   2.0000      -0.375724       -10.2240
 265   2.0000      -0.369195       -10.0463
 266   2.0000      -0.368669       -10.0320
 267   2.0000      -0.357770        -9.7354
 268   2.0000      -0.355118        -9.6633
 269   2.0000      -0.352504        -9.5921
 270   2.0000      -0.346487        -9.4284
 271   2.0000      -0.344404        -9.3717
 272   2.0000      -0.342026        -9.3070
 273   2.0000      -0.338205        -9.2030
 274   2.0000      -0.336958        -9.1691
 275   2.0000      -0.332660        -9.0521
 276   2.0000      -0.327401        -8.9090
 277   2.0000      -0.323661        -8.8073
 278   2.0000      -0.314732        -8.5643
 279   2.0000      -0.309313        -8.4168
 280   2.0000      -0.306081        -8.3289
 281   2.0000      -0.277426        -7.5491
 282   2.0000      -0.254764        -6.9325
 283   0.0000      -0.115069        -3.1312
 284   0.0000      -0.109850        -2.9892
 285   0.0000      -0.087556        -2.3825
 286   0.0000      -0.085193        -2.3182
 287   0.0000      -0.068905        -1.8750

MULLIKEN ATOMIC CHARGES
-----------------------
   0 C :   -0.081066
   1 C :   -0.076755
   2 C :    0.113344
   3 C :   -0.076309
   4 C :    0.116129
   5 C :   -0.079440
   6 C :   -0.007808
   7 C :    0.036487
   8 C :    0.329997
   9 C :   -0.349703
  10 C :   -0.183220
  11 N :    0.150318
  12 C :   -0.196035
  13 N :    0.156747
  14 C :   -0.092285
  15 C :    0.170338
  16 O :   -0.189164
  17 C :   -0.034169
  18 C :   -0.052877
  19 C :   -0.060403
  20 C :    0.044071
  21 C :   -0.072622
  22 S :    0.246352
  23 C :   -0.093681
  24 C :    0.030776
  25 C :    0.306197
  26 C :   -0.294121
  27 C :   -0.192235
  28 N :    0.177266
  29 C :   -0.193215
  30 N :    0.183863
  31 C :   -0.073822
  32 C :   -0.076963
  33 S :    0.248800
  34 C :   -0.083171
  35 C :   -0.034228
  36 C :    0.194160
  37 O :   -0.176027
  38 N :   -0.310763
  39 C :    0.136357
  40 C :    0.189735
  41 O :   -0.178963
  42 C :   -0.029321
  43 C :   -0.081424
  44 S :    0.176829
  45 C :   -0.081529
  46 C :   -0.069124
  47 C :    0.029056
  48 C :   -0.090902
  49 S :    0.245818
  50 C :   -0.074770
  51 C :   -0.006147
  52 C :    0.307368
  53 C :   -0.287543
  54 C :   -0.183425
  55 N :    0.170144
  56 C :   -0.193584
  57 N :    0.181747
  58 C :   -0.002013
  59 C :   -0.110895
  60 S :    0.218877
  61 C :    0.075613
  62 C :   -0.131292
  63 C :    0.131263
  64 O :   -0.142979
  65 C :    0.011600
  66 C :    0.019191
  67 C :   -0.069380
  68 C :   -0.081384
  69 C :   -0.080609
  70 C :   -0.076889
  71 C :    0.115537
  72 C :    0.114293
  73 C :    0.266913
  74 C :   -0.329053
  75 C :   -0.200696
  76 N :    0.165767
  77 C :   -0.168453
  78 N :    0.158824
  79 H :   -0.013131
  80 H :    0.027136
  81 H :    0.026979
  82 H :    0.028552
  83 H :    0.028155
  84 H :    0.030024
  85 H :    0.017422
  86 H :   -0.018653
  87 H :    0.015941
  88 H :    0.028420
  89 H :    0.018909
  90 H :    0.054326
  91 H :    0.044305
  92 H :    0.043402
  93 H :    0.017997
  94 H :    0.025569
  95 H :    0.020628
  96 H :   -0.004628
  97 H :   -0.017791
  98 H :    0.027899
  99 H :    0.030139
 100 H :    0.016832
 101 H :    0.026155
 102 H :    0.028403
 103 H :    0.027692
Sum of atomic charges:   -0.0000000

LOEWDIN ATOMIC CHARGES
----------------------
   0 C :   -0.004397
   1 C :   -0.002022
   2 C :   -0.041715
   3 C :   -0.006437
   4 C :   -0.042692
   5 C :    0.007798
   6 C :   -0.049168
   7 C :   -0.016755
   8 C :    0.077983
   9 C :   -0.138496
  10 C :   -0.017116
  11 N :   -0.052735
  12 C :   -0.023482
  13 N :   -0.046127
  14 C :   -0.106990
  15 C :    0.087129
  16 O :   -0.173382
  17 C :    0.053108
  18 C :   -0.182521
  19 C :    0.008917
  20 C :   -0.076061
  21 C :   -0.170613
  22 S :    0.550455
  23 C :   -0.182701
  24 C :   -0.060346
  25 C :    0.077339
  26 C :   -0.100406
  27 C :   -0.017709
  28 N :   -0.029365
  29 C :   -0.020200
  30 N :   -0.023701
  31 C :   -0.026315
  32 C :   -0.184407
  33 S :    0.538287
  34 C :   -0.140577
  35 C :   -0.104862
  36 C :    0.085835
  37 O :   -0.173204
  38 N :   -0.035115
  39 C :    0.037532
  40 C :    0.085014
  41 O :   -0.174103
  42 C :   -0.106934
  43 C :   -0.139378
  44 S :    0.466144
  45 C :   -0.187312
  46 C :   -0.022988
  47 C :   -0.063223
  48 C :   -0.179435
  49 S :    0.538619
  50 C :   -0.164018
  51 C :   -0.063138
  52 C :    0.081578
  53 C :   -0.097731
  54 C :   -0.013020
  55 N :   -0.031750
  56 C :   -0.018447
  57 N :   -0.026520
  58 C :    0.004718
  59 C :   -0.178378
  60 S :    0.503305
  61 C :    0.036528
  62 C :   -0.084610
  63 C :    0.084160
  64 O :   -0.142730
  65 C :   -0.051020
  66 C :   -0.014550
  67 C :   -0.004457
  68 C :   -0.000908
  69 C :   -0.006954
  70 C :    0.008096
  71 C :   -0.042720
  72 C :   -0.041562
  73 C :    0.066752
  74 C :   -0.135667
  75 C :   -0.016071
  76 N :   -0.047005
  77 C :   -0.018337
  78 N :   -0.046235
  79 H :    0.036628
  80 H :    0.036617
  81 H :    0.038148
  82 H :    0.038736
  83 H :    0.038549
  84 H :    0.039348
  85 H :    0.033149
  86 H :    0.035779
  87 H :    0.053367
  88 H :    0.047885
  89 H :    0.038485
  90 H :    0.038752
  91 H :    0.035547
  92 H :    0.033504
  93 H :    0.038899
  94 H :    0.042340
  95 H :    0.045480
  96 H :    0.037879
  97 H :    0.036085
  98 H :    0.038446
  99 H :    0.039057
 100 H :    0.032983
 101 H :    0.036662
 102 H :    0.038994
 103 H :    0.038200

  Mayer bond orders larger than 0.100000
B(  0-C ,  1-C ) :   1.3724 B(  0-C ,  7-C ) :   1.3511 B(  0-C , 79-H ) :   0.9845
B(  1-C ,  2-C ) :   1.0933 B(  1-C ,  3-C ) :   1.3766 B(  2-C , 80-H ) :   0.9510
B(  2-C , 81-H ) :   0.9396 B(  2-C , 82-H ) :   0.9406 B(  3-C ,  4-C ) :   1.0937
B(  3-C ,  5-C ) :   1.3477 B(  4-C , 83-H ) :   0.9398 B(  4-C , 84-H ) :   0.9402
B(  4-C , 85-H ) :   0.9515 B(  5-C ,  6-C ) :   1.3547 B(  5-C , 86-H ) :   1.0114
B(  6-C ,  7-C ) :   1.3348 B(  6-C , 15-C ) :   0.9668 B(  7-C ,  8-C ) :   0.9838
B(  8-C ,  9-C ) :   1.6321 B(  8-C , 14-C ) :   1.0673 B(  9-C , 10-C ) :   1.1471
B(  9-C , 12-C ) :   1.1400 B( 10-C , 11-N ) :   2.9657 B( 12-C , 13-N ) :   2.9649
B( 14-C , 15-C ) :   0.9727 B( 14-C , 17-C ) :   1.5189 B( 15-C , 16-O ) :   2.1122
B( 17-C , 18-C ) :   1.2471 B( 17-C , 87-H ) :   0.9409 B( 18-C , 19-C ) :   1.3401
B( 18-C , 22-S ) :   1.0777 B( 19-C , 20-C ) :   1.3211 B( 19-C , 88-H ) :   1.0092
B( 20-C , 21-C ) :   1.3659 B( 20-C , 25-C ) :   0.9869 B( 21-C , 22-S ) :   1.1232
B( 21-C , 23-C ) :   1.1955 B( 23-C , 24-C ) :   1.4085 B( 23-C , 33-S ) :   1.1105
B( 24-C , 25-C ) :   0.9965 B( 24-C , 31-C ) :   1.3179 B( 25-C , 26-C ) :   1.7171
B( 26-C , 27-C ) :   1.1335 B( 26-C , 29-C ) :   1.1339 B( 27-C , 28-N ) :   2.9914
B( 29-C , 30-N ) :   2.9945 B( 31-C , 32-C ) :   1.4145 B( 31-C , 89-H ) :   0.9911
B( 32-C , 33-S ) :   1.1229 B( 32-C , 34-C ) :   1.1881 B( 34-C , 35-C ) :   1.5281
B( 34-C , 44-S ) :   1.1183 B( 35-C , 36-C ) :   0.9081 B( 35-C , 42-C ) :   1.2345
B( 36-C , 37-O ) :   2.1424 B( 36-C , 38-N ) :   1.0829 B( 38-N , 39-C ) :   0.9384
B( 38-N , 40-C ) :   1.0824 B( 39-C , 90-H ) :   0.9612 B( 39-C , 91-H ) :   0.9713
B( 39-C , 92-H ) :   0.9792 B( 40-C , 41-O ) :   2.1489 B( 40-C , 42-C ) :   0.9059
B( 42-C , 43-C ) :   1.5250 B( 43-C , 44-S ) :   1.1186 B( 43-C , 45-C ) :   1.1900
B( 45-C , 46-C ) :   1.4160 B( 45-C , 49-S ) :   1.1199 B( 46-C , 47-C ) :   1.3198
B( 46-C , 93-H ) :   0.9917 B( 47-C , 48-C ) :   1.4142 B( 47-C , 52-C ) :   0.9918
B( 48-C , 49-S ) :   1.1138 B( 48-C , 50-C ) :   1.1862 B( 50-C , 51-C ) :   1.4197
B( 50-C , 60-S ) :   1.1515 B( 51-C , 52-C ) :   0.9987 B( 51-C , 58-C ) :   1.3501
B( 52-C , 53-C ) :   1.7184 B( 53-C , 54-C ) :   1.1342 B( 53-C , 56-C ) :   1.1330
B( 54-C , 55-N ) :   2.9820 B( 56-C , 57-N ) :   2.9948 B( 58-C , 59-C ) :   1.4098
B( 58-C , 94-H ) :   0.9796 B( 59-C , 60-S ) :   1.0973 B( 59-C , 61-C ) :   1.1166
B( 61-C , 62-C ) :   1.6993 B( 61-C , 95-H ) :   0.9286 B( 62-C , 63-C ) :   0.9337
B( 62-C , 73-C ) :   1.0244 B( 63-C , 64-O ) :   2.2654 B( 63-C , 65-C ) :   0.9263
B( 65-C , 66-C ) :   1.3322 B( 65-C , 70-C ) :   1.3572 B( 66-C , 67-C ) :   1.3557
B( 66-C , 73-C ) :   0.9994 B( 67-C , 68-C ) :   1.3742 B( 67-C , 96-H ) :   0.9880
B( 68-C , 69-C ) :   1.3733 B( 68-C , 72-C ) :   1.0935 B( 69-C , 70-C ) :   1.3580
B( 69-C , 71-C ) :   1.0935 B( 70-C , 97-H ) :   1.0110 B( 71-C , 98-H ) :   0.9403
B( 71-C , 99-H ) :   0.9407 B( 71-C ,100-H ) :   0.9518 B( 72-C ,101-H ) :   0.9511
B( 72-C ,102-H ) :   0.9394 B( 72-C ,103-H ) :   0.9410 B( 73-C , 74-C ) :   1.6561
B( 74-C , 75-C ) :   1.1684 B( 74-C , 77-C ) :   1.1260 B( 75-C , 76-N ) :   2.9988
B( 77-C , 78-N ) :   2.9944

-----------------------------------------------------------------------------
         ABSORPTION SPECTRUM VIA TRANSITION ELECTRIC DIPOLE MOMENTS
-----------------------------------------------------------------------------
State   Energy  Wavelength   fosc         T2         TX        TY        TZ
        (cm-1)    (nm)                  (au**2)     (au)      (au)      (au)
-----------------------------------------------------------------------------
   0   13822.8    723.4   0.600935389  14.31227  -1.48137   2.76191  -2.11888
   1   14703.1    680.1   0.142396050   3.18833  -0.83793   1.37212  -0.77685
   2   20146.3    496.4   1.978827302  32.33612  -2.33623   3.99122  -3.30883
   3   21951.3    455.6   0.134078422   2.01082  -0.56894   1.27596  -0.24300
   4   22729.4    440.0   0.006341832   0.09185   0.09893  -0.28499  -0.02910
   5   23791.0    420.3   0.160629563   2.22274  -0.69917   0.82716  -1.02455
   6   25710.5    388.9   0.117853246   1.50906   0.30555  -1.05565   0.54890
   7   26645.2    375.3   0.002831476   0.03498   0.01472   0.06152   0.17602
   8   27282.1    366.5   0.119668142   1.44403   0.06873   1.12502  -0.41670
   9   28283.4    353.6   0.116243148   1.35304   0.23949   0.20063  -1.12046
  10   28694.1    348.5   0.021869620   0.25091   0.15649  -0.18892   0.43673
  11   28770.9    347.6   0.008945287   0.10236  -0.25581   0.18476  -0.05272
  12   29226.6    342.2   0.013300479   0.14982   0.12952   0.09784  -0.35138
  13   29847.1    335.0   0.038387052   0.42341  -0.17354   0.21393   0.58951
  14   30037.3    332.9   0.139846429   1.53273   0.77549  -0.83680  -0.48076
  15   30348.0    329.5   0.020752997   0.22513  -0.15611   0.30215   0.33085
  16   30547.2    327.4   0.336456446   3.62604   0.82823  -0.64613  -1.58827
  17   30713.7    325.6   0.354158055   3.79612  -0.29297   0.19015   1.91680
  18   31142.2    321.1   0.217430742   2.29851   0.33417  -0.62661   1.33948
  19   31326.1    319.2   0.290134749   3.04908   0.52269   0.65706  -1.53106
  20   31854.8    313.9   0.199343579   2.06017   0.35112  -1.30822  -0.47481
  21   32733.1    305.5   0.054143014   0.54454  -0.46840   0.54595   0.16455
  22   32950.0    303.5   0.383681854   3.83347   0.49658  -1.16736   1.49136
  23   33240.9    300.8   0.067979703   0.67326   0.09368   0.80165  -0.14779
  24   33334.8    300.0   0.003929301   0.03881   0.01069  -0.12839   0.14902
  25   33685.1    296.9   0.091208513   0.89140   0.18997   0.68594  -0.62032
  26   33797.6    295.9   0.080170230   0.78091  -0.29424   0.66821  -0.49782
  27   33959.9    294.5   0.003011283   0.02919   0.05591  -0.15985  -0.02270
  28   34333.4    291.3   0.021414471   0.20534  -0.17512  -0.07092   0.41188
  29   34633.9    288.7   0.091587888   0.87059   0.45287  -0.28611  -0.76396
  30   34978.3    285.9   0.345357224   3.25047  -0.18164  -0.44164   1.73851
  31   35181.6    284.2   0.459954958   4.30403  -0.87444   1.36240   1.29740
  32   35516.8    281.6   0.064047348   0.59367  -0.38617   0.27769   0.60616
  33   35792.8    279.4   0.031071703   0.28579   0.21748  -0.35096  -0.33959
  34   35816.0    279.2   0.216293851   1.98812  -0.81867   0.63328   0.95752
  35   35860.0    278.9   0.053292371   0.48925  -0.17797   0.15892   0.65751
  36   35908.1    278.5   0.019396568   0.17783   0.15978  -0.32527  -0.21564
  37   36036.7    277.5   0.035367385   0.32310  -0.18770   0.53579  -0.02815
  38   36217.4    276.1   0.412762808   3.75197  -1.09315   0.70569   1.43492
  39   36386.6    274.8   0.023954728   0.21673   0.10394  -0.07532  -0.44750
  40   36599.4    273.2   0.210357011   1.89216   0.10701   1.37020   0.05708
  41   36759.4    272.0   0.232439897   2.08170  -0.17164  -1.31915   0.55864
  42   36833.9    271.5   0.012445968   0.11124   0.15547   0.24626  -0.16255
  43   36873.0    271.2   0.009236629   0.08247   0.11145  -0.25814   0.05839
  44   37178.3    269.0   0.016558592   0.14663   0.21084  -0.30815   0.08496
  45   37705.2    265.2   0.001762641   0.01539   0.03518  -0.04528  -0.11001
  46   38034.2    262.9   0.042520168   0.36804   0.10388  -0.45293  -0.39001
  47   38233.3    261.6   0.017436368   0.15014   0.07770  -0.21210  -0.31482
  48   38369.3    260.6   0.139404715   1.19610   0.15427   1.08269  -0.00878
  49   38674.4    258.6   0.005853460   0.04983  -0.03846   0.20277   0.08503
  50   38790.0    257.8   0.058058256   0.49274  -0.27791   0.59226  -0.25442
  51   39446.9    253.5   0.066702123   0.55668   0.00654   0.19568  -0.71996
  52   39650.5    252.2   0.071825111   0.59635  -0.23865   0.40264   0.61423
  53   40010.6    249.9   0.221878264   1.82564  -0.78795   0.96657  -0.52011
  54   40310.6    248.1   0.041984408   0.34288   0.35702  -0.25194  -0.38980

FINAL SINGLE POINT ENERGY     -5119.461014378853

DIPOLE MOMENT
-------------
                                X             Y             Z
Electronic contribution:     -2.10223      12.55681      10.71798
Nuclear contribution   :      3.32570     -15.80050     -14.30575
                        -----------------------------------------
Total Dipole Moment    :      1.22347      -3.24369      -3.58777
                        -----------------------------------------
Magnitude (a.u.)       :      4.98904
Magnitude (Debye)      :     12.68113

Rotational constants in cm-1:     0.002360     0.000172     0.000162
Rotational constants in MHz :    70.748380     5.151029     4.850010

                             ****ORCA TERMINATED NORMALLY****
TOTAL RUN TIME: 0 days 0 hours 11 minutes 30 seconds 11 msec
