                         Program Version 4.2.0 -  RELEASE  -
|  1> # ORCA input file
|  2> # SCF done       -195.683571211527          0.000558437779
|  3> ! CAM-B3LYP def2-SVP def2/J RIJCOSX Grid4 TightSCF
|  4> %maxcore 5000
|  5> %tddft
|  6>     Mode sTDDFT
|  7>     Ethresh 5.0
|  8>     maxcore 5000
|  9> end
| 10>
| 11> %pal
| 12>   nprocs 6
| 13>   end
| 14> * xyz 0 1
| 15>    C       -1.74496        -5.42390         5.45736
| 16>    C       -2.37781        -4.42724         6.19418
| 17>    C       -2.59015        -4.62245         7.66116
| 18>    C       -2.81827        -3.24883         5.56905
| 19>    C       -3.50681        -2.18447         6.36161
| 20>    C       -2.61132        -3.07372         4.20516
| 21>    C       -1.97987        -4.06474         3.47992
| 22>    C       -1.54644        -5.25268         4.09802
| 23>    C       -0.96829        -6.13080         3.08962
| 24>    C       -0.80342        -7.48329         3.20163
| 25>    C       -1.00017        -8.19894         4.40038
| 26>    N       -1.13224        -8.81831         5.35751
| 27>    C       -0.49058        -8.32376         2.11371
| 28>    N       -0.28656        -9.04858         1.24729
| 29>    C       -0.83699        -5.34731         1.87412
| 30>    C       -1.64409        -4.09869         2.04803
| 31>    O       -1.90915        -3.28858         1.19117
| 32>    C       -0.08025        -5.50181         0.76779
| 33>    C        0.99955        -6.42152         0.53135
| 34>    C        1.26552        -6.90091        -0.74954
| 35>    C        2.33395        -7.78241        -1.04489
| 36>    N        2.37611        -8.18685        -2.34558
| 37>    C        1.43962        -7.66895        -3.03394
| 38>    S        0.34454        -6.60289        -2.18724
| 39>    C        3.22144        -8.20031        -0.04306
| 40>    C        2.96473        -7.72440         1.23714
| 41>    C        1.88809        -6.84881         1.53365
| 42>    N        1.83686        -6.44929         2.83454
| 43>    C        2.78471        -6.95863         3.52313
| 44>    S        3.88478        -8.00839         2.68094
| 45>    C        4.34019        -9.06842        -0.38483
| 46>    C        4.64442       -10.23646         0.32474
| 47>    C        5.69966       -11.12129        -0.08919
| 48>    N        5.99021       -12.21218         0.66157
| 49>    C        5.25835       -12.47341         1.68570
| 50>    C        4.15966       -11.63544         2.05525
| 51>    N        3.88873       -10.55801         1.40599
| 52>    F        3.40685       -11.93732         3.10704
| 53>    F        5.56108       -13.53921         2.41937
| 54>    C        6.45826       -10.87806        -1.24205
| 55>    C        6.17955        -9.69373        -1.93766
| 56>    C        5.13603        -8.79080        -1.50489
| 57>    N        5.05628        -7.71450        -2.29596
| 58>    S        6.12839        -7.85244        -3.46862
| 59>    N        6.77798        -9.25393        -3.05218
| 60>    C        7.44719       -11.83736        -1.71347
| 61>    C        8.72407       -11.48159        -2.13223
| 62>    C        9.67976       -12.42454        -2.59112
| 63>    N       10.86891       -11.87539        -2.96285
| 64>    C       10.88669       -10.61199        -2.77535
| 65>    S        9.43725        -9.89850        -2.13585
| 66>    C        9.37816       -13.79727        -2.64883
| 67>    C        8.08424       -14.14160        -2.25636
| 68>    C        7.13325       -13.20149        -1.78957
| 69>    N        5.92069       -13.74283        -1.48292
| 70>    C        5.91004       -15.00479        -1.64421
| 71>    S        7.39206       -15.73032        -2.21986
| 72>    C       10.27863       -14.79654        -3.15164
| 73>    C       11.62902       -14.83274        -3.15809
| 74>    C       12.32050       -15.78246        -4.08784
| 75>    O       11.81660       -16.71575        -4.66702
| 76>    C       13.70347       -15.28804        -4.17208
| 77>    C       13.88491       -14.23258        -3.25951
| 78>    C       15.11480       -13.60164        -3.18499
| 79>    C       16.15682       -14.01985        -4.00732
| 80>    C       15.97091       -15.07850        -4.91161
| 81>    C       14.73411       -15.70968        -4.98851
| 82>    C       17.09392       -15.52861        -5.79004
| 83>    C       17.48163       -13.33239        -3.91958
| 84>    C       12.65019       -14.02980        -2.51250
| 85>    C       12.53755       -13.38366        -1.31286
| 86>    C       11.37574       -13.40943        -0.51501
| 87>    N       10.46612       -13.42411         0.18455
| 88>    C       13.58430       -12.65754        -0.70997
| 89>    N       14.39497       -12.03448        -0.18771
| 90>    H       -1.40727        -6.31819         5.95695
| 91>    H       -2.20169        -5.58471         7.98241
| 92>    H       -3.65158        -4.57817         7.90246
| 93>    H       -2.09151        -3.83712         8.22839
| 94>    H       -4.41290        -2.57582         6.82299
| 95>    H       -3.77552        -1.34473         5.72676
| 96>    H       -2.86072        -1.82381         7.16131
| 97>    H       -2.94131        -2.17467         3.70630
| 98>    H       -0.28541        -4.80653        -0.04205
| 99>    H        1.29593        -7.86135        -4.07925
|100>    H        2.91174        -6.77083         4.57180
|101>    H       11.73997       -10.00017        -2.99621
|102>    H        5.05388       -15.62114        -1.45081
|103>    H        9.79666       -15.63204        -3.65440
|104>    H       15.27486       -12.78082        -2.50374
|105>    H       14.57116       -16.52560        -5.67677
|106>    H       17.93317       -15.87815        -5.18979
|107>    H       17.45197       -14.70549        -6.40715
|108>    H       16.77312       -16.33695        -6.44094
|109>    H       17.46199       -12.55206        -3.16401
|110>    H       17.74512       -12.88451        -4.87727
|111>    H       18.26509       -14.04462        -3.66368
|112> *
|113>
|114>                          ****END OF INPUT****

CARTESIAN COORDINATES (ANGSTROEM)
---------------------------------
  C     -1.744960   -5.423900    5.457360
  C     -2.377810   -4.427240    6.194180
  C     -2.590150   -4.622450    7.661160
  C     -2.818270   -3.248830    5.569050
  C     -3.506810   -2.184470    6.361610
  C     -2.611320   -3.073720    4.205160
  C     -1.979870   -4.064740    3.479920
  C     -1.546440   -5.252680    4.098020
  C     -0.968290   -6.130800    3.089620
  C     -0.803420   -7.483290    3.201630
  C     -1.000170   -8.198940    4.400380
  N     -1.132240   -8.818310    5.357510
  C     -0.490580   -8.323760    2.113710
  N     -0.286560   -9.048580    1.247290
  C     -0.836990   -5.347310    1.874120
  C     -1.644090   -4.098690    2.048030
  O     -1.909150   -3.288580    1.191170
  C     -0.080250   -5.501810    0.767790
  C      0.999550   -6.421520    0.531350
  C      1.265520   -6.900910   -0.749540
  C      2.333950   -7.782410   -1.044890
  N      2.376110   -8.186850   -2.345580
  C      1.439620   -7.668950   -3.033940
  S      0.344540   -6.602890   -2.187240
  C      3.221440   -8.200310   -0.043060
  C      2.964730   -7.724400    1.237140
  C      1.888090   -6.848810    1.533650
  N      1.836860   -6.449290    2.834540
  C      2.784710   -6.958630    3.523130
  S      3.884780   -8.008390    2.680940
  C      4.340190   -9.068420   -0.384830
  C      4.644420  -10.236460    0.324740
  C      5.699660  -11.121290   -0.089190
  N      5.990210  -12.212180    0.661570
  C      5.258350  -12.473410    1.685700
  C      4.159660  -11.635440    2.055250
  N      3.888730  -10.558010    1.405990
  F      3.406850  -11.937320    3.107040
  F      5.561080  -13.539210    2.419370
  C      6.458260  -10.878060   -1.242050
  C      6.179550   -9.693730   -1.937660
  C      5.136030   -8.790800   -1.504890
  N      5.056280   -7.714500   -2.295960
  S      6.128390   -7.852440   -3.468620
  N      6.777980   -9.253930   -3.052180
  C      7.447190  -11.837360   -1.713470
  C      8.724070  -11.481590   -2.132230
  C      9.679760  -12.424540   -2.591120
  N     10.868910  -11.875390   -2.962850
  C     10.886690  -10.611990   -2.775350
  S      9.437250   -9.898500   -2.135850
  C      9.378160  -13.797270   -2.648830
  C      8.084240  -14.141600   -2.256360
  C      7.133250  -13.201490   -1.789570
  N      5.920690  -13.742830   -1.482920
  C      5.910040  -15.004790   -1.644210
  S      7.392060  -15.730320   -2.219860
  C     10.278630  -14.796540   -3.151640
  C     11.629020  -14.832740   -3.158090
  C     12.320500  -15.782460   -4.087840
  O     11.816600  -16.715750   -4.667020
  C     13.703470  -15.288040   -4.172080
  C     13.884910  -14.232580   -3.259510
  C     15.114800  -13.601640   -3.184990
  C     16.156820  -14.019850   -4.007320
  C     15.970910  -15.078500   -4.911610
  C     14.734110  -15.709680   -4.988510
  C     17.093920  -15.528610   -5.790040
  C     17.481630  -13.332390   -3.919580
  C     12.650190  -14.029800   -2.512500
  C     12.537550  -13.383660   -1.312860
  C     11.375740  -13.409430   -0.515010
  N     10.466120  -13.424110    0.184550
  C     13.584300  -12.657540   -0.709970
  N     14.394970  -12.034480   -0.187710
  H     -1.407270   -6.318190    5.956950
  H     -2.201690   -5.584710    7.982410
  H     -3.651580   -4.578170    7.902460
  H     -2.091510   -3.837120    8.228390
  H     -4.412900   -2.575820    6.822990
  H     -3.775520   -1.344730    5.726760
  H     -2.860720   -1.823810    7.161310
  H     -2.941310   -2.174670    3.706300
  H     -0.285410   -4.806530   -0.042050
  H      1.295930   -7.861350   -4.079250
  H      2.911740   -6.770830    4.571800
  H     11.739970  -10.000170   -2.996210
  H      5.053880  -15.621140   -1.450810
  H      9.796660  -15.632040   -3.654400
  H     15.274860  -12.780820   -2.503740
  H     14.571160  -16.525600   -5.676770
  H     17.933170  -15.878150   -5.189790
  H     17.451970  -14.705490   -6.407150
  H     16.773120  -16.336950   -6.440940
  H     17.461990  -12.552060   -3.164010
  H     17.745120  -12.884510   -4.877270
  H     18.265090  -14.044620   -3.663680

 Total Charge           Charge          ....    0
 Multiplicity           Mult            ....    1
 Number of Electrons    NEL             ....  544
 Basis Dimension        Dim             .... 1180

ORBITAL ENERGIES
----------------

  NO   OCC          E(Eh)            E(eV)
   0   2.0000     -89.036550     -2422.8077
   1   2.0000     -88.963156     -2420.8105
   2   2.0000     -88.962916     -2420.8040
   3   2.0000     -88.962497     -2420.7926
   4   2.0000     -88.962214     -2420.7849
   5   2.0000     -24.806104      -675.0084
   6   2.0000     -24.803321      -674.9327
   7   2.0000     -19.209922      -522.7286
   8   2.0000     -19.209603      -522.7199
   9   2.0000     -14.442911      -393.0116
  10   2.0000     -14.441694      -392.9785
  11   2.0000     -14.441091      -392.9621
  12   2.0000     -14.440450      -392.9446
  13   2.0000     -14.414482      -392.2380
  14   2.0000     -14.413867      -392.2213
  15   2.0000     -14.413312      -392.2062
  16   2.0000     -14.412851      -392.1936
  17   2.0000     -14.408133      -392.0652
  18   2.0000     -14.407680      -392.0529
  19   2.0000     -14.405201      -391.9854
  20   2.0000     -14.404791      -391.9743
  21   2.0000     -10.422427      -283.6087
  22   2.0000     -10.418875      -283.5120
  23   2.0000     -10.359745      -281.9030
  24   2.0000     -10.359212      -281.8885
  25   2.0000     -10.340569      -281.3812
  26   2.0000     -10.340324      -281.3745
  27   2.0000     -10.338874      -281.3351
  28   2.0000     -10.337812      -281.3062
  29   2.0000     -10.337643      -281.3016
  30   2.0000     -10.337485      -281.2973
  31   2.0000     -10.332441      -281.1600
  32   2.0000     -10.332222      -281.1541
  33   2.0000     -10.331812      -281.1429
  34   2.0000     -10.330651      -281.1113
  35   2.0000     -10.330421      -281.1051
  36   2.0000     -10.329668      -281.0845
  37   2.0000     -10.317074      -280.7419
  38   2.0000     -10.316867      -280.7362
  39   2.0000     -10.314898      -280.6826
  40   2.0000     -10.314644      -280.6757
  41   2.0000     -10.312712      -280.6232
  42   2.0000     -10.312523      -280.6180
  43   2.0000     -10.312247      -280.6105
  44   2.0000     -10.312065      -280.6055
  45   2.0000     -10.311105      -280.5794
  46   2.0000     -10.310493      -280.5628
  47   2.0000     -10.309646      -280.5397
  48   2.0000     -10.308382      -280.5053
  49   2.0000     -10.307590      -280.4838
  50   2.0000     -10.307423      -280.4793
  51   2.0000     -10.306780      -280.4617
  52   2.0000     -10.306197      -280.4459
  53   2.0000     -10.306188      -280.4456
  54   2.0000     -10.306011      -280.4408
  55   2.0000     -10.301172      -280.3091
  56   2.0000     -10.301026      -280.3052
  57   2.0000     -10.295926      -280.1664
  58   2.0000     -10.295480      -280.1543
  59   2.0000     -10.292843      -280.0825
  60   2.0000     -10.292587      -280.0755
  61   2.0000     -10.291990      -280.0593
  62   2.0000     -10.291898      -280.0568
  63   2.0000     -10.291540      -280.0471
  64   2.0000     -10.291527      -280.0467
  65   2.0000     -10.284724      -279.8616
  66   2.0000     -10.284468      -279.8546
  67   2.0000     -10.283539      -279.8293
  68   2.0000     -10.283353      -279.8243
  69   2.0000     -10.282054      -279.7889
  70   2.0000     -10.281494      -279.7737
  71   2.0000     -10.273795      -279.5642
  72   2.0000     -10.273467      -279.5552
  73   2.0000     -10.272398      -279.5262
  74   2.0000     -10.272214      -279.5212
  75   2.0000      -8.127762      -221.1676
  76   2.0000      -8.058954      -219.2953
  77   2.0000      -8.058880      -219.2933
  78   2.0000      -8.058767      -219.2902
  79   2.0000      -8.058586      -219.2853
  80   2.0000      -6.098653      -165.9528
  81   2.0000      -6.090954      -165.7433
  82   2.0000      -6.090929      -165.7426
  83   2.0000      -6.028346      -164.0396
  84   2.0000      -6.028225      -164.0363
  85   2.0000      -6.028145      -164.0342
  86   2.0000      -6.027931      -164.0283
  87   2.0000      -6.024126      -163.9248
  88   2.0000      -6.024103      -163.9242
  89   2.0000      -6.023923      -163.9193
  90   2.0000      -6.023828      -163.9167
  91   2.0000      -6.020762      -163.8333
  92   2.0000      -6.020603      -163.8289
  93   2.0000      -6.020560      -163.8278
  94   2.0000      -6.020304      -163.8208
  95   2.0000      -1.333927       -36.2980
  96   2.0000      -1.319277       -35.8993
  97   2.0000      -1.132512       -30.8172
  98   2.0000      -1.124698       -30.6046
  99   2.0000      -1.124512       -30.5995
 100   2.0000      -1.102900       -30.0114
 101   2.0000      -1.076011       -29.2797
 102   2.0000      -1.075499       -29.2658
 103   2.0000      -1.067913       -29.0594
 104   2.0000      -1.067804       -29.0564
 105   2.0000      -1.028522       -27.9875
 106   2.0000      -1.009108       -27.4592
 107   2.0000      -1.008828       -27.4516
 108   2.0000      -0.988648       -26.9025
 109   2.0000      -0.988558       -26.9000
 110   2.0000      -0.987252       -26.8645
 111   2.0000      -0.985392       -26.8139
 112   2.0000      -0.985294       -26.8112
 113   2.0000      -0.975381       -26.5415
 114   2.0000      -0.957483       -26.0544
 115   2.0000      -0.955215       -25.9927
 116   2.0000      -0.948486       -25.8096
 117   2.0000      -0.945040       -25.7159
 118   2.0000      -0.930883       -25.3306
 119   2.0000      -0.920156       -25.0387
 120   2.0000      -0.896962       -24.4076
 121   2.0000      -0.896658       -24.3993
 122   2.0000      -0.892094       -24.2751
 123   2.0000      -0.889537       -24.2055
 124   2.0000      -0.878773       -23.9126
 125   2.0000      -0.877062       -23.8661
 126   2.0000      -0.873319       -23.7642
 127   2.0000      -0.869038       -23.6477
 128   2.0000      -0.866897       -23.5895
 129   2.0000      -0.866437       -23.5769
 130   2.0000      -0.844033       -22.9673
 131   2.0000      -0.834035       -22.6952
 132   2.0000      -0.824840       -22.4450
 133   2.0000      -0.824345       -22.4316
 134   2.0000      -0.810001       -22.0412
 135   2.0000      -0.804095       -21.8805
 136   2.0000      -0.803662       -21.8688
 137   2.0000      -0.798177       -21.7195
 138   2.0000      -0.793292       -21.5866
 139   2.0000      -0.762731       -20.7550
 140   2.0000      -0.760446       -20.6928
 141   2.0000      -0.748922       -20.3792
 142   2.0000      -0.747181       -20.3318
 143   2.0000      -0.742463       -20.2035
 144   2.0000      -0.738147       -20.0860
 145   2.0000      -0.729790       -19.8586
 146   2.0000      -0.728781       -19.8311
 147   2.0000      -0.714590       -19.4450
 148   2.0000      -0.697812       -18.9884
 149   2.0000      -0.692319       -18.8390
 150   2.0000      -0.691794       -18.8247
 151   2.0000      -0.684788       -18.6340
 152   2.0000      -0.679524       -18.4908
 153   2.0000      -0.674810       -18.3625
 154   2.0000      -0.671799       -18.2806
 155   2.0000      -0.667333       -18.1591
 156   2.0000      -0.665256       -18.1025
 157   2.0000      -0.659961       -17.9585
 158   2.0000      -0.656645       -17.8682
 159   2.0000      -0.653478       -17.7820
 160   2.0000      -0.650547       -17.7023
 161   2.0000      -0.646216       -17.5844
 162   2.0000      -0.635609       -17.2958
 163   2.0000      -0.626668       -17.0525
 164   2.0000      -0.626330       -17.0433
 165   2.0000      -0.621541       -16.9130
 166   2.0000      -0.607535       -16.5319
 167   2.0000      -0.604093       -16.4382
 168   2.0000      -0.603199       -16.4139
 169   2.0000      -0.600418       -16.3382
 170   2.0000      -0.595329       -16.1997
 171   2.0000      -0.590401       -16.0656
 172   2.0000      -0.584973       -15.9179
 173   2.0000      -0.584434       -15.9033
 174   2.0000      -0.573375       -15.6023
 175   2.0000      -0.572132       -15.5685
 176   2.0000      -0.561059       -15.2672
 177   2.0000      -0.559180       -15.2161
 178   2.0000      -0.558403       -15.1949
 179   2.0000      -0.554877       -15.0990
 180   2.0000      -0.548096       -14.9145
 181   2.0000      -0.545962       -14.8564
 182   2.0000      -0.545165       -14.8347
 183   2.0000      -0.540682       -14.7127
 184   2.0000      -0.539622       -14.6839
 185   2.0000      -0.537762       -14.6333
 186   2.0000      -0.537196       -14.6179
 187   2.0000      -0.534251       -14.5377
 188   2.0000      -0.533863       -14.5271
 189   2.0000      -0.532709       -14.4957
 190   2.0000      -0.532296       -14.4845
 191   2.0000      -0.527752       -14.3609
 192   2.0000      -0.526503       -14.3269
 193   2.0000      -0.519322       -14.1315
 194   2.0000      -0.518760       -14.1162
 195   2.0000      -0.514129       -13.9902
 196   2.0000      -0.513941       -13.9850
 197   2.0000      -0.509333       -13.8597
 198   2.0000      -0.508311       -13.8318
 199   2.0000      -0.504406       -13.7256
 200   2.0000      -0.502664       -13.6782
 201   2.0000      -0.501961       -13.6590
 202   2.0000      -0.500179       -13.6106
 203   2.0000      -0.497845       -13.5471
 204   2.0000      -0.494311       -13.4509
 205   2.0000      -0.491140       -13.3646
 206   2.0000      -0.490529       -13.3480
 207   2.0000      -0.489054       -13.3078
 208   2.0000      -0.486336       -13.2339
 209   2.0000      -0.486289       -13.2326
 210   2.0000      -0.480586       -13.0774
 211   2.0000      -0.479148       -13.0383
 212   2.0000      -0.476801       -12.9744
 213   2.0000      -0.476693       -12.9715
 214   2.0000      -0.473901       -12.8955
 215   2.0000      -0.472098       -12.8464
 216   2.0000      -0.471952       -12.8425
 217   2.0000      -0.469682       -12.7807
 218   2.0000      -0.469502       -12.7758
 219   2.0000      -0.456269       -12.4157
 220   2.0000      -0.455743       -12.4014
 221   2.0000      -0.449722       -12.2376
 222   2.0000      -0.444425       -12.0934
 223   2.0000      -0.444257       -12.0889
 224   2.0000      -0.440050       -11.9744
 225   2.0000      -0.439770       -11.9667
 226   2.0000      -0.438245       -11.9253
 227   2.0000      -0.438094       -11.9211
 228   2.0000      -0.437386       -11.9019
 229   2.0000      -0.436546       -11.8790
 230   2.0000      -0.434982       -11.8365
 231   2.0000      -0.434064       -11.8115
 232   2.0000      -0.431180       -11.7330
 233   2.0000      -0.429759       -11.6943
 234   2.0000      -0.427045       -11.6205
 235   2.0000      -0.423019       -11.5109
 236   2.0000      -0.420692       -11.4476
 237   2.0000      -0.418485       -11.3876
 238   2.0000      -0.418313       -11.3829
 239   2.0000      -0.413724       -11.2580
 240   2.0000      -0.411351       -11.1934
 241   2.0000      -0.410481       -11.1698
 242   2.0000      -0.409042       -11.1306
 243   2.0000      -0.407263       -11.0822
 244   2.0000      -0.400622       -10.9015
 245   2.0000      -0.399768       -10.8782
 246   2.0000      -0.399056       -10.8589
 247   2.0000      -0.394434       -10.7331
 248   2.0000      -0.388168       -10.5626
 249   2.0000      -0.386911       -10.5284
 250   2.0000      -0.373901       -10.1744
 251   2.0000      -0.370717       -10.0877
 252   2.0000      -0.357203        -9.7200
 253   2.0000      -0.354320        -9.6415
 254   2.0000      -0.348445        -9.4817
 255   2.0000      -0.346586        -9.4311
 256   2.0000      -0.345139        -9.3917
 257   2.0000      -0.342658        -9.3242
 258   2.0000      -0.338241        -9.2040
 259   2.0000      -0.336588        -9.1590
 260   2.0000      -0.330999        -9.0069
 261   2.0000      -0.330640        -8.9972
 262   2.0000      -0.329037        -8.9536
 263   2.0000      -0.324213        -8.8223
 264   2.0000      -0.323643        -8.8068
 265   2.0000      -0.306558        -8.3419
 266   2.0000      -0.305241        -8.3060
 267   2.0000      -0.302110        -8.2208
 268   2.0000      -0.294529        -8.0146
 269   2.0000      -0.293404        -7.9839
 270   2.0000      -0.281193        -7.6517
 271   2.0000      -0.264309        -7.1922
 272   0.0000      -0.099694        -2.7128
 273   0.0000      -0.075836        -2.0636
 274   0.0000      -0.073961        -2.0126
 275   0.0000      -0.050541        -1.3753
 276   0.0000      -0.050004        -1.3607

MULLIKEN ATOMIC CHARGES
-----------------------
   0 C :   -0.080870
   1 C :   -0.080920
   2 C :    0.117010
   3 C :   -0.078548
   4 C :    0.119271
   5 C :   -0.081687
   6 C :    0.006954
   7 C :    0.028758
   8 C :    0.325348
   9 C :   -0.328633
  10 C :   -0.188083
  11 N :    0.147822
  12 C :   -0.194559
  13 N :    0.171007
  14 C :   -0.096780
  15 C :    0.128724
  16 O :   -0.142728
  17 C :   -0.049075
  18 C :    0.041210
  19 C :   -0.086353
  20 C :    0.028208
  21 N :   -0.041799
  22 C :    0.015774
  23 S :    0.109340
  24 C :   -0.030943
  25 C :   -0.051333
  26 C :   -0.021473
  27 N :   -0.069743
  28 C :    0.024601
  29 S :    0.139705
  30 C :    0.034955
  31 C :   -0.062174
  32 C :   -0.059523
  33 N :    0.050522
  34 C :    0.129579
  35 C :    0.141576
  36 N :    0.017273
  37 F :   -0.134528
  38 F :   -0.138257
  39 C :    0.026992
  40 C :   -0.011338
  41 C :   -0.007300
  42 N :   -0.249533
  43 S :    0.535961
  44 N :   -0.271495
  45 C :   -0.023935
  46 C :   -0.062083
  47 C :   -0.022421
  48 N :   -0.075551
  49 C :    0.024979
  50 S :    0.145953
  51 C :    0.068812
  52 C :   -0.094633
  53 C :    0.028083
  54 N :   -0.048224
  55 C :    0.019023
  56 S :    0.110689
  57 C :   -0.056470
  58 C :   -0.099212
  59 C :    0.126799
  60 O :   -0.141579
  61 C :    0.006567
  62 C :    0.032599
  63 C :   -0.085861
  64 C :   -0.077680
  65 C :   -0.077145
  66 C :   -0.083311
  67 C :    0.119214
  68 C :    0.115329
  69 C :    0.328002
  70 C :   -0.327926
  71 C :   -0.207487
  72 N :    0.176993
  73 C :   -0.193140
  74 N :    0.148838
  75 H :   -0.013316
  76 H :    0.022930
  77 H :    0.027290
  78 H :    0.025873
  79 H :    0.027541
  80 H :    0.015609
  81 H :    0.026166
  82 H :   -0.018801
  83 H :    0.021605
  84 H :    0.041632
  85 H :    0.044220
  86 H :    0.043885
  87 H :    0.044539
  88 H :    0.021558
  89 H :   -0.014408
  90 H :   -0.018244
  91 H :    0.027519
  92 H :    0.024679
  93 H :    0.015732
  94 H :    0.024142
  95 H :    0.025383
  96 H :    0.026327
Sum of atomic charges:    0.0000000

LOEWDIN ATOMIC CHARGES
----------------------
   0 C :   -0.008178
   1 C :   -0.002430
   2 C :   -0.041967
   3 C :   -0.009256
   4 C :   -0.042805
   5 C :    0.007525
   6 C :   -0.050792
   7 C :   -0.009232
   8 C :    0.080936
   9 C :   -0.131303
  10 C :   -0.017013
  11 N :   -0.058062
  12 C :   -0.017813
  13 N :   -0.047793
  14 C :   -0.064116
  15 C :    0.086088
  16 O :   -0.140481
  17 C :    0.055647
  18 C :   -0.051831
  19 C :   -0.148434
  20 C :   -0.015327
  21 N :   -0.079424
  22 C :   -0.098777
  23 S :    0.399211
  24 C :   -0.015971
  25 C :   -0.150592
  26 C :   -0.022165
  27 N :   -0.094167
  28 C :   -0.098947
  29 S :    0.426481
  30 C :   -0.016694
  31 C :   -0.009464
  32 C :    0.006074
  33 N :   -0.019371
  34 C :    0.058244
  35 C :    0.062844
  36 N :   -0.051150
  37 F :   -0.023941
  38 F :   -0.027116
  39 C :   -0.020985
  40 C :   -0.048785
  41 C :   -0.037377
  42 N :   -0.271277
  43 S :    0.679944
  44 N :   -0.304832
  45 C :   -0.013956
  46 C :   -0.151121
  47 C :   -0.019626
  48 N :   -0.093450
  49 C :   -0.099375
  50 S :    0.430979
  51 C :   -0.051386
  52 C :   -0.148103
  53 C :   -0.017158
  54 N :   -0.082180
  55 C :   -0.097008
  56 S :    0.400592
  57 C :    0.055344
  58 C :   -0.066034
  59 C :    0.086121
  60 O :   -0.140026
  61 C :   -0.051327
  62 C :   -0.009407
  63 C :   -0.009113
  64 C :   -0.002669
  65 C :   -0.009763
  66 C :    0.007576
  67 C :   -0.042554
  68 C :   -0.042209
  69 C :    0.079630
  70 C :   -0.131558
  71 C :   -0.019783
  72 N :   -0.047444
  73 C :   -0.017193
  74 N :   -0.060862
  75 H :    0.035335
  76 H :    0.035262
  77 H :    0.038398
  78 H :    0.037319
  79 H :    0.038072
  80 H :    0.032709
  81 H :    0.037582
  82 H :    0.035528
  83 H :    0.041626
  84 H :    0.020718
  85 H :    0.022153
  86 H :    0.021943
  87 H :    0.021933
  88 H :    0.040500
  89 H :    0.034964
  90 H :    0.035606
  91 H :    0.038088
  92 H :    0.036972
  93 H :    0.032688
  94 H :    0.035320
  95 H :    0.037102
  96 H :    0.038121

  Mayer bond orders larger than 0.100000
B(  0-C ,  1-C ) :   1.3753 B(  0-C ,  7-C ) :   1.3520 B(  0-C , 75-H ) :   0.9867
B(  1-C ,  2-C ) :   1.0946 B(  1-C ,  3-C ) :   1.3712 B(  2-C , 76-H ) :   0.9512
B(  2-C , 77-H ) :   0.9389 B(  2-C , 78-H ) :   0.9404 B(  3-C ,  4-C ) :   1.0943
B(  3-C ,  5-C ) :   1.3601 B(  4-C , 79-H ) :   0.9404 B(  4-C , 80-H ) :   0.9515
B(  4-C , 81-H ) :   0.9400 B(  5-C ,  6-C ) :   1.3577 B(  5-C , 82-H ) :   1.0089
B(  6-C ,  7-C ) :   1.3292 B(  6-C , 15-C ) :   0.9243 B(  7-C ,  8-C ) :   1.0105
B(  8-C ,  9-C ) :   1.6617 B(  8-C , 14-C ) :   1.0069 B(  9-C , 10-C ) :   1.1392
B(  9-C , 12-C ) :   1.1613 B( 10-C , 11-N ) :   2.9864 B( 12-C , 13-N ) :   3.0109
B( 14-C , 15-C ) :   0.9256 B( 14-C , 17-C ) :   1.7612 B( 15-C , 16-O ) :   2.2696
B( 17-C , 18-C ) :   1.0225 B( 17-C , 83-H ) :   0.9368 B( 18-C , 19-C ) :   1.3870
B( 18-C , 24-C ) :   0.1018 B( 18-C , 26-C ) :   1.3142 B( 19-C , 20-C ) :   1.2877
B( 19-C , 23-S ) :   1.0760 B( 20-C , 21-N ) :   1.3193 B( 20-C , 24-C ) :   1.4097
B( 21-N , 22-C ) :   1.7688 B( 21-N , 23-S ) :   0.1076 B( 22-C , 23-S ) :   1.1012
B( 22-C , 84-H ) :   0.9628 B( 24-C , 25-C ) :   1.4483 B( 24-C , 30-C ) :   0.9212
B( 25-C , 26-C ) :   1.2793 B( 25-C , 29-S ) :   1.0665 B( 26-C , 27-N ) :   1.3499
B( 27-N , 28-C ) :   1.7184 B( 27-N , 29-S ) :   0.1087 B( 28-C , 29-S ) :   1.1394
B( 28-C , 85-H ) :   0.9635 B( 30-C , 31-C ) :   1.4115 B( 30-C , 39-C ) :   0.1500
B( 30-C , 41-C ) :   1.2790 B( 31-C , 32-C ) :   1.0928 B( 31-C , 36-N ) :   1.3934
B( 32-C , 33-N ) :   1.3937 B( 32-C , 39-C ) :   1.4083 B( 33-N , 34-C ) :   1.7130
B( 34-C , 35-C ) :   1.0707 B( 34-C , 38-F ) :   1.1776 B( 35-C , 36-N ) :   1.7002
B( 35-C , 37-F ) :   1.1839 B( 39-C , 40-C ) :   1.2750 B( 39-C , 45-C ) :   0.9224
B( 40-C , 41-C ) :   1.0946 B( 40-C , 44-N ) :   1.4946 B( 41-C , 42-N ) :   1.4902
B( 42-N , 43-S ) :   1.3127 B( 42-N , 44-N ) :   0.1599 B( 43-S , 44-N ) :   1.2878
B( 45-C , 46-C ) :   1.4465 B( 45-C , 53-C ) :   1.4114 B( 46-C , 47-C ) :   1.2736
B( 46-C , 50-S ) :   1.0692 B( 47-C , 48-N ) :   1.3514 B( 47-C , 51-C ) :   1.3076
B( 48-N , 49-C ) :   1.7072 B( 48-N , 50-S ) :   0.1086 B( 49-C , 50-S ) :   1.1468
B( 49-C , 86-H ) :   0.9633 B( 51-C , 52-C ) :   1.3774 B( 51-C , 57-C ) :   1.0355
B( 52-C , 53-C ) :   1.2894 B( 52-C , 56-S ) :   1.0775 B( 53-C , 54-N ) :   1.3159
B( 54-N , 55-C ) :   1.7660 B( 54-N , 56-S ) :   0.1063 B( 55-C , 56-S ) :   1.1024
B( 55-C , 87-H ) :   0.9627 B( 57-C , 58-C ) :   1.7546 B( 57-C , 88-H ) :   0.9328
B( 58-C , 59-C ) :   0.9244 B( 58-C , 69-C ) :   1.0101 B( 59-C , 60-O ) :   2.2665
B( 59-C , 61-C ) :   0.9247 B( 61-C , 62-C ) :   1.3284 B( 61-C , 66-C ) :   1.3550
B( 62-C , 63-C ) :   1.3487 B( 62-C , 69-C ) :   1.0109 B( 63-C , 64-C ) :   1.3743
B( 63-C , 89-H ) :   0.9884 B( 64-C , 65-C ) :   1.3719 B( 64-C , 68-C ) :   1.0949
B( 65-C , 66-C ) :   1.3587 B( 65-C , 67-C ) :   1.0932 B( 66-C , 90-H ) :   1.0109
B( 67-C , 91-H ) :   0.9408 B( 67-C , 92-H ) :   0.9404 B( 67-C , 93-H ) :   0.9518
B( 68-C , 94-H ) :   0.9513 B( 68-C , 95-H ) :   0.9408 B( 68-C , 96-H ) :   0.9390
B( 69-C , 70-C ) :   1.6588 B( 70-C , 71-C ) :   1.1626 B( 70-C , 73-C ) :   1.1433
B( 71-C , 72-N ) :   3.0137 B( 73-C , 74-N ) :   2.9857

-----------------------------------------------------------------------------
         ABSORPTION SPECTRUM VIA TRANSITION ELECTRIC DIPOLE MOMENTS
-----------------------------------------------------------------------------
State   Energy  Wavelength   fosc         T2         TX        TY        TZ
        (cm-1)    (nm)                  (au**2)     (au)      (au)      (au)
-----------------------------------------------------------------------------
   0   18558.8    538.8   0.620695798  11.01042  -2.61051   1.75401   1.05787
   1   22300.7    448.4   0.004699068   0.06937  -0.16177   0.01465  -0.20733
   2   24222.0    412.8   0.514472718   6.99242   2.24267  -0.97186  -1.00914
   3   24617.3    406.2   0.102445376   1.37002  -1.03105   0.45231  -0.31997
   4   26008.5    384.5   0.022435460   0.28399  -0.03969  -0.52106   0.10443
   5   26492.0    377.5   0.016232728   0.20172  -0.10897  -0.09463  -0.42531
   6   27187.8    367.8   0.031617093   0.38285  -0.45848   0.38594  -0.15391
   7   28037.5    356.7   0.026640928   0.31281   0.33424   0.25124  -0.37145
   8   28268.9    353.7   0.086824111   1.01113  -0.28522   0.72516   0.63555
   9   29764.7    336.0   0.072548763   0.80243   0.08650  -0.84653   0.27987
  10   29873.3    334.7   0.023522491   0.25922   0.35164  -0.04744  -0.36514
  11   30224.7    330.9   0.023629706   0.25738   0.36560  -0.02211  -0.35104
  12   30603.7    326.8   0.080748084   0.86863   0.52250  -0.77021   0.04900
  13   30712.9    325.6   0.023990237   0.25715   0.39248   0.27696  -0.16249
  14   30910.2    323.5   0.110726268   1.17930  -0.43294   0.56146   0.82257
  15   31375.6    318.7   0.047815472   0.50171   0.46710  -0.51018   0.15245
  16   31499.5    317.5   0.032605290   0.34077  -0.55054  -0.04325   0.18920
  17   31573.9    316.7   0.036256832   0.37804   0.26809  -0.34535   0.43232
  18   31737.7    315.1   0.036994346   0.38374   0.51580  -0.31198  -0.14267
  19   31952.4    313.0   0.041945236   0.43217   0.30128  -0.26545  -0.52051
  20   32189.6    310.7   0.158800997   1.62410   0.76579  -0.56177  -0.84976
  21   32428.4    308.4   0.183070328   1.85852  -0.22305  -0.92261   0.97855
  22   33690.6    296.8   0.130189178   1.27216   0.33012  -0.63224  -0.87376
  23   33734.4    296.4   0.143184847   1.39733   0.41709  -1.09125  -0.18043
  24   34161.3    292.7   0.005158223   0.04971   0.16781   0.01077  -0.14640
  25   34359.4    291.0   0.025894103   0.24810   0.22035   0.24304  -0.37480
  26   34670.4    288.4   0.050679645   0.48123  -0.18444   0.39352   0.54069
  27   34815.1    287.2   0.021608927   0.20433   0.17949   0.39879  -0.11441
  28   34960.5    286.0   0.058904287   0.55468  -0.40563   0.61659   0.09984
  29   35612.1    280.8   0.298491230   2.75937  -0.77117   1.27859   0.72794
  30   35665.0    280.4   0.083920829   0.77465   0.61952  -0.39167   0.48727
  31   36014.0    277.7   0.243985960   2.23033   0.76916  -0.90257  -0.90780
  32   36232.1    276.0   0.087178429   0.79212  -0.21028   0.73763  -0.45145
  33   36299.5    275.5   0.136985393   1.24236   0.31038  -0.99595  -0.39258
  34   36585.5    273.3   0.149374601   1.34414   0.29291  -0.84898  -0.73320
  35   36757.1    272.1   0.324358392   2.90509   1.06843  -0.15745  -1.31862
  36   36957.0    270.6   0.017242152   0.15359  -0.25974  -0.29328   0.01070
  37   37050.2    269.9   0.181295662   1.61091  -0.34342   1.20563   0.19858
  38   37535.7    266.4   0.048649342   0.42669   0.58786   0.19404   0.20846
  39   37870.4    264.1   0.018241600   0.15858   0.14735  -0.32581  -0.17525
  40   38110.1    262.4   0.007882882   0.06810   0.20008   0.10931  -0.12695
  41   38256.6    261.4   0.055498884   0.47759   0.11386  -0.04269  -0.68030
  42   38521.0    259.6   0.033344893   0.28498  -0.31213   0.30857   0.30386
  43   38899.9    257.1   0.043652958   0.36944   0.39753   0.18735  -0.41989
  44   39030.8    256.2   0.040949026   0.34539   0.05467  -0.21769  -0.54315
  45   39123.5    255.6   0.174782267   1.47074  -1.09108   0.10382  -0.51914
  46   39230.9    254.9   0.038923751   0.32663  -0.04338  -0.56819   0.04379
  47   39290.0    254.5   0.122985985   1.03050   0.27952   0.81001   0.54430
  48   39507.9    253.1   0.017555070   0.14628  -0.16353  -0.10594   0.32911
  49   39609.8    252.5   0.035016481   0.29103   0.20312   0.09740  -0.49019
  50   39689.3    252.0   0.049520645   0.41076   0.24631   0.59061  -0.03566
  51   39892.6    250.7   0.009541334   0.07874  -0.15564  -0.00850  -0.23333
  52   40113.8    249.3   0.014588260   0.11973   0.07785  -0.27783   0.19099

FINAL SINGLE POINT ENERGY     -5064.624431308551

DIPOLE MOMENT
-------------
                                X             Y             Z
Electronic contribution:    -19.36250     -18.31750      -8.12349
Nuclear contribution   :     20.28412      20.28226       6.96218
                        -----------------------------------------
Total Dipole Moment    :      0.92161       1.96475      -1.16130
                        -----------------------------------------
Magnitude (a.u.)       :      2.46135
Magnitude (Debye)      :      6.25626

Rotational constants in cm-1:     0.002474     0.000308     0.000301
Rotational constants in MHz :    74.168855     9.219399     9.013879

                             ****ORCA TERMINATED NORMALLY****
TOTAL RUN TIME: 0 days 0 hours 11 minutes 14 seconds 611 msec
