                         Program Version 4.2.0 -  RELEASE  -
|  1> # ORCA input file
|  2> # SCF done       -170.225678320142          0.000410910856
|  3> ! CAM-B3LYP def2-SVP def2/J RIJCOSX Grid4 TightSCF
|  4> %maxcore 5000
|  5> %tddft
|  6>     Mode sTDDFT
|  7>     Ethresh 5.0
|  8>     maxcore 5000
|  9> end
| 10>
| 11> %pal
| 12>   nprocs 6
| 13>   end
| 14> * xyz 0 1
| 15>    C        8.25003         7.42180         5.72334
| 16>    S        6.72935         7.83438         5.07047
| 17>    C        7.11619         7.03170         3.56746
| 18>    C        8.37970         6.46206         3.62510
| 19>    C        9.01846         6.68548         4.86456
| 20>    C       10.37325         6.14348         5.20446
| 21>    C       11.09924         5.63988         3.95773
| 22>    C       10.16687         4.78656         3.08761
| 23>    O        9.67588         3.65765         3.76898
| 24>    C        9.02802         5.66111         2.53882
| 25>    C        6.17990         7.05188         2.49742
| 26>    C        6.49402         6.86264         1.07516
| 27>    N        5.46801         6.94899         0.28037
| 28>    C        4.40042         7.19675         1.08929
| 29>    C        4.82060         7.30258         2.49181
| 30>    C        3.66538         7.53117         3.32227
| 31>    S        3.62194         7.57906         4.97121
| 32>    C        2.55486         7.60048         2.40488
| 33>    C        3.04044         7.36541         1.03772
| 34>    N        2.00906         7.36045         0.14732
| 35>    C        0.93618         7.54107         0.86317
| 36>    C        1.17892         7.69848         2.29715
| 37>    C        0.17255         7.94927         3.28825
| 38>    C        0.52333         8.55470         4.47990
| 39>    C       -0.44736         8.78228         5.46399
| 40>    C       -0.32245         9.32384         6.74278
| 41>    C        0.97260         9.72587         7.35419
| 42>    C        0.90861        10.97990         8.23996
| 43>    N        2.19568        11.64550         8.18438
| 44>    C        1.57740         8.52645         8.11779
| 45>    N        2.96596         8.79813         8.45369
| 46>    C       -1.64172         9.30137         7.32656
| 47>    C       -2.09779         9.66952         8.54021
| 48>    C       -3.53185         9.56014         8.90568
| 49>    C       -4.41969         9.01804         7.82857
| 50>    C       -3.94552         8.61577         6.63379
| 51>    C       -2.57042         8.73802         6.33110
| 52>    C       -1.82837         8.41345         5.20947
| 53>    C       -2.16564         7.81945         3.97230
| 54>    C       -1.19435         7.59316         3.04873
| 55>    C       -3.76200         8.68099        10.10919
| 56>    C       -2.93948         7.69695        10.49073
| 57>    C       -3.17776         6.83935        11.61050
| 58>    C       -2.21332         5.82333        12.04429
| 59>    N       -2.57987         5.13253        13.08237
| 60>    C       -3.80175         5.63143        13.43022
| 61>    C       -4.20785         6.71700        12.51747
| 62>    C       -5.53196         7.16907        12.87850
| 63>    S       -6.51813         8.18787        12.03517
| 64>    C       -5.87222         6.41794        14.05606
| 65>    C       -4.80579         5.43593        14.33743
| 66>    N       -5.16129         4.61563        15.36683
| 67>    C       -6.35033         5.00217        15.72164
| 68>    C       -6.86759         6.15169        14.96990
| 69>    C       -8.10939         6.78124        15.26112
| 70>    S       -9.46654         5.80059        15.76272
| 71>    C      -10.45407         7.19360        15.90599
| 72>    C       -9.78641         8.35039        15.63040
| 73>    C       -8.43686         8.12334        15.26512
| 74>    C       -7.48987         9.24164        15.00359
| 75>    C       -8.03438        10.56650        15.53528
| 76>    C       -9.48627        10.78528        15.08726
| 77>    O       -9.62190        10.81746        13.68871
| 78>    C      -10.38754         9.71804        15.72953
| 79>    H        8.50182         7.73020         6.71915
| 80>    H       10.26170         5.32344         5.92231
| 81>    H       10.96732         6.91566         5.69803
| 82>    H       11.96520         5.04691         4.25384
| 83>    H       11.44886         6.48413         3.36161
| 84>    H       10.73331         4.37342         2.24575
| 85>    H        9.10118         3.95900         4.48202
| 86>    H        8.29299         5.01672         2.05083
| 87>    H        9.44588         6.33467         1.78487
| 88>    H        7.47554         6.71607         0.66540
| 89>    H       -0.02438         7.60857         0.38275
| 90>    H        1.54183         8.86323         4.64641
| 91>    H        1.66848         9.96593         6.54360
| 92>    H        0.61735        10.69593         9.26539
| 93>    H        0.15352        11.66942         7.84686
| 94>    H        2.90949        10.99307         8.49846
| 95>    H        2.20785        12.45710         8.79218
| 96>    H        1.45566         7.62435         7.49646
| 97>    H        1.02336         8.37326         9.04957
| 98>    H        3.51702         8.81681         7.59967
| 99>    H        3.33582         8.05065         9.03206
|100>    H       -1.44136        10.05690         9.30538
|101>    H       -3.88187        10.56870         9.17626
|102>    H       -5.46613         8.93364         8.07675
|103>    H       -4.61205         8.20990         5.88673
|104>    H       -3.19021         7.54028         3.77506
|105>    H       -1.44409         7.11736         2.11285
|106>    H       -4.69112         8.84621        10.63535
|107>    H       -2.01824         7.51450         9.95019
|108>    H       -1.26983         5.63213        11.56184
|109>    H       -6.87923         4.51300        16.52156
|110>    H      -11.48126         7.08205        16.19283
|111>    H       -7.31478         9.32653        13.92221
|112>    H       -6.51608         9.02062        15.44894
|113>    H       -7.41361        11.38468        15.16829
|114>    H       -8.00456        10.57479        16.62633
|115>    H       -9.82284        11.77516        15.41580
|116>    H       -9.32166         9.97454        13.32768
|117>    H      -11.36569         9.73428        15.24320
|118>    H      -10.53939         9.96725        16.78342
|119> *
|120>
|121>                          ****END OF INPUT****

CARTESIAN COORDINATES (ANGSTROEM)
---------------------------------
  C      8.250030    7.421800    5.723340
  S      6.729350    7.834380    5.070470
  C      7.116190    7.031700    3.567460
  C      8.379700    6.462060    3.625100
  C      9.018460    6.685480    4.864560
  C     10.373250    6.143480    5.204460
  C     11.099240    5.639880    3.957730
  C     10.166870    4.786560    3.087610
  O      9.675880    3.657650    3.768980
  C      9.028020    5.661110    2.538820
  C      6.179900    7.051880    2.497420
  C      6.494020    6.862640    1.075160
  N      5.468010    6.948990    0.280370
  C      4.400420    7.196750    1.089290
  C      4.820600    7.302580    2.491810
  C      3.665380    7.531170    3.322270
  S      3.621940    7.579060    4.971210
  C      2.554860    7.600480    2.404880
  C      3.040440    7.365410    1.037720
  N      2.009060    7.360450    0.147320
  C      0.936180    7.541070    0.863170
  C      1.178920    7.698480    2.297150
  C      0.172550    7.949270    3.288250
  C      0.523330    8.554700    4.479900
  C     -0.447360    8.782280    5.463990
  C     -0.322450    9.323840    6.742780
  C      0.972600    9.725870    7.354190
  C      0.908610   10.979900    8.239960
  N      2.195680   11.645500    8.184380
  C      1.577400    8.526450    8.117790
  N      2.965960    8.798130    8.453690
  C     -1.641720    9.301370    7.326560
  C     -2.097790    9.669520    8.540210
  C     -3.531850    9.560140    8.905680
  C     -4.419690    9.018040    7.828570
  C     -3.945520    8.615770    6.633790
  C     -2.570420    8.738020    6.331100
  C     -1.828370    8.413450    5.209470
  C     -2.165640    7.819450    3.972300
  C     -1.194350    7.593160    3.048730
  C     -3.762000    8.680990   10.109190
  C     -2.939480    7.696950   10.490730
  C     -3.177760    6.839350   11.610500
  C     -2.213320    5.823330   12.044290
  N     -2.579870    5.132530   13.082370
  C     -3.801750    5.631430   13.430220
  C     -4.207850    6.717000   12.517470
  C     -5.531960    7.169070   12.878500
  S     -6.518130    8.187870   12.035170
  C     -5.872220    6.417940   14.056060
  C     -4.805790    5.435930   14.337430
  N     -5.161290    4.615630   15.366830
  C     -6.350330    5.002170   15.721640
  C     -6.867590    6.151690   14.969900
  C     -8.109390    6.781240   15.261120
  S     -9.466540    5.800590   15.762720
  C    -10.454070    7.193600   15.905990
  C     -9.786410    8.350390   15.630400
  C     -8.436860    8.123340   15.265120
  C     -7.489870    9.241640   15.003590
  C     -8.034380   10.566500   15.535280
  C     -9.486270   10.785280   15.087260
  O     -9.621900   10.817460   13.688710
  C    -10.387540    9.718040   15.729530
  H      8.501820    7.730200    6.719150
  H     10.261700    5.323440    5.922310
  H     10.967320    6.915660    5.698030
  H     11.965200    5.046910    4.253840
  H     11.448860    6.484130    3.361610
  H     10.733310    4.373420    2.245750
  H      9.101180    3.959000    4.482020
  H      8.292990    5.016720    2.050830
  H      9.445880    6.334670    1.784870
  H      7.475540    6.716070    0.665400
  H     -0.024380    7.608570    0.382750
  H      1.541830    8.863230    4.646410
  H      1.668480    9.965930    6.543600
  H      0.617350   10.695930    9.265390
  H      0.153520   11.669420    7.846860
  H      2.909490   10.993070    8.498460
  H      2.207850   12.457100    8.792180
  H      1.455660    7.624350    7.496460
  H      1.023360    8.373260    9.049570
  H      3.517020    8.816810    7.599670
  H      3.335820    8.050650    9.032060
  H     -1.441360   10.056900    9.305380
  H     -3.881870   10.568700    9.176260
  H     -5.466130    8.933640    8.076750
  H     -4.612050    8.209900    5.886730
  H     -3.190210    7.540280    3.775060
  H     -1.444090    7.117360    2.112850
  H     -4.691120    8.846210   10.635350
  H     -2.018240    7.514500    9.950190
  H     -1.269830    5.632130   11.561840
  H     -6.879230    4.513000   16.521560
  H    -11.481260    7.082050   16.192830
  H     -7.314780    9.326530   13.922210
  H     -6.516080    9.020620   15.448940
  H     -7.413610   11.384680   15.168290
  H     -8.004560   10.574790   16.626330
  H     -9.822840   11.775160   15.415800
  H     -9.321660    9.974540   13.327680
  H    -11.365690    9.734280   15.243200
  H    -10.539390    9.967250   16.783420

 Total Charge           Charge          ....    0
 Multiplicity           Mult            ....    1
 Number of Electrons    NEL             ....  474
 Basis Dimension        Dim             .... 1112

ORBITAL ENERGIES
----------------

  NO   OCC          E(Eh)            E(eV)
   0   2.0000     -88.959883     -2420.7215
   1   2.0000     -88.951946     -2420.5055
   2   2.0000     -88.903914     -2419.1985
   3   2.0000     -88.890836     -2418.8426
   4   2.0000     -19.205800      -522.6164
   5   2.0000     -19.202589      -522.5290
   6   2.0000     -14.417227      -392.3127
   7   2.0000     -14.415431      -392.2638
   8   2.0000     -14.408874      -392.0854
   9   2.0000     -14.407493      -392.0478
  10   2.0000     -14.383677      -391.3998
  11   2.0000     -14.354040      -390.5933
  12   2.0000     -10.345674      -281.5201
  13   2.0000     -10.336847      -281.2799
  14   2.0000     -10.334575      -281.2181
  15   2.0000     -10.332402      -281.1590
  16   2.0000     -10.328904      -281.0638
  17   2.0000     -10.328059      -281.0408
  18   2.0000     -10.326640      -281.0022
  19   2.0000     -10.325054      -280.9590
  20   2.0000     -10.319682      -280.8128
  21   2.0000     -10.318527      -280.7814
  22   2.0000     -10.314346      -280.6676
  23   2.0000     -10.312109      -280.6068
  24   2.0000     -10.311613      -280.5933
  25   2.0000     -10.306124      -280.4439
  26   2.0000     -10.306113      -280.4436
  27   2.0000     -10.305815      -280.4355
  28   2.0000     -10.303527      -280.3732
  29   2.0000     -10.300812      -280.2994
  30   2.0000     -10.296950      -280.1942
  31   2.0000     -10.296767      -280.1893
  32   2.0000     -10.296503      -280.1821
  33   2.0000     -10.295526      -280.1555
  34   2.0000     -10.293236      -280.0932
  35   2.0000     -10.290444      -280.0172
  36   2.0000     -10.289036      -279.9789
  37   2.0000     -10.284884      -279.8659
  38   2.0000     -10.284320      -279.8506
  39   2.0000     -10.283516      -279.8287
  40   2.0000     -10.282499      -279.8010
  41   2.0000     -10.281291      -279.7681
  42   2.0000     -10.281177      -279.7651
  43   2.0000     -10.279337      -279.7150
  44   2.0000     -10.278984      -279.7054
  45   2.0000     -10.276901      -279.6487
  46   2.0000     -10.274230      -279.5760
  47   2.0000     -10.274091      -279.5722
  48   2.0000     -10.273085      -279.5449
  49   2.0000     -10.272191      -279.5205
  50   2.0000     -10.271570      -279.5036
  51   2.0000     -10.270483      -279.4741
  52   2.0000     -10.269152      -279.4378
  53   2.0000     -10.268804      -279.4284
  54   2.0000     -10.268513      -279.4204
  55   2.0000     -10.268320      -279.4152
  56   2.0000     -10.266576      -279.3677
  57   2.0000     -10.264463      -279.3102
  58   2.0000     -10.263551      -279.2854
  59   2.0000     -10.262093      -279.2458
  60   2.0000     -10.261287      -279.2238
  61   2.0000     -10.260956      -279.2148
  62   2.0000     -10.260724      -279.2085
  63   2.0000     -10.258691      -279.1532
  64   2.0000      -8.055709      -219.2070
  65   2.0000      -8.047056      -218.9715
  66   2.0000      -7.999216      -217.6697
  67   2.0000      -7.986533      -217.3246
  68   2.0000      -6.025003      -163.9487
  69   2.0000      -6.020750      -163.8329
  70   2.0000      -6.017934      -163.7563
  71   2.0000      -6.016162      -163.7081
  72   2.0000      -6.011871      -163.5913
  73   2.0000      -6.009599      -163.5295
  74   2.0000      -5.968026      -162.3982
  75   2.0000      -5.967457      -162.3828
  76   2.0000      -5.958886      -162.1495
  77   2.0000      -5.955452      -162.0561
  78   2.0000      -5.954569      -162.0321
  79   2.0000      -5.946190      -161.8041
  80   2.0000      -1.099034       -29.9062
  81   2.0000      -1.095841       -29.8193
  82   2.0000      -1.083788       -29.4914
  83   2.0000      -1.075428       -29.2639
  84   2.0000      -1.064875       -28.9767
  85   2.0000      -1.056708       -28.7545
  86   2.0000      -0.990530       -26.9537
  87   2.0000      -0.985220       -26.8092
  88   2.0000      -0.983762       -26.7695
  89   2.0000      -0.967505       -26.3271
  90   2.0000      -0.963180       -26.2095
  91   2.0000      -0.954181       -25.9646
  92   2.0000      -0.948052       -25.7978
  93   2.0000      -0.935333       -25.4517
  94   2.0000      -0.920992       -25.0615
  95   2.0000      -0.904304       -24.6074
  96   2.0000      -0.903771       -24.5929
  97   2.0000      -0.898973       -24.4623
  98   2.0000      -0.890724       -24.2378
  99   2.0000      -0.883669       -24.0458
 100   2.0000      -0.875463       -23.8226
 101   2.0000      -0.862680       -23.4747
 102   2.0000      -0.854381       -23.2489
 103   2.0000      -0.849668       -23.1206
 104   2.0000      -0.844079       -22.9686
 105   2.0000      -0.840515       -22.8716
 106   2.0000      -0.837161       -22.7803
 107   2.0000      -0.829685       -22.5769
 108   2.0000      -0.822421       -22.3792
 109   2.0000      -0.819977       -22.3127
 110   2.0000      -0.816705       -22.2237
 111   2.0000      -0.799514       -21.7559
 112   2.0000      -0.790526       -21.5113
 113   2.0000      -0.785349       -21.3704
 114   2.0000      -0.770463       -20.9654
 115   2.0000      -0.765107       -20.8196
 116   2.0000      -0.753120       -20.4934
 117   2.0000      -0.741703       -20.1828
 118   2.0000      -0.735218       -20.0063
 119   2.0000      -0.723922       -19.6989
 120   2.0000      -0.721071       -19.6213
 121   2.0000      -0.720929       -19.6175
 122   2.0000      -0.716800       -19.5051
 123   2.0000      -0.705893       -19.2083
 124   2.0000      -0.696048       -18.9404
 125   2.0000      -0.685121       -18.6431
 126   2.0000      -0.682858       -18.5815
 127   2.0000      -0.681009       -18.5312
 128   2.0000      -0.675803       -18.3895
 129   2.0000      -0.673070       -18.3152
 130   2.0000      -0.667684       -18.1686
 131   2.0000      -0.665526       -18.1099
 132   2.0000      -0.659371       -17.9424
 133   2.0000      -0.641974       -17.4690
 134   2.0000      -0.635060       -17.2809
 135   2.0000      -0.631600       -17.1867
 136   2.0000      -0.622939       -16.9510
 137   2.0000      -0.615080       -16.7372
 138   2.0000      -0.609612       -16.5884
 139   2.0000      -0.604085       -16.4380
 140   2.0000      -0.602704       -16.4004
 141   2.0000      -0.595692       -16.2096
 142   2.0000      -0.592707       -16.1284
 143   2.0000      -0.580848       -15.8057
 144   2.0000      -0.578144       -15.7321
 145   2.0000      -0.573068       -15.5940
 146   2.0000      -0.568503       -15.4698
 147   2.0000      -0.563422       -15.3315
 148   2.0000      -0.559959       -15.2372
 149   2.0000      -0.557798       -15.1785
 150   2.0000      -0.554374       -15.0853
 151   2.0000      -0.552989       -15.0476
 152   2.0000      -0.551514       -15.0075
 153   2.0000      -0.544703       -14.8221
 154   2.0000      -0.543826       -14.7983
 155   2.0000      -0.542062       -14.7502
 156   2.0000      -0.539688       -14.6857
 157   2.0000      -0.537418       -14.6239
 158   2.0000      -0.535621       -14.5750
 159   2.0000      -0.529866       -14.4184
 160   2.0000      -0.528033       -14.3685
 161   2.0000      -0.524424       -14.2703
 162   2.0000      -0.522273       -14.2118
 163   2.0000      -0.518991       -14.1225
 164   2.0000      -0.514946       -14.0124
 165   2.0000      -0.511277       -13.9125
 166   2.0000      -0.509286       -13.8584
 167   2.0000      -0.507035       -13.7971
 168   2.0000      -0.506112       -13.7720
 169   2.0000      -0.504361       -13.7244
 170   2.0000      -0.502397       -13.6709
 171   2.0000      -0.500283       -13.6134
 172   2.0000      -0.498130       -13.5548
 173   2.0000      -0.492311       -13.3965
 174   2.0000      -0.491119       -13.3640
 175   2.0000      -0.487479       -13.2650
 176   2.0000      -0.485913       -13.2224
 177   2.0000      -0.484042       -13.1714
 178   2.0000      -0.481078       -13.0908
 179   2.0000      -0.480096       -13.0641
 180   2.0000      -0.479854       -13.0575
 181   2.0000      -0.475850       -12.9485
 182   2.0000      -0.474196       -12.9035
 183   2.0000      -0.469577       -12.7778
 184   2.0000      -0.467993       -12.7347
 185   2.0000      -0.463049       -12.6002
 186   2.0000      -0.463001       -12.5989
 187   2.0000      -0.459806       -12.5119
 188   2.0000      -0.458145       -12.4668
 189   2.0000      -0.456935       -12.4338
 190   2.0000      -0.448440       -12.2027
 191   2.0000      -0.443234       -12.0610
 192   2.0000      -0.441292       -12.0082
 193   2.0000      -0.437026       -11.8921
 194   2.0000      -0.435831       -11.8596
 195   2.0000      -0.433300       -11.7907
 196   2.0000      -0.430302       -11.7091
 197   2.0000      -0.428508       -11.6603
 198   2.0000      -0.426982       -11.6188
 199   2.0000      -0.426363       -11.6019
 200   2.0000      -0.419208       -11.4072
 201   2.0000      -0.416918       -11.3449
 202   2.0000      -0.415381       -11.3031
 203   2.0000      -0.413789       -11.2598
 204   2.0000      -0.409518       -11.1436
 205   2.0000      -0.408055       -11.1037
 206   2.0000      -0.406083       -11.0501
 207   2.0000      -0.403791       -10.9877
 208   2.0000      -0.395504       -10.7622
 209   2.0000      -0.392173       -10.6716
 210   2.0000      -0.385766       -10.4972
 211   2.0000      -0.385548       -10.4913
 212   2.0000      -0.382008       -10.3950
 213   2.0000      -0.364784        -9.9263
 214   2.0000      -0.361943        -9.8490
 215   2.0000      -0.355794        -9.6817
 216   2.0000      -0.355417        -9.6714
 217   2.0000      -0.349926        -9.5220
 218   2.0000      -0.349464        -9.5094
 219   2.0000      -0.348130        -9.4731
 220   2.0000      -0.343171        -9.3382
 221   2.0000      -0.339332        -9.2337
 222   2.0000      -0.337641        -9.1877
 223   2.0000      -0.326604        -8.8873
 224   2.0000      -0.319658        -8.6983
 225   2.0000      -0.312851        -8.5131
 226   2.0000      -0.311082        -8.4650
 227   2.0000      -0.309759        -8.4290
 228   2.0000      -0.306536        -8.3413
 229   2.0000      -0.293494        -7.9864
 230   2.0000      -0.288474        -7.8498
 231   2.0000      -0.284286        -7.7358
 232   2.0000      -0.281483        -7.6595
 233   2.0000      -0.280517        -7.6333
 234   2.0000      -0.270717        -7.3666
 235   2.0000      -0.266479        -7.2513
 236   2.0000      -0.219298        -5.9674
 237   0.0000      -0.110717        -3.0128
 238   0.0000      -0.105709        -2.8765
 239   0.0000      -0.079504        -2.1634
 240   0.0000      -0.077968        -2.1216
 241   0.0000      -0.059297        -1.6136

MULLIKEN ATOMIC CHARGES
-----------------------
   0 C :   -0.119061
   1 S :    0.185668
   2 C :   -0.170529
   3 C :   -0.084463
   4 C :   -0.083330
   5 C :    0.097671
   6 C :    0.052666
   7 C :    0.110359
   8 O :   -0.297685
   9 C :    0.122284
  10 C :    0.009782
  11 C :    0.037855
  12 N :   -0.021030
  13 C :    0.004290
  14 C :   -0.039598
  15 C :    0.003071
  16 S :   -0.178177
  17 C :   -0.020121
  18 C :   -0.004221
  19 N :   -0.023048
  20 C :    0.048632
  21 C :    0.010556
  22 C :    0.080671
  23 C :   -0.048947
  24 C :    0.035153
  25 C :   -0.020684
  26 C :   -0.072913
  27 C :    0.139886
  28 N :   -0.212690
  29 C :    0.147266
  30 N :   -0.216780
  31 C :    0.092281
  32 C :   -0.144581
  33 C :    0.174005
  34 C :   -0.038099
  35 C :    0.021219
  36 C :    0.007892
  37 C :    0.045317
  38 C :   -0.005095
  39 C :   -0.024329
  40 C :   -0.068149
  41 C :    0.013569
  42 C :    0.025704
  43 C :    0.055210
  44 N :   -0.024608
  45 C :    0.015356
  46 C :   -0.019972
  47 C :   -0.016881
  48 S :   -0.131820
  49 C :   -0.005047
  50 C :   -0.008546
  51 N :   -0.024337
  52 C :    0.052645
  53 C :   -0.006134
  54 C :   -0.194389
  55 S :    0.125339
  56 C :   -0.111055
  57 C :   -0.097433
  58 C :   -0.008059
  59 C :    0.088844
  60 C :    0.050661
  61 C :    0.093774
  62 O :   -0.299410
  63 C :    0.165711
  64 H :    0.010970
  65 H :    0.016968
  66 H :    0.014281
  67 H :    0.007065
  68 H :    0.002621
  69 H :   -0.003563
  70 H :    0.167521
  71 H :    0.026074
  72 H :    0.026351
  73 H :    0.002044
  74 H :    0.007355
  75 H :   -0.032478
  76 H :   -0.005099
  77 H :   -0.021033
  78 H :   -0.005849
  79 H :    0.081142
  80 H :    0.079064
  81 H :   -0.000126
  82 H :   -0.021187
  83 H :    0.104673
  84 H :    0.094800
  85 H :   -0.008807
  86 H :    0.038640
  87 H :   -0.005473
  88 H :   -0.034474
  89 H :   -0.037730
  90 H :   -0.031678
  91 H :    0.003225
  92 H :   -0.010995
  93 H :    0.005669
  94 H :    0.010315
  95 H :    0.016010
  96 H :    0.018341
  97 H :    0.014137
  98 H :    0.004964
  99 H :    0.002377
 100 H :   -0.005506
 101 H :    0.167554
 102 H :    0.014855
 103 H :    0.014864
Sum of atomic charges:    0.0000000

LOEWDIN ATOMIC CHARGES
----------------------
   0 C :   -0.187312
   1 S :    0.483323
   2 C :   -0.189537
   3 C :   -0.054483
   4 C :   -0.082584
   5 C :   -0.031739
   6 C :   -0.040450
   7 C :    0.063274
   8 O :   -0.123954
   9 C :   -0.044662
  10 C :   -0.042242
  11 C :    0.076609
  12 N :   -0.075943
  13 C :    0.030162
  14 C :   -0.059552
  15 C :   -0.129180
  16 S :    0.035319
  17 C :   -0.054649
  18 C :    0.037173
  19 N :   -0.078756
  20 C :    0.082358
  21 C :   -0.017182
  22 C :   -0.042018
  23 C :    0.028919
  24 C :   -0.023905
  25 C :   -0.012128
  26 C :   -0.041005
  27 C :    0.027490
  28 N :   -0.125477
  29 C :    0.028020
  30 N :   -0.105026
  31 C :   -0.018836
  32 C :    0.070059
  33 C :   -0.032790
  34 C :   -0.025709
  35 C :   -0.017642
  36 C :   -0.036877
  37 C :   -0.030148
  38 C :   -0.010195
  39 C :   -0.029753
  40 C :    0.042217
  41 C :   -0.052298
  42 C :   -0.024720
  43 C :    0.082348
  44 N :   -0.077799
  45 C :    0.034866
  46 C :   -0.046134
  47 C :   -0.129366
  48 S :    0.078770
  49 C :   -0.047084
  50 C :    0.034373
  51 N :   -0.074913
  52 C :    0.079894
  53 C :   -0.043937
  54 C :   -0.185818
  55 S :    0.435273
  56 C :   -0.177700
  57 C :   -0.069175
  58 C :   -0.037918
  59 C :   -0.043349
  60 C :   -0.039461
  61 C :    0.060633
  62 O :   -0.124817
  63 C :   -0.038851
  64 H :    0.021705
  65 H :    0.028980
  66 H :    0.035095
  67 H :    0.027792
  68 H :    0.025147
  69 H :    0.022913
  70 H :    0.070486
  71 H :    0.035053
  72 H :    0.034841
  73 H :    0.023205
  74 H :    0.024203
  75 H :    0.013100
  76 H :    0.030321
  77 H :   -0.006568
  78 H :    0.014391
  79 H :    0.036072
  80 H :    0.048520
  81 H :    0.002848
  82 H :    0.009184
  83 H :    0.050144
  84 H :    0.057078
  85 H :    0.029306
  86 H :    0.063234
  87 H :    0.027598
  88 H :    0.030900
  89 H :    0.027222
  90 H :    0.023911
  91 H :    0.003298
  92 H :    0.028768
  93 H :    0.024970
  94 H :    0.023246
  95 H :    0.023798
  96 H :    0.006496
  97 H :    0.035147
  98 H :    0.027380
  99 H :    0.023530
 100 H :    0.021591
 101 H :    0.070288
 102 H :    0.035131
 103 H :    0.035673

  Mayer bond orders larger than 0.100000
B(  0-C ,  1-S ) :   1.1946 B(  0-C ,  4-C ) :   1.5235 B(  0-C , 64-H ) :   0.9719
B(  1-S ,  2-C ) :   1.1535 B(  2-C ,  3-C ) :   1.4750 B(  2-C , 10-C ) :   1.1188
B(  3-C ,  4-C ) :   1.3306 B(  3-C ,  9-C ) :   1.0361 B(  4-C ,  5-C ) :   1.0188
B(  5-C ,  6-C ) :   1.0741 B(  5-C , 65-H ) :   0.9226 B(  5-C , 66-H ) :   0.9228
B(  6-C ,  7-C ) :   1.0341 B(  6-C , 67-H ) :   0.9286 B(  6-C , 68-H ) :   0.9385
B(  7-C ,  8-O ) :   1.0493 B(  7-C ,  9-C ) :   1.0322 B(  7-C , 69-H ) :   0.9221
B(  8-O , 70-H ) :   0.9822 B(  9-C , 71-H ) :   0.9119 B(  9-C , 72-H ) :   0.9007
B( 10-C , 11-C ) :   1.0300 B( 10-C , 14-C ) :   1.5170 B( 11-C , 12-N ) :   1.7262
B( 11-C , 73-H ) :   0.9888 B( 12-N , 13-C ) :   1.2639 B( 13-C , 14-C ) :   1.0779
B( 13-C , 18-C ) :   1.5144 B( 14-C , 15-C ) :   1.0435 B( 15-C , 16-S ) :   1.6445
B( 15-C , 17-C ) :   1.0577 B( 17-C , 18-C ) :   1.0745 B( 17-C , 21-C ) :   1.5057
B( 18-C , 19-N ) :   1.2686 B( 19-N , 20-C ) :   1.7183 B( 20-C , 21-C ) :   1.0352
B( 20-C , 74-H ) :   0.9884 B( 21-C , 22-C ) :   1.0389 B( 22-C , 23-C ) :   1.4931
B( 22-C , 39-C ) :   1.1103 B( 23-C , 24-C ) :   1.1678 B( 23-C , 75-H ) :   0.9735
B( 24-C , 25-C ) :   1.4750 B( 24-C , 37-C ) :   1.1136 B( 25-C , 26-C ) :   1.0426
B( 25-C , 31-C ) :   1.0873 B( 26-C , 27-C ) :   1.0186 B( 26-C , 29-C ) :   1.0504
B( 26-C , 76-H ) :   0.8734 B( 27-C , 28-N ) :   1.1198 B( 27-C , 77-H ) :   0.9164
B( 27-C , 78-H ) :   0.9506 B( 28-N , 79-H ) :   0.9427 B( 28-N , 80-H ) :   0.9664
B( 29-C , 30-N ) :   1.0896 B( 29-C , 81-H ) :   0.9440 B( 29-C , 82-H ) :   0.9292
B( 30-N , 83-H ) :   0.9621 B( 30-N , 84-H ) :   0.9663 B( 31-C , 32-C ) :   1.6411
B( 31-C , 36-C ) :   1.0526 B( 32-C , 33-C ) :   0.9598 B( 32-C , 85-H ) :   0.9758
B( 33-C , 34-C ) :   0.9880 B( 33-C , 40-C ) :   0.9639 B( 33-C , 86-H ) :   0.8531
B( 34-C , 35-C ) :   1.7221 B( 34-C , 87-H ) :   0.9676 B( 35-C , 36-C ) :   1.1362
B( 35-C , 88-H ) :   0.9872 B( 36-C , 37-C ) :   1.4343 B( 37-C , 38-C ) :   1.1430
B( 38-C , 39-C ) :   1.6114 B( 38-C , 89-H ) :   0.9907 B( 39-C , 90-H ) :   0.9844
B( 40-C , 41-C ) :   1.7854 B( 40-C , 91-H ) :   0.9364 B( 41-C , 42-C ) :   1.0899
B( 41-C , 92-H ) :   0.9552 B( 42-C , 43-C ) :   1.0232 B( 42-C , 46-C ) :   1.5022
B( 43-C , 44-N ) :   1.7263 B( 43-C , 93-H ) :   0.9903 B( 44-N , 45-C ) :   1.2603
B( 45-C , 46-C ) :   1.0667 B( 45-C , 50-C ) :   1.5313 B( 46-C , 47-C ) :   1.0482
B( 47-C , 48-S ) :   1.6460 B( 47-C , 49-C ) :   1.0609 B( 48-S , 91-H ) :   0.1181
B( 49-C , 50-C ) :   1.0559 B( 49-C , 53-C ) :   1.5454 B( 50-C , 51-N ) :   1.2645
B( 51-N , 52-C ) :   1.7285 B( 52-C , 53-C ) :   1.0340 B( 52-C , 94-H ) :   0.9909
B( 53-C , 54-C ) :   1.0703 B( 54-C , 55-S ) :   1.1314 B( 54-C , 58-C ) :   1.5155
B( 55-S , 56-C ) :   1.1615 B( 56-C , 57-C ) :   1.5628 B( 56-C , 95-H ) :   0.9715
B( 57-C , 58-C ) :   1.2920 B( 57-C , 63-C ) :   1.0006 B( 58-C , 59-C ) :   1.0692
B( 59-C , 60-C ) :   1.0717 B( 59-C , 96-H ) :   0.8736 B( 59-C , 97-H ) :   0.9041
B( 60-C , 61-C ) :   1.0322 B( 60-C , 98-H ) :   0.9268 B( 60-C , 99-H ) :   0.9382
B( 61-C , 62-O ) :   1.0482 B( 61-C , 63-C ) :   1.0464 B( 61-C ,100-H ) :   0.9251
B( 62-O ,101-H ) :   0.9793 B( 63-C ,102-H ) :   0.9163 B( 63-C ,103-H ) :   0.9140

-----------------------------------------------------------------------------
         ABSORPTION SPECTRUM VIA TRANSITION ELECTRIC DIPOLE MOMENTS
-----------------------------------------------------------------------------
State   Energy  Wavelength   fosc         T2         TX        TY        TZ
        (cm-1)    (nm)                  (au**2)     (au)      (au)      (au)
-----------------------------------------------------------------------------
   0    9472.1   1055.7   0.082171205   2.85593  -1.16178   0.40648   1.15800
   1   11151.9    896.7   0.048519154   1.43232   0.57869   0.32877  -0.99466
   2   13378.5    747.5   0.017163790   0.42236   0.59917   0.25167  -0.00297
   3   14480.4    690.6   0.005785910   0.13154   0.29531  -0.05652   0.20283
   4   16337.3    612.1   0.181854813   3.66456   1.82471  -0.05542  -0.57611
   5   16804.5    595.1   0.008524159   0.16699  -0.36436   0.00590   0.18493
   6   16870.8    592.7   0.058205004   1.13580   1.00789  -0.19471   0.28642
   7   17399.4    574.7   0.028829363   0.54548  -0.53167  -0.01744   0.51234
   8   17813.1    561.4   0.173276589   3.20240   1.64279  -0.20990  -0.67793
   9   18264.3    547.5   0.076277561   1.37489  -0.88045  -0.01398   0.77428
  10   19406.6    515.3   0.005147223   0.08732   0.18216  -0.22223   0.06890
  11   19565.8    511.1   0.017942612   0.30190  -0.16479  -0.19801   0.48532
  12   20321.7    492.1   0.034471535   0.55844  -0.49060   0.17702   0.53518
  13   23614.0    423.5   0.007756249   0.10813  -0.25090   0.18533   0.10408
  14   23757.6    420.9   0.140566014   1.94784   1.30646  -0.12837   0.47385
  15   24171.8    413.7   0.020220422   0.27540  -0.46574   0.09648   0.22175
  16   24692.8    405.0   0.528687688   7.04862  -2.23343   0.21662   1.41897
  17   24965.7    400.6   0.166343365   2.19350  -1.45818   0.25892   0.01309
  18   25451.5    392.9   0.001849257   0.02392   0.07164   0.01150  -0.13658
  19   25605.6    390.5   0.015769907   0.20275  -0.29392  -0.05030   0.33739
  20   25694.6    389.2   0.009506441   0.12180  -0.23994   0.07938   0.24068
  21   26150.2    382.4   0.000148787   0.00187  -0.04034  -0.01565  -0.00099
  22   26372.3    379.2   0.249216888   3.11104   1.21496  -0.31921  -1.23815
  23   26413.7    378.6   0.007710072   0.09610   0.03602  -0.12745  -0.28027
  24   26504.2    377.3   0.015631056   0.19416  -0.34911  -0.16303   0.21378
  25   26978.4    370.7   0.126080682   1.53854   1.23843  -0.00151   0.06943
  26   27015.6    370.2   0.096267260   1.17311   0.98747  -0.23597  -0.37727
  27   27201.9    367.6   0.184130403   2.22844  -1.18987   0.34702   0.83201
  28   27947.5    357.8   0.025729682   0.30309  -0.34015  -0.18588   0.39094
  29   27986.1    357.3   0.271105663   3.18913  -0.93329  -0.42142   1.46305
  30   28123.2    355.6   0.035029541   0.41006  -0.31075  -0.05390   0.55730
  31   28276.8    353.6   0.004867390   0.05667  -0.17434   0.12928   0.09778
  32   28545.4    350.3   0.008998751   0.10378  -0.22301   0.18612   0.13931
  33   29085.3    343.8   0.000756467   0.00856   0.08142  -0.01937  -0.03947
  34   30344.3    329.6   0.030749713   0.33361   0.51263   0.09688   0.24786
  35   30754.9    325.2   0.017834227   0.19090   0.24486  -0.17778   0.31518
  36   31365.7    318.8   0.000230465   0.00242   0.03933   0.02509   0.01558
  37   31498.3    317.5   0.008172100   0.08541   0.01102   0.03484   0.28996
  38   31573.1    316.7   0.011741652   0.12243  -0.27481   0.02112  -0.21556
  39   31783.4    314.6   0.020314148   0.21041   0.07237  -0.38885  -0.23232
  40   31871.5    313.8   0.031832231   0.32881   0.52007  -0.23507   0.05542
  41   32236.6    310.2   0.050742357   0.51820  -0.58378  -0.12554  -0.40204
  42   32427.7    308.4   0.013922090   0.14134   0.30959  -0.06451  -0.20331
  43   32572.4    307.0   0.000202170   0.00204   0.02920   0.03009   0.01689
  44   32624.1    306.5   0.007126355   0.07191   0.17509  -0.13506  -0.15171
  45   32799.0    304.9   0.001621349   0.01627  -0.07893  -0.03715  -0.09308
  46   33176.3    301.4   0.000049440   0.00049   0.01475   0.01315   0.01000
  47   33477.1    298.7   0.004062469   0.03995  -0.05772  -0.17288  -0.08205
  48   33734.8    296.4   0.107301455   1.04714  -0.56862  -0.30406   0.79458
  49   34086.1    293.4   0.060694905   0.58621  -0.70621   0.18716   0.22902
  50   34187.5    292.5   0.001989189   0.01916   0.06505   0.02768  -0.11898
  51   34525.9    289.6   0.075919823   0.72391  -0.51972  -0.06470   0.67054
  52   34642.8    288.7   0.061662667   0.58598  -0.51749  -0.09279   0.55639
  53   34875.6    286.7   0.013172294   0.12434  -0.28197   0.19678  -0.07817
  54   35014.1    285.6   0.026086155   0.24527   0.46738  -0.15312  -0.05812
  55   35394.0    282.5   0.141268702   1.31399   0.76002   0.17880  -0.83928
  56   35696.7    280.1   0.004458119   0.04111  -0.07986   0.04344  -0.18125
  57   35941.2    278.2   0.003140138   0.02876   0.06591  -0.14933  -0.04603
  58   36042.2    277.5   0.004000137   0.03654   0.11513   0.00752  -0.15240
  59   36220.8    276.1   0.082768713   0.75229   0.17375  -0.28359  -0.80105
  60   36325.8    275.3   0.026487954   0.24005  -0.01279  -0.03512  -0.48852
  61   36351.8    275.1   0.361794419   3.27651  -0.45557   0.18455   1.74210
  62   36549.9    273.6   0.002217035   0.01997  -0.06107   0.08279   0.09688
  63   36681.7    272.6   0.018531823   0.16632  -0.36714   0.17408   0.03496
  64   36790.1    271.8   0.007918234   0.07086  -0.09302  -0.22216   0.11334
  65   36830.2    271.5   0.038084626   0.34042   0.50409  -0.14195  -0.25723
  66   37307.2    268.0   0.017380541   0.15337  -0.36804   0.05070  -0.12388
  67   37438.0    267.1   0.015947344   0.14023   0.29604   0.07471   0.21683
  68   37717.7    265.1   0.210351654   1.83602   1.32613  -0.20402   0.18913
  69   38257.0    261.4   0.062317733   0.53626   0.66527  -0.00690   0.30598
  70   38556.1    259.4   0.052159929   0.44537  -0.15089   0.39571  -0.51577
  71   38656.1    258.7   0.030102499   0.25637  -0.05381   0.23497  -0.44526
  72   38746.5    258.1   0.303616706   2.57970  -0.50191   0.99906  -1.15311
  73   38845.3    257.4   0.008680930   0.07357  -0.05684  -0.14647  -0.22110
  74   38936.2    256.8   0.131329611   1.11041   0.48079  -0.11810  -0.93022
  75   39216.0    255.0   0.036499828   0.30641   0.43038  -0.26452   0.22631
  76   39524.5    253.0   0.001112672   0.00927   0.07098  -0.03260   0.05627
  77   39791.1    251.3   0.013803459   0.11420  -0.33749  -0.01635  -0.00619
  78   40189.5    248.8   0.061857812   0.50671   0.00264   0.02262  -0.71147

FINAL SINGLE POINT ENERGY     -4073.470096590313

DIPOLE MOMENT
-------------
                                X             Y             Z
Electronic contribution:    -22.34176     -22.99973      -9.32046
Nuclear contribution   :     22.04401      23.65328      11.49019
                        -----------------------------------------
Total Dipole Moment    :     -0.29775       0.65355       2.16973
                        -----------------------------------------
Magnitude (a.u.)       :      2.28550
Magnitude (Debye)      :      5.80928

Rotational constants in cm-1:     0.002408     0.000309     0.000292
Rotational constants in MHz :    72.177286     9.266522     8.753058

                             ****ORCA TERMINATED NORMALLY****
TOTAL RUN TIME: 0 days 0 hours 10 minutes 30 seconds 832 msec
