                         Program Version 4.2.0 -  RELEASE  -
|  1> # ORCA input file
|  2> # SCF done       -134.626931189568          0.000719225970
|  3> ! CAM-B3LYP def2-SVP def2/J RIJCOSX Grid4 TightSCF
|  4> %maxcore 5000
|  5> %tddft
|  6>     Mode sTDDFT
|  7>     Ethresh 5.0
|  8>     maxcore 5000
|  9> end
| 10>
| 11> %pal
| 12>   nprocs 6
| 13>   end
| 14> * xyz 0 1
| 15>    C        1.57346        -0.62704        -0.88806
| 16>    S        2.24991         0.82200        -1.51008
| 17>    C        1.21443         1.78987        -0.48544
| 18>    C        0.40615         0.98936         0.28960
| 19>    C        0.61495        -0.39448         0.04864
| 20>    C       -0.13310        -1.46795         0.77826
| 21>    C       -1.37788        -0.90051         1.45856
| 22>    C       -1.03811         0.37034         2.24898
| 23>    O       -0.07583         0.13769         3.25064
| 24>    C       -0.59558         1.48278         1.28686
| 25>    C        1.29925         3.21639        -0.56587
| 26>    N        2.31197         3.82719        -1.24093
| 27>    C        2.15884         5.18366        -1.19259
| 28>    C        1.00663         5.44752        -0.46233
| 29>    C        0.47098         4.22153        -0.07248
| 30>    C        3.05897         6.04099        -1.80833
| 31>    C        3.87555         6.73931        -2.37281
| 32>    C        4.82125         7.51501        -3.02922
| 33>    O        4.69966         8.85018        -3.07134
| 34>    C        5.74639         9.34953        -3.77234
| 35>    C        6.57166         8.30565        -4.19532
| 36>    C        5.97152         7.11256        -3.71403
| 37>    C        6.38855         5.69676        -3.86230
| 38>    F        5.54051         4.83429        -3.28067
| 39>    F        6.47760         5.29636        -5.14959
| 40>    F        7.59664         5.43072        -3.31789
| 41>    O        7.67732         8.57159        -4.91612
| 42>    C        8.56778         7.53336        -5.26947
| 43>    C        5.90120        10.74189        -4.00465
| 44>    C        5.05281        11.68918        -3.54542
| 45>    C        5.19435        13.08420        -3.78341
| 46>    N        4.31314        13.99499        -3.27158
| 47>    C        4.66714        15.25649        -3.65311
| 48>    C        5.81297        15.15083        -4.43634
| 49>    C        6.13986        13.80140        -4.51494
| 50>    C        3.95896        16.39471        -3.28416
| 51>    C        3.35083        17.39433        -2.96338
| 52>    C        2.67014        18.55292        -2.61569
| 53>    S        3.06500        20.08523        -3.35530
| 54>    C        1.85723        20.87099        -2.41737
| 55>    C        1.18688        20.01839        -1.59274
| 56>    C        1.65011        18.68473        -1.70127
| 57>    C        1.10990        17.56378        -0.86970
| 58>    C       -0.21333        17.95671        -0.21098
| 59>    C       -0.13247        19.35438         0.42196
| 60>    O        0.86711        19.43857         1.41015
| 61>    C        0.06679        20.40757        -0.67767
| 62>    H        1.92634        -1.57071        -1.25378
| 63>    H        0.52218        -1.92131         1.53023
| 64>    H       -0.41400        -2.26244         0.08352
| 65>    H       -1.79846        -1.64755         2.13280
| 66>    H       -2.13057        -0.64902         0.70980
| 67>    H       -1.92649         0.70455         2.79638
| 68>    H        0.76151        -0.07050         2.82050
| 69>    H       -0.16785         2.30138         1.87075
| 70>    H       -1.47398         1.86741         0.76065
| 71>    H        3.06640         3.35588        -1.71396
| 72>    H        0.61104         6.41984        -0.24627
| 73>    H       -0.43103         4.08795         0.48714
| 74>    H        9.37690         8.02539        -5.80652
| 75>    H        8.09533         6.80177        -5.92782
| 76>    H        8.97388         7.03400        -4.38721
| 77>    H        6.76739        11.00330        -4.59105
| 78>    H        4.19926        11.38090        -2.95496
| 79>    H        3.51836        13.76950        -2.69629
| 80>    H        6.33416        15.97209        -4.88695
| 81>    H        6.97059        13.38206        -5.04587
| 82>    H        1.70832        21.92619        -2.53342
| 83>    H        1.84317        17.29972        -0.09864
| 84>    H        0.97299        16.67358        -1.48890
| 85>    H       -0.46811        17.22559         0.55738
| 86>    H       -1.01133        17.96452        -0.95512
| 87>    H       -1.06588        19.56329         0.95644
| 88>    H        1.72452        19.34787         0.97809
| 89>    H        0.27159        21.37830        -0.22050
| 90>    H       -0.85836        20.50052        -1.25362
| 91> *
| 92>
| 93>                          ****END OF INPUT****

CARTESIAN COORDINATES (ANGSTROEM)
---------------------------------
  C      1.573460   -0.627040   -0.888060
  S      2.249910    0.822000   -1.510080
  C      1.214430    1.789870   -0.485440
  C      0.406150    0.989360    0.289600
  C      0.614950   -0.394480    0.048640
  C     -0.133100   -1.467950    0.778260
  C     -1.377880   -0.900510    1.458560
  C     -1.038110    0.370340    2.248980
  O     -0.075830    0.137690    3.250640
  C     -0.595580    1.482780    1.286860
  C      1.299250    3.216390   -0.565870
  N      2.311970    3.827190   -1.240930
  C      2.158840    5.183660   -1.192590
  C      1.006630    5.447520   -0.462330
  C      0.470980    4.221530   -0.072480
  C      3.058970    6.040990   -1.808330
  C      3.875550    6.739310   -2.372810
  C      4.821250    7.515010   -3.029220
  O      4.699660    8.850180   -3.071340
  C      5.746390    9.349530   -3.772340
  C      6.571660    8.305650   -4.195320
  C      5.971520    7.112560   -3.714030
  C      6.388550    5.696760   -3.862300
  F      5.540510    4.834290   -3.280670
  F      6.477600    5.296360   -5.149590
  F      7.596640    5.430720   -3.317890
  O      7.677320    8.571590   -4.916120
  C      8.567780    7.533360   -5.269470
  C      5.901200   10.741890   -4.004650
  C      5.052810   11.689180   -3.545420
  C      5.194350   13.084200   -3.783410
  N      4.313140   13.994990   -3.271580
  C      4.667140   15.256490   -3.653110
  C      5.812970   15.150830   -4.436340
  C      6.139860   13.801400   -4.514940
  C      3.958960   16.394710   -3.284160
  C      3.350830   17.394330   -2.963380
  C      2.670140   18.552920   -2.615690
  S      3.065000   20.085230   -3.355300
  C      1.857230   20.870990   -2.417370
  C      1.186880   20.018390   -1.592740
  C      1.650110   18.684730   -1.701270
  C      1.109900   17.563780   -0.869700
  C     -0.213330   17.956710   -0.210980
  C     -0.132470   19.354380    0.421960
  O      0.867110   19.438570    1.410150
  C      0.066790   20.407570   -0.677670
  H      1.926340   -1.570710   -1.253780
  H      0.522180   -1.921310    1.530230
  H     -0.414000   -2.262440    0.083520
  H     -1.798460   -1.647550    2.132800
  H     -2.130570   -0.649020    0.709800
  H     -1.926490    0.704550    2.796380
  H      0.761510   -0.070500    2.820500
  H     -0.167850    2.301380    1.870750
  H     -1.473980    1.867410    0.760650
  H      3.066400    3.355880   -1.713960
  H      0.611040    6.419840   -0.246270
  H     -0.431030    4.087950    0.487140
  H      9.376900    8.025390   -5.806520
  H      8.095330    6.801770   -5.927820
  H      8.973880    7.034000   -4.387210
  H      6.767390   11.003300   -4.591050
  H      4.199260   11.380900   -2.954960
  H      3.518360   13.769500   -2.696290
  H      6.334160   15.972090   -4.886950
  H      6.970590   13.382060   -5.045870
  H      1.708320   21.926190   -2.533420
  H      1.843170   17.299720   -0.098640
  H      0.972990   16.673580   -1.488900
  H     -0.468110   17.225590    0.557380
  H     -1.011330   17.964520   -0.955120
  H     -1.065880   19.563290    0.956440
  H      1.724520   19.347870    0.978090
  H      0.271590   21.378300   -0.220500
  H     -0.858360   20.500520   -1.253620

 Total Charge           Charge          ....    0
 Multiplicity           Mult            ....    1
 Number of Electrons    NEL             ....  350
 Basis Dimension        Dim             ....  811

ORBITAL ENERGIES
----------------

  NO   OCC          E(Eh)            E(eV)
   0   2.0000     -88.952711     -2420.5263
   1   2.0000     -88.946431     -2420.3554
   2   2.0000     -24.800377      -674.8526
   3   2.0000     -24.796456      -674.7459
   4   2.0000     -24.796026      -674.7342
   5   2.0000     -19.298553      -525.1403
   6   2.0000     -19.253964      -523.9270
   7   2.0000     -19.202924      -522.5381
   8   2.0000     -19.198999      -522.4313
   9   2.0000     -14.462829      -393.5536
  10   2.0000     -14.455401      -393.3515
  11   2.0000     -10.523113      -286.3485
  12   2.0000     -10.360662      -281.9280
  13   2.0000     -10.342910      -281.4449
  14   2.0000     -10.323506      -280.9169
  15   2.0000     -10.320624      -280.8385
  16   2.0000     -10.311251      -280.5834
  17   2.0000     -10.310322      -280.5581
  18   2.0000     -10.310096      -280.5520
  19   2.0000     -10.306854      -280.4638
  20   2.0000     -10.302793      -280.3533
  21   2.0000     -10.299048      -280.2513
  22   2.0000     -10.298802      -280.2447
  23   2.0000     -10.297515      -280.2096
  24   2.0000     -10.293669      -280.1050
  25   2.0000     -10.286320      -279.9050
  26   2.0000     -10.284674      -279.8602
  27   2.0000     -10.281114      -279.7633
  28   2.0000     -10.278011      -279.6789
  29   2.0000     -10.274049      -279.5711
  30   2.0000     -10.273366      -279.5525
  31   2.0000     -10.273049      -279.5439
  32   2.0000     -10.272511      -279.5292
  33   2.0000     -10.271984      -279.5149
  34   2.0000     -10.269731      -279.4536
  35   2.0000     -10.269193      -279.4390
  36   2.0000     -10.267659      -279.3972
  37   2.0000     -10.267540      -279.3940
  38   2.0000     -10.266914      -279.3769
  39   2.0000     -10.266173      -279.3568
  40   2.0000     -10.262241      -279.2498
  41   2.0000     -10.262231      -279.2495
  42   2.0000     -10.260692      -279.2076
  43   2.0000     -10.258199      -279.1398
  44   2.0000     -10.257389      -279.1177
  45   2.0000     -10.252601      -278.9874
  46   2.0000     -10.248360      -278.8721
  47   2.0000      -8.048545      -219.0121
  48   2.0000      -8.042043      -218.8351
  49   2.0000      -6.017861      -163.7543
  50   2.0000      -6.013658      -163.6399
  51   2.0000      -6.011423      -163.5791
  52   2.0000      -6.010756      -163.5610
  53   2.0000      -6.007100      -163.4615
  54   2.0000      -6.004173      -163.3819
  55   2.0000      -1.387345       -37.7516
  56   2.0000      -1.290048       -35.1040
  57   2.0000      -1.285940       -34.9922
  58   2.0000      -1.219263       -33.1778
  59   2.0000      -1.155680       -31.4476
  60   2.0000      -1.095881       -29.8204
  61   2.0000      -1.091854       -29.7109
  62   2.0000      -1.083992       -29.4969
  63   2.0000      -1.072371       -29.1807
  64   2.0000      -0.981185       -26.6994
  65   2.0000      -0.977147       -26.5895
  66   2.0000      -0.924895       -25.1677
  67   2.0000      -0.910508       -24.7762
  68   2.0000      -0.900129       -24.4937
  69   2.0000      -0.893445       -24.3119
  70   2.0000      -0.885028       -24.0828
  71   2.0000      -0.875614       -23.8267
  72   2.0000      -0.873037       -23.7565
  73   2.0000      -0.865567       -23.5533
  74   2.0000      -0.861905       -23.4536
  75   2.0000      -0.851515       -23.1709
  76   2.0000      -0.837700       -22.7950
  77   2.0000      -0.825804       -22.4713
  78   2.0000      -0.813387       -22.1334
  79   2.0000      -0.810962       -22.0674
  80   2.0000      -0.809896       -22.0384
  81   2.0000      -0.795022       -21.6336
  82   2.0000      -0.785803       -21.3828
  83   2.0000      -0.775412       -21.1000
  84   2.0000      -0.760523       -20.6949
  85   2.0000      -0.729839       -19.8599
  86   2.0000      -0.718847       -19.5608
  87   2.0000      -0.713761       -19.4224
  88   2.0000      -0.712257       -19.3815
  89   2.0000      -0.698250       -19.0004
  90   2.0000      -0.685735       -18.6598
  91   2.0000      -0.681503       -18.5446
  92   2.0000      -0.680535       -18.5183
  93   2.0000      -0.678405       -18.4603
  94   2.0000      -0.674608       -18.3570
  95   2.0000      -0.670594       -18.2478
  96   2.0000      -0.667895       -18.1743
  97   2.0000      -0.663281       -18.0488
  98   2.0000      -0.656982       -17.8774
  99   2.0000      -0.654205       -17.8018
 100   2.0000      -0.646742       -17.5987
 101   2.0000      -0.631873       -17.1941
 102   2.0000      -0.622433       -16.9373
 103   2.0000      -0.600511       -16.3407
 104   2.0000      -0.594347       -16.1730
 105   2.0000      -0.591292       -16.0899
 106   2.0000      -0.588690       -16.0191
 107   2.0000      -0.577512       -15.7149
 108   2.0000      -0.575446       -15.6587
 109   2.0000      -0.573368       -15.6021
 110   2.0000      -0.557898       -15.1812
 111   2.0000      -0.552224       -15.0268
 112   2.0000      -0.550539       -14.9809
 113   2.0000      -0.548100       -14.9146
 114   2.0000      -0.545910       -14.8550
 115   2.0000      -0.540169       -14.6987
 116   2.0000      -0.535995       -14.5852
 117   2.0000      -0.534552       -14.5459
 118   2.0000      -0.531582       -14.4651
 119   2.0000      -0.528239       -14.3741
 120   2.0000      -0.527097       -14.3430
 121   2.0000      -0.521661       -14.1951
 122   2.0000      -0.520448       -14.1621
 123   2.0000      -0.518173       -14.1002
 124   2.0000      -0.510488       -13.8911
 125   2.0000      -0.509753       -13.8711
 126   2.0000      -0.508392       -13.8340
 127   2.0000      -0.504850       -13.7377
 128   2.0000      -0.503385       -13.6978
 129   2.0000      -0.498290       -13.5592
 130   2.0000      -0.498271       -13.5586
 131   2.0000      -0.489355       -13.3160
 132   2.0000      -0.485170       -13.2022
 133   2.0000      -0.484545       -13.1851
 134   2.0000      -0.484002       -13.1704
 135   2.0000      -0.482348       -13.1253
 136   2.0000      -0.481891       -13.1129
 137   2.0000      -0.475605       -12.9419
 138   2.0000      -0.473765       -12.8918
 139   2.0000      -0.472121       -12.8471
 140   2.0000      -0.469906       -12.7868
 141   2.0000      -0.460612       -12.5339
 142   2.0000      -0.458725       -12.4825
 143   2.0000      -0.458437       -12.4747
 144   2.0000      -0.451379       -12.2827
 145   2.0000      -0.436944       -11.8898
 146   2.0000      -0.435812       -11.8590
 147   2.0000      -0.433231       -11.7888
 148   2.0000      -0.430784       -11.7222
 149   2.0000      -0.424255       -11.5446
 150   2.0000      -0.421414       -11.4673
 151   2.0000      -0.415690       -11.3115
 152   2.0000      -0.413706       -11.2575
 153   2.0000      -0.412623       -11.2280
 154   2.0000      -0.411792       -11.2054
 155   2.0000      -0.403126       -10.9696
 156   2.0000      -0.401540       -10.9265
 157   2.0000      -0.397539       -10.8176
 158   2.0000      -0.381861       -10.3910
 159   2.0000      -0.378620       -10.3028
 160   2.0000      -0.372173       -10.1273
 161   2.0000      -0.358204        -9.7472
 162   2.0000      -0.349729        -9.5166
 163   2.0000      -0.341503        -9.2928
 164   2.0000      -0.337295        -9.1783
 165   2.0000      -0.333475        -9.0743
 166   2.0000      -0.329826        -8.9750
 167   2.0000      -0.324272        -8.8239
 168   2.0000      -0.321012        -8.7352
 169   2.0000      -0.308385        -8.3916
 170   2.0000      -0.306707        -8.3459
 171   2.0000      -0.300957        -8.1894
 172   2.0000      -0.273340        -7.4380
 173   2.0000      -0.243820        -6.6347
 174   2.0000      -0.211625        -5.7586
 175   0.0000      -0.042137        -1.1466
 176   0.0000      -0.011908        -0.3240
 177   0.0000       0.007155         0.1947
 178   0.0000       0.029989         0.8160
 179   0.0000       0.051306         1.3961

MULLIKEN ATOMIC CHARGES
-----------------------
   0 C :   -0.124772
   1 S :    0.088206
   2 C :   -0.120680
   3 C :   -0.095806
   4 C :   -0.069004
   5 C :    0.098052
   6 C :    0.049731
   7 C :    0.109125
   8 O :   -0.299731
   9 C :    0.130590
  10 C :    0.082522
  11 N :   -0.061332
  12 C :   -0.015835
  13 C :    0.000949
  14 C :   -0.069930
  15 C :    0.053415
  16 C :   -0.024181
  17 C :    0.070134
  18 O :   -0.190081
  19 C :    0.097230
  20 C :    0.148022
  21 C :   -0.166941
  22 C :    0.505155
  23 F :   -0.153767
  24 F :   -0.165782
  25 F :   -0.166503
  26 O :   -0.304206
  27 C :    0.180292
  28 C :   -0.045011
  29 C :    0.016525
  30 C :    0.093638
  31 N :   -0.043332
  32 C :   -0.016921
  33 C :    0.002955
  34 C :   -0.046621
  35 C :    0.059024
  36 C :   -0.090586
  37 C :   -0.199709
  38 S :    0.147207
  39 C :   -0.127818
  40 C :   -0.094773
  41 C :   -0.055703
  42 C :    0.115309
  43 C :    0.051626
  44 C :    0.087249
  45 O :   -0.301620
  46 C :    0.170626
  47 H :    0.009637
  48 H :    0.015983
  49 H :    0.012052
  50 H :    0.006261
  51 H :    0.003245
  52 H :   -0.007612
  53 H :    0.166557
  54 H :    0.025597
  55 H :    0.021135
  56 H :    0.131111
  57 H :   -0.028151
  58 H :   -0.026621
  59 H :    0.035341
  60 H :    0.032467
  61 H :    0.030495
  62 H :   -0.000099
  63 H :   -0.021644
  64 H :    0.118976
  65 H :   -0.030058
  66 H :   -0.027910
  67 H :    0.010331
  68 H :    0.016081
  69 H :    0.010530
  70 H :    0.002800
  71 H :    0.002940
  72 H :   -0.006260
  73 H :    0.167301
  74 H :    0.008330
  75 H :    0.014248
Sum of atomic charges:   -0.0000000

LOEWDIN ATOMIC CHARGES
----------------------
   0 C :   -0.194001
   1 S :    0.413078
   2 C :   -0.180795
   3 C :   -0.066639
   4 C :   -0.072050
   5 C :   -0.030750
   6 C :   -0.040625
   7 C :    0.062588
   8 O :   -0.125628
   9 C :   -0.041733
  10 C :   -0.016386
  11 N :    0.100506
  12 C :   -0.040681
  13 C :   -0.038526
  14 C :   -0.071803
  15 C :   -0.009016
  16 C :   -0.067353
  17 C :    0.037534
  18 O :    0.035542
  19 C :   -0.001548
  20 C :    0.024749
  21 C :   -0.154656
  22 C :    0.177471
  23 F :   -0.050646
  24 F :   -0.067684
  25 F :   -0.068292
  26 O :   -0.096356
  27 C :    0.074154
  28 C :   -0.035678
  29 C :   -0.035645
  30 C :   -0.013231
  31 N :    0.101833
  32 C :   -0.040019
  33 C :   -0.042674
  34 C :   -0.065469
  35 C :   -0.044889
  36 C :   -0.059618
  37 C :   -0.197894
  38 S :    0.443569
  39 C :   -0.192457
  40 C :   -0.075786
  41 C :   -0.060720
  42 C :   -0.029988
  43 C :   -0.040750
  44 C :    0.060426
  45 O :   -0.126788
  46 C :   -0.037488
  47 H :    0.021054
  48 H :    0.028761
  49 H :    0.034792
  50 H :    0.026986
  51 H :    0.025132
  52 H :    0.021615
  53 H :    0.069783
  54 H :    0.035163
  55 H :    0.034681
  56 H :    0.086211
  57 H :    0.029465
  58 H :    0.024581
  59 H :    0.029485
  60 H :    0.015150
  61 H :    0.015795
  62 H :    0.039198
  63 H :    0.027467
  64 H :    0.091320
  65 H :    0.027931
  66 H :    0.023168
  67 H :    0.020672
  68 H :    0.030422
  69 H :    0.034460
  70 H :    0.026316
  71 H :    0.024781
  72 H :    0.020772
  73 H :    0.070303
  74 H :    0.032435
  75 H :    0.034908

  Mayer bond orders larger than 0.100000
B(  0-C ,  1-S ) :   1.1416 B(  0-C ,  2-C ) :   0.1051 B(  0-C ,  4-C ) :   1.5843
B(  0-C , 47-H ) :   0.9730 B(  1-S ,  2-C ) :   1.1245 B(  2-C ,  3-C ) :   1.5737
B(  2-C , 10-C ) :   1.0491 B(  3-C ,  4-C ) :   1.2810 B(  3-C ,  9-C ) :   1.0435
B(  4-C ,  5-C ) :   1.0220 B(  5-C ,  6-C ) :   1.0733 B(  5-C , 48-H ) :   0.9222
B(  5-C , 49-H ) :   0.9222 B(  6-C ,  7-C ) :   1.0320 B(  6-C , 50-H ) :   0.9293
B(  6-C , 51-H ) :   0.9393 B(  7-C ,  8-O ) :   1.0463 B(  7-C ,  9-C ) :   1.0347
B(  7-C , 52-H ) :   0.9220 B(  8-O , 53-H ) :   0.9824 B(  9-C , 54-H ) :   0.9060
B(  9-C , 55-H ) :   0.9040 B( 10-C , 11-N ) :   1.2463 B( 10-C , 12-C ) :   0.1332
B( 10-C , 14-C ) :   1.4277 B( 11-N , 12-C ) :   1.2287 B( 11-N , 56-H ) :   0.9280
B( 12-C , 13-C ) :   1.4375 B( 12-C , 15-C ) :   0.8195 B( 13-C , 14-C ) :   1.2987
B( 13-C , 57-H ) :   1.0157 B( 14-C , 58-H ) :   1.0062 B( 15-C , 16-C ) :   2.2246
B( 16-C , 17-C ) :   0.8625 B( 17-C , 18-O ) :   1.2011 B( 17-C , 19-C ) :   0.1230
B( 17-C , 21-C ) :   1.4584 B( 18-O , 19-C ) :   1.1140 B( 19-C , 20-C ) :   1.4036
B( 19-C , 28-C ) :   1.1664 B( 20-C , 21-C ) :   1.2167 B( 20-C , 26-O ) :   1.2164
B( 21-C , 22-C ) :   0.9396 B( 22-C , 23-F ) :   1.1608 B( 22-C , 24-F ) :   1.1593
B( 22-C , 25-F ) :   1.1593 B( 26-O , 27-C ) :   0.9312 B( 27-C , 59-H ) :   0.9771
B( 27-C , 60-H ) :   0.9642 B( 27-C , 61-H ) :   0.9659 B( 28-C , 29-C ) :   1.6491
B( 28-C , 62-H ) :   0.9655 B( 29-C , 30-C ) :   1.0766 B( 29-C , 63-H ) :   0.9695
B( 30-C , 31-N ) :   1.2031 B( 30-C , 32-C ) :   0.1209 B( 30-C , 34-C ) :   1.4156
B( 31-N , 32-C ) :   1.2369 B( 31-N , 64-H ) :   0.9386 B( 32-C , 33-C ) :   1.4361
B( 32-C , 35-C ) :   0.8093 B( 33-C , 34-C ) :   1.3296 B( 33-C , 65-H ) :   1.0130
B( 34-C , 66-H ) :   1.0014 B( 35-C , 36-C ) :   2.2598 B( 36-C , 37-C ) :   0.9697
B( 37-C , 38-S ) :   1.1280 B( 37-C , 41-C ) :   1.5194 B( 38-S , 39-C ) :   1.1544
B( 39-C , 40-C ) :   1.5679 B( 39-C , 67-H ) :   0.9704 B( 40-C , 41-C ) :   1.2947
B( 40-C , 46-C ) :   1.0015 B( 41-C , 42-C ) :   1.0626 B( 42-C , 43-C ) :   1.0701
B( 42-C , 68-H ) :   0.9145 B( 42-C , 69-H ) :   0.9053 B( 43-C , 44-C ) :   1.0313
B( 43-C , 70-H ) :   0.9267 B( 43-C , 71-H ) :   0.9389 B( 44-C , 45-O ) :   1.0420
B( 44-C , 46-C ) :   1.0497 B( 44-C , 72-H ) :   0.9261 B( 45-O , 73-H ) :   0.9831
B( 46-C , 74-H ) :   0.9177 B( 46-C , 75-H ) :   0.9134

-----------------------------------------------------------------------------
         ABSORPTION SPECTRUM VIA TRANSITION ELECTRIC DIPOLE MOMENTS
-----------------------------------------------------------------------------
State   Energy  Wavelength   fosc         T2         TX        TY        TZ
        (cm-1)    (nm)                  (au**2)     (au)      (au)      (au)
-----------------------------------------------------------------------------
   0   21816.9    458.4   1.951538409  29.44823  -0.63055  -5.33037   0.79862
   1   29450.8    339.5   0.785125029   8.77643  -2.52016   0.51117   1.47103
   2   29991.4    333.4   0.157549586   1.72940  -0.39195   1.24286   0.17629
   3   34196.9    292.4   0.064199126   0.61804   0.30399  -0.68701  -0.23161
   4   36365.1    275.0   0.155982836   1.41211   0.36633  -1.09769  -0.27016
   5   37185.3    268.9   0.001274145   0.01128   0.01630  -0.09955  -0.03322
   6   38542.0    259.5   0.130083901   1.11113  -0.63502   0.75782   0.36549
   7   38976.1    256.6   0.202934826   1.71409   0.26140  -1.27878  -0.10237
   8   40259.5    248.4   0.008922569   0.07296   0.05803  -0.26138   0.03571

FINAL SINGLE POINT ENERGY     -2892.698732732587

DIPOLE MOMENT
-------------
                                X             Y             Z
Electronic contribution:     40.89911     -14.76532     -30.51136
Nuclear contribution   :    -41.37113      13.59715      29.97704
                        -----------------------------------------
Total Dipole Moment    :     -0.47202      -1.16818      -0.53432
                        -----------------------------------------
Magnitude (a.u.)       :      1.36855
Magnitude (Debye)      :      3.47858

Rotational constants in cm-1:     0.002302     0.000478     0.000400
Rotational constants in MHz :    69.022010    14.315326    11.989387

                             ****ORCA TERMINATED NORMALLY****
TOTAL RUN TIME: 0 days 0 hours 8 minutes 23 seconds 279 msec
