                         Program Version 4.2.0 -  RELEASE  -
|  1> # ORCA input file
|  2> # SCF done       -161.380387299147          0.000864200462
|  3> ! CAM-B3LYP def2-SVP def2/J RIJCOSX Grid4 TightSCF
|  4> %maxcore 5000
|  5> %tddft
|  6>     Mode sTDDFT
|  7>     Ethresh 5.0
|  8>     maxcore 5000
|  9> end
| 10>
| 11> %pal
| 12>   nprocs 6
| 13>   end
| 14> * xyz 0 1
| 15>    C       -2.58102         6.67065        -1.95711
| 16>    S       -1.21918         6.58439        -0.92181
| 17>    C       -1.09096         4.86031        -1.12691
| 18>    C       -2.11343         4.40282        -1.94196
| 19>    C       -2.95676         5.44013        -2.41662
| 20>    O       -4.00525         5.20309        -3.23683
| 21>    O       -2.37784         3.09916        -2.30127
| 22>    C       -2.84260         2.27174        -1.24653
| 23>    C       -0.03400         4.10697        -0.54921
| 24>    C        0.37995         2.77552        -1.01034
| 25>    N        1.36768         2.26014        -0.33874
| 26>    C        1.69083         3.19044         0.60500
| 27>    C        0.84731         4.38444         0.47370
| 28>    C        1.18225         5.33709         1.50219
| 29>    S        0.44235         6.78357         1.77595
| 30>    C        2.24005         4.70492         2.25498
| 31>    C        2.52134         3.37961         1.67930
| 32>    N        3.47319         2.72515         2.40264
| 33>    C        3.75972         3.52228         3.39108
| 34>    C        3.02897         4.79103         3.38536
| 35>    C        3.19705         5.82375         4.36893
| 36>    C        3.62873         5.50254         5.64254
| 37>    C        3.74843         6.50898         6.61428
| 38>    C        4.11934         6.43849         7.95621
| 39>    C        4.49545         5.19559         8.68466
| 40>    C        5.80386         5.34164         9.47627
| 41>    N        6.79976         6.02152         8.66463
| 42>    C        3.33952         4.72861         9.59605
| 43>    N        2.25482         4.24198         8.76679
| 44>    C        4.00824         7.77718         8.48650
| 45>    C        4.16576         8.27228         9.72882
| 46>    C        3.93062         9.70703        10.04085
| 47>    C        3.60239        10.56131         8.85432
| 48>    C        3.41896        10.04898         7.62294
| 49>    C        3.59151         8.66505         7.39060
| 50>    C        3.42946         7.88326         6.26189
| 51>    C        3.02145         8.18543         4.94370
| 52>    C        2.90960         7.18478         4.03230
| 53>    C        2.77401         9.86783        11.00228
| 54>    C        1.77072         8.98679        11.07246
| 55>    C        0.62812         9.08463        11.92462
| 56>    C        0.24794        10.14852        12.85606
| 57>    N       -0.87206         9.93696        13.48809
| 58>    C       -1.32402         8.72834        13.03673
| 59>    C       -0.38844         8.16871        12.05394
| 60>    C       -0.86523         6.89566        11.57721
| 61>    S       -0.10828         5.91259        10.49589
| 62>    C       -2.11087         6.70197        12.26702
| 63>    C       -2.36438         7.84567        13.16410
| 64>    N       -3.54810         7.68586        13.82556
| 65>    C       -4.03538         6.55782        13.40487
| 66>    C       -3.19641         5.86626        12.41307
| 67>    C       -3.52464         4.63365        11.79840
| 68>    S       -2.46775         3.86038        10.64139
| 69>    C       -3.56336         2.55671        10.42342
| 70>    C       -4.68268         2.69341        11.18824
| 71>    C       -4.66963         3.87523        11.97893
| 72>    O       -5.68862         4.19294        12.80615
| 73>    O       -5.77186         1.87599        11.28808
| 74>    C       -5.76849         0.72306        10.47975
| 75>    H       -3.05078         7.61087        -2.15970
| 76>    H       -3.99919         4.25681        -3.44494
| 77>    H       -2.11724         2.20988        -0.43077
| 78>    H       -2.98557         1.28496        -1.68127
| 79>    H       -3.79513         2.64106        -0.85104
| 80>    H       -0.04354         2.25772        -1.85240
| 81>    H        4.51686         3.24493         4.10367
| 82>    H        3.81694         4.47457         5.91180
| 83>    H        4.63920         4.40430         7.94239
| 84>    H        6.11716         4.33570         9.80636
| 85>    H        5.64557         5.94290        10.37418
| 86>    H        6.96353         5.50586         7.80600
| 87>    H        7.68123         6.08165         9.16240
| 88>    H        3.04832         5.55111        10.26814
| 89>    H        3.68957         3.89417        10.21103
| 90>    H        1.84791         5.01012         8.24187
| 91>    H        1.51661         3.85383         9.34337
| 92>    H        4.42840         7.64860        10.57019
| 93>    H        4.83149        10.10208        10.53295
| 94>    H        3.47229        11.61498         9.04873
| 95>    H        3.14941        10.68887         6.79527
| 96>    H        2.79831         9.20614         4.67188
| 97>    H        2.59814         7.40011         3.02334
| 98>    H        2.77039        10.77086        11.59514
| 99>    H        1.79169         8.10045        10.45056
|100>    H        0.80623        11.04982        13.03969
|101>    H       -4.97499         6.18701        13.77092
|102>    H       -3.31034         1.77191         9.74002
|103>    H       -6.35603         3.49583        12.73085
|104>    H       -6.70596         0.21045        10.68603
|105>    H       -4.92833         0.06881        10.73035
|106>    H       -5.71836         0.98631         9.41912
|107> *
|108>
|109>                          ****END OF INPUT****

CARTESIAN COORDINATES (ANGSTROEM)
---------------------------------
  C     -2.581020    6.670650   -1.957110
  S     -1.219180    6.584390   -0.921810
  C     -1.090960    4.860310   -1.126910
  C     -2.113430    4.402820   -1.941960
  C     -2.956760    5.440130   -2.416620
  O     -4.005250    5.203090   -3.236830
  O     -2.377840    3.099160   -2.301270
  C     -2.842600    2.271740   -1.246530
  C     -0.034000    4.106970   -0.549210
  C      0.379950    2.775520   -1.010340
  N      1.367680    2.260140   -0.338740
  C      1.690830    3.190440    0.605000
  C      0.847310    4.384440    0.473700
  C      1.182250    5.337090    1.502190
  S      0.442350    6.783570    1.775950
  C      2.240050    4.704920    2.254980
  C      2.521340    3.379610    1.679300
  N      3.473190    2.725150    2.402640
  C      3.759720    3.522280    3.391080
  C      3.028970    4.791030    3.385360
  C      3.197050    5.823750    4.368930
  C      3.628730    5.502540    5.642540
  C      3.748430    6.508980    6.614280
  C      4.119340    6.438490    7.956210
  C      4.495450    5.195590    8.684660
  C      5.803860    5.341640    9.476270
  N      6.799760    6.021520    8.664630
  C      3.339520    4.728610    9.596050
  N      2.254820    4.241980    8.766790
  C      4.008240    7.777180    8.486500
  C      4.165760    8.272280    9.728820
  C      3.930620    9.707030   10.040850
  C      3.602390   10.561310    8.854320
  C      3.418960   10.048980    7.622940
  C      3.591510    8.665050    7.390600
  C      3.429460    7.883260    6.261890
  C      3.021450    8.185430    4.943700
  C      2.909600    7.184780    4.032300
  C      2.774010    9.867830   11.002280
  C      1.770720    8.986790   11.072460
  C      0.628120    9.084630   11.924620
  C      0.247940   10.148520   12.856060
  N     -0.872060    9.936960   13.488090
  C     -1.324020    8.728340   13.036730
  C     -0.388440    8.168710   12.053940
  C     -0.865230    6.895660   11.577210
  S     -0.108280    5.912590   10.495890
  C     -2.110870    6.701970   12.267020
  C     -2.364380    7.845670   13.164100
  N     -3.548100    7.685860   13.825560
  C     -4.035380    6.557820   13.404870
  C     -3.196410    5.866260   12.413070
  C     -3.524640    4.633650   11.798400
  S     -2.467750    3.860380   10.641390
  C     -3.563360    2.556710   10.423420
  C     -4.682680    2.693410   11.188240
  C     -4.669630    3.875230   11.978930
  O     -5.688620    4.192940   12.806150
  O     -5.771860    1.875990   11.288080
  C     -5.768490    0.723060   10.479750
  H     -3.050780    7.610870   -2.159700
  H     -3.999190    4.256810   -3.444940
  H     -2.117240    2.209880   -0.430770
  H     -2.985570    1.284960   -1.681270
  H     -3.795130    2.641060   -0.851040
  H     -0.043540    2.257720   -1.852400
  H      4.516860    3.244930    4.103670
  H      3.816940    4.474570    5.911800
  H      4.639200    4.404300    7.942390
  H      6.117160    4.335700    9.806360
  H      5.645570    5.942900   10.374180
  H      6.963530    5.505860    7.806000
  H      7.681230    6.081650    9.162400
  H      3.048320    5.551110   10.268140
  H      3.689570    3.894170   10.211030
  H      1.847910    5.010120    8.241870
  H      1.516610    3.853830    9.343370
  H      4.428400    7.648600   10.570190
  H      4.831490   10.102080   10.532950
  H      3.472290   11.614980    9.048730
  H      3.149410   10.688870    6.795270
  H      2.798310    9.206140    4.671880
  H      2.598140    7.400110    3.023340
  H      2.770390   10.770860   11.595140
  H      1.791690    8.100450   10.450560
  H      0.806230   11.049820   13.039690
  H     -4.974990    6.187010   13.770920
  H     -3.310340    1.771910    9.740020
  H     -6.356030    3.495830   12.730850
  H     -6.705960    0.210450   10.686030
  H     -4.928330    0.068810   10.730350
  H     -5.718360    0.986310    9.419120

 Total Charge           Charge          ....    0
 Multiplicity           Mult            ....    1
 Number of Electrons    NEL             ....  446
 Basis Dimension        Dim             .... 1016

ORBITAL ENERGIES
----------------

  NO   OCC          E(Eh)            E(eV)
   0   2.0000     -88.953179     -2420.5391
   1   2.0000     -88.946869     -2420.3674
   2   2.0000     -88.892125     -2418.8777
   3   2.0000     -88.882977     -2418.6288
   4   2.0000     -19.265903      -524.2519
   5   2.0000     -19.263899      -524.1974
   6   2.0000     -19.252835      -523.8963
   7   2.0000     -19.236866      -523.4617
   8   2.0000     -14.408911      -392.0864
   9   2.0000     -14.407743      -392.0546
  10   2.0000     -14.404371      -391.9629
  11   2.0000     -14.402567      -391.9138
  12   2.0000     -14.375420      -391.1751
  13   2.0000     -14.366302      -390.9269
  14   2.0000     -10.347147      -281.5602
  15   2.0000     -10.339913      -281.3633
  16   2.0000     -10.337153      -281.2882
  17   2.0000     -10.334841      -281.2253
  18   2.0000     -10.328858      -281.0625
  19   2.0000     -10.327178      -281.0168
  20   2.0000     -10.327050      -281.0133
  21   2.0000     -10.325518      -280.9716
  22   2.0000     -10.325222      -280.9636
  23   2.0000     -10.323462      -280.9157
  24   2.0000     -10.322674      -280.8942
  25   2.0000     -10.321242      -280.8553
  26   2.0000     -10.320409      -280.8326
  27   2.0000     -10.317327      -280.7487
  28   2.0000     -10.315267      -280.6927
  29   2.0000     -10.313995      -280.6581
  30   2.0000     -10.307861      -280.4912
  31   2.0000     -10.304539      -280.4008
  32   2.0000     -10.300853      -280.3004
  33   2.0000     -10.300437      -280.2891
  34   2.0000     -10.296880      -280.1923
  35   2.0000     -10.295270      -280.1485
  36   2.0000     -10.294973      -280.1405
  37   2.0000     -10.292260      -280.0666
  38   2.0000     -10.291793      -280.0539
  39   2.0000     -10.291488      -280.0456
  40   2.0000     -10.283107      -279.8176
  41   2.0000     -10.281771      -279.7812
  42   2.0000     -10.281734      -279.7802
  43   2.0000     -10.279325      -279.7147
  44   2.0000     -10.277635      -279.6687
  45   2.0000     -10.277578      -279.6671
  46   2.0000     -10.276301      -279.6324
  47   2.0000     -10.276156      -279.6284
  48   2.0000     -10.274165      -279.5742
  49   2.0000     -10.270646      -279.4785
  50   2.0000     -10.267590      -279.3953
  51   2.0000     -10.265599      -279.3411
  52   2.0000     -10.264186      -279.3027
  53   2.0000     -10.259969      -279.1880
  54   2.0000     -10.259593      -279.1777
  55   2.0000     -10.257762      -279.1279
  56   2.0000     -10.257434      -279.1190
  57   2.0000     -10.254128      -279.0290
  58   2.0000     -10.253364      -279.0082
  59   2.0000     -10.252376      -278.9813
  60   2.0000      -8.047823      -218.9924
  61   2.0000      -8.041571      -218.8223
  62   2.0000      -7.987586      -217.3533
  63   2.0000      -7.978931      -217.1177
  64   2.0000      -6.017398      -163.7417
  65   2.0000      -6.013227      -163.6282
  66   2.0000      -6.010932      -163.5658
  67   2.0000      -6.009261      -163.5203
  68   2.0000      -6.006775      -163.4526
  69   2.0000      -6.003483      -163.3631
  70   2.0000      -5.956382      -162.0814
  71   2.0000      -5.955698      -162.0628
  72   2.0000      -5.947812      -161.8482
  73   2.0000      -5.947328      -161.8350
  74   2.0000      -5.947326      -161.8350
  75   2.0000      -5.938190      -161.5864
  76   2.0000      -1.174880       -31.9701
  77   2.0000      -1.155815       -31.4513
  78   2.0000      -1.149743       -31.2861
  79   2.0000      -1.126484       -30.6532
  80   2.0000      -1.074737       -29.2451
  81   2.0000      -1.070572       -29.1317
  82   2.0000      -1.055736       -28.7280
  83   2.0000      -1.051854       -28.6224
  84   2.0000      -0.981300       -26.7025
  85   2.0000      -0.978876       -26.6366
  86   2.0000      -0.970762       -26.4158
  87   2.0000      -0.959156       -26.0999
  88   2.0000      -0.954291       -25.9676
  89   2.0000      -0.948179       -25.8013
  90   2.0000      -0.945799       -25.7365
  91   2.0000      -0.942124       -25.6365
  92   2.0000      -0.914422       -24.8827
  93   2.0000      -0.890944       -24.2438
  94   2.0000      -0.887442       -24.1485
  95   2.0000      -0.877588       -23.8804
  96   2.0000      -0.867165       -23.5967
  97   2.0000      -0.857016       -23.3206
  98   2.0000      -0.845009       -22.9939
  99   2.0000      -0.842282       -22.9197
 100   2.0000      -0.838388       -22.8137
 101   2.0000      -0.831542       -22.6274
 102   2.0000      -0.829677       -22.5766
 103   2.0000      -0.826024       -22.4772
 104   2.0000      -0.820050       -22.3147
 105   2.0000      -0.810717       -22.0607
 106   2.0000      -0.797136       -21.6912
 107   2.0000      -0.788640       -21.4600
 108   2.0000      -0.782500       -21.2929
 109   2.0000      -0.774213       -21.0674
 110   2.0000      -0.763538       -20.7769
 111   2.0000      -0.757064       -20.6007
 112   2.0000      -0.751891       -20.4600
 113   2.0000      -0.738587       -20.0980
 114   2.0000      -0.728832       -19.8325
 115   2.0000      -0.715936       -19.4816
 116   2.0000      -0.709232       -19.2992
 117   2.0000      -0.701108       -19.0781
 118   2.0000      -0.694659       -18.9026
 119   2.0000      -0.684694       -18.6315
 120   2.0000      -0.681895       -18.5553
 121   2.0000      -0.679683       -18.4951
 122   2.0000      -0.678555       -18.4644
 123   2.0000      -0.667449       -18.1622
 124   2.0000      -0.664192       -18.0736
 125   2.0000      -0.652056       -17.7434
 126   2.0000      -0.649599       -17.6765
 127   2.0000      -0.643391       -17.5076
 128   2.0000      -0.638434       -17.3727
 129   2.0000      -0.630624       -17.1602
 130   2.0000      -0.623759       -16.9734
 131   2.0000      -0.621484       -16.9114
 132   2.0000      -0.609423       -16.5833
 133   2.0000      -0.606517       -16.5042
 134   2.0000      -0.602551       -16.3962
 135   2.0000      -0.594112       -16.1666
 136   2.0000      -0.585817       -15.9409
 137   2.0000      -0.580237       -15.7890
 138   2.0000      -0.574179       -15.6242
 139   2.0000      -0.571222       -15.5437
 140   2.0000      -0.570441       -15.5225
 141   2.0000      -0.566272       -15.4090
 142   2.0000      -0.565105       -15.3773
 143   2.0000      -0.560354       -15.2480
 144   2.0000      -0.553944       -15.0736
 145   2.0000      -0.550711       -14.9856
 146   2.0000      -0.545080       -14.8324
 147   2.0000      -0.543287       -14.7836
 148   2.0000      -0.540250       -14.7010
 149   2.0000      -0.536745       -14.6056
 150   2.0000      -0.534739       -14.5510
 151   2.0000      -0.533013       -14.5040
 152   2.0000      -0.527148       -14.3444
 153   2.0000      -0.526849       -14.3363
 154   2.0000      -0.525433       -14.2978
 155   2.0000      -0.522841       -14.2272
 156   2.0000      -0.515694       -14.0328
 157   2.0000      -0.515366       -14.0238
 158   2.0000      -0.512469       -13.9450
 159   2.0000      -0.511187       -13.9101
 160   2.0000      -0.505698       -13.7607
 161   2.0000      -0.499266       -13.5857
 162   2.0000      -0.496137       -13.5006
 163   2.0000      -0.494759       -13.4631
 164   2.0000      -0.491711       -13.3801
 165   2.0000      -0.490014       -13.3340
 166   2.0000      -0.488079       -13.2813
 167   2.0000      -0.480329       -13.0704
 168   2.0000      -0.479583       -13.0501
 169   2.0000      -0.478867       -13.0306
 170   2.0000      -0.477077       -12.9819
 171   2.0000      -0.476121       -12.9559
 172   2.0000      -0.471448       -12.8287
 173   2.0000      -0.469553       -12.7772
 174   2.0000      -0.466843       -12.7034
 175   2.0000      -0.464780       -12.6473
 176   2.0000      -0.462429       -12.5833
 177   2.0000      -0.458339       -12.4720
 178   2.0000      -0.449820       -12.2402
 179   2.0000      -0.447862       -12.1869
 180   2.0000      -0.446730       -12.1561
 181   2.0000      -0.442494       -12.0409
 182   2.0000      -0.438146       -11.9226
 183   2.0000      -0.435678       -11.8554
 184   2.0000      -0.434365       -11.8197
 185   2.0000      -0.431657       -11.7460
 186   2.0000      -0.425909       -11.5896
 187   2.0000      -0.425127       -11.5683
 188   2.0000      -0.423774       -11.5315
 189   2.0000      -0.422760       -11.5039
 190   2.0000      -0.419654       -11.4194
 191   2.0000      -0.415495       -11.3062
 192   2.0000      -0.413429       -11.2500
 193   2.0000      -0.412631       -11.2283
 194   2.0000      -0.410421       -11.1681
 195   2.0000      -0.407239       -11.0815
 196   2.0000      -0.403069       -10.9681
 197   2.0000      -0.388865       -10.5815
 198   2.0000      -0.386517       -10.5177
 199   2.0000      -0.377960       -10.2848
 200   2.0000      -0.373476       -10.1628
 201   2.0000      -0.357680        -9.7330
 202   2.0000      -0.356204        -9.6928
 203   2.0000      -0.347790        -9.4638
 204   2.0000      -0.347116        -9.4455
 205   2.0000      -0.344932        -9.3861
 206   2.0000      -0.343316        -9.3421
 207   2.0000      -0.341792        -9.3006
 208   2.0000      -0.337516        -9.1843
 209   2.0000      -0.321278        -8.7424
 210   2.0000      -0.311107        -8.4656
 211   2.0000      -0.304408        -8.2834
 212   2.0000      -0.298483        -8.1221
 213   2.0000      -0.293412        -7.9842
 214   2.0000      -0.288860        -7.8603
 215   2.0000      -0.288104        -7.8397
 216   2.0000      -0.285057        -7.7568
 217   2.0000      -0.279161        -7.5964
 218   2.0000      -0.277008        -7.5378
 219   2.0000      -0.265988        -7.2379
 220   2.0000      -0.264224        -7.1899
 221   2.0000      -0.258059        -7.0221
 222   2.0000      -0.212942        -5.7944
 223   0.0000      -0.100982        -2.7479
 224   0.0000      -0.099063        -2.6957
 225   0.0000      -0.072313        -1.9677
 226   0.0000      -0.071734        -1.9520
 227   0.0000      -0.051190        -1.3930

MULLIKEN ATOMIC CHARGES
-----------------------
   0 C :   -0.168758
   1 S :    0.192004
   2 C :   -0.177275
   3 C :    0.104938
   4 C :    0.175970
   5 O :   -0.182371
   6 O :   -0.361404
   7 C :    0.185947
   8 C :   -0.008848
   9 C :    0.032451
  10 N :   -0.024882
  11 C :    0.011190
  12 C :   -0.032480
  13 C :   -0.013828
  14 S :   -0.135266
  15 C :   -0.021470
  16 C :   -0.009042
  17 N :   -0.030697
  18 C :    0.049890
  19 C :    0.006898
  20 C :    0.075724
  21 C :   -0.109731
  22 C :    0.040122
  23 C :   -0.018366
  24 C :   -0.073614
  25 C :    0.150030
  26 N :   -0.209460
  27 C :    0.160924
  28 N :   -0.226781
  29 C :    0.135834
  30 C :   -0.160934
  31 C :    0.168673
  32 C :   -0.034817
  33 C :    0.021399
  34 C :    0.007208
  35 C :    0.049390
  36 C :   -0.013684
  37 C :    0.022241
  38 C :   -0.090820
  39 C :    0.012810
  40 C :    0.015943
  41 C :    0.047345
  42 N :   -0.028651
  43 C :    0.015493
  44 C :   -0.006509
  45 C :    0.005463
  46 S :   -0.167400
  47 C :   -0.048305
  48 C :   -0.009696
  49 N :   -0.019033
  50 C :    0.057354
  51 C :    0.029576
  52 C :   -0.210885
  53 S :    0.176115
  54 C :   -0.193854
  55 C :    0.215291
  56 C :    0.129013
  57 O :   -0.177902
  58 O :   -0.342416
  59 C :    0.179699
  60 H :    0.018311
  61 H :    0.180250
  62 H :    0.038139
  63 H :    0.038607
  64 H :    0.022091
  65 H :    0.017885
  66 H :    0.004929
  67 H :   -0.027627
  68 H :   -0.020247
  69 H :   -0.012938
  70 H :   -0.018186
  71 H :    0.090999
  72 H :    0.088072
  73 H :   -0.023245
  74 H :   -0.014009
  75 H :    0.103658
  76 H :    0.094957
  77 H :   -0.003925
  78 H :    0.027005
  79 H :   -0.016268
  80 H :   -0.035996
  81 H :   -0.038249
  82 H :   -0.030102
  83 H :   -0.000641
  84 H :    0.018935
  85 H :    0.001176
  86 H :    0.017860
  87 H :    0.022312
  88 H :    0.192241
  89 H :    0.040810
  90 H :    0.028092
  91 H :    0.029345
Sum of atomic charges:   -0.0000000

LOEWDIN ATOMIC CHARGES
----------------------
   0 C :   -0.222273
   1 S :    0.482291
   2 C :   -0.206719
   3 C :   -0.021308
   4 C :   -0.010656
   5 O :   -0.058434
   6 O :   -0.137421
   7 C :    0.081216
   8 C :   -0.050591
   9 C :    0.075454
  10 N :   -0.081375
  11 C :    0.028014
  12 C :   -0.054033
  13 C :   -0.138022
  14 S :    0.053080
  15 C :   -0.054517
  16 C :    0.035399
  17 N :   -0.082627
  18 C :    0.083943
  19 C :   -0.018065
  20 C :   -0.032389
  21 C :    0.004990
  22 C :   -0.027357
  23 C :   -0.010425
  24 C :   -0.041881
  25 C :    0.024423
  26 N :   -0.116616
  27 C :    0.029912
  28 N :   -0.116573
  29 C :   -0.009134
  30 C :    0.073239
  31 C :   -0.030458
  32 C :   -0.032622
  33 C :   -0.015379
  34 C :   -0.036548
  35 C :   -0.026851
  36 C :   -0.010229
  37 C :   -0.017873
  38 C :    0.013639
  39 C :   -0.028723
  40 C :   -0.033646
  41 C :    0.078954
  42 N :   -0.081099
  43 C :    0.025731
  44 C :   -0.040631
  45 C :   -0.136347
  46 S :    0.035288
  47 C :   -0.065270
  48 C :    0.041989
  49 N :   -0.077490
  50 C :    0.093031
  51 C :   -0.032833
  52 C :   -0.217909
  53 S :    0.463644
  54 C :   -0.228651
  55 C :   -0.024258
  56 C :    0.018092
  57 O :   -0.040021
  58 O :   -0.121071
  59 C :    0.082512
  60 H :    0.026920
  61 H :    0.089873
  62 H :    0.016461
  63 H :    0.026939
  64 H :    0.016976
  65 H :    0.024861
  66 H :    0.023284
  67 H :    0.024973
  68 H :    0.024963
  69 H :    0.000923
  70 H :    0.009424
  71 H :    0.053521
  72 H :    0.053610
  73 H :   -0.006909
  74 H :    0.013224
  75 H :    0.050855
  76 H :    0.046649
  77 H :    0.027631
  78 H :    0.054842
  79 H :    0.022572
  80 H :    0.030476
  81 H :    0.027468
  82 H :    0.013799
  83 H :    0.023204
  84 H :    0.030283
  85 H :    0.021391
  86 H :    0.024870
  87 H :    0.024962
  88 H :    0.099064
  89 H :    0.030167
  90 H :    0.017904
  91 H :    0.018306

  Mayer bond orders larger than 0.100000
B(  0-C ,  1-S ) :   1.1351 B(  0-C ,  2-C ) :   0.1089 B(  0-C ,  4-C ) :   1.5051
B(  0-C , 60-H ) :   0.9724 B(  1-S ,  2-C ) :   1.1570 B(  2-C ,  3-C ) :   1.4314
B(  2-C ,  8-C ) :   1.1244 B(  3-C ,  4-C ) :   1.2391 B(  3-C ,  6-O ) :   1.1095
B(  4-C ,  5-O ) :   1.2501 B(  5-O , 61-H ) :   0.9486 B(  6-O ,  7-C ) :   0.9252
B(  7-C , 62-H ) :   0.9699 B(  7-C , 63-H ) :   0.9826 B(  7-C , 64-H ) :   0.9689
B(  8-C ,  9-C ) :   1.0336 B(  8-C , 12-C ) :   1.5195 B(  9-C , 10-N ) :   1.7230
B(  9-C , 65-H ) :   0.9865 B( 10-N , 11-C ) :   1.2638 B( 11-C , 12-C ) :   1.0746
B( 11-C , 16-C ) :   1.5156 B( 12-C , 13-C ) :   1.0406 B( 13-C , 14-S ) :   1.6854
B( 13-C , 15-C ) :   1.0367 B( 15-C , 16-C ) :   1.0727 B( 15-C , 19-C ) :   1.5227
B( 16-C , 17-N ) :   1.2628 B( 17-N , 18-C ) :   1.7250 B( 18-C , 19-C ) :   1.0391
B( 18-C , 66-H ) :   0.9858 B( 19-C , 20-C ) :   1.0241 B( 20-C , 21-C ) :   1.4823
B( 20-C , 37-C ) :   1.1425 B( 21-C , 22-C ) :   1.1452 B( 21-C , 67-H ) :   0.9909
B( 22-C , 23-C ) :   1.4798 B( 22-C , 35-C ) :   1.1137 B( 23-C , 24-C ) :   1.0397
B( 23-C , 29-C ) :   1.0793 B( 24-C , 25-C ) :   1.0419 B( 24-C , 27-C ) :   1.0379
B( 24-C , 68-H ) :   0.8785 B( 25-C , 26-N ) :   1.0993 B( 25-C , 69-H ) :   0.9363
B( 25-C , 70-H ) :   0.9301 B( 26-N , 71-H ) :   0.9694 B( 26-N , 72-H ) :   0.9679
B( 27-C , 28-N ) :   1.1047 B( 27-C , 73-H ) :   0.9218 B( 27-C , 74-H ) :   0.9353
B( 28-N , 75-H ) :   0.9685 B( 28-N , 76-H ) :   0.9679 B( 29-C , 30-C ) :   1.6436
B( 29-C , 34-C ) :   1.0648 B( 30-C , 31-C ) :   0.9756 B( 30-C , 77-H ) :   0.9770
B( 31-C , 32-C ) :   0.9845 B( 31-C , 38-C ) :   0.9568 B( 31-C , 78-H ) :   0.8646
B( 32-C , 33-C ) :   1.7333 B( 32-C , 79-H ) :   0.9652 B( 33-C , 34-C ) :   1.1323
B( 33-C , 80-H ) :   0.9861 B( 34-C , 35-C ) :   1.4392 B( 35-C , 36-C ) :   1.1339
B( 36-C , 37-C ) :   1.6106 B( 36-C , 81-H ) :   0.9938 B( 37-C , 82-H ) :   0.9674
B( 38-C , 39-C ) :   1.7923 B( 38-C , 83-H ) :   0.9702 B( 39-C , 40-C ) :   1.0838
B( 39-C , 84-H ) :   0.9503 B( 40-C , 41-C ) :   1.0156 B( 40-C , 44-C ) :   1.5318
B( 41-C , 42-N ) :   1.7317 B( 41-C , 85-H ) :   0.9904 B( 42-N , 43-C ) :   1.2580
B( 43-C , 44-C ) :   1.0741 B( 43-C , 48-C ) :   1.5313 B( 44-C , 45-C ) :   1.0336
B( 45-C , 46-S ) :   1.6757 B( 45-C , 47-C ) :   1.0456 B( 47-C , 48-C ) :   1.0773
B( 47-C , 51-C ) :   1.5057 B( 48-C , 49-N ) :   1.2576 B( 49-N , 50-C ) :   1.7225
B( 50-C , 51-C ) :   1.0299 B( 50-C , 86-H ) :   0.9809 B( 51-C , 52-C ) :   1.1682
B( 52-C , 53-S ) :   1.1162 B( 52-C , 56-C ) :   1.4527 B( 53-S , 54-C ) :   1.1121
B( 54-C , 55-C ) :   1.4818 B( 54-C , 87-H ) :   0.9820 B( 55-C , 56-C ) :   1.2222
B( 55-C , 58-O ) :   1.1221 B( 56-C , 57-O ) :   1.2588 B( 57-O , 88-H ) :   0.9397
B( 58-O , 59-C ) :   0.9523 B( 59-C , 89-H ) :   0.9815 B( 59-C , 90-H ) :   0.9705
B( 59-C , 91-H ) :   0.9703

-----------------------------------------------------------------------------
         ABSORPTION SPECTRUM VIA TRANSITION ELECTRIC DIPOLE MOMENTS
-----------------------------------------------------------------------------
State   Energy  Wavelength   fosc         T2         TX        TY        TZ
        (cm-1)    (nm)                  (au**2)     (au)      (au)      (au)
-----------------------------------------------------------------------------
   0   10001.0    999.9   0.124562783   4.10035  -0.59726  -0.32506  -1.90735
   1   11373.3    879.3   0.029250914   0.84670   0.77595   0.14616  -0.47249
   2   13627.5    733.8   0.029881760   0.72188   0.12385  -0.80139  -0.25360
   3   14815.8    675.0   0.014763445   0.32805   0.05238  -0.42846  -0.37646
   4   15828.8    631.8   0.019861215   0.41308  -0.30935   0.07289   0.55863
   5   16828.8    594.2   0.043385625   0.84873   0.60728   0.52559  -0.45132
   6   16942.7    590.2   0.021127060   0.41052  -0.28673  -0.42138  -0.38826
   7   16992.5    588.5   0.082060375   1.58984   0.73634   0.95466   0.36913
   8   17229.6    580.4   0.091822876   1.75449   0.88815  -0.40317   0.89618
   9   18285.4    546.9   0.129929004   2.33926  -0.47147  -0.75734  -1.24234
  10   18790.0    532.2   0.000448744   0.00786   0.05993   0.06179   0.02126
  11   20355.9    491.3   0.019908090   0.32197   0.09132  -0.14648  -0.54053
  12   20425.8    489.6   0.009812016   0.15814   0.35308   0.16189  -0.08528
  13   22979.2    435.2   0.009351059   0.13397   0.19784   0.10692  -0.28878
  14   23202.7    431.0   0.106301353   1.50826   0.64738  -0.33321   0.98900
  15   23579.3    424.1   0.161683218   2.25740   1.01638   1.10637  -0.01809
  16   24106.5    414.8   0.057686993   0.78781   0.73904  -0.22154   0.43881
  17   25379.7    394.0   0.421057135   5.46173  -0.94194  -0.21828  -2.12764
  18   25530.3    391.7   0.021686090   0.27964   0.35631   0.07257   0.38395
  19   25984.6    384.8   0.001293300   0.01639  -0.02514  -0.11149  -0.05766
  20   26131.3    382.7   0.021432555   0.27002   0.46650   0.21822   0.06908
  21   26190.1    381.8   0.012465679   0.15669   0.36494   0.00939  -0.15306
  22   26268.6    380.7   0.038972581   0.48843   0.08540   0.01732   0.69342
  23   26470.5    377.8   0.032739678   0.40718   0.04036  -0.10293  -0.62846
  24   26540.7    376.8   0.022468258   0.27870  -0.42187  -0.26866  -0.16895
  25   26620.0    375.7   0.071893139   0.88911  -0.67291  -0.65707   0.06752
  26   26975.6    370.7   0.050898100   0.62116  -0.05966  -0.13488  -0.77422
  27   27146.2    368.4   0.087889511   1.06587  -0.05673   0.11903   1.02395
  28   27416.8    364.7   0.087214525   1.04724   0.42986  -0.04870   0.92741
  29   27454.3    364.2   0.217364817   2.60648   0.71715   0.09580   1.44326
  30   28203.4    354.6   0.018419121   0.21500   0.39477   0.07515   0.23133
  31   28436.9    351.7   0.344411380   3.98722   1.35821   1.40785   0.40054
  32   28602.2    349.6   0.010136514   0.11667   0.12885   0.31099   0.05791
  33   28956.6    345.3   0.072966752   0.82957   0.78595   0.22005  -0.40427
  34   29043.9    344.3   0.089504320   1.01453  -0.78753  -0.62795   0.00113
  35   29322.4    341.0   0.258532503   2.90263  -1.38970  -0.95466   0.24493
  36   29481.5    339.2   0.127545158   1.42426  -0.83989  -0.68608  -0.49814
  37   29776.3    335.8   0.051736693   0.57201   0.33683   0.52748   0.42464
  38   30612.2    326.7   0.008442562   0.09079   0.10579   0.25982   0.10998
  39   30792.8    324.8   0.009561472   0.10222   0.22496   0.22186  -0.04894
  40   30963.6    323.0   0.001228436   0.01306  -0.06526   0.00665  -0.09358
  41   31003.2    322.5   0.001096369   0.01164   0.08688   0.06259   0.01329
  42   31246.0    320.0   0.008025856   0.08456   0.17632   0.23053  -0.01814
  43   31308.7    319.4   0.001577717   0.01659   0.02637   0.00779   0.12583
  44   31492.0    317.5   0.001025235   0.01072  -0.04979   0.00601  -0.09057
  45   31553.1    316.9   0.009775009   0.10199  -0.23547  -0.21574   0.00060
  46   32573.5    307.0   0.002772063   0.02802  -0.09616   0.13067  -0.04116
  47   32854.2    304.4   0.027744727   0.27801   0.26447   0.23363   0.39177
  48   32901.4    303.9   0.017070726   0.17081  -0.14748  -0.05899  -0.38155
  49   33059.0    302.5   0.001130289   0.01126  -0.02227   0.01099   0.10315
  50   33418.9    299.2   0.025485943   0.25106  -0.19947  -0.25741  -0.38081
  51   33627.6    297.4   0.048319142   0.47304  -0.09413  -0.29425  -0.61449
  52   33807.6    295.8   0.045733657   0.44535  -0.08607  -0.39908  -0.52789
  53   34421.9    290.5   0.064738906   0.61917   0.12517   0.30143   0.71599
  54   34771.9    287.6   0.012258355   0.11606  -0.08271  -0.00877  -0.33037
  55   35513.4    281.6   0.003299806   0.03059   0.16166  -0.05427  -0.03885
  56   35626.4    280.7   0.060462199   0.55871   0.24238   0.06248   0.70432
  57   35732.8    279.9   0.228550960   2.10568  -0.45415   1.14127   0.77261
  58   35970.5    278.0   0.035337300   0.32342  -0.16936  -0.18376  -0.51085
  59   36043.3    277.4   0.003397573   0.03103  -0.06515   0.12015   0.11114
  60   36218.1    276.1   0.000019264   0.00018  -0.01152   0.00648  -0.00069
  61   36285.8    275.6   0.004798247   0.04353   0.09567  -0.00661   0.18530
  62   36307.4    275.4   0.004012553   0.03638  -0.15027   0.10877  -0.04439
  63   36491.1    274.0   0.009167399   0.08271  -0.26353   0.09230   0.06882
  64   36579.4    273.4   0.006212327   0.05591   0.09560   0.07522   0.20277
  65   36814.1    271.6   0.002483010   0.02220   0.06201   0.06908   0.11656
  66   36954.7    270.6   0.242738188   2.16244  -0.58801  -1.24419  -0.51833
  67   37084.4    269.7   0.012812893   0.11374   0.15507   0.23188   0.18956
  68   37169.9    269.0   0.001535065   0.01360  -0.10707   0.02289   0.04010
  69   37611.9    265.9   0.122312031   1.07058   0.66748  -0.14628   0.77696
  70   37706.2    265.2   0.183666312   1.60359  -0.73719  -0.37628  -0.95841
  71   38198.9    261.8   0.015181331   0.13084   0.34592  -0.08065  -0.06838
  72   38447.2    260.1   0.284170054   2.43326   1.08116  -0.45352  -1.02892
  73   38680.1    258.5   0.036383663   0.30967   0.41851  -0.36666  -0.00867
  74   39250.5    254.8   0.153673736   1.28893   0.31639  -0.98459  -0.46842
  75   39515.1    253.1   0.096443941   0.80350   0.25797  -0.65485  -0.55509
  76   39817.9    251.1   0.006203094   0.05129   0.20711  -0.06264  -0.06683
  77   39836.0    251.0   0.004947690   0.04089  -0.01533   0.17866   0.09345
  78   39988.3    250.1   0.049276150   0.40568  -0.19558   0.59898  -0.09297
  79   40296.5    248.2   0.049579329   0.40505   0.04539  -0.48920  -0.40457

FINAL SINGLE POINT ENERGY     -3990.557792246800

DIPOLE MOMENT
-------------
                                X             Y             Z
Electronic contribution:    -21.23546      10.90940     -16.93369
Nuclear contribution   :     20.40428     -12.55779      18.31179
                        -----------------------------------------
Total Dipole Moment    :     -0.83118      -1.64839       1.37810
                        -----------------------------------------
Magnitude (a.u.)       :      2.30373
Magnitude (Debye)      :      5.85563

Rotational constants in cm-1:     0.001305     0.000599     0.000482
Rotational constants in MHz :    39.120202    17.959854    14.435561

                             ****ORCA TERMINATED NORMALLY****
TOTAL RUN TIME: 0 days 0 hours 7 minutes 50 seconds 74 msec
