                         Program Version 4.2.0 -  RELEASE  -
|  1> # ORCA input file
|  2> # SCF done       -152.009696987148          0.000593770665
|  3> ! CAM-B3LYP def2-SVP def2/J RIJCOSX Grid4 TightSCF
|  4> %maxcore 5000
|  5> %tddft
|  6>     Mode sTDDFT
|  7>     Ethresh 5.0
|  8>     maxcore 5000
|  9> end
| 10>
| 11> %pal
| 12>   nprocs 6
| 13>   end
| 14> * xyz 0 1
| 15>    C        6.74045        13.55308         5.23617
| 16>    O        7.02082        12.64054         6.27795
| 17>    C        7.84819        11.59722         6.02971
| 18>    C        8.15517        10.72919         7.04009
| 19>    S        9.21308         9.47382         6.55369
| 20>    C        9.27614        10.10064         4.92963
| 21>    C       10.06224         9.49878         3.90272
| 22>    C       10.83080         8.41351         4.08392
| 23>    N       11.62631         7.82821         3.11160
| 24>    C       12.43367         6.76047         3.35263
| 25>    C       13.12080         6.43497         2.21060
| 26>    C       14.10334         5.46296         1.84441
| 27>    O       14.63097         4.57316         2.44312
| 28>    S       14.50187         5.82725         0.07430
| 29>    C       13.37199         7.16699        -0.02705
| 30>    C       13.26681         7.86945        -1.24984
| 31>    C       12.37072         8.86493        -1.47721
| 32>    C       12.26505         9.58560        -2.68392
| 33>    S       13.35251         9.39341        -4.03244
| 34>    C       12.54029        10.60025        -4.97319
| 35>    C       13.04440        10.93614        -6.26094
| 36>    C       12.46483        11.81419        -7.10498
| 37>    N       12.96714        12.17373        -8.33078
| 38>    C       12.30206        13.00224        -9.19268
| 39>    C       13.05897        13.19731       -10.31132
| 40>    C       12.95391        13.98817       -11.50561
| 41>    O       12.09377        14.70166       -11.92637
| 42>    S       14.54067        13.72267       -12.40625
| 43>    C       15.16143        12.59100       -11.21114
| 44>    C       16.42160        11.98111       -11.41087
| 45>    S       17.65674        12.77836       -12.34401
| 46>    C       18.75332        11.50134       -12.03448
| 47>    C       18.21137        10.48952       -11.29672
| 48>    O       18.87605         9.35764       -10.93759
| 49>    C       16.85088        10.74221       -10.93693
| 50>    O       15.98464         9.92801       -10.33228
| 51>    C       16.45646         8.75158        -9.70375
| 52>    C       14.27603        12.44682       -10.16884
| 53>    C       14.25309        11.81474        -8.87224
| 54>    O       15.07960        11.17418        -8.26546
| 55>    C       11.45954        11.11211        -4.25802
| 56>    O       10.65639        12.07207        -4.80090
| 57>    C        9.60461        12.64606        -4.19941
| 58>    O        8.97548        13.46916        -4.80308
| 59>    C        9.18585        12.28481        -2.77840
| 60>    O        8.25708        12.83646        -2.25923
| 61>    S       10.05041        11.03255        -1.86308
| 62>    C       11.31265        10.55439        -2.98195
| 63>    C       12.72632         7.34911         1.18057
| 64>    C       11.75145         8.24852         1.75727
| 65>    O       11.12908         9.17521         1.27086
| 66>    C        8.49350        11.23353         4.80734
| 67>    O        8.34148        11.94103         3.65918
| 68>    H        6.07702        14.29490         5.67784
| 69>    H        6.23879        13.06492         4.39800
| 70>    H        7.64853        14.04173         4.87597
| 71>    H        7.80129        10.77696         8.04876
| 72>    H       10.03803         9.95968         2.92543
| 73>    H       10.88148         7.92540         5.04794
| 74>    H       12.47488         6.30154         4.32293
| 75>    H       13.94664         7.56981        -2.03713
| 76>    H       11.67607         9.15108        -0.69741
| 77>    H       13.96527        10.44969        -6.54473
| 78>    H       11.53258        12.30197        -6.85659
| 79>    H       11.33584        13.40241        -8.94589
| 80>    H       19.75308        11.55112       -12.42102
| 81>    H       19.78565         9.40224       -11.25450
| 82>    H       15.57900         8.30563        -9.24009
| 83>    H       17.19305         8.98896        -8.93487
| 84>    H       16.89127         8.05890       -10.42689
| 85>    H        8.84005        11.52504         2.94459
| 86> *
| 87>
| 88>                          ****END OF INPUT****

CARTESIAN COORDINATES (ANGSTROEM)
---------------------------------
  C      6.740450   13.553080    5.236170
  O      7.020820   12.640540    6.277950
  C      7.848190   11.597220    6.029710
  C      8.155170   10.729190    7.040090
  S      9.213080    9.473820    6.553690
  C      9.276140   10.100640    4.929630
  C     10.062240    9.498780    3.902720
  C     10.830800    8.413510    4.083920
  N     11.626310    7.828210    3.111600
  C     12.433670    6.760470    3.352630
  C     13.120800    6.434970    2.210600
  C     14.103340    5.462960    1.844410
  O     14.630970    4.573160    2.443120
  S     14.501870    5.827250    0.074300
  C     13.371990    7.166990   -0.027050
  C     13.266810    7.869450   -1.249840
  C     12.370720    8.864930   -1.477210
  C     12.265050    9.585600   -2.683920
  S     13.352510    9.393410   -4.032440
  C     12.540290   10.600250   -4.973190
  C     13.044400   10.936140   -6.260940
  C     12.464830   11.814190   -7.104980
  N     12.967140   12.173730   -8.330780
  C     12.302060   13.002240   -9.192680
  C     13.058970   13.197310  -10.311320
  C     12.953910   13.988170  -11.505610
  O     12.093770   14.701660  -11.926370
  S     14.540670   13.722670  -12.406250
  C     15.161430   12.591000  -11.211140
  C     16.421600   11.981110  -11.410870
  S     17.656740   12.778360  -12.344010
  C     18.753320   11.501340  -12.034480
  C     18.211370   10.489520  -11.296720
  O     18.876050    9.357640  -10.937590
  C     16.850880   10.742210  -10.936930
  O     15.984640    9.928010  -10.332280
  C     16.456460    8.751580   -9.703750
  C     14.276030   12.446820  -10.168840
  C     14.253090   11.814740   -8.872240
  O     15.079600   11.174180   -8.265460
  C     11.459540   11.112110   -4.258020
  O     10.656390   12.072070   -4.800900
  C      9.604610   12.646060   -4.199410
  O      8.975480   13.469160   -4.803080
  C      9.185850   12.284810   -2.778400
  O      8.257080   12.836460   -2.259230
  S     10.050410   11.032550   -1.863080
  C     11.312650   10.554390   -2.981950
  C     12.726320    7.349110    1.180570
  C     11.751450    8.248520    1.757270
  O     11.129080    9.175210    1.270860
  C      8.493500   11.233530    4.807340
  O      8.341480   11.941030    3.659180
  H      6.077020   14.294900    5.677840
  H      6.238790   13.064920    4.398000
  H      7.648530   14.041730    4.875970
  H      7.801290   10.776960    8.048760
  H     10.038030    9.959680    2.925430
  H     10.881480    7.925400    5.047940
  H     12.474880    6.301540    4.322930
  H     13.946640    7.569810   -2.037130
  H     11.676070    9.151080   -0.697410
  H     13.965270   10.449690   -6.544730
  H     11.532580   12.301970   -6.856590
  H     11.335840   13.402410   -8.945890
  H     19.753080   11.551120  -12.421020
  H     19.785650    9.402240  -11.254500
  H     15.579000    8.305630   -9.240090
  H     17.193050    8.988960   -8.934870
  H     16.891270    8.058900  -10.426890
  H      8.840050   11.525040    2.944590

 Total Charge           Charge          ....    0
 Multiplicity           Mult            ....    1
 Number of Electrons    NEL             ....  420
 Basis Dimension        Dim             ....  856

ORBITAL ENERGIES
----------------

  NO   OCC          E(Eh)            E(eV)
   0   2.0000     -88.982197     -2421.3287
   1   2.0000     -88.981500     -2421.3097
   2   2.0000     -88.967277     -2420.9227
   3   2.0000     -88.944538     -2420.3039
   4   2.0000     -88.942709     -2420.2542
   5   2.0000     -88.942694     -2420.2537
   6   2.0000     -19.318303      -525.6777
   7   2.0000     -19.266377      -524.2648
   8   2.0000     -19.259475      -524.0770
   9   2.0000     -19.251550      -523.8613
  10   2.0000     -19.249569      -523.8074
  11   2.0000     -19.239856      -523.5431
  12   2.0000     -19.229915      -523.2726
  13   2.0000     -19.218654      -522.9662
  14   2.0000     -19.215552      -522.8818
  15   2.0000     -19.214728      -522.8593
  16   2.0000     -19.209113      -522.7065
  17   2.0000     -14.487662      -394.2293
  18   2.0000     -14.486492      -394.1975
  19   2.0000     -10.442853      -284.1645
  20   2.0000     -10.418250      -283.4950
  21   2.0000     -10.394528      -282.8495
  22   2.0000     -10.391234      -282.7599
  23   2.0000     -10.387137      -282.6484
  24   2.0000     -10.384530      -282.5774
  25   2.0000     -10.370937      -282.2075
  26   2.0000     -10.358094      -281.8581
  27   2.0000     -10.352975      -281.7188
  28   2.0000     -10.344706      -281.4938
  29   2.0000     -10.343875      -281.4712
  30   2.0000     -10.342753      -281.4406
  31   2.0000     -10.340853      -281.3889
  32   2.0000     -10.340103      -281.3685
  33   2.0000     -10.335936      -281.2551
  34   2.0000     -10.335800      -281.2514
  35   2.0000     -10.332390      -281.1586
  36   2.0000     -10.328160      -281.0435
  37   2.0000     -10.322858      -280.8993
  38   2.0000     -10.320633      -280.8387
  39   2.0000     -10.317339      -280.7491
  40   2.0000     -10.311285      -280.5843
  41   2.0000     -10.308185      -280.5000
  42   2.0000     -10.308087      -280.4973
  43   2.0000     -10.303846      -280.3819
  44   2.0000     -10.298353      -280.2324
  45   2.0000     -10.291173      -280.0371
  46   2.0000     -10.287727      -279.9433
  47   2.0000     -10.283746      -279.8350
  48   2.0000     -10.283487      -279.8279
  49   2.0000     -10.282978      -279.8141
  50   2.0000     -10.282934      -279.8129
  51   2.0000     -10.280294      -279.7410
  52   2.0000     -10.275353      -279.6066
  53   2.0000      -8.077736      -219.8064
  54   2.0000      -8.077591      -219.8024
  55   2.0000      -8.062920      -219.4032
  56   2.0000      -8.042091      -218.8364
  57   2.0000      -8.040227      -218.7857
  58   2.0000      -8.038513      -218.7391
  59   2.0000      -6.047442      -164.5593
  60   2.0000      -6.046861      -164.5435
  61   2.0000      -6.043143      -164.4423
  62   2.0000      -6.042984      -164.4380
  63   2.0000      -6.039416      -164.3409
  64   2.0000      -6.038631      -164.3195
  65   2.0000      -6.032458      -164.1515
  66   2.0000      -6.028396      -164.0410
  67   2.0000      -6.024399      -163.9322
  68   2.0000      -6.011587      -163.5836
  69   2.0000      -6.009583      -163.5291
  70   2.0000      -6.007922      -163.4839
  71   2.0000      -6.007535      -163.4733
  72   2.0000      -6.005675      -163.4227
  73   2.0000      -6.004043      -163.3783
  74   2.0000      -6.003083      -163.3522
  75   2.0000      -6.001399      -163.3064
  76   2.0000      -6.000152      -163.2724
  77   2.0000      -1.245917       -33.9031
  78   2.0000      -1.175883       -31.9974
  79   2.0000      -1.173786       -31.9404
  80   2.0000      -1.154725       -31.4217
  81   2.0000      -1.152582       -31.3634
  82   2.0000      -1.149101       -31.2686
  83   2.0000      -1.148851       -31.2618
  84   2.0000      -1.141581       -31.0640
  85   2.0000      -1.141317       -31.0568
  86   2.0000      -1.138088       -30.9689
  87   2.0000      -1.128404       -30.7054
  88   2.0000      -1.085257       -29.5314
  89   2.0000      -1.084948       -29.5229
  90   2.0000      -1.020157       -27.7599
  91   2.0000      -0.998644       -27.1745
  92   2.0000      -0.980787       -26.6886
  93   2.0000      -0.971959       -26.4484
  94   2.0000      -0.967145       -26.3174
  95   2.0000      -0.943648       -25.6780
  96   2.0000      -0.925321       -25.1793
  97   2.0000      -0.914491       -24.8846
  98   2.0000      -0.902304       -24.5529
  99   2.0000      -0.871382       -23.7115
 100   2.0000      -0.864446       -23.5228
 101   2.0000      -0.858556       -23.3625
 102   2.0000      -0.855187       -23.2708
 103   2.0000      -0.842779       -22.9332
 104   2.0000      -0.831283       -22.6204
 105   2.0000      -0.821866       -22.3641
 106   2.0000      -0.818775       -22.2800
 107   2.0000      -0.813939       -22.1484
 108   2.0000      -0.802358       -21.8333
 109   2.0000      -0.786884       -21.4122
 110   2.0000      -0.784195       -21.3390
 111   2.0000      -0.772112       -21.0102
 112   2.0000      -0.767349       -20.8806
 113   2.0000      -0.766398       -20.8547
 114   2.0000      -0.759842       -20.6764
 115   2.0000      -0.737642       -20.0723
 116   2.0000      -0.725608       -19.7448
 117   2.0000      -0.710403       -19.3310
 118   2.0000      -0.708982       -19.2924
 119   2.0000      -0.692795       -18.8519
 120   2.0000      -0.691922       -18.8282
 121   2.0000      -0.676965       -18.4212
 122   2.0000      -0.674330       -18.3495
 123   2.0000      -0.652046       -17.7431
 124   2.0000      -0.646205       -17.5841
 125   2.0000      -0.642071       -17.4716
 126   2.0000      -0.636304       -17.3147
 127   2.0000      -0.631548       -17.1853
 128   2.0000      -0.629219       -17.1219
 129   2.0000      -0.622844       -16.9485
 130   2.0000      -0.616741       -16.7824
 131   2.0000      -0.607154       -16.5215
 132   2.0000      -0.604078       -16.4378
 133   2.0000      -0.603190       -16.4136
 134   2.0000      -0.593596       -16.1526
 135   2.0000      -0.588367       -16.0103
 136   2.0000      -0.585118       -15.9219
 137   2.0000      -0.573234       -15.5985
 138   2.0000      -0.572026       -15.5656
 139   2.0000      -0.570427       -15.5221
 140   2.0000      -0.565978       -15.4010
 141   2.0000      -0.565587       -15.3904
 142   2.0000      -0.562463       -15.3054
 143   2.0000      -0.558501       -15.1976
 144   2.0000      -0.549807       -14.9610
 145   2.0000      -0.544537       -14.8176
 146   2.0000      -0.542863       -14.7720
 147   2.0000      -0.542472       -14.7614
 148   2.0000      -0.540346       -14.7036
 149   2.0000      -0.537316       -14.6211
 150   2.0000      -0.533857       -14.5270
 151   2.0000      -0.528358       -14.3774
 152   2.0000      -0.528106       -14.3705
 153   2.0000      -0.525475       -14.2989
 154   2.0000      -0.518821       -14.1178
 155   2.0000      -0.515923       -14.0390
 156   2.0000      -0.514804       -14.0085
 157   2.0000      -0.511885       -13.9291
 158   2.0000      -0.511115       -13.9081
 159   2.0000      -0.509844       -13.8736
 160   2.0000      -0.506509       -13.7828
 161   2.0000      -0.506004       -13.7691
 162   2.0000      -0.505344       -13.7511
 163   2.0000      -0.503559       -13.7025
 164   2.0000      -0.495649       -13.4873
 165   2.0000      -0.493655       -13.4330
 166   2.0000      -0.490413       -13.3448
 167   2.0000      -0.483419       -13.1545
 168   2.0000      -0.483020       -13.1437
 169   2.0000      -0.476942       -12.9782
 170   2.0000      -0.474748       -12.9185
 171   2.0000      -0.467670       -12.7260
 172   2.0000      -0.465033       -12.6542
 173   2.0000      -0.461943       -12.5701
 174   2.0000      -0.458135       -12.4665
 175   2.0000      -0.454141       -12.3578
 176   2.0000      -0.450986       -12.2719
 177   2.0000      -0.448976       -12.2172
 178   2.0000      -0.445292       -12.1170
 179   2.0000      -0.438174       -11.9233
 180   2.0000      -0.437123       -11.8947
 181   2.0000      -0.433742       -11.8027
 182   2.0000      -0.431963       -11.7543
 183   2.0000      -0.430172       -11.7056
 184   2.0000      -0.424167       -11.5422
 185   2.0000      -0.419878       -11.4255
 186   2.0000      -0.414330       -11.2745
 187   2.0000      -0.410623       -11.1736
 188   2.0000      -0.406022       -11.0484
 189   2.0000      -0.401829       -10.9343
 190   2.0000      -0.401215       -10.9176
 191   2.0000      -0.389672       -10.6035
 192   2.0000      -0.387675       -10.5492
 193   2.0000      -0.375760       -10.2249
 194   2.0000      -0.363394        -9.8885
 195   2.0000      -0.360657        -9.8140
 196   2.0000      -0.352880        -9.6024
 197   2.0000      -0.347676        -9.4607
 198   2.0000      -0.338251        -9.2043
 199   2.0000      -0.335493        -9.1292
 200   2.0000      -0.331623        -9.0239
 201   2.0000      -0.326948        -8.8967
 202   2.0000      -0.316170        -8.6034
 203   2.0000      -0.313067        -8.5190
 204   2.0000      -0.293294        -7.9809
 205   2.0000      -0.289034        -7.8650
 206   2.0000      -0.271106        -7.3772
 207   2.0000      -0.268623        -7.3096
 208   2.0000      -0.254932        -6.9370
 209   2.0000      -0.244406        -6.6506
 210   0.0000      -0.092517        -2.5175
 211   0.0000      -0.069273        -1.8850
 212   0.0000      -0.057528        -1.5654
 213   0.0000      -0.035700        -0.9714
 214   0.0000      -0.018714        -0.5092

MULLIKEN ATOMIC CHARGES
-----------------------
   0 C :    0.194309
   1 O :   -0.310192
   2 C :    0.202202
   3 C :   -0.144663
   4 S :    0.092023
   5 C :   -0.142261
   6 C :   -0.002566
   7 C :    0.029292
   8 N :   -0.164674
   9 C :    0.068780
  10 C :    0.025403
  11 C :    0.038666
  12 O :   -0.137364
  13 S :    0.016118
  14 C :   -0.093167
  15 C :    0.012825
  16 C :    0.009481
  17 C :   -0.129771
  18 S :    0.168958
  19 C :   -0.111834
  20 C :    0.025677
  21 C :    0.061342
  22 N :   -0.182030
  23 C :    0.068671
  24 C :    0.020590
  25 C :    0.046484
  26 O :   -0.131380
  27 S :    0.025226
  28 C :   -0.083794
  29 C :   -0.205140
  30 S :    0.155107
  31 C :   -0.158938
  32 C :    0.125389
  33 O :   -0.194417
  34 C :    0.206647
  35 O :   -0.273345
  36 C :    0.196210
  37 C :    0.038572
  38 C :    0.173699
  39 O :   -0.179811
  40 C :    0.177104
  41 O :   -0.219502
  42 C :    0.212947
  43 O :   -0.119629
  44 C :    0.010478
  45 O :   -0.116636
  46 S :    0.131652
  47 C :   -0.036952
  48 C :    0.000928
  49 C :    0.211832
  50 O :   -0.221297
  51 C :    0.090209
  52 O :   -0.188898
  53 H :    0.026601
  54 H :    0.024271
  55 H :    0.021056
  56 H :    0.015671
  57 H :   -0.001840
  58 H :    0.010743
  59 H :    0.028206
  60 H :   -0.013347
  61 H :    0.032042
  62 H :    0.015906
  63 H :    0.034129
  64 H :    0.034567
  65 H :    0.014106
  66 H :    0.188538
  67 H :    0.032617
  68 H :    0.030991
  69 H :    0.031704
  70 H :    0.185479
Sum of atomic charges:   -0.0000000

LOEWDIN ATOMIC CHARGES
----------------------
   0 C :    0.078404
   1 O :   -0.110707
   2 C :   -0.005533
   3 C :   -0.213223
   4 S :    0.411252
   5 C :   -0.232614
   6 C :   -0.058339
   7 C :   -0.002079
   8 N :    0.036439
   9 C :    0.097831
  10 C :   -0.147909
  11 C :   -0.034283
  12 O :   -0.142109
  13 S :    0.312420
  14 C :   -0.083518
  15 C :   -0.068816
  16 C :    0.011462
  17 C :   -0.203649
  18 S :    0.471975
  19 C :   -0.158205
  20 C :   -0.084543
  21 C :    0.048673
  22 N :    0.026950
  23 C :    0.095813
  24 C :   -0.138388
  25 C :   -0.033958
  26 O :   -0.135420
  27 S :    0.311345
  28 C :   -0.093814
  29 C :   -0.238866
  30 S :    0.443753
  31 C :   -0.227463
  32 C :   -0.015480
  33 O :   -0.055336
  34 C :    0.032945
  35 O :   -0.061084
  36 C :    0.083828
  37 C :   -0.124178
  38 C :    0.096827
  39 O :   -0.162221
  40 C :   -0.019779
  41 O :   -0.020082
  42 C :    0.048609
  43 O :   -0.095942
  44 C :   -0.105417
  45 O :   -0.093527
  46 S :    0.405526
  47 C :   -0.203996
  48 C :   -0.127328
  49 C :    0.098065
  50 O :   -0.187325
  51 C :   -0.001448
  52 O :   -0.048471
  53 H :    0.022830
  54 H :    0.014964
  55 H :    0.014425
  56 H :    0.025885
  57 H :    0.026729
  58 H :    0.023260
  59 H :    0.039313
  60 H :    0.024375
  61 H :    0.034327
  62 H :    0.036039
  63 H :    0.032446
  64 H :    0.041428
  65 H :    0.024840
  66 H :    0.100922
  67 H :    0.026133
  68 H :    0.021659
  69 H :    0.017203
  70 H :    0.096155

  Mayer bond orders larger than 0.100000
B(  0-C ,  1-O ) :   0.9456 B(  0-C , 53-H ) :   0.9794 B(  0-C , 54-H ) :   0.9736
B(  0-C , 55-H ) :   0.9741 B(  1-O ,  2-C ) :   1.1606 B(  2-C ,  3-C ) :   1.5751
B(  2-C , 51-C ) :   1.1852 B(  3-C ,  4-S ) :   1.1247 B(  3-C ,  5-C ) :   0.1051
B(  3-C , 56-H ) :   0.9683 B(  4-S ,  5-C ) :   1.0933 B(  5-C ,  6-C ) :   1.1027
B(  5-C , 51-C ) :   1.4628 B(  6-C ,  7-C ) :   1.7503 B(  6-C , 57-H ) :   0.9432
B(  7-C ,  8-N ) :   1.0253 B(  7-C , 58-H ) :   0.9747 B(  8-N ,  9-C ) :   1.1735
B(  8-N , 49-C ) :   1.0307 B(  9-C , 10-C ) :   1.4416 B(  9-C , 59-H ) :   0.9957
B( 10-C , 11-C ) :   0.9481 B( 10-C , 48-C ) :   1.1669 B( 11-C , 12-O ) :   2.2164
B( 11-C , 13-S ) :   0.9522 B( 12-O , 13-S ) :   0.1108 B( 13-S , 14-C ) :   1.0801
B( 14-C , 15-C ) :   1.2038 B( 14-C , 48-C ) :   1.4504 B( 15-C , 16-C ) :   1.5974
B( 15-C , 60-H ) :   0.9620 B( 16-C , 17-C ) :   1.2021 B( 16-C , 61-H ) :   0.9335
B( 17-C , 18-S ) :   1.0913 B( 17-C , 19-C ) :   0.1064 B( 17-C , 47-C ) :   1.5036
B( 18-S , 19-C ) :   1.1512 B( 19-C , 20-C ) :   1.1220 B( 19-C , 40-C ) :   1.4713
B( 20-C , 21-C ) :   1.6907 B( 20-C , 62-H ) :   0.9403 B( 21-C , 22-N ) :   1.0784
B( 21-C , 63-H ) :   0.9668 B( 22-N , 23-C ) :   1.1416 B( 22-N , 38-C ) :   0.9680
B( 23-C , 24-C ) :   1.4871 B( 23-C , 64-H ) :   0.9929 B( 24-C , 25-C ) :   0.9340
B( 24-C , 37-C ) :   1.1458 B( 25-C , 26-O ) :   2.2224 B( 25-C , 27-S ) :   0.9584
B( 26-O , 27-S ) :   0.1120 B( 27-S , 28-C ) :   1.0857 B( 28-C , 29-C ) :   1.1936
B( 28-C , 37-C ) :   1.5215 B( 29-C , 30-S ) :   1.1100 B( 29-C , 31-C ) :   0.1064
B( 29-C , 34-C ) :   1.4537 B( 30-S , 31-C ) :   1.1254 B( 31-C , 32-C ) :   1.5192
B( 31-C , 65-H ) :   0.9754 B( 32-C , 33-O ) :   1.1844 B( 32-C , 34-C ) :   1.1930
B( 33-O , 66-H ) :   0.9558 B( 34-C , 35-O ) :   1.2497 B( 35-O , 36-C ) :   0.9163
B( 36-C , 67-H ) :   0.9788 B( 36-C , 68-H ) :   0.9747 B( 36-C , 69-H ) :   0.9726
B( 37-C , 38-C ) :   1.0091 B( 38-C , 39-O ) :   2.0870 B( 40-C , 41-O ) :   1.0454
B( 40-C , 47-C ) :   1.2842 B( 41-O , 42-C ) :   1.0773 B( 42-C , 43-O ) :   2.2313
B( 42-C , 44-C ) :   0.8042 B( 44-C , 45-O ) :   2.1686 B( 44-C , 46-S ) :   1.0458
B( 45-O , 46-S ) :   0.1386 B( 46-S , 47-C ) :   0.9805 B( 48-C , 49-C ) :   1.0211
B( 49-C , 50-O ) :   1.9382 B( 50-O , 61-H ) :   0.1177 B( 51-C , 52-O ) :   1.2172
B( 52-O , 70-H ) :   0.9565

-----------------------------------------------------------------------------
         ABSORPTION SPECTRUM VIA TRANSITION ELECTRIC DIPOLE MOMENTS
-----------------------------------------------------------------------------
State   Energy  Wavelength   fosc         T2         TX        TY        TZ
        (cm-1)    (nm)                  (au**2)     (au)      (au)      (au)
-----------------------------------------------------------------------------
   0   16893.6    591.9   0.229518060   4.47271  -0.59186  -0.28575   2.01016
   1   19973.7    500.7   1.217040832  20.05956  -0.43475  -1.74963   4.09992
   2   23727.2    421.5   0.052190639   0.72414  -0.69490   0.09840   0.48121
   3   24829.1    402.8   0.012764517   0.16925  -0.00085  -0.05563   0.40762
   4   25191.3    397.0   0.007280858   0.09515  -0.06937  -0.28039   0.10824
   5   25875.5    386.5   0.001546812   0.01968  -0.01924   0.05388  -0.12809
   6   26874.7    372.1   0.204704009   2.50760   1.22022  -0.96043  -0.31022
   7   27335.2    365.8   0.071184599   0.85731   0.08870  -0.43380   0.81318
   8   29061.4    344.1   0.057342016   0.64958   0.59946  -0.53019  -0.09555
   9   29136.9    343.2   0.170246738   1.92358   0.68225   0.63399  -1.02770
  10   30399.8    328.9   0.053351593   0.57777  -0.42182  -0.33996   0.53316
  11   30704.8    325.7   0.004208094   0.04512   0.00776  -0.21213  -0.00777
  12   30952.0    323.1   0.457689516   4.86809   1.39921  -1.70586   0.01856
  13   31548.3    317.0   0.006183245   0.06452   0.25365   0.01324  -0.00330
  14   31772.9    314.7   0.267925164   2.77608   1.28654  -1.05679   0.06388
  15   32134.0    311.2   0.305640751   3.13128  -1.03739   0.64144   1.28205
  16   32383.3    308.8   0.003897337   0.03962  -0.00558  -0.01696   0.19825
  17   32732.0    305.5   0.123841239   1.24557  -0.63674   0.37172   0.83783
  18   32765.3    305.2   0.011769192   0.11825   0.22528  -0.05689  -0.25351
  19   33016.9    302.9   0.215867163   2.15241   1.00410  -0.22043  -1.04671
  20   33238.7    300.9   0.075215581   0.74497   0.41696  -0.37142   0.65815
  21   33540.4    298.1   0.008258743   0.08106   0.13541  -0.17427   0.17988
  22   34021.2    293.9   0.051989618   0.50309   0.57010  -0.39191   0.15646
  23   34424.0    290.5   0.000482486   0.00461   0.04318  -0.05161  -0.00924
  24   34663.6    288.5   0.037606717   0.35716   0.23890  -0.30119  -0.45758
  25   35234.8    283.8   0.045517277   0.42528  -0.38700   0.34520   0.39542
  26   35597.1    280.9   0.024952484   0.23077  -0.40201   0.25860   0.04780
  27   35814.3    279.2   0.055464967   0.50984  -0.53835   0.46598  -0.05375
  28   36538.0    273.7   0.039217190   0.35335   0.35037  -0.45872  -0.14201
  29   36901.6    271.0   0.041951808   0.37427   0.37491  -0.44417   0.19084
  30   37054.3    269.9   0.002004626   0.01781   0.06132  -0.02166   0.11654
  31   37274.6    268.3   0.011285167   0.09967  -0.08630   0.19381  -0.23380
  32   37836.9    264.3   0.308016309   2.67999  -0.79034   1.37688  -0.39945
  33   38080.4    262.6   0.003839351   0.03319  -0.00765   0.09645  -0.15437
  34   39494.4    253.2   0.000672928   0.00561   0.00037  -0.03460   0.06642
  35   39655.2    252.2   0.215092110   1.78566   1.03647  -0.66128  -0.52356
  36   39851.2    250.9   0.059512001   0.49163  -0.37820   0.25664   0.53172

FINAL SINGLE POINT ENERGY     -4629.066578651837

DIPOLE MOMENT
-------------
                                X             Y             Z
Electronic contribution:      6.36760       1.03656     -22.50392
Nuclear contribution   :     -3.92298      -2.04794      21.20442
                        -----------------------------------------
Total Dipole Moment    :      2.44461      -1.01138      -1.29950
                        -----------------------------------------
Magnitude (a.u.)       :      2.94749
Magnitude (Debye)      :      7.49193

Rotational constants in cm-1:     0.002393     0.000438     0.000378
Rotational constants in MHz :    71.731361    13.141787    11.318067

                             ****ORCA TERMINATED NORMALLY****
TOTAL RUN TIME: 0 days 0 hours 4 minutes 56 seconds 940 msec
