                         Program Version 4.2.0 -  RELEASE  -
|  1> # ORCA input file
|  2> # SCF done       -190.602519235681          0.000372988707
|  3> ! CAM-B3LYP def2-SVP def2/J RIJCOSX Grid4 TightSCF
|  4> %maxcore 5000
|  5> %tddft
|  6>     Mode sTDDFT
|  7>     Ethresh 5.0
|  8>     maxcore 5000
|  9> end
| 10>
| 11> %pal
| 12>   nprocs 6
| 13>   end
| 14> * xyz 0 1
| 15>    C       -1.46859         0.46453        -4.17803
| 16>    N       -1.11367         1.22203        -3.20334
| 17>    C       -0.27182         0.57146        -2.37485
| 18>    C        0.01725        -0.72351        -2.73521
| 19>    S       -0.78619        -1.14610        -4.18809
| 20>    C        1.03214        -1.28561        -1.82310
| 21>    C        0.76546        -0.42023        -0.58722
| 22>    C        0.45765         1.00370        -1.12183
| 23>    C        1.74420         1.76741        -1.48956
| 24>    C        1.50975         3.02140        -2.32452
| 25>    C       -0.40818         1.84958        -0.17888
| 26>    C       -1.75000         1.23334         0.20057
| 27>    N        1.83009        -0.72998         0.35654
| 28>    C        2.14580        -2.15072         0.21829
| 29>    S        1.07067        -2.94008        -1.05613
| 30>    C        1.52276        -0.32286         1.67801
| 31>    C        0.48142        -0.71365         2.44923
| 32>    C        0.51618         0.05336         3.68621
| 33>    C       -0.43894        -0.04299         4.70328
| 34>    N       -1.21086        -0.14148         5.54839
| 35>    C        1.60918         0.87077         3.66890
| 36>    C        2.33806         0.62680         2.44891
| 37>    C        3.57407         1.11007         2.09655
| 38>    C        4.43678         2.04390         2.86748
| 39>    C        5.31623         2.59952         1.97335
| 40>    C        5.15382         1.95057         0.70114
| 41>    C        4.14475         1.02036         0.79000
| 42>    C        5.91693         2.23062        -0.44044
| 43>    N        6.53845         2.46512        -1.37674
| 44>    C        4.48080         2.27268         4.26540
| 45>    C        4.12353         1.37937         5.22923
| 46>    C        4.20445         1.62675         6.61779
| 47>    N        3.93610         0.63355         7.53710
| 48>    C        4.08739         1.14319         8.78687
| 49>    C        4.03313         0.84262        10.13747
| 50>    C        4.36192         2.03098        10.81706
| 51>    N        4.60967         3.02872         9.89616
| 52>    C        4.45589         2.51337         8.64908
| 53>    C        4.52985         2.81441         7.30007
| 54>    C        4.46869         2.19763        12.21385
| 55>    C        4.68946         3.38006        12.85675
| 56>    C        4.84228         3.54959        14.25272
| 57>    C        4.54889         4.70588        14.93462
| 58>    C        4.61394         4.43525        16.33822
| 59>    C        4.37437         5.38011        17.34452
| 60>    N        4.17020         6.15862        18.16345
| 61>    C        4.94652         3.10870        16.53628
| 62>    C        5.17401         2.51413        15.26541
| 63>    C        5.80097         1.30759        15.03300
| 64>    C        5.91943         0.17121        15.97080
| 65>    C        6.76375        -0.74327        15.39912
| 66>    C        7.20684        -0.23126        14.12854
| 67>    C        6.60555         0.98348        13.89616
| 68>    C        8.10352        -0.88158        13.27274
| 69>    N        8.83093        -1.41846        12.56424
| 70>    C        5.17288         0.03509        17.17423
| 71>    C        5.43280        -0.86429        18.15399
| 72>    C        4.67553        -0.90602        19.35069
| 73>    N        3.68677        -0.11410        19.65403
| 74>    C        3.18719        -0.38712        20.86130
| 75>    C        3.79797        -1.42647        21.53961
| 76>    S        5.07638        -2.08989        20.62382
| 77>    C        3.24583        -1.52058        22.90179
| 78>    C        1.85939        -0.90984        22.66252
| 79>    C        2.08797         0.26609        21.67363
| 80>    C        2.66047         1.52850        22.34124
| 81>    C        1.67736         2.26072        23.24587
| 82>    C        0.82939         0.54044        20.83979
| 83>    C        1.02411         1.60602        19.76783
| 84>    N        1.25357        -0.76475        23.97179
| 85>    C        1.74288        -1.82656        24.83228
| 86>    S        2.80321        -3.00117        23.86600
| 87>    H       -2.14158         0.76884        -4.95373
| 88>    H        2.03767        -1.14136        -2.23577
| 89>    H       -0.19247        -0.78680        -0.17895
| 90>    H        2.40087         1.09831        -2.04932
| 91>    H        2.25377         2.03940        -0.56374
| 92>    H        0.87739         2.80216        -3.18091
| 93>    H        2.46341         3.40085        -2.68417
| 94>    H        1.03548         3.80416        -1.73927
| 95>    H       -0.60654         2.79394        -0.68525
| 96>    H        0.16866         2.06085         0.72563
| 97>    H       -2.28895         0.91838        -0.68973
| 98>    H       -2.35431         1.97285         0.72053
| 99>    H       -1.63384         0.37995         0.86438
|100>    H        2.02238        -2.70267         1.15176
|101>    H        3.17837        -2.25988        -0.12910
|102>    H       -0.27521        -1.44146         2.21742
|103>    H        1.85809         1.60543         4.40891
|104>    H        6.07115         3.33240         2.18910
|105>    H        3.78641         0.38198         0.00928
|106>    H        4.94915         3.19963         4.56933
|107>    H        3.78086         0.39502         4.93660
|108>    H        3.67255        -0.30759         7.29999
|109>    H        3.79470        -0.09005        10.60728
|110>    H        4.88364         3.96795        10.12467
|111>    H        4.77570         3.75161         6.84432
|112>    H        4.34715         1.29545        12.79581
|113>    H        4.66352         4.30355        12.28962
|114>    H        4.25792         5.64785        14.50829
|115>    H        5.14463         2.65924        17.48962
|116>    H        7.04482        -1.70228        15.79069
|117>    H        6.80158         1.63004        13.06313
|118>    H        4.33333         0.69784        17.32281
|119>    H        6.25588        -1.55874        18.07814
|120>    H        3.84808        -0.91489        23.59006
|121>    H        1.30254        -1.66684        22.07541
|122>    H        3.01022         2.19781        21.55359
|123>    H        3.53337         1.24071        22.93118
|124>    H        0.83692         2.65255        22.68026
|125>    H        2.18087         3.09784        23.72395
|126>    H        1.30514         1.59085        24.01556
|127>    H        0.01867         0.82836        21.51178
|128>    H        0.53824        -0.39415        20.35199
|129>    H        1.17043         2.58874        20.20677
|130>    H        0.14520         1.64823        19.12834
|131>    H        1.88887         1.36230        19.15716
|132>    H        0.24263        -0.79237        23.89486
|133>    H        0.94785        -2.40186        25.30531
|134>    H        2.39147        -1.40248        25.60482
|135> *
|136>
|137>                          ****END OF INPUT****

CARTESIAN COORDINATES (ANGSTROEM)
---------------------------------
  C     -1.468590    0.464530   -4.178030
  N     -1.113670    1.222030   -3.203340
  C     -0.271820    0.571460   -2.374850
  C      0.017250   -0.723510   -2.735210
  S     -0.786190   -1.146100   -4.188090
  C      1.032140   -1.285610   -1.823100
  C      0.765460   -0.420230   -0.587220
  C      0.457650    1.003700   -1.121830
  C      1.744200    1.767410   -1.489560
  C      1.509750    3.021400   -2.324520
  C     -0.408180    1.849580   -0.178880
  C     -1.750000    1.233340    0.200570
  N      1.830090   -0.729980    0.356540
  C      2.145800   -2.150720    0.218290
  S      1.070670   -2.940080   -1.056130
  C      1.522760   -0.322860    1.678010
  C      0.481420   -0.713650    2.449230
  C      0.516180    0.053360    3.686210
  C     -0.438940   -0.042990    4.703280
  N     -1.210860   -0.141480    5.548390
  C      1.609180    0.870770    3.668900
  C      2.338060    0.626800    2.448910
  C      3.574070    1.110070    2.096550
  C      4.436780    2.043900    2.867480
  C      5.316230    2.599520    1.973350
  C      5.153820    1.950570    0.701140
  C      4.144750    1.020360    0.790000
  C      5.916930    2.230620   -0.440440
  N      6.538450    2.465120   -1.376740
  C      4.480800    2.272680    4.265400
  C      4.123530    1.379370    5.229230
  C      4.204450    1.626750    6.617790
  N      3.936100    0.633550    7.537100
  C      4.087390    1.143190    8.786870
  C      4.033130    0.842620   10.137470
  C      4.361920    2.030980   10.817060
  N      4.609670    3.028720    9.896160
  C      4.455890    2.513370    8.649080
  C      4.529850    2.814410    7.300070
  C      4.468690    2.197630   12.213850
  C      4.689460    3.380060   12.856750
  C      4.842280    3.549590   14.252720
  C      4.548890    4.705880   14.934620
  C      4.613940    4.435250   16.338220
  C      4.374370    5.380110   17.344520
  N      4.170200    6.158620   18.163450
  C      4.946520    3.108700   16.536280
  C      5.174010    2.514130   15.265410
  C      5.800970    1.307590   15.033000
  C      5.919430    0.171210   15.970800
  C      6.763750   -0.743270   15.399120
  C      7.206840   -0.231260   14.128540
  C      6.605550    0.983480   13.896160
  C      8.103520   -0.881580   13.272740
  N      8.830930   -1.418460   12.564240
  C      5.172880    0.035090   17.174230
  C      5.432800   -0.864290   18.153990
  C      4.675530   -0.906020   19.350690
  N      3.686770   -0.114100   19.654030
  C      3.187190   -0.387120   20.861300
  C      3.797970   -1.426470   21.539610
  S      5.076380   -2.089890   20.623820
  C      3.245830   -1.520580   22.901790
  C      1.859390   -0.909840   22.662520
  C      2.087970    0.266090   21.673630
  C      2.660470    1.528500   22.341240
  C      1.677360    2.260720   23.245870
  C      0.829390    0.540440   20.839790
  C      1.024110    1.606020   19.767830
  N      1.253570   -0.764750   23.971790
  C      1.742880   -1.826560   24.832280
  S      2.803210   -3.001170   23.866000
  H     -2.141580    0.768840   -4.953730
  H      2.037670   -1.141360   -2.235770
  H     -0.192470   -0.786800   -0.178950
  H      2.400870    1.098310   -2.049320
  H      2.253770    2.039400   -0.563740
  H      0.877390    2.802160   -3.180910
  H      2.463410    3.400850   -2.684170
  H      1.035480    3.804160   -1.739270
  H     -0.606540    2.793940   -0.685250
  H      0.168660    2.060850    0.725630
  H     -2.288950    0.918380   -0.689730
  H     -2.354310    1.972850    0.720530
  H     -1.633840    0.379950    0.864380
  H      2.022380   -2.702670    1.151760
  H      3.178370   -2.259880   -0.129100
  H     -0.275210   -1.441460    2.217420
  H      1.858090    1.605430    4.408910
  H      6.071150    3.332400    2.189100
  H      3.786410    0.381980    0.009280
  H      4.949150    3.199630    4.569330
  H      3.780860    0.395020    4.936600
  H      3.672550   -0.307590    7.299990
  H      3.794700   -0.090050   10.607280
  H      4.883640    3.967950   10.124670
  H      4.775700    3.751610    6.844320
  H      4.347150    1.295450   12.795810
  H      4.663520    4.303550   12.289620
  H      4.257920    5.647850   14.508290
  H      5.144630    2.659240   17.489620
  H      7.044820   -1.702280   15.790690
  H      6.801580    1.630040   13.063130
  H      4.333330    0.697840   17.322810
  H      6.255880   -1.558740   18.078140
  H      3.848080   -0.914890   23.590060
  H      1.302540   -1.666840   22.075410
  H      3.010220    2.197810   21.553590
  H      3.533370    1.240710   22.931180
  H      0.836920    2.652550   22.680260
  H      2.180870    3.097840   23.723950
  H      1.305140    1.590850   24.015560
  H      0.018670    0.828360   21.511780
  H      0.538240   -0.394150   20.351990
  H      1.170430    2.588740   20.206770
  H      0.145200    1.648230   19.128340
  H      1.888870    1.362300   19.157160
  H      0.242630   -0.792370   23.894860
  H      0.947850   -2.401860   25.305310
  H      2.391470   -1.402480   25.604820

 Total Charge           Charge          ....    0
 Multiplicity           Mult            ....    1
 Number of Electrons    NEL             ....  530
 Basis Dimension        Dim             .... 1264

ORBITAL ENERGIES
----------------

  NO   OCC          E(Eh)            E(eV)
   0   2.0000     -88.969452     -2420.9819
   1   2.0000     -88.964020     -2420.8341
   2   2.0000     -88.922107     -2419.6935
   3   2.0000     -88.907511     -2419.2964
   4   2.0000     -14.473955      -393.8563
   5   2.0000     -14.471358      -393.7857
   6   2.0000     -14.430599      -392.6766
   7   2.0000     -14.413889      -392.2219
   8   2.0000     -14.413389      -392.2083
   9   2.0000     -14.412037      -392.1715
  10   2.0000     -14.410039      -392.1171
  11   2.0000     -14.406705      -392.0264
  12   2.0000     -14.406440      -392.0192
  13   2.0000     -14.401113      -391.8742
  14   2.0000     -10.333474      -281.1881
  15   2.0000     -10.331118      -281.1240
  16   2.0000     -10.331031      -281.1216
  17   2.0000     -10.326922      -281.0098
  18   2.0000     -10.324121      -280.9336
  19   2.0000     -10.322786      -280.8973
  20   2.0000     -10.322245      -280.8826
  21   2.0000     -10.322109      -280.8789
  22   2.0000     -10.322052      -280.8773
  23   2.0000     -10.321139      -280.8525
  24   2.0000     -10.320902      -280.8460
  25   2.0000     -10.320711      -280.8408
  26   2.0000     -10.319026      -280.7950
  27   2.0000     -10.316263      -280.7198
  28   2.0000     -10.315042      -280.6866
  29   2.0000     -10.314650      -280.6759
  30   2.0000     -10.313110      -280.6340
  31   2.0000     -10.311790      -280.5981
  32   2.0000     -10.311031      -280.5774
  33   2.0000     -10.310303      -280.5576
  34   2.0000     -10.309307      -280.5305
  35   2.0000     -10.307916      -280.4926
  36   2.0000     -10.306089      -280.4429
  37   2.0000     -10.302984      -280.3585
  38   2.0000     -10.301619      -280.3213
  39   2.0000     -10.301357      -280.3142
  40   2.0000     -10.301284      -280.3122
  41   2.0000     -10.301003      -280.3045
  42   2.0000     -10.299910      -280.2748
  43   2.0000     -10.299743      -280.2702
  44   2.0000     -10.298944      -280.2485
  45   2.0000     -10.298395      -280.2336
  46   2.0000     -10.296996      -280.1955
  47   2.0000     -10.296830      -280.1910
  48   2.0000     -10.296200      -280.1738
  49   2.0000     -10.294703      -280.1331
  50   2.0000     -10.293752      -280.1072
  51   2.0000     -10.293263      -280.0939
  52   2.0000     -10.291687      -280.0510
  53   2.0000     -10.290842      -280.0280
  54   2.0000     -10.290353      -280.0147
  55   2.0000     -10.288854      -279.9739
  56   2.0000     -10.287783      -279.9448
  57   2.0000     -10.286815      -279.9185
  58   2.0000     -10.286243      -279.9029
  59   2.0000     -10.285597      -279.8853
  60   2.0000     -10.283714      -279.8341
  61   2.0000     -10.282402      -279.7984
  62   2.0000     -10.280113      -279.7361
  63   2.0000     -10.275490      -279.6103
  64   2.0000     -10.260595      -279.2050
  65   2.0000     -10.260345      -279.1982
  66   2.0000     -10.254181      -279.0304
  67   2.0000     -10.251531      -278.9583
  68   2.0000     -10.250285      -278.9244
  69   2.0000     -10.245067      -278.7824
  70   2.0000     -10.237113      -278.5660
  71   2.0000     -10.234565      -278.4967
  72   2.0000      -8.065198      -219.4652
  73   2.0000      -8.059339      -219.3058
  74   2.0000      -8.018293      -218.1888
  75   2.0000      -8.003737      -217.7927
  76   2.0000      -6.034243      -164.2001
  77   2.0000      -6.030159      -164.0890
  78   2.0000      -6.028324      -164.0390
  79   2.0000      -6.027695      -164.0219
  80   2.0000      -6.024529      -163.9358
  81   2.0000      -6.021763      -163.8605
  82   2.0000      -5.988624      -162.9587
  83   2.0000      -5.985503      -162.8738
  84   2.0000      -5.977067      -162.6443
  85   2.0000      -5.974010      -162.5611
  86   2.0000      -5.970969      -162.4783
  87   2.0000      -5.962560      -162.2495
  88   2.0000      -1.105212       -30.0743
  89   2.0000      -1.071004       -29.1435
  90   2.0000      -1.068844       -29.0847
  91   2.0000      -1.063393       -28.9364
  92   2.0000      -1.060002       -28.8441
  93   2.0000      -1.022922       -27.8351
  94   2.0000      -1.011350       -27.5202
  95   2.0000      -1.010516       -27.4975
  96   2.0000      -1.002459       -27.2783
  97   2.0000      -0.998117       -27.1601
  98   2.0000      -0.989817       -26.9343
  99   2.0000      -0.986173       -26.8351
 100   2.0000      -0.978646       -26.6303
 101   2.0000      -0.974512       -26.5178
 102   2.0000      -0.949668       -25.8418
 103   2.0000      -0.938427       -25.5359
 104   2.0000      -0.918584       -24.9959
 105   2.0000      -0.915904       -24.9230
 106   2.0000      -0.911290       -24.7975
 107   2.0000      -0.903690       -24.5907
 108   2.0000      -0.898483       -24.4490
 109   2.0000      -0.886118       -24.1125
 110   2.0000      -0.884565       -24.0702
 111   2.0000      -0.879106       -23.9217
 112   2.0000      -0.876478       -23.8502
 113   2.0000      -0.873110       -23.7585
 114   2.0000      -0.866026       -23.5658
 115   2.0000      -0.850094       -23.1322
 116   2.0000      -0.848719       -23.0948
 117   2.0000      -0.840021       -22.8581
 118   2.0000      -0.835062       -22.7232
 119   2.0000      -0.829227       -22.5644
 120   2.0000      -0.826486       -22.4898
 121   2.0000      -0.821806       -22.3625
 122   2.0000      -0.819783       -22.3074
 123   2.0000      -0.803104       -21.8536
 124   2.0000      -0.800261       -21.7762
 125   2.0000      -0.796948       -21.6860
 126   2.0000      -0.784288       -21.3416
 127   2.0000      -0.779636       -21.2150
 128   2.0000      -0.763133       -20.7659
 129   2.0000      -0.758023       -20.6269
 130   2.0000      -0.750390       -20.4192
 131   2.0000      -0.732583       -19.9346
 132   2.0000      -0.725941       -19.7539
 133   2.0000      -0.720667       -19.6104
 134   2.0000      -0.718413       -19.5490
 135   2.0000      -0.716064       -19.4851
 136   2.0000      -0.708431       -19.2774
 137   2.0000      -0.706408       -19.2223
 138   2.0000      -0.697284       -18.9741
 139   2.0000      -0.696016       -18.9396
 140   2.0000      -0.693217       -18.8634
 141   2.0000      -0.690831       -18.7985
 142   2.0000      -0.687512       -18.7081
 143   2.0000      -0.677458       -18.4346
 144   2.0000      -0.675945       -18.3934
 145   2.0000      -0.671514       -18.2728
 146   2.0000      -0.665289       -18.1034
 147   2.0000      -0.649493       -17.6736
 148   2.0000      -0.644563       -17.5395
 149   2.0000      -0.642138       -17.4735
 150   2.0000      -0.639498       -17.4016
 151   2.0000      -0.637994       -17.3607
 152   2.0000      -0.627080       -17.0637
 153   2.0000      -0.625757       -17.0277
 154   2.0000      -0.621702       -16.9174
 155   2.0000      -0.615934       -16.7604
 156   2.0000      -0.603823       -16.4309
 157   2.0000      -0.599397       -16.3104
 158   2.0000      -0.597778       -16.2664
 159   2.0000      -0.595757       -16.2114
 160   2.0000      -0.591262       -16.0891
 161   2.0000      -0.588448       -16.0125
 162   2.0000      -0.586367       -15.9558
 163   2.0000      -0.577616       -15.7177
 164   2.0000      -0.571620       -15.5546
 165   2.0000      -0.565558       -15.3896
 166   2.0000      -0.562830       -15.3154
 167   2.0000      -0.556003       -15.1296
 168   2.0000      -0.550264       -14.9734
 169   2.0000      -0.547669       -14.9028
 170   2.0000      -0.545955       -14.8562
 171   2.0000      -0.545714       -14.8496
 172   2.0000      -0.542212       -14.7543
 173   2.0000      -0.539096       -14.6696
 174   2.0000      -0.537441       -14.6245
 175   2.0000      -0.535942       -14.5837
 176   2.0000      -0.529002       -14.3949
 177   2.0000      -0.528618       -14.3844
 178   2.0000      -0.524464       -14.2714
 179   2.0000      -0.519802       -14.1445
 180   2.0000      -0.519205       -14.1283
 181   2.0000      -0.515467       -14.0266
 182   2.0000      -0.514873       -14.0104
 183   2.0000      -0.513268       -13.9667
 184   2.0000      -0.511714       -13.9244
 185   2.0000      -0.510873       -13.9016
 186   2.0000      -0.508846       -13.8464
 187   2.0000      -0.506164       -13.7734
 188   2.0000      -0.504540       -13.7292
 189   2.0000      -0.501948       -13.6587
 190   2.0000      -0.498364       -13.5612
 191   2.0000      -0.497084       -13.5264
 192   2.0000      -0.496154       -13.5010
 193   2.0000      -0.492751       -13.4084
 194   2.0000      -0.491889       -13.3850
 195   2.0000      -0.490568       -13.3490
 196   2.0000      -0.489153       -13.3105
 197   2.0000      -0.488690       -13.2979
 198   2.0000      -0.487355       -13.2616
 199   2.0000      -0.483621       -13.1600
 200   2.0000      -0.482282       -13.1236
 201   2.0000      -0.478927       -13.0323
 202   2.0000      -0.478231       -13.0133
 203   2.0000      -0.474156       -12.9025
 204   2.0000      -0.473059       -12.8726
 205   2.0000      -0.468941       -12.7605
 206   2.0000      -0.465102       -12.6561
 207   2.0000      -0.462446       -12.5838
 208   2.0000      -0.458917       -12.4878
 209   2.0000      -0.455790       -12.4027
 210   2.0000      -0.451832       -12.2950
 211   2.0000      -0.451497       -12.2859
 212   2.0000      -0.446467       -12.1490
 213   2.0000      -0.446172       -12.1410
 214   2.0000      -0.445395       -12.1198
 215   2.0000      -0.443091       -12.0571
 216   2.0000      -0.442223       -12.0335
 217   2.0000      -0.440765       -11.9938
 218   2.0000      -0.439753       -11.9663
 219   2.0000      -0.439043       -11.9470
 220   2.0000      -0.437594       -11.9075
 221   2.0000      -0.434886       -11.8338
 222   2.0000      -0.434154       -11.8139
 223   2.0000      -0.431368       -11.7381
 224   2.0000      -0.430305       -11.7092
 225   2.0000      -0.426612       -11.6087
 226   2.0000      -0.424414       -11.5489
 227   2.0000      -0.423397       -11.5212
 228   2.0000      -0.420073       -11.4308
 229   2.0000      -0.419574       -11.4172
 230   2.0000      -0.415296       -11.3008
 231   2.0000      -0.413959       -11.2644
 232   2.0000      -0.411530       -11.1983
 233   2.0000      -0.410563       -11.1720
 234   2.0000      -0.408917       -11.1272
 235   2.0000      -0.405743       -11.0408
 236   2.0000      -0.402627       -10.9560
 237   2.0000      -0.399231       -10.8636
 238   2.0000      -0.396021       -10.7763
 239   2.0000      -0.391997       -10.6668
 240   2.0000      -0.389893       -10.6095
 241   2.0000      -0.388858       -10.5814
 242   2.0000      -0.386062       -10.5053
 243   2.0000      -0.377383       -10.2691
 244   2.0000      -0.375256       -10.2112
 245   2.0000      -0.367380        -9.9969
 246   2.0000      -0.357188        -9.7196
 247   2.0000      -0.356729        -9.7071
 248   2.0000      -0.352248        -9.5852
 249   2.0000      -0.346940        -9.4407
 250   2.0000      -0.339575        -9.2403
 251   2.0000      -0.333717        -9.0809
 252   2.0000      -0.326394        -8.8816
 253   2.0000      -0.322396        -8.7728
 254   2.0000      -0.316491        -8.6122
 255   2.0000      -0.312830        -8.5125
 256   2.0000      -0.309579        -8.4241
 257   2.0000      -0.306965        -8.3529
 258   2.0000      -0.303758        -8.2657
 259   2.0000      -0.301132        -8.1942
 260   2.0000      -0.290504        -7.9050
 261   2.0000      -0.283593        -7.7169
 262   2.0000      -0.280834        -7.6419
 263   2.0000      -0.254563        -6.9270
 264   2.0000      -0.228420        -6.2156
 265   0.0000      -0.127117        -3.4590
 266   0.0000      -0.118153        -3.2151
 267   0.0000      -0.050445        -1.3727
 268   0.0000      -0.034625        -0.9422
 269   0.0000      -0.008559        -0.2329

MULLIKEN ATOMIC CHARGES
-----------------------
   0 C :   -0.004289
   1 N :   -0.064445
   2 C :   -0.057954
   3 C :   -0.072986
   4 S :    0.127001
   5 C :   -0.106714
   6 C :    0.071144
   7 C :   -0.166598
   8 C :    0.039201
   9 C :    0.035523
  10 C :    0.069918
  11 C :    0.019690
  12 N :   -0.294836
  13 C :    0.116949
  14 S :   -0.041856
  15 C :    0.067276
  16 C :   -0.013177
  17 C :   -0.112194
  18 C :   -0.135665
  19 N :    0.140704
  20 C :   -0.053823
  21 C :    0.098038
  22 C :   -0.003342
  23 C :    0.079843
  24 C :   -0.015090
  25 C :   -0.093156
  26 C :   -0.021258
  27 C :   -0.130824
  28 N :    0.144800
  29 C :   -0.028226
  30 C :   -0.012447
  31 C :    0.093024
  32 N :   -0.032509
  33 C :    0.127104
  34 C :   -0.150910
  35 C :    0.067835
  36 N :   -0.038502
  37 C :    0.127752
  38 C :   -0.164173
  39 C :    0.026457
  40 C :   -0.037487
  41 C :    0.083822
  42 C :   -0.033805
  43 C :   -0.091766
  44 C :   -0.126121
  45 N :    0.138011
  46 C :   -0.047237
  47 C :    0.049985
  48 C :    0.052088
  49 C :    0.086107
  50 C :   -0.019390
  51 C :   -0.109407
  52 C :   -0.040314
  53 C :   -0.131591
  54 N :    0.133047
  55 C :   -0.019859
  56 C :    0.049740
  57 C :   -0.109074
  58 N :   -0.038496
  59 C :   -0.039604
  60 C :   -0.057938
  61 S :    0.130858
  62 C :   -0.124762
  63 C :    0.027069
  64 C :   -0.172678
  65 C :    0.064889
  66 C :    0.045650
  67 C :    0.060238
  68 C :    0.027366
  69 N :   -0.194195
  70 C :    0.076834
  71 S :   -0.057622
  72 H :    0.040016
  73 H :    0.063862
  74 H :    0.016269
  75 H :   -0.003045
  76 H :    0.016617
  77 H :    0.019990
  78 H :    0.014012
  79 H :    0.010858
  80 H :    0.013767
  81 H :   -0.001370
  82 H :    0.021886
  83 H :    0.012473
  84 H :    0.007428
  85 H :    0.048951
  86 H :    0.049220
  87 H :   -0.001319
  88 H :    0.021773
  89 H :   -0.013837
  90 H :   -0.004080
  91 H :   -0.008355
  92 H :   -0.004098
  93 H :    0.127742
  94 H :   -0.023711
  95 H :    0.127333
  96 H :   -0.030125
  97 H :    0.013284
  98 H :   -0.033807
  99 H :   -0.018036
 100 H :    0.006225
 101 H :   -0.011651
 102 H :    0.009203
 103 H :    0.019030
 104 H :   -0.014868
 105 H :    0.063066
 106 H :    0.006092
 107 H :    0.007356
 108 H :   -0.015540
 109 H :    0.000483
 110 H :    0.004900
 111 H :    0.007998
 112 H :   -0.006765
 113 H :   -0.010125
 114 H :    0.011387
 115 H :    0.002733
 116 H :    0.024896
 117 H :    0.115715
 118 H :    0.040613
 119 H :    0.043907
Sum of atomic charges:   -0.0000000

LOEWDIN ATOMIC CHARGES
----------------------
   0 C :   -0.121770
   1 N :   -0.087204
   2 C :   -0.035105
   3 C :   -0.217260
   4 S :    0.422226
   5 C :   -0.130367
   6 C :    0.029638
   7 C :   -0.043843
   8 C :   -0.020245
   9 C :   -0.055237
  10 C :   -0.023952
  11 C :   -0.058406
  12 N :   -0.110088
  13 C :   -0.048303
  14 S :    0.208180
  15 C :    0.001965
  16 C :   -0.003810
  17 C :   -0.067532
  18 C :   -0.034371
  19 N :   -0.049610
  20 C :    0.000862
  21 C :    0.015776
  22 C :    0.045387
  23 C :   -0.023160
  24 C :   -0.012350
  25 C :   -0.051530
  26 C :   -0.005854
  27 C :   -0.029038
  28 N :   -0.044594
  29 C :   -0.018517
  30 C :   -0.027273
  31 C :    0.002624
  32 N :    0.075912
  33 C :   -0.016889
  34 C :   -0.070904
  35 C :   -0.002347
  36 N :    0.068453
  37 C :   -0.004682
  38 C :   -0.088400
  39 C :   -0.010797
  40 C :   -0.039311
  41 C :   -0.014332
  42 C :   -0.029727
  43 C :   -0.039090
  44 C :   -0.027081
  45 N :   -0.042223
  46 C :   -0.026109
  47 C :    0.043554
  48 C :    0.030723
  49 C :   -0.037070
  50 C :    0.008938
  51 C :   -0.067210
  52 C :   -0.003743
  53 C :   -0.031838
  54 N :   -0.053414
  55 C :   -0.000451
  56 C :   -0.048763
  57 C :   -0.121706
  58 N :   -0.090046
  59 C :   -0.022704
  60 C :   -0.217478
  61 S :    0.419643
  62 C :   -0.136740
  63 C :    0.019592
  64 C :   -0.047898
  65 C :   -0.018688
  66 C :   -0.062573
  67 C :   -0.024241
  68 C :   -0.060562
  69 N :   -0.104621
  70 C :   -0.056681
  71 S :    0.188141
  72 H :    0.018003
  73 H :    0.027641
  74 H :    0.011376
  75 H :    0.018181
  76 H :    0.021789
  77 H :    0.024453
  78 H :    0.027214
  79 H :    0.021069
  80 H :    0.029338
  81 H :    0.021470
  82 H :    0.026307
  83 H :    0.028859
  84 H :    0.015548
  85 H :    0.018316
  86 H :    0.011592
  87 H :    0.035020
  88 H :    0.037577
  89 H :    0.030952
  90 H :    0.029743
  91 H :    0.034771
  92 H :    0.030724
  93 H :    0.093520
  94 H :    0.030293
  95 H :    0.088941
  96 H :    0.025380
  97 H :    0.041472
  98 H :    0.025796
  99 H :    0.029084
 100 H :    0.036469
 101 H :    0.030318
 102 H :    0.035255
 103 H :    0.036189
 104 H :    0.027796
 105 H :    0.028269
 106 H :    0.009650
 107 H :    0.023958
 108 H :    0.019292
 109 H :    0.016806
 110 H :    0.023897
 111 H :    0.018074
 112 H :    0.017007
 113 H :    0.020180
 114 H :    0.020688
 115 H :    0.022489
 116 H :    0.022183
 117 H :    0.064015
 118 H :    0.017817
 119 H :    0.011339

  Mayer bond orders larger than 0.100000
B(  0-C ,  1-N ) :   1.6945 B(  0-C ,  4-S ) :   1.1531 B(  0-C , 72-H ) :   0.9659
B(  1-N ,  2-C ) :   1.3377 B(  1-N ,  4-S ) :   0.1061 B(  2-C ,  3-C ) :   1.5952
B(  2-C ,  7-C ) :   0.9621 B(  3-C ,  4-S ) :   1.1187 B(  3-C ,  5-C ) :   1.0476
B(  5-C ,  6-C ) :   0.9727 B(  5-C , 14-S ) :   1.0077 B(  5-C , 73-H ) :   0.8800
B(  6-C ,  7-C ) :   0.9747 B(  6-C , 12-N ) :   0.9998 B(  6-C , 74-H ) :   0.9219
B(  7-C ,  8-C ) :   1.0192 B(  7-C , 10-C ) :   1.0436 B(  8-C ,  9-C ) :   1.1051
B(  8-C , 75-H ) :   0.9390 B(  8-C , 76-H ) :   0.9336 B(  9-C , 77-H ) :   0.9598
B(  9-C , 78-H ) :   0.9615 B(  9-C , 79-H ) :   0.9628 B( 10-C , 11-C ) :   1.1134
B( 10-C , 80-H ) :   0.9335 B( 10-C , 81-H ) :   0.9372 B( 11-C , 82-H ) :   0.9600
B( 11-C , 83-H ) :   0.9580 B( 11-C , 84-H ) :   0.9574 B( 12-N , 13-C ) :   0.9495
B( 12-N , 15-C ) :   1.0462 B( 13-C , 14-S ) :   0.9997 B( 13-C , 85-H ) :   0.9508
B( 13-C , 86-H ) :   0.9554 B( 15-C , 16-C ) :   1.6523 B( 15-C , 21-C ) :   1.1231
B( 16-C , 17-C ) :   1.0530 B( 16-C , 87-H ) :   1.0200 B( 17-C , 18-C ) :   1.0635
B( 17-C , 20-C ) :   1.6557 B( 18-C , 19-N ) :   3.0416 B( 20-C , 21-C ) :   1.0562
B( 20-C , 88-H ) :   1.0096 B( 21-C , 22-C ) :   1.4996 B( 22-C , 23-C ) :   1.0004
B( 22-C , 26-C ) :   1.1185 B( 23-C , 24-C ) :   1.5645 B( 23-C , 29-C ) :   1.1386
B( 24-C , 25-C ) :   1.1145 B( 24-C , 89-H ) :   1.0214 B( 25-C , 26-C ) :   1.5626
B( 25-C , 27-C ) :   1.0688 B( 26-C , 90-H ) :   1.0133 B( 27-C , 28-N ) :   3.0429
B( 29-C , 30-C ) :   1.6206 B( 29-C , 91-H ) :   0.9654 B( 30-C , 31-C ) :   1.1360
B( 30-C , 92-H ) :   0.9595 B( 31-C , 32-N ) :   1.1798 B( 31-C , 38-C ) :   1.3766
B( 32-N , 33-C ) :   1.1666 B( 32-N , 93-H ) :   0.9354 B( 33-C , 34-C ) :   1.2677
B( 33-C , 37-C ) :   1.2830 B( 34-C , 35-C ) :   1.3328 B( 34-C , 94-H ) :   1.0413
B( 35-C , 36-N ) :   1.1887 B( 35-C , 39-C ) :   1.2019 B( 36-N , 37-C ) :   1.1705
B( 36-N , 95-H ) :   0.9311 B( 37-C , 38-C ) :   1.2813 B( 38-C , 96-H ) :   1.0301
B( 39-C , 40-C ) :   1.5382 B( 39-C , 97-H ) :   0.9495 B( 40-C , 41-C ) :   1.1882
B( 40-C , 98-H ) :   0.9612 B( 41-C , 42-C ) :   1.5218 B( 41-C , 47-C ) :   1.0171
B( 42-C , 43-C ) :   1.1456 B( 42-C , 99-H ) :   1.0221 B( 43-C , 44-C ) :   1.0614
B( 43-C , 46-C ) :   1.5457 B( 44-C , 45-N ) :   3.0380 B( 46-C , 47-C ) :   1.1537
B( 46-C ,100-H ) :   1.0172 B( 47-C , 48-C ) :   1.4362 B( 48-C , 49-C ) :   1.0586
B( 48-C , 52-C ) :   1.1092 B( 49-C , 50-C ) :   1.5789 B( 49-C , 55-C ) :   1.0745
B( 50-C , 51-C ) :   1.1166 B( 50-C ,101-H ) :   1.0127 B( 51-C , 52-C ) :   1.5943
B( 51-C , 53-C ) :   1.0589 B( 52-C ,102-H ) :   1.0104 B( 53-C , 54-N ) :   3.0398
B( 55-C , 56-C ) :   1.7135 B( 55-C ,103-H ) :   0.9667 B( 56-C , 57-C ) :   1.0984
B( 56-C ,104-H ) :   0.9553 B( 57-C , 58-N ) :   1.6684 B( 57-C , 61-S ) :   1.0896
B( 58-N , 59-C ) :   1.3959 B( 58-N , 61-S ) :   0.1023 B( 59-C , 60-C ) :   1.5560
B( 59-C , 64-C ) :   0.9557 B( 60-C , 61-S ) :   1.1142 B( 60-C , 62-C ) :   1.0400
B( 62-C , 63-C ) :   0.9796 B( 62-C , 71-S ) :   1.0074 B( 62-C ,105-H ) :   0.8789
B( 63-C , 64-C ) :   0.9550 B( 63-C , 69-N ) :   1.0781 B( 63-C ,106-H ) :   0.9299
B( 64-C , 65-C ) :   1.0088 B( 64-C , 67-C ) :   1.0456 B( 65-C , 66-C ) :   1.1051
B( 65-C ,107-H ) :   0.9349 B( 65-C ,108-H ) :   0.9353 B( 66-C ,109-H ) :   0.9592
B( 66-C ,110-H ) :   0.9596 B( 66-C ,111-H ) :   0.9501 B( 67-C , 68-C ) :   1.1051
B( 67-C ,112-H ) :   0.9388 B( 67-C ,113-H ) :   0.9298 B( 68-C ,114-H ) :   0.9603
B( 68-C ,115-H ) :   0.9601 B( 68-C ,116-H ) :   0.9584 B( 69-N , 70-C ) :   1.0227
B( 69-N ,117-H ) :   0.9400 B( 70-C , 71-S ) :   0.9851 B( 70-C ,118-H ) :   0.9599
B( 70-C ,119-H ) :   0.9548

-----------------------------------------------------------------------------
         ABSORPTION SPECTRUM VIA TRANSITION ELECTRIC DIPOLE MOMENTS
-----------------------------------------------------------------------------
State   Energy  Wavelength   fosc         T2         TX        TY        TZ
        (cm-1)    (nm)                  (au**2)     (au)      (au)      (au)
-----------------------------------------------------------------------------
   0    6628.4   1508.6   0.356251942  17.69380  -0.89474   0.22400  -4.10403
   1    8746.1   1143.4   0.039359239   1.48152  -0.43680  -0.83456  -0.77087
   2   11114.0    899.8   0.018160076   0.53793  -0.39459  -0.54418   0.29342
   3   17642.3    566.8   0.004948891   0.09235  -0.10449  -0.27964  -0.05686
   4   18230.3    548.5   0.022665987   0.40931   0.04294   0.35579   0.52999
   5   19122.6    522.9   0.271850691   4.68015  -0.24500   0.33324   2.12346
   6   20424.6    489.6   0.045541659   0.73406  -0.11153  -0.22344  -0.81957
   7   21785.1    459.0   0.022482936   0.33976  -0.08957  -0.02374   0.57548
   8   22654.0    441.4   0.020180165   0.29326  -0.42945  -0.10327   0.31332
   9   23476.5    426.0   0.213430464   2.99295  -0.18789   0.12700  -1.71508
  10   23516.1    425.2   0.039035824   0.54648   0.02880   0.18141  -0.71606
  11   24063.2    415.6   0.696881892   9.53413   0.56757   0.31790   3.01843
  12   24780.1    403.5   0.069389044   0.92186   0.18308  -0.12656  -0.93398
  13   24980.1    400.3   0.001914248   0.02523  -0.04569  -0.11075  -0.10428
  14   25120.7    398.1   0.004499083   0.05896   0.04868  -0.11413  -0.20872
  15   26853.9    372.4   0.168238854   2.06250  -0.40492   1.34258   0.30985
  16   27574.7    362.7   0.366251401   4.37264  -0.20808  -1.96107   0.69537
  17   27875.5    358.7   0.031513941   0.37218  -0.10764  -0.52903   0.28412
  18   28405.9    352.0   0.022117640   0.25633  -0.27083  -0.42772  -0.00677
  19   28969.5    345.2   0.132441177   1.50507   0.01845   0.42939   1.14907
  20   29576.9    338.1   0.002611028   0.02906   0.12939   0.09211  -0.06193
  21   29955.4    333.8   0.004277513   0.04701  -0.16524   0.08275   0.11340
  22   30414.5    328.8   0.000482177   0.00522   0.06361   0.03138   0.01369
  23   30645.0    326.3   0.063255949   0.67954   0.29016  -0.19153   0.74744
  24   31511.3    317.3   1.316772188  13.75686   2.43186   0.01315  -2.80049
  25   31968.3    312.8   0.009562876   0.09848  -0.26445  -0.09634   0.13879
  26   32944.7    303.5   0.177233927   1.77107  -0.91376  -0.59343   0.76417
  27   33203.6    301.2   0.545560293   5.40921  -1.09720   0.81136   1.88336
  28   33760.9    296.2   0.006298367   0.06142   0.08217  -0.13010  -0.19427
  29   33881.6    295.1   0.017511717   0.17015  -0.02722  -0.33217  -0.24306
  30   34243.3    292.0   0.034666677   0.33328   0.12692  -0.37018  -0.42443
  31   34337.4    291.2   0.017547673   0.16824   0.18571  -0.08448  -0.35583
  32   34546.7    289.5   0.002569178   0.02448   0.07852  -0.10517  -0.08519
  33   34859.2    286.9   0.025623575   0.24199   0.15498   0.46430   0.04897
  34   35428.3    282.3   0.019811454   0.18409   0.00122   0.34631   0.25331
  35   35679.6    280.3   0.004061360   0.03747   0.06175   0.02272  -0.18206
  36   36383.8    274.8   0.078081368   0.70650   0.36124   0.75285   0.09606
  37   36763.1    272.0   0.037014353   0.33146  -0.27956  -0.50329  -0.00198
  38   37238.6    268.5   0.015862066   0.14023   0.19094  -0.13964   0.29030
  39   37496.3    266.7   0.087144745   0.76512   0.27542  -0.51193  -0.65359
  40   37687.4    265.3   0.332782670   2.90697  -0.90065  -1.33333   0.56394
  41   38675.7    258.6   0.025058365   0.21330  -0.42854   0.00884   0.17198
  42   39492.8    253.2   0.005657467   0.04716   0.00160   0.14583  -0.16091
  43   40019.9    249.9   0.018105510   0.14894   0.29378  -0.08719  -0.23459

FINAL SINGLE POINT ENERGY     -4374.993087748954

DIPOLE MOMENT
-------------
                                X             Y             Z
Electronic contribution:     32.24743     -22.54609     -32.30552
Nuclear contribution   :    -33.22047      22.10594      31.84965
                        -----------------------------------------
Total Dipole Moment    :     -0.97304      -0.44015      -0.45586
                        -----------------------------------------
Magnitude (a.u.)       :      1.16119
Magnitude (Debye)      :      2.95151

Rotational constants in cm-1:     0.001889     0.000183     0.000178
Rotational constants in MHz :    56.628592     5.488528     5.344592

                             ****ORCA TERMINATED NORMALLY****
TOTAL RUN TIME: 0 days 0 hours 15 minutes 18 seconds 953 msec
