                         Program Version 4.2.0 -  RELEASE  -
|  1> # ORCA input file
|  2> # SCF done       -194.349124161405          0.000960962438
|  3> ! CAM-B3LYP def2-SVP def2/J RIJCOSX Grid4 TightSCF
|  4> %maxcore 5000
|  5> %tddft
|  6>     Mode sTDDFT
|  7>     Ethresh 5.0
|  8>     maxcore 5000
|  9> end
| 10>
| 11> %pal
| 12>   nprocs 6
| 13>   end
| 14> * xyz 0 1
| 15>    C      -17.31946        -7.91253       -11.27157
| 16>    C      -16.71694        -7.41154       -10.14867
| 17>    C      -16.34403        -6.05661       -10.06127
| 18>    N      -16.06199        -4.94682       -10.04306
| 19>    C      -16.53798        -8.41459        -9.14864
| 20>    C      -17.02784        -9.63841        -9.58849
| 21>    S      -17.69290        -9.58900       -11.17608
| 22>    S      -16.86256       -10.94909        -8.46307
| 23>    C      -16.11121        -9.83548        -7.36932
| 24>    C      -15.99622        -8.53096        -7.83519
| 25>    C      -15.35804        -7.69389        -6.87761
| 26>    C      -15.09801        -6.32852        -7.06653
| 27>    N      -14.87823        -5.21154        -7.20857
| 28>    C      -14.99987        -8.38207        -5.72502
| 29>    S      -15.45878       -10.07290        -5.79465
| 30>    C      -14.30564        -7.91358        -4.57782
| 31>    C      -13.87234        -8.69942        -3.52142
| 32>    C      -13.16022        -7.96248        -2.58011
| 33>    C      -13.06424        -6.59886        -2.91676
| 34>    S      -13.84691        -6.22727        -4.38774
| 35>    C      -12.27239        -5.94499        -1.94254
| 36>    C      -11.85618        -6.90107        -0.99235
| 37>    C      -12.42615        -8.19186        -1.34540
| 38>    C      -12.30731        -9.36825        -0.66695
| 39>    C      -12.91335       -10.55768        -1.12442
| 40>    N      -13.40456       -11.52460        -1.49667
| 41>    C      -11.59003        -9.48003         0.54400
| 42>    N      -11.02248        -9.58735         1.53392
| 43>    C      -10.99606        -6.37341        -0.03733
| 44>    C      -10.75947        -5.02016        -0.24113
| 45>    S      -11.65316        -4.38949        -1.62013
| 46>    C       -9.86881        -4.15467         0.45341
| 47>    C       -8.87650        -4.59062         1.36313
| 48>    C       -7.91480        -3.67758         1.91442
| 49>    N       -6.95925        -4.14090         2.74627
| 50>    C       -6.91710        -5.39899         3.04093
| 51>    C       -7.86390        -6.30280         2.48965
| 52>    N       -8.79348        -5.89853         1.68759
| 53>    F       -7.81627        -7.59699         2.78126
| 54>    F       -5.96655        -5.81443         3.86972
| 55>    C       -7.89666        -2.29575         1.61931
| 56>    C       -8.93646        -1.84421         0.77480
| 57>    C       -9.88251        -2.76513         0.19693
| 58>    N      -10.74951        -2.14322        -0.60338
| 59>    S      -10.42181        -0.57175        -0.62303
| 60>    N       -9.16383        -0.59425         0.36765
| 61>    C       -6.85765        -1.44573         2.08263
| 62>    C       -6.77278        -0.06947         1.90748
| 63>    C       -5.57169         0.44025         2.38058
| 64>    C       -4.72695        -0.55691         2.91333
| 65>    S       -5.43927        -2.10893         2.87620
| 66>    C       -3.50662         0.05396         3.29227
| 67>    C       -3.58252         1.43207         3.01081
| 68>    C       -4.88984         1.72240         2.44520
| 69>    C       -5.36917         2.93750         2.05234
| 70>    C       -6.66049         3.09912         1.50685
| 71>    N       -7.70733         3.24301         1.06184
| 72>    C       -4.60093         4.11519         2.16718
| 73>    N       -3.97482         5.07106         2.26213
| 74>    C       -2.40020         2.10624         3.29917
| 75>    C       -1.42056         1.25372         3.78374
| 76>    S       -1.98230        -0.40768         3.90678
| 77>    C       -0.09249         1.63097         4.11779
| 78>    C        0.98457         0.83242         4.48122
| 79>    C        0.89451        -0.56126         4.61329
| 80>    N        0.80651        -1.70025         4.71881
| 81>    C        2.17404         1.58488         4.69051
| 82>    C        1.95543         2.94272         4.48877
| 83>    S        0.33927         3.32906         4.04229
| 84>    S        3.34187         3.95726         4.71112
| 85>    C        4.25366         2.52750         5.07996
| 86>    C        3.53471         1.33901         5.03753
| 87>    C        4.37820         0.22877         5.34436
| 88>    C        4.00484        -1.12832         5.39116
| 89>    N        3.75784        -2.24546         5.44098
| 90>    C        5.66498         0.62082         5.59954
| 91>    S        5.91463         2.31927         5.48430
| 92>    H      -17.56347        -7.36806       -12.16267
| 93>    H      -14.06018        -9.75706        -3.46682
| 94>    H      -10.53957        -6.92083         0.76539
| 95>    H       -7.55838         0.49624         1.44171
| 96>    H       -2.23691         3.15954         3.15470
| 97>    H        6.48926        -0.01701         5.85232
| 98> *
| 99>
|100>                          ****END OF INPUT****

CARTESIAN COORDINATES (ANGSTROEM)
---------------------------------
  C    -17.319460   -7.912530  -11.271570
  C    -16.716940   -7.411540  -10.148670
  C    -16.344030   -6.056610  -10.061270
  N    -16.061990   -4.946820  -10.043060
  C    -16.537980   -8.414590   -9.148640
  C    -17.027840   -9.638410   -9.588490
  S    -17.692900   -9.589000  -11.176080
  S    -16.862560  -10.949090   -8.463070
  C    -16.111210   -9.835480   -7.369320
  C    -15.996220   -8.530960   -7.835190
  C    -15.358040   -7.693890   -6.877610
  C    -15.098010   -6.328520   -7.066530
  N    -14.878230   -5.211540   -7.208570
  C    -14.999870   -8.382070   -5.725020
  S    -15.458780  -10.072900   -5.794650
  C    -14.305640   -7.913580   -4.577820
  C    -13.872340   -8.699420   -3.521420
  C    -13.160220   -7.962480   -2.580110
  C    -13.064240   -6.598860   -2.916760
  S    -13.846910   -6.227270   -4.387740
  C    -12.272390   -5.944990   -1.942540
  C    -11.856180   -6.901070   -0.992350
  C    -12.426150   -8.191860   -1.345400
  C    -12.307310   -9.368250   -0.666950
  C    -12.913350  -10.557680   -1.124420
  N    -13.404560  -11.524600   -1.496670
  C    -11.590030   -9.480030    0.544000
  N    -11.022480   -9.587350    1.533920
  C    -10.996060   -6.373410   -0.037330
  C    -10.759470   -5.020160   -0.241130
  S    -11.653160   -4.389490   -1.620130
  C     -9.868810   -4.154670    0.453410
  C     -8.876500   -4.590620    1.363130
  C     -7.914800   -3.677580    1.914420
  N     -6.959250   -4.140900    2.746270
  C     -6.917100   -5.398990    3.040930
  C     -7.863900   -6.302800    2.489650
  N     -8.793480   -5.898530    1.687590
  F     -7.816270   -7.596990    2.781260
  F     -5.966550   -5.814430    3.869720
  C     -7.896660   -2.295750    1.619310
  C     -8.936460   -1.844210    0.774800
  C     -9.882510   -2.765130    0.196930
  N    -10.749510   -2.143220   -0.603380
  S    -10.421810   -0.571750   -0.623030
  N     -9.163830   -0.594250    0.367650
  C     -6.857650   -1.445730    2.082630
  C     -6.772780   -0.069470    1.907480
  C     -5.571690    0.440250    2.380580
  C     -4.726950   -0.556910    2.913330
  S     -5.439270   -2.108930    2.876200
  C     -3.506620    0.053960    3.292270
  C     -3.582520    1.432070    3.010810
  C     -4.889840    1.722400    2.445200
  C     -5.369170    2.937500    2.052340
  C     -6.660490    3.099120    1.506850
  N     -7.707330    3.243010    1.061840
  C     -4.600930    4.115190    2.167180
  N     -3.974820    5.071060    2.262130
  C     -2.400200    2.106240    3.299170
  C     -1.420560    1.253720    3.783740
  S     -1.982300   -0.407680    3.906780
  C     -0.092490    1.630970    4.117790
  C      0.984570    0.832420    4.481220
  C      0.894510   -0.561260    4.613290
  N      0.806510   -1.700250    4.718810
  C      2.174040    1.584880    4.690510
  C      1.955430    2.942720    4.488770
  S      0.339270    3.329060    4.042290
  S      3.341870    3.957260    4.711120
  C      4.253660    2.527500    5.079960
  C      3.534710    1.339010    5.037530
  C      4.378200    0.228770    5.344360
  C      4.004840   -1.128320    5.391160
  N      3.757840   -2.245460    5.440980
  C      5.664980    0.620820    5.599540
  S      5.914630    2.319270    5.484300
  H    -17.563470   -7.368060  -12.162670
  H    -14.060180   -9.757060   -3.466820
  H    -10.539570   -6.920830    0.765390
  H     -7.558380    0.496240    1.441710
  H     -2.236910    3.159540    3.154700
  H      6.489260   -0.017010    5.852320

 Total Charge           Charge          ....    0
 Multiplicity           Mult            ....    1
 Number of Electrons    NEL             ....  596
 Basis Dimension        Dim             .... 1152

ORBITAL ENERGIES
----------------

  NO   OCC          E(Eh)            E(eV)
   0   2.0000     -89.050609     -2423.1903
   1   2.0000     -88.992846     -2421.6185
   2   2.0000     -88.992739     -2421.6155
   3   2.0000     -88.992315     -2421.6040
   4   2.0000     -88.992172     -2421.6001
   5   2.0000     -88.992030     -2421.5962
   6   2.0000     -88.992025     -2421.5961
   7   2.0000     -88.991639     -2421.5856
   8   2.0000     -88.991567     -2421.5836
   9   2.0000     -88.984428     -2421.3894
  10   2.0000     -88.984316     -2421.3863
  11   2.0000     -24.824432      -675.5071
  12   2.0000     -24.818803      -675.3540
  13   2.0000     -14.465896      -393.6370
  14   2.0000     -14.460892      -393.5009
  15   2.0000     -14.459870      -393.4731
  16   2.0000     -14.459102      -393.4522
  17   2.0000     -14.430704      -392.6794
  18   2.0000     -14.430123      -392.6636
  19   2.0000     -14.428862      -392.6293
  20   2.0000     -14.427274      -392.5861
  21   2.0000     -14.413539      -392.2123
  22   2.0000     -14.413232      -392.2040
  23   2.0000     -14.404349      -391.9623
  24   2.0000     -14.403992      -391.9526
  25   2.0000     -10.441054      -284.1155
  26   2.0000     -10.437854      -284.0285
  27   2.0000     -10.363341      -282.0008
  28   2.0000     -10.362953      -281.9903
  29   2.0000     -10.354310      -281.7551
  30   2.0000     -10.352752      -281.7127
  31   2.0000     -10.351501      -281.6787
  32   2.0000     -10.351053      -281.6665
  33   2.0000     -10.348503      -281.5971
  34   2.0000     -10.348323      -281.5922
  35   2.0000     -10.348029      -281.5842
  36   2.0000     -10.347028      -281.5569
  37   2.0000     -10.343131      -281.4509
  38   2.0000     -10.343098      -281.4500
  39   2.0000     -10.342270      -281.4275
  40   2.0000     -10.342211      -281.4259
  41   2.0000     -10.334293      -281.2104
  42   2.0000     -10.334264      -281.2096
  43   2.0000     -10.333230      -281.1815
  44   2.0000     -10.333159      -281.1796
  45   2.0000     -10.331375      -281.1310
  46   2.0000     -10.330734      -281.1136
  47   2.0000     -10.329737      -281.0864
  48   2.0000     -10.329454      -281.0787
  49   2.0000     -10.329439      -281.0783
  50   2.0000     -10.329428      -281.0780
  51   2.0000     -10.329317      -281.0750
  52   2.0000     -10.328557      -281.0543
  53   2.0000     -10.328357      -281.0489
  54   2.0000     -10.327415      -281.0232
  55   2.0000     -10.326383      -280.9952
  56   2.0000     -10.324949      -280.9562
  57   2.0000     -10.324692      -280.9492
  58   2.0000     -10.324215      -280.9362
  59   2.0000     -10.323676      -280.9215
  60   2.0000     -10.323611      -280.9198
  61   2.0000     -10.315968      -280.7118
  62   2.0000     -10.315807      -280.7074
  63   2.0000     -10.314738      -280.6783
  64   2.0000     -10.314589      -280.6742
  65   2.0000     -10.311960      -280.6027
  66   2.0000     -10.311627      -280.5936
  67   2.0000     -10.308408      -280.5060
  68   2.0000     -10.308312      -280.5034
  69   2.0000     -10.305644      -280.4308
  70   2.0000     -10.305541      -280.4280
  71   2.0000     -10.304451      -280.3984
  72   2.0000     -10.304100      -280.3888
  73   2.0000     -10.299481      -280.2631
  74   2.0000     -10.299286      -280.2578
  75   2.0000     -10.295892      -280.1655
  76   2.0000     -10.295557      -280.1563
  77   2.0000      -8.141598      -221.5441
  78   2.0000      -8.087400      -220.0693
  79   2.0000      -8.087367      -220.0684
  80   2.0000      -8.087296      -220.0665
  81   2.0000      -8.087228      -220.0647
  82   2.0000      -8.087092      -220.0610
  83   2.0000      -8.087075      -220.0605
  84   2.0000      -8.086660      -220.0492
  85   2.0000      -8.086581      -220.0471
  86   2.0000      -8.077676      -219.8047
  87   2.0000      -8.077286      -219.7941
  88   2.0000      -6.112698      -166.3350
  89   2.0000      -6.104901      -166.1228
  90   2.0000      -6.104378      -166.1086
  91   2.0000      -6.057387      -164.8299
  92   2.0000      -6.057250      -164.8261
  93   2.0000      -6.056933      -164.8175
  94   2.0000      -6.056803      -164.8140
  95   2.0000      -6.056739      -164.8123
  96   2.0000      -6.056723      -164.8118
  97   2.0000      -6.055958      -164.7910
  98   2.0000      -6.055891      -164.7892
  99   2.0000      -6.053144      -164.7144
 100   2.0000      -6.053069      -164.7124
 101   2.0000      -6.052544      -164.6981
 102   2.0000      -6.052531      -164.6978
 103   2.0000      -6.052461      -164.6958
 104   2.0000      -6.052313      -164.6918
 105   2.0000      -6.051587      -164.6721
 106   2.0000      -6.051517      -164.6702
 107   2.0000      -6.049188      -164.6068
 108   2.0000      -6.049071      -164.6036
 109   2.0000      -6.049061      -164.6033
 110   2.0000      -6.048956      -164.6005
 111   2.0000      -6.048506      -164.5882
 112   2.0000      -6.048499      -164.5880
 113   2.0000      -6.048190      -164.5796
 114   2.0000      -6.048080      -164.5766
 115   2.0000      -6.047061      -164.5489
 116   2.0000      -6.046755      -164.5406
 117   2.0000      -6.042468      -164.4239
 118   2.0000      -6.042011      -164.4115
 119   2.0000      -6.040161      -164.3611
 120   2.0000      -6.039797      -164.3512
 121   2.0000      -1.351126       -36.7660
 122   2.0000      -1.336126       -36.3579
 123   2.0000      -1.148473       -31.2515
 124   2.0000      -1.122686       -30.5498
 125   2.0000      -1.050051       -28.5733
 126   2.0000      -1.048508       -28.5314
 127   2.0000      -1.047871       -28.5140
 128   2.0000      -1.042901       -28.3788
 129   2.0000      -1.042018       -28.3548
 130   2.0000      -1.022184       -27.8151
 131   2.0000      -1.021578       -27.7985
 132   2.0000      -1.016082       -27.6490
 133   2.0000      -1.015456       -27.6320
 134   2.0000      -1.007457       -27.4143
 135   2.0000      -1.006813       -27.3968
 136   2.0000      -1.006150       -27.3787
 137   2.0000      -0.999198       -27.1895
 138   2.0000      -0.996770       -27.1235
 139   2.0000      -0.996378       -27.1128
 140   2.0000      -0.990747       -26.9596
 141   2.0000      -0.984670       -26.7942
 142   2.0000      -0.983770       -26.7697
 143   2.0000      -0.977788       -26.6070
 144   2.0000      -0.960105       -26.1258
 145   2.0000      -0.955398       -25.9977
 146   2.0000      -0.946984       -25.7688
 147   2.0000      -0.946822       -25.7643
 148   2.0000      -0.918087       -24.9824
 149   2.0000      -0.909530       -24.7496
 150   2.0000      -0.900930       -24.5155
 151   2.0000      -0.899896       -24.4874
 152   2.0000      -0.893688       -24.3185
 153   2.0000      -0.886864       -24.1328
 154   2.0000      -0.876256       -23.8441
 155   2.0000      -0.874745       -23.8030
 156   2.0000      -0.870019       -23.6744
 157   2.0000      -0.868580       -23.6353
 158   2.0000      -0.853794       -23.2329
 159   2.0000      -0.852770       -23.2050
 160   2.0000      -0.844763       -22.9872
 161   2.0000      -0.835844       -22.7445
 162   2.0000      -0.826329       -22.4855
 163   2.0000      -0.822888       -22.3919
 164   2.0000      -0.820579       -22.3291
 165   2.0000      -0.802259       -21.8306
 166   2.0000      -0.787411       -21.4266
 167   2.0000      -0.778731       -21.1903
 168   2.0000      -0.777213       -21.1490
 169   2.0000      -0.769134       -20.9292
 170   2.0000      -0.764500       -20.8031
 171   2.0000      -0.749242       -20.3879
 172   2.0000      -0.737732       -20.0747
 173   2.0000      -0.719030       -19.5658
 174   2.0000      -0.712494       -19.3879
 175   2.0000      -0.711880       -19.3712
 176   2.0000      -0.704163       -19.1612
 177   2.0000      -0.699775       -19.0419
 178   2.0000      -0.699185       -19.0258
 179   2.0000      -0.690629       -18.7930
 180   2.0000      -0.689976       -18.7752
 181   2.0000      -0.685305       -18.6481
 182   2.0000      -0.682729       -18.5780
 183   2.0000      -0.678318       -18.4580
 184   2.0000      -0.675069       -18.3696
 185   2.0000      -0.668280       -18.1848
 186   2.0000      -0.663477       -18.0541
 187   2.0000      -0.661393       -17.9974
 188   2.0000      -0.646348       -17.5880
 189   2.0000      -0.645880       -17.5753
 190   2.0000      -0.640921       -17.4404
 191   2.0000      -0.638526       -17.3752
 192   2.0000      -0.634600       -17.2684
 193   2.0000      -0.631972       -17.1968
 194   2.0000      -0.626334       -17.0434
 195   2.0000      -0.623565       -16.9681
 196   2.0000      -0.615072       -16.7370
 197   2.0000      -0.614013       -16.7081
 198   2.0000      -0.612666       -16.6715
 199   2.0000      -0.598764       -16.2932
 200   2.0000      -0.588950       -16.0262
 201   2.0000      -0.584387       -15.9020
 202   2.0000      -0.577104       -15.7038
 203   2.0000      -0.574636       -15.6366
 204   2.0000      -0.562434       -15.3046
 205   2.0000      -0.557986       -15.1836
 206   2.0000      -0.555780       -15.1235
 207   2.0000      -0.550416       -14.9776
 208   2.0000      -0.549982       -14.9658
 209   2.0000      -0.545621       -14.8471
 210   2.0000      -0.544039       -14.8041
 211   2.0000      -0.543087       -14.7781
 212   2.0000      -0.542746       -14.7689
 213   2.0000      -0.536848       -14.6084
 214   2.0000      -0.532525       -14.4907
 215   2.0000      -0.528689       -14.3864
 216   2.0000      -0.527420       -14.3518
 217   2.0000      -0.525413       -14.2972
 218   2.0000      -0.524317       -14.2674
 219   2.0000      -0.520482       -14.1630
 220   2.0000      -0.518664       -14.1136
 221   2.0000      -0.515809       -14.0359
 222   2.0000      -0.512161       -13.9366
 223   2.0000      -0.511989       -13.9319
 224   2.0000      -0.504341       -13.7238
 225   2.0000      -0.500759       -13.6264
 226   2.0000      -0.500053       -13.6071
 227   2.0000      -0.499406       -13.5895
 228   2.0000      -0.498236       -13.5577
 229   2.0000      -0.494822       -13.4648
 230   2.0000      -0.494204       -13.4480
 231   2.0000      -0.492544       -13.4028
 232   2.0000      -0.489687       -13.3250
 233   2.0000      -0.485997       -13.2246
 234   2.0000      -0.479254       -13.0412
 235   2.0000      -0.478501       -13.0207
 236   2.0000      -0.476765       -12.9734
 237   2.0000      -0.473260       -12.8781
 238   2.0000      -0.473153       -12.8751
 239   2.0000      -0.466834       -12.7032
 240   2.0000      -0.464147       -12.6301
 241   2.0000      -0.462082       -12.5739
 242   2.0000      -0.461865       -12.5680
 243   2.0000      -0.461325       -12.5533
 244   2.0000      -0.461111       -12.5475
 245   2.0000      -0.460726       -12.5370
 246   2.0000      -0.460103       -12.5200
 247   2.0000      -0.459831       -12.5126
 248   2.0000      -0.455051       -12.3826
 249   2.0000      -0.454750       -12.3744
 250   2.0000      -0.453759       -12.3474
 251   2.0000      -0.452304       -12.3078
 252   2.0000      -0.451427       -12.2839
 253   2.0000      -0.448575       -12.2063
 254   2.0000      -0.441671       -12.0185
 255   2.0000      -0.441253       -12.0071
 256   2.0000      -0.440925       -11.9982
 257   2.0000      -0.439933       -11.9712
 258   2.0000      -0.438927       -11.9438
 259   2.0000      -0.438480       -11.9316
 260   2.0000      -0.437749       -11.9118
 261   2.0000      -0.436319       -11.8728
 262   2.0000      -0.435200       -11.8424
 263   2.0000      -0.430213       -11.7067
 264   2.0000      -0.429636       -11.6910
 265   2.0000      -0.429339       -11.6829
 266   2.0000      -0.427845       -11.6422
 267   2.0000      -0.426778       -11.6132
 268   2.0000      -0.418490       -11.3877
 269   2.0000      -0.418109       -11.3773
 270   2.0000      -0.416671       -11.3382
 271   2.0000      -0.415429       -11.3044
 272   2.0000      -0.411430       -11.1956
 273   2.0000      -0.404836       -11.0161
 274   2.0000      -0.403680       -10.9847
 275   2.0000      -0.403285       -10.9739
 276   2.0000      -0.390403       -10.6234
 277   2.0000      -0.390107       -10.6153
 278   2.0000      -0.382512       -10.4087
 279   2.0000      -0.380578       -10.3560
 280   2.0000      -0.378922       -10.3110
 281   2.0000      -0.377352       -10.2683
 282   2.0000      -0.373147       -10.1538
 283   2.0000      -0.372081       -10.1248
 284   2.0000      -0.351159        -9.5555
 285   2.0000      -0.349587        -9.5127
 286   2.0000      -0.346465        -9.4278
 287   2.0000      -0.345102        -9.3907
 288   2.0000      -0.337748        -9.1906
 289   2.0000      -0.326143        -8.8748
 290   2.0000      -0.320728        -8.7274
 291   2.0000      -0.320155        -8.7118
 292   2.0000      -0.313684        -8.5358
 293   2.0000      -0.303715        -8.2645
 294   2.0000      -0.303325        -8.2539
 295   2.0000      -0.291233        -7.9248
 296   2.0000      -0.266295        -7.2462
 297   2.0000      -0.237762        -6.4698
 298   0.0000      -0.125095        -3.4040
 299   0.0000      -0.102262        -2.7827
 300   0.0000      -0.097065        -2.6413
 301   0.0000      -0.054678        -1.4879
 302   0.0000      -0.053831        -1.4648

MULLIKEN ATOMIC CHARGES
-----------------------
   0 C :   -0.082150
   1 C :   -0.083798
   2 C :   -0.251981
   3 N :    0.197971
   4 C :    0.181993
   5 C :   -0.266026
   6 S :    0.171941
   7 S :    0.193543
   8 C :   -0.223227
   9 C :    0.133340
  10 C :    0.006577
  11 C :   -0.368184
  12 N :    0.222307
  13 C :   -0.069306
  14 S :    0.174064
  15 C :   -0.098956
  16 C :   -0.068014
  17 C :    0.028508
  18 C :   -0.091905
  19 S :    0.224117
  20 C :   -0.073625
  21 C :    0.036510
  22 C :    0.305651
  23 C :   -0.306330
  24 C :   -0.189890
  25 N :    0.170517
  26 C :   -0.191255
  27 N :    0.182332
  28 C :   -0.054048
  29 C :   -0.181685
  30 S :    0.215454
  31 C :    0.194542
  32 C :   -0.069436
  33 C :   -0.063828
  34 N :   -0.055006
  35 C :    0.155700
  36 C :    0.147965
  37 N :    0.006603
  38 F :   -0.129187
  39 F :   -0.131055
  40 C :    0.173473
  41 C :   -0.003020
  42 C :   -0.031383
  43 N :   -0.332317
  44 S :    0.570468
  45 N :   -0.280560
  46 C :   -0.179243
  47 C :   -0.055753
  48 C :    0.031768
  49 C :   -0.065790
  50 S :    0.215037
  51 C :   -0.096653
  52 C :    0.031525
  53 C :    0.308672
  54 C :   -0.305227
  55 C :   -0.188736
  56 N :    0.175933
  57 C :   -0.189831
  58 N :    0.167592
  59 C :   -0.072486
  60 C :   -0.097315
  61 S :    0.227527
  62 C :   -0.067216
  63 C :    0.005181
  64 C :   -0.368523
  65 N :    0.221742
  66 C :    0.136768
  67 C :   -0.224689
  68 S :    0.173183
  69 S :    0.193166
  70 C :   -0.266648
  71 C :    0.182853
  72 C :   -0.084536
  73 C :   -0.250184
  74 N :    0.195596
  75 C :   -0.081310
  76 S :    0.171903
  77 H :    0.039196
  78 H :    0.017584
  79 H :    0.022757
  80 H :    0.021087
  81 H :    0.017796
  82 H :    0.039870
Sum of atomic charges:   -0.0000000

LOEWDIN ATOMIC CHARGES
----------------------
   0 C :   -0.138633
   1 C :   -0.096748
   2 C :   -0.040816
   3 N :   -0.031258
   4 C :   -0.064844
   5 C :   -0.335072
   6 S :    0.461317
   7 S :    0.426769
   8 C :   -0.333282
   9 C :   -0.060856
  10 C :   -0.109267
  11 C :   -0.058855
  12 N :   -0.027717
  13 C :   -0.138439
  14 S :    0.459934
  15 C :   -0.191029
  16 C :   -0.029868
  17 C :   -0.067362
  18 C :   -0.175161
  19 S :    0.521928
  20 C :   -0.182935
  21 C :   -0.072551
  22 C :    0.081466
  23 C :   -0.103587
  24 C :   -0.015829
  25 N :   -0.037228
  26 C :   -0.019180
  27 N :   -0.028057
  28 C :   -0.012630
  29 C :   -0.162329
  30 S :    0.517374
  31 C :   -0.046681
  32 C :   -0.007591
  33 C :   -0.016301
  34 N :   -0.059281
  35 C :    0.065244
  36 C :    0.062531
  37 N :   -0.028849
  38 F :   -0.018424
  39 F :   -0.020863
  40 C :   -0.042770
  41 C :   -0.039182
  42 C :   -0.048184
  43 N :   -0.304526
  44 S :    0.689910
  45 N :   -0.271444
  46 C :   -0.166043
  47 C :   -0.011946
  48 C :   -0.073468
  49 C :   -0.182401
  50 S :    0.516517
  51 C :   -0.174829
  52 C :   -0.067786
  53 C :    0.082715
  54 C :   -0.105250
  55 C :   -0.017049
  56 N :   -0.032890
  57 C :   -0.016021
  58 N :   -0.037504
  59 C :   -0.030052
  60 C :   -0.190864
  61 S :    0.523533
  62 C :   -0.138427
  63 C :   -0.108663
  64 C :   -0.058806
  65 N :   -0.026825
  66 C :   -0.060847
  67 C :   -0.333469
  68 S :    0.459734
  69 S :    0.426799
  70 C :   -0.335210
  71 C :   -0.064739
  72 C :   -0.096435
  73 C :   -0.040786
  74 N :   -0.030997
  75 C :   -0.138674
  76 S :    0.461100
  77 H :    0.037238
  78 H :    0.034990
  79 H :    0.038216
  80 H :    0.037994
  81 H :    0.034919
  82 H :    0.037385

  Mayer bond orders larger than 0.100000
B(  0-C ,  1-C ) :   1.5723 B(  0-C ,  6-S ) :   1.1728 B(  0-C , 77-H ) :   0.9692
B(  1-C ,  2-C ) :   1.1552 B(  1-C ,  4-C ) :   1.2424 B(  2-C ,  3-N ) :   3.0346
B(  4-C ,  5-C ) :   1.3954 B(  4-C ,  9-C ) :   1.0675 B(  5-C ,  6-S ) :   1.1165
B(  5-C ,  7-S ) :   1.0839 B(  7-S ,  8-C ) :   1.0861 B(  8-C ,  9-C ) :   1.4303
B(  8-C , 14-S ) :   1.0797 B(  9-C , 10-C ) :   1.2539 B( 10-C , 11-C ) :   1.1559
B( 10-C , 13-C ) :   1.4869 B( 11-C , 12-N ) :   2.9640 B( 13-C , 14-S ) :   1.1449
B( 13-C , 15-C ) :   1.1982 B( 15-C , 16-C ) :   1.4292 B( 15-C , 19-S ) :   1.1077
B( 16-C , 17-C ) :   1.3185 B( 16-C , 78-H ) :   0.9833 B( 17-C , 18-C ) :   1.4217
B( 17-C , 22-C ) :   0.9882 B( 18-C , 19-S ) :   1.1289 B( 18-C , 20-C ) :   1.1896
B( 20-C , 21-C ) :   1.4005 B( 20-C , 30-S ) :   1.1124 B( 21-C , 22-C ) :   0.9921
B( 21-C , 28-C ) :   1.2720 B( 22-C , 23-C ) :   1.7137 B( 23-C , 24-C ) :   1.1345
B( 23-C , 26-C ) :   1.1378 B( 24-C , 25-N ) :   2.9892 B( 26-C , 27-N ) :   2.9938
B( 28-C , 29-C ) :   1.4184 B( 28-C , 79-H ) :   0.9899 B( 29-C , 30-S ) :   1.0998
B( 29-C , 31-C ) :   1.1713 B( 31-C , 32-C ) :   1.3056 B( 31-C , 40-C ) :   0.1260
B( 31-C , 42-C ) :   1.1884 B( 32-C , 33-C ) :   1.1182 B( 32-C , 37-N ) :   1.4320
B( 33-C , 34-N ) :   1.3746 B( 33-C , 40-C ) :   1.2937 B( 34-N , 35-C ) :   1.6547
B( 35-C , 36-C ) :   1.1023 B( 35-C , 39-F ) :   1.1925 B( 36-C , 37-N ) :   1.6633
B( 36-C , 38-F ) :   1.1855 B( 40-C , 41-C ) :   1.2039 B( 40-C , 46-C ) :   1.1855
B( 41-C , 42-C ) :   1.1153 B( 41-C , 45-N ) :   1.5077 B( 42-C , 43-N ) :   1.4721
B( 43-N , 44-S ) :   1.2727 B( 43-N , 45-N ) :   0.1510 B( 44-S , 45-N ) :   1.2875
B( 46-C , 47-C ) :   1.4232 B( 46-C , 50-S ) :   1.0909 B( 47-C , 48-C ) :   1.2761
B( 47-C , 80-H ) :   0.9832 B( 48-C , 49-C ) :   1.4021 B( 48-C , 53-C ) :   0.9937
B( 49-C , 50-S ) :   1.1009 B( 49-C , 51-C ) :   1.1923 B( 51-C , 52-C ) :   1.4182
B( 51-C , 61-S ) :   1.1303 B( 52-C , 53-C ) :   0.9887 B( 52-C , 59-C ) :   1.3172
B( 53-C , 54-C ) :   1.7092 B( 54-C , 55-C ) :   1.1390 B( 54-C , 57-C ) :   1.1350
B( 55-C , 56-N ) :   2.9889 B( 57-C , 58-N ) :   2.9884 B( 59-C , 60-C ) :   1.4302
B( 59-C , 81-H ) :   0.9837 B( 60-C , 61-S ) :   1.1080 B( 60-C , 62-C ) :   1.1954
B( 62-C , 63-C ) :   1.4901 B( 62-C , 68-S ) :   1.1432 B( 63-C , 64-C ) :   1.1545
B( 63-C , 66-C ) :   1.2544 B( 64-C , 65-N ) :   2.9644 B( 66-C , 67-C ) :   1.4291
B( 66-C , 71-C ) :   1.0659 B( 67-C , 68-S ) :   1.0802 B( 67-C , 69-S ) :   1.0865
B( 69-S , 70-C ) :   1.0836 B( 70-C , 71-C ) :   1.3955 B( 70-C , 76-S ) :   1.1170
B( 71-C , 72-C ) :   1.2429 B( 72-C , 73-C ) :   1.1541 B( 72-C , 75-C ) :   1.5737
B( 73-C , 74-N ) :   3.0341 B( 75-C , 76-S ) :   1.1712 B( 75-C , 82-H ) :   0.9684

-----------------------------------------------------------------------------
         ABSORPTION SPECTRUM VIA TRANSITION ELECTRIC DIPOLE MOMENTS
-----------------------------------------------------------------------------
State   Energy  Wavelength   fosc         T2         TX        TY        TZ
        (cm-1)    (nm)                  (au**2)     (au)      (au)      (au)
-----------------------------------------------------------------------------
   0    9603.5   1041.3   0.883385257  30.28273  -3.90031  -3.01548  -2.44483
   1   12702.9    787.2   0.015310530   0.39679  -0.10825   0.16333   0.59866
   2   13562.7    737.3   0.019025219   0.46181   0.32992   0.58393   0.10949
   3   17584.6    568.7   0.031386943   0.58762   0.42545   0.06102  -0.63473
   4   21855.0    457.6   0.025666317   0.38662   0.39024   0.45422   0.16739
   5   23121.3    432.5   0.024259579   0.34542  -0.04580  -0.07359  -0.58130
   6   24109.1    414.8   0.728164664   9.94317   2.43033   1.13188   1.65998
   7   25548.3    391.4   1.024372586  13.19992   2.75638   1.19031   2.04583
   8   26296.4    380.3   0.177499378   2.22216  -1.01405   0.06473   1.09072
   9   26412.7    378.6   0.068619151   0.85528   0.58807   0.21143   0.68173
  10   26994.5    370.4   0.044501367   0.54272  -0.03224   0.70573   0.20888
  11   27010.1    370.2   0.059770002   0.72851  -0.62819  -0.57667   0.03646
  12   28131.6    355.5   0.007447752   0.08716   0.26058  -0.10982  -0.08481
  13   28685.8    348.6   0.004395777   0.05045   0.15868   0.15851  -0.01193
  14   28889.7    346.1   0.001593436   0.01816   0.10102  -0.08389  -0.03026
  15   29376.9    340.4   0.084055149   0.94196  -0.64580  -0.58007  -0.43408
  16   29887.8    334.6   0.043477404   0.47890   0.24655  -0.59279   0.25829
  17   30489.1    328.0   0.073405303   0.79261   0.14712  -0.53928   0.69292
  18   31221.0    320.3   0.055459522   0.58480  -0.28736   0.64357  -0.29671
  19   31496.0    317.5   0.149454225   1.56217   0.96987   0.01128   0.78828
  20   31623.0    316.2   0.836535252   8.70878  -0.04724   2.82013  -0.86800
  21   32067.2    311.8   0.175711741   1.80391  -0.14151   1.27772  -0.38901
  22   32134.0    311.2   0.054534970   0.55871  -0.29023   0.67112   0.15515
  23   32456.7    308.1   0.049196673   0.49901   0.65541   0.03619  -0.26102
  24   33007.9    303.0   0.020887389   0.20833   0.28897  -0.11756   0.33317
  25   33089.0    302.2   0.010779018   0.10724  -0.18905   0.11558  -0.24113
  26   33239.8    300.8   0.120313750   1.19161  -0.69181   0.51363  -0.67021
  27   33668.5    297.0   0.130792676   1.27889  -0.65052  -0.86875  -0.31781
  28   33817.1    295.7   0.067910985   0.66112  -0.31795   0.70194   0.25945
  29   34154.1    292.8   0.145490009   1.40238  -0.98481   0.02378  -0.65723
  30   34562.2    289.3   0.057018421   0.54311   0.14277  -0.66097   0.29299
  31   34888.4    286.6   0.029247686   0.27599  -0.30764  -0.10696   0.41219
  32   35378.9    282.7   0.241351640   2.24585   1.14666   0.19146   0.94571
  33   35550.0    281.3   0.117032468   1.08378  -0.73474   0.36389  -0.64150
  34   35840.3    279.0   0.358538956   3.29337   0.25839  -1.69742   0.58769
  35   36270.8    275.7   0.150113180   1.36250  -0.99315   0.29665  -0.53680
  36   36428.8    274.5   0.195803598   1.76950   0.53544  -0.53274   1.09499
  37   36727.7    272.3   0.240989988   2.16014   0.58660  -1.12322   0.74458
  38   36960.7    270.6   0.009957976   0.08870  -0.01926   0.25128   0.15870
  39   37024.1    270.1   0.025204817   0.22412   0.38843   0.22105   0.15613
  40   37869.0    264.1   0.012073753   0.10496  -0.11358   0.23867  -0.18734
  41   37994.7    263.2   0.004145650   0.03592   0.15936  -0.07031  -0.07470
  42   38028.6    263.0   0.022512190   0.19489  -0.14299   0.37215  -0.18959
  43   38260.9    261.4   0.004219083   0.03630  -0.11014  -0.00580  -0.15537
  44   38644.5    258.8   0.002597110   0.02212   0.03125   0.10234  -0.10332
  45   38747.8    258.1   0.005017939   0.04263  -0.06158   0.17860  -0.08332
  46   38900.2    257.1   0.000428266   0.00362  -0.02768   0.04825   0.02302
  47   39191.0    255.2   0.019420587   0.16314  -0.08218   0.37609  -0.12223
  48   39300.1    254.5   0.003115819   0.02610  -0.03705  -0.04305  -0.15124
  49   39434.0    253.6   0.003374846   0.02817   0.03820  -0.15702   0.04540
  50   39621.7    252.4   0.008925131   0.07416   0.00210  -0.18808   0.19692
  51   39727.1    251.7   0.002536871   0.02102  -0.07830  -0.10832  -0.05619
  52   40154.6    249.0   0.133646380   1.09572  -0.46314   0.78696  -0.51177

FINAL SINGLE POINT ENERGY     -7216.886362256892

DIPOLE MOMENT
-------------
                                X             Y             Z
Electronic contribution:      0.75966      -5.83396       8.05275
Nuclear contribution   :     -0.55207       6.20072      -8.85301
                        -----------------------------------------
Total Dipole Moment    :      0.20759       0.36676      -0.80026
                        -----------------------------------------
Magnitude (a.u.)       :      0.90444
Magnitude (Debye)      :      2.29891

Rotational constants in cm-1:     0.001530     0.000164     0.000157
Rotational constants in MHz :    45.854944     4.902248     4.713740

                             ****ORCA TERMINATED NORMALLY****
TOTAL RUN TIME: 0 days 0 hours 9 minutes 8 seconds 426 msec
