                         Program Version 4.2.0 -  RELEASE  -
|  1> # ORCA input file
|  2> # SCF done       -192.407296159556          0.000787771909
|  3> ! CAM-B3LYP def2-SVP def2/J RIJCOSX Grid4 TightSCF
|  4> %maxcore 5000
|  5> %tddft
|  6>     Mode sTDDFT
|  7>     Ethresh 5.0
|  8>     maxcore 5000
|  9> end
| 10>
| 11> %pal
| 12>   nprocs 6
| 13>   end
| 14> * xyz 0 1
| 15>    C       -5.97733         6.16929        -7.80319
| 16>    C       -6.57786         5.30904        -6.92342
| 17>    C       -7.13953         5.76989        -5.71703
| 18>    N       -7.57879         6.19713        -4.74942
| 19>    C       -6.54419         3.96062        -7.39121
| 20>    C       -5.90532         3.88444        -8.62297
| 21>    S       -5.35389         5.40535        -9.21314
| 22>    S       -5.79444         2.29092        -9.30137
| 23>    C       -6.62516         1.70183        -7.89996
| 24>    C       -6.97098         2.66943        -6.96385
| 25>    C       -7.64556         2.09469        -5.85065
| 26>    C       -8.11653         2.82095        -4.74690
| 27>    N       -8.50752         3.40083        -3.83738
| 28>    C       -7.78876         0.71789        -5.96898
| 29>    S       -7.09739         0.10662        -7.45987
| 30>    C       -8.38564        -0.20452        -5.06861
| 31>    C       -8.44308        -1.57818        -5.24162
| 32>    C       -9.08030        -2.21359        -4.17962
| 33>    C       -9.51249        -1.31074        -3.18946
| 34>    S       -9.13568         0.31214        -3.56519
| 35>    C      -10.12869        -2.04491        -2.15016
| 36>    C      -10.08971        -3.41645        -2.47847
| 37>    C       -9.40368        -3.56599        -3.75468
| 38>    C       -9.06751        -4.72536        -4.38684
| 39>    C       -8.39413        -4.72389        -5.62769
| 40>    N       -7.85006        -4.72375        -6.63703
| 41>    C       -9.30497        -6.00347        -3.83379
| 42>    N       -9.43775        -7.05103        -3.38905
| 43>    C      -10.69051        -4.22468        -1.52202
| 44>    C      -11.16992        -3.47798        -0.45049
| 45>    S      -10.88098        -1.75350        -0.64714
| 46>    C      -11.79388        -3.98473         0.70401
| 47>    C      -12.17765        -5.31269         0.94095
| 48>    C      -12.72411        -5.50165         2.25567
| 49>    N      -13.12098        -6.69756         2.68714
| 50>    C      -13.02625        -7.69810         1.83791
| 51>    C      -13.44529        -9.03814         2.31952
| 52>    O      -13.87333        -9.22429         3.43870
| 53>    C      -13.29467       -10.12553         1.33716
| 54>    C      -12.87914        -9.93667         0.08054
| 55>    C      -12.53049        -8.61685        -0.47612
| 56>    O      -12.28162        -8.45028        -1.64970
| 57>    C      -12.54007        -7.50137         0.50610
| 58>    N      -12.11111        -6.33248         0.08167
| 59>    C      -12.78503        -4.32660         3.01255
| 60>    S      -12.16283        -2.99667         2.09001
| 61>    C      -13.25564        -4.24378         4.33315
| 62>    C      -13.38023        -3.11285         5.13089
| 63>    C      -13.85569        -3.43374         6.39522
| 64>    C      -14.08572        -4.81722         6.55845
| 65>    S      -13.73984        -5.72289         5.15195
| 66>    C      -14.53594        -5.03731         7.88398
| 67>    C      -14.59911        -3.79950         8.55234
| 68>    C      -14.18136        -2.75104         7.63738
| 69>    C      -14.11151        -1.41240         7.88946
| 70>    C      -13.68751        -0.48682         6.91264
| 71>    N      -13.34383         0.26291         6.11623
| 72>    C      -14.46101        -0.86731         9.14293
| 73>    N      -14.74483        -0.42551        10.16220
| 74>    C      -15.01594        -3.92182         9.87429
| 75>    C      -15.26243        -5.24089        10.22082
| 76>    S      -14.98345        -6.34697         8.88302
| 77>    C      -15.68336        -5.68984        11.50144
| 78>    C      -15.87890        -6.98614        11.96030
| 79>    C      -15.67770        -8.12076        11.15995
| 80>    N      -15.50615        -9.04110        10.49715
| 81>    C      -16.29063        -7.02568        13.32185
| 82>    C      -16.39880        -5.74631        13.85458
| 83>    S      -16.00870        -4.49340        12.74173
| 84>    S      -16.89364        -5.67369        15.51306
| 85>    C      -16.95916        -7.40789        15.50636
| 86>    C      -16.62119        -8.00890        14.29979
| 87>    C      -16.70396        -9.43030        14.40456
| 88>    C      -16.43310       -10.36959        13.39076
| 89>    N      -16.22351       -11.17608        12.60529
| 90>    C      -17.09208        -9.82787        15.65593
| 91>    S      -17.37120        -8.52783        16.74781
| 92>    H       -5.87021         7.23008        -7.68741
| 93>    H       -8.03366        -2.07370        -6.10392
| 94>    H      -10.79819        -5.29395        -1.56296
| 95>    H      -13.56097       -11.10887         1.70071
| 96>    H      -12.79815       -10.76057        -0.61555
| 97>    H      -13.12955        -2.12634         4.78387
| 98>    H      -15.13223        -3.10544        10.56485
| 99>    H      -17.22859       -10.83705        15.99216
|100> *
|101>
|102>                          ****END OF INPUT****

CARTESIAN COORDINATES (ANGSTROEM)
---------------------------------
  C     -5.977330    6.169290   -7.803190
  C     -6.577860    5.309040   -6.923420
  C     -7.139530    5.769890   -5.717030
  N     -7.578790    6.197130   -4.749420
  C     -6.544190    3.960620   -7.391210
  C     -5.905320    3.884440   -8.622970
  S     -5.353890    5.405350   -9.213140
  S     -5.794440    2.290920   -9.301370
  C     -6.625160    1.701830   -7.899960
  C     -6.970980    2.669430   -6.963850
  C     -7.645560    2.094690   -5.850650
  C     -8.116530    2.820950   -4.746900
  N     -8.507520    3.400830   -3.837380
  C     -7.788760    0.717890   -5.968980
  S     -7.097390    0.106620   -7.459870
  C     -8.385640   -0.204520   -5.068610
  C     -8.443080   -1.578180   -5.241620
  C     -9.080300   -2.213590   -4.179620
  C     -9.512490   -1.310740   -3.189460
  S     -9.135680    0.312140   -3.565190
  C    -10.128690   -2.044910   -2.150160
  C    -10.089710   -3.416450   -2.478470
  C     -9.403680   -3.565990   -3.754680
  C     -9.067510   -4.725360   -4.386840
  C     -8.394130   -4.723890   -5.627690
  N     -7.850060   -4.723750   -6.637030
  C     -9.304970   -6.003470   -3.833790
  N     -9.437750   -7.051030   -3.389050
  C    -10.690510   -4.224680   -1.522020
  C    -11.169920   -3.477980   -0.450490
  S    -10.880980   -1.753500   -0.647140
  C    -11.793880   -3.984730    0.704010
  C    -12.177650   -5.312690    0.940950
  C    -12.724110   -5.501650    2.255670
  N    -13.120980   -6.697560    2.687140
  C    -13.026250   -7.698100    1.837910
  C    -13.445290   -9.038140    2.319520
  O    -13.873330   -9.224290    3.438700
  C    -13.294670  -10.125530    1.337160
  C    -12.879140   -9.936670    0.080540
  C    -12.530490   -8.616850   -0.476120
  O    -12.281620   -8.450280   -1.649700
  C    -12.540070   -7.501370    0.506100
  N    -12.111110   -6.332480    0.081670
  C    -12.785030   -4.326600    3.012550
  S    -12.162830   -2.996670    2.090010
  C    -13.255640   -4.243780    4.333150
  C    -13.380230   -3.112850    5.130890
  C    -13.855690   -3.433740    6.395220
  C    -14.085720   -4.817220    6.558450
  S    -13.739840   -5.722890    5.151950
  C    -14.535940   -5.037310    7.883980
  C    -14.599110   -3.799500    8.552340
  C    -14.181360   -2.751040    7.637380
  C    -14.111510   -1.412400    7.889460
  C    -13.687510   -0.486820    6.912640
  N    -13.343830    0.262910    6.116230
  C    -14.461010   -0.867310    9.142930
  N    -14.744830   -0.425510   10.162200
  C    -15.015940   -3.921820    9.874290
  C    -15.262430   -5.240890   10.220820
  S    -14.983450   -6.346970    8.883020
  C    -15.683360   -5.689840   11.501440
  C    -15.878900   -6.986140   11.960300
  C    -15.677700   -8.120760   11.159950
  N    -15.506150   -9.041100   10.497150
  C    -16.290630   -7.025680   13.321850
  C    -16.398800   -5.746310   13.854580
  S    -16.008700   -4.493400   12.741730
  S    -16.893640   -5.673690   15.513060
  C    -16.959160   -7.407890   15.506360
  C    -16.621190   -8.008900   14.299790
  C    -16.703960   -9.430300   14.404560
  C    -16.433100  -10.369590   13.390760
  N    -16.223510  -11.176080   12.605290
  C    -17.092080   -9.827870   15.655930
  S    -17.371200   -8.527830   16.747810
  H     -5.870210    7.230080   -7.687410
  H     -8.033660   -2.073700   -6.103920
  H    -10.798190   -5.293950   -1.562960
  H    -13.560970  -11.108870    1.700710
  H    -12.798150  -10.760570   -0.615550
  H    -13.129550   -2.126340    4.783870
  H    -15.132230   -3.105440   10.564850
  H    -17.228590  -10.837050   15.992160

 Total Charge           Charge          ....    0
 Multiplicity           Mult            ....    1
 Number of Electrons    NEL             ....  594
 Basis Dimension        Dim             .... 1162

ORBITAL ENERGIES
----------------

  NO   OCC          E(Eh)            E(eV)
   0   2.0000     -89.004643     -2421.9395
   1   2.0000     -88.995632     -2421.6943
   2   2.0000     -88.994948     -2421.6757
   3   2.0000     -88.993319     -2421.6313
   4   2.0000     -88.993091     -2421.6251
   5   2.0000     -88.992735     -2421.6154
   6   2.0000     -88.992224     -2421.6015
   7   2.0000     -88.991937     -2421.5937
   8   2.0000     -88.991663     -2421.5862
   9   2.0000     -88.991085     -2421.5705
  10   2.0000     -88.988200     -2421.4920
  11   2.0000     -19.229374      -523.2579
  12   2.0000     -19.227872      -523.2170
  13   2.0000     -14.457259      -393.4020
  14   2.0000     -14.454123      -393.3167
  15   2.0000     -14.433085      -392.7442
  16   2.0000     -14.432780      -392.7359
  17   2.0000     -14.432552      -392.7297
  18   2.0000     -14.427551      -392.5936
  19   2.0000     -14.414501      -392.2385
  20   2.0000     -14.412650      -392.1881
  21   2.0000     -14.404562      -391.9681
  22   2.0000     -14.403492      -391.9389
  23   2.0000     -10.379166      -282.4315
  24   2.0000     -10.376698      -282.3643
  25   2.0000     -10.367318      -282.1091
  26   2.0000     -10.366349      -282.0827
  27   2.0000     -10.354531      -281.7611
  28   2.0000     -10.353651      -281.7372
  29   2.0000     -10.349368      -281.6206
  30   2.0000     -10.348106      -281.5863
  31   2.0000     -10.347171      -281.5608
  32   2.0000     -10.345431      -281.5135
  33   2.0000     -10.343932      -281.4727
  34   2.0000     -10.342814      -281.4423
  35   2.0000     -10.342799      -281.4419
  36   2.0000     -10.341805      -281.4148
  37   2.0000     -10.341631      -281.4101
  38   2.0000     -10.340201      -281.3712
  39   2.0000     -10.339420      -281.3499
  40   2.0000     -10.337621      -281.3010
  41   2.0000     -10.337042      -281.2852
  42   2.0000     -10.336263      -281.2640
  43   2.0000     -10.335861      -281.2531
  44   2.0000     -10.334844      -281.2254
  45   2.0000     -10.334435      -281.2143
  46   2.0000     -10.334399      -281.2133
  47   2.0000     -10.333254      -281.1821
  48   2.0000     -10.333247      -281.1819
  49   2.0000     -10.333044      -281.1764
  50   2.0000     -10.332448      -281.1602
  51   2.0000     -10.330460      -281.1061
  52   2.0000     -10.330019      -281.0941
  53   2.0000     -10.329520      -281.0805
  54   2.0000     -10.329270      -281.0737
  55   2.0000     -10.329124      -281.0698
  56   2.0000     -10.328908      -281.0639
  57   2.0000     -10.328008      -281.0394
  58   2.0000     -10.326510      -280.9986
  59   2.0000     -10.316607      -280.7291
  60   2.0000     -10.315626      -280.7025
  61   2.0000     -10.315215      -280.6913
  62   2.0000     -10.314337      -280.6674
  63   2.0000     -10.312862      -280.6272
  64   2.0000     -10.310921      -280.5744
  65   2.0000     -10.310481      -280.5624
  66   2.0000     -10.310027      -280.5501
  67   2.0000     -10.309697      -280.5411
  68   2.0000     -10.308964      -280.5212
  69   2.0000     -10.307911      -280.4925
  70   2.0000     -10.307623      -280.4847
  71   2.0000     -10.307508      -280.4816
  72   2.0000     -10.306480      -280.4536
  73   2.0000     -10.305349      -280.4228
  74   2.0000     -10.304634      -280.4034
  75   2.0000     -10.303603      -280.3753
  76   2.0000     -10.301916      -280.3294
  77   2.0000      -8.099070      -220.3869
  78   2.0000      -8.090357      -220.1498
  79   2.0000      -8.088689      -220.1044
  80   2.0000      -8.088047      -220.0869
  81   2.0000      -8.087891      -220.0827
  82   2.0000      -8.087830      -220.0810
  83   2.0000      -8.087197      -220.0638
  84   2.0000      -8.087057      -220.0600
  85   2.0000      -8.086843      -220.0542
  86   2.0000      -8.086781      -220.0525
  87   2.0000      -8.081360      -219.9050
  88   2.0000      -6.068172      -165.1234
  89   2.0000      -6.064063      -165.0116
  90   2.0000      -6.061675      -164.9466
  91   2.0000      -6.059618      -164.8906
  92   2.0000      -6.058051      -164.8479
  93   2.0000      -6.057876      -164.8432
  94   2.0000      -6.057733      -164.8393
  95   2.0000      -6.057385      -164.8298
  96   2.0000      -6.057026      -164.8201
  97   2.0000      -6.056491      -164.8055
  98   2.0000      -6.056450      -164.8044
  99   2.0000      -6.056402      -164.8031
 100   2.0000      -6.055488      -164.7782
 101   2.0000      -6.053655      -164.7283
 102   2.0000      -6.053633      -164.7277
 103   2.0000      -6.053467      -164.7232
 104   2.0000      -6.052930      -164.7086
 105   2.0000      -6.052821      -164.7056
 106   2.0000      -6.052629      -164.7004
 107   2.0000      -6.052224      -164.6894
 108   2.0000      -6.052112      -164.6863
 109   2.0000      -6.051936      -164.6816
 110   2.0000      -6.051036      -164.6571
 111   2.0000      -6.050747      -164.6492
 112   2.0000      -6.049697      -164.6206
 113   2.0000      -6.049575      -164.6173
 114   2.0000      -6.049493      -164.6151
 115   2.0000      -6.048652      -164.5922
 116   2.0000      -6.048648      -164.5921
 117   2.0000      -6.048171      -164.5791
 118   2.0000      -6.047850      -164.5704
 119   2.0000      -6.046258      -164.5270
 120   2.0000      -6.043700      -164.4574
 121   2.0000      -1.146649       -31.2019
 122   2.0000      -1.141501       -31.0618
 123   2.0000      -1.106666       -30.1139
 124   2.0000      -1.050698       -28.5910
 125   2.0000      -1.049148       -28.5488
 126   2.0000      -1.046210       -28.4688
 127   2.0000      -1.044878       -28.4326
 128   2.0000      -1.034562       -28.1519
 129   2.0000      -1.024831       -27.8871
 130   2.0000      -1.023645       -27.8548
 131   2.0000      -1.020399       -27.7665
 132   2.0000      -1.016356       -27.6565
 133   2.0000      -1.012424       -27.5495
 134   2.0000      -1.010404       -27.4945
 135   2.0000      -1.006959       -27.4007
 136   2.0000      -0.998610       -27.1735
 137   2.0000      -0.997420       -27.1412
 138   2.0000      -0.995894       -27.0997
 139   2.0000      -0.991276       -26.9740
 140   2.0000      -0.984569       -26.7915
 141   2.0000      -0.983353       -26.7584
 142   2.0000      -0.964541       -26.2465
 143   2.0000      -0.960399       -26.1338
 144   2.0000      -0.948191       -25.8016
 145   2.0000      -0.947488       -25.7825
 146   2.0000      -0.941695       -25.6248
 147   2.0000      -0.921062       -25.0634
 148   2.0000      -0.912412       -24.8280
 149   2.0000      -0.901350       -24.5270
 150   2.0000      -0.900158       -24.4945
 151   2.0000      -0.884292       -24.0628
 152   2.0000      -0.880732       -23.9659
 153   2.0000      -0.876578       -23.8529
 154   2.0000      -0.874856       -23.8061
 155   2.0000      -0.872733       -23.7483
 156   2.0000      -0.869203       -23.6522
 157   2.0000      -0.859047       -23.3759
 158   2.0000      -0.856848       -23.3160
 159   2.0000      -0.845386       -23.0041
 160   2.0000      -0.835711       -22.7408
 161   2.0000      -0.825804       -22.4713
 162   2.0000      -0.822891       -22.3920
 163   2.0000      -0.803546       -21.8656
 164   2.0000      -0.801377       -21.8066
 165   2.0000      -0.796117       -21.6634
 166   2.0000      -0.780917       -21.2498
 167   2.0000      -0.779480       -21.2107
 168   2.0000      -0.776114       -21.1191
 169   2.0000      -0.758966       -20.6525
 170   2.0000      -0.753886       -20.5143
 171   2.0000      -0.728046       -19.8111
 172   2.0000      -0.719815       -19.5872
 173   2.0000      -0.712707       -19.3937
 174   2.0000      -0.711635       -19.3646
 175   2.0000      -0.702594       -19.1186
 176   2.0000      -0.701732       -19.0951
 177   2.0000      -0.692929       -18.8556
 178   2.0000      -0.690749       -18.7962
 179   2.0000      -0.689426       -18.7602
 180   2.0000      -0.685514       -18.6538
 181   2.0000      -0.679690       -18.4953
 182   2.0000      -0.673022       -18.3139
 183   2.0000      -0.671114       -18.2619
 184   2.0000      -0.668080       -18.1794
 185   2.0000      -0.661058       -17.9883
 186   2.0000      -0.647603       -17.6222
 187   2.0000      -0.646206       -17.5842
 188   2.0000      -0.638915       -17.3858
 189   2.0000      -0.637345       -17.3430
 190   2.0000      -0.634232       -17.2583
 191   2.0000      -0.630032       -17.1440
 192   2.0000      -0.619460       -16.8564
 193   2.0000      -0.618786       -16.8380
 194   2.0000      -0.613461       -16.6931
 195   2.0000      -0.610928       -16.6242
 196   2.0000      -0.602089       -16.3837
 197   2.0000      -0.589445       -16.0396
 198   2.0000      -0.585642       -15.9361
 199   2.0000      -0.574010       -15.6196
 200   2.0000      -0.568611       -15.4727
 201   2.0000      -0.563710       -15.3393
 202   2.0000      -0.560048       -15.2397
 203   2.0000      -0.555075       -15.1044
 204   2.0000      -0.552753       -15.0412
 205   2.0000      -0.551501       -15.0071
 206   2.0000      -0.549186       -14.9441
 207   2.0000      -0.545156       -14.8344
 208   2.0000      -0.544178       -14.8078
 209   2.0000      -0.540648       -14.7118
 210   2.0000      -0.536776       -14.6064
 211   2.0000      -0.530666       -14.4402
 212   2.0000      -0.527768       -14.3613
 213   2.0000      -0.527099       -14.3431
 214   2.0000      -0.525837       -14.3088
 215   2.0000      -0.524866       -14.2823
 216   2.0000      -0.522370       -14.2144
 217   2.0000      -0.517217       -14.0742
 218   2.0000      -0.513196       -13.9648
 219   2.0000      -0.512832       -13.9549
 220   2.0000      -0.510736       -13.8978
 221   2.0000      -0.506923       -13.7941
 222   2.0000      -0.503170       -13.6920
 223   2.0000      -0.502826       -13.6826
 224   2.0000      -0.501415       -13.6442
 225   2.0000      -0.499872       -13.6022
 226   2.0000      -0.499598       -13.5948
 227   2.0000      -0.497359       -13.5338
 228   2.0000      -0.496455       -13.5092
 229   2.0000      -0.492966       -13.4143
 230   2.0000      -0.490528       -13.3480
 231   2.0000      -0.486835       -13.2475
 232   2.0000      -0.482919       -13.1409
 233   2.0000      -0.482674       -13.1342
 234   2.0000      -0.478222       -13.0131
 235   2.0000      -0.474314       -12.9067
 236   2.0000      -0.473206       -12.8766
 237   2.0000      -0.470469       -12.8021
 238   2.0000      -0.464123       -12.6294
 239   2.0000      -0.464080       -12.6283
 240   2.0000      -0.462992       -12.5987
 241   2.0000      -0.462305       -12.5800
 242   2.0000      -0.462138       -12.5754
 243   2.0000      -0.461989       -12.5714
 244   2.0000      -0.461285       -12.5522
 245   2.0000      -0.460625       -12.5342
 246   2.0000      -0.456498       -12.4219
 247   2.0000      -0.455865       -12.4047
 248   2.0000      -0.453876       -12.3506
 249   2.0000      -0.452344       -12.3089
 250   2.0000      -0.451694       -12.2912
 251   2.0000      -0.449322       -12.2267
 252   2.0000      -0.448269       -12.1980
 253   2.0000      -0.443059       -12.0562
 254   2.0000      -0.442963       -12.0536
 255   2.0000      -0.442267       -12.0347
 256   2.0000      -0.440707       -11.9923
 257   2.0000      -0.439964       -11.9720
 258   2.0000      -0.439869       -11.9694
 259   2.0000      -0.438731       -11.9385
 260   2.0000      -0.436833       -11.8868
 261   2.0000      -0.435515       -11.8510
 262   2.0000      -0.430384       -11.7113
 263   2.0000      -0.429892       -11.6980
 264   2.0000      -0.428524       -11.6607
 265   2.0000      -0.426902       -11.6166
 266   2.0000      -0.423558       -11.5256
 267   2.0000      -0.419669       -11.4198
 268   2.0000      -0.417923       -11.3723
 269   2.0000      -0.417459       -11.3596
 270   2.0000      -0.407406       -11.0861
 271   2.0000      -0.406199       -11.0532
 272   2.0000      -0.404845       -11.0164
 273   2.0000      -0.390827       -10.6349
 274   2.0000      -0.390051       -10.6138
 275   2.0000      -0.389605       -10.6017
 276   2.0000      -0.381326       -10.3764
 277   2.0000      -0.379382       -10.3235
 278   2.0000      -0.375390       -10.2149
 279   2.0000      -0.374465       -10.1897
 280   2.0000      -0.366956        -9.9854
 281   2.0000      -0.357038        -9.7155
 282   2.0000      -0.353661        -9.6236
 283   2.0000      -0.351907        -9.5759
 284   2.0000      -0.348573        -9.4852
 285   2.0000      -0.348535        -9.4841
 286   2.0000      -0.339710        -9.2440
 287   2.0000      -0.339039        -9.2257
 288   2.0000      -0.328107        -8.9282
 289   2.0000      -0.324550        -8.8315
 290   2.0000      -0.323444        -8.8014
 291   2.0000      -0.315023        -8.5722
 292   2.0000      -0.304142        -8.2761
 293   2.0000      -0.303182        -8.2500
 294   2.0000      -0.290903        -7.9159
 295   2.0000      -0.267386        -7.2760
 296   2.0000      -0.235675        -6.4130
 297   0.0000      -0.119110        -3.2412
 298   0.0000      -0.106116        -2.8876
 299   0.0000      -0.094278        -2.5654
 300   0.0000      -0.088757        -2.4152
 301   0.0000      -0.055765        -1.5174

MULLIKEN ATOMIC CHARGES
-----------------------
   0 C :   -0.083669
   1 C :   -0.088766
   2 C :   -0.250851
   3 N :    0.200988
   4 C :    0.183591
   5 C :   -0.267472
   6 S :    0.172432
   7 S :    0.194640
   8 C :   -0.225429
   9 C :    0.139401
  10 C :    0.003473
  11 C :   -0.369285
  12 N :    0.223482
  13 C :   -0.067825
  14 S :    0.173964
  15 C :   -0.094755
  16 C :   -0.071729
  17 C :    0.032044
  18 C :   -0.088510
  19 S :    0.225178
  20 C :   -0.094960
  21 C :    0.027063
  22 C :    0.304948
  23 C :   -0.294276
  24 C :   -0.187986
  25 N :    0.168462
  26 C :   -0.196759
  27 N :    0.199278
  28 C :   -0.062222
  29 C :   -0.091790
  30 S :    0.192191
  31 C :   -0.125494
  32 C :    0.037145
  33 C :    0.009603
  34 N :    0.034185
  35 C :   -0.114361
  36 C :    0.139104
  37 O :   -0.103921
  38 C :   -0.020117
  39 C :   -0.009901
  40 C :    0.136892
  41 O :   -0.093599
  42 C :   -0.116494
  43 N :    0.070388
  44 C :   -0.110773
  45 S :    0.218703
  46 C :   -0.073548
  47 C :   -0.087205
  48 C :    0.031447
  49 C :   -0.084633
  50 S :    0.249714
  51 C :   -0.091282
  52 C :    0.028010
  53 C :    0.303844
  54 C :   -0.299192
  55 C :   -0.190277
  56 N :    0.171017
  57 C :   -0.185070
  58 N :    0.171494
  59 C :   -0.071534
  60 C :   -0.096067
  61 S :    0.233462
  62 C :   -0.068941
  63 C :    0.011338
  64 C :   -0.370563
  65 N :    0.220156
  66 C :    0.134982
  67 C :   -0.223858
  68 S :    0.172248
  69 S :    0.193269
  70 C :   -0.265937
  71 C :    0.180590
  72 C :   -0.081266
  73 C :   -0.250309
  74 N :    0.196427
  75 C :   -0.083686
  76 S :    0.171875
  77 H :    0.040864
  78 H :    0.017371
  79 H :    0.030712
  80 H :    0.020337
  81 H :    0.023061
  82 H :    0.006945
  83 H :    0.018307
  84 H :    0.039686
Sum of atomic charges:   -0.0000000

LOEWDIN ATOMIC CHARGES
----------------------
   0 C :   -0.138727
   1 C :   -0.096620
   2 C :   -0.040992
   3 N :   -0.030671
   4 C :   -0.064811
   5 C :   -0.335052
   6 S :    0.461617
   7 S :    0.427198
   8 C :   -0.333067
   9 C :   -0.060713
  10 C :   -0.108859
  11 C :   -0.059128
  12 N :   -0.026676
  13 C :   -0.138938
  14 S :    0.460260
  15 C :   -0.190077
  16 C :   -0.029750
  17 C :   -0.067540
  18 C :   -0.177269
  19 S :    0.521274
  20 C :   -0.178641
  21 C :   -0.063696
  22 C :    0.077932
  23 C :   -0.093970
  24 C :   -0.014301
  25 N :   -0.033667
  26 C :   -0.024038
  27 N :   -0.013127
  28 C :   -0.008401
  29 C :   -0.183768
  30 S :    0.470385
  31 C :   -0.190748
  32 C :   -0.043447
  33 C :   -0.055242
  34 N :   -0.011146
  35 C :   -0.037578
  36 C :    0.055148
  37 O :   -0.100898
  38 C :   -0.014009
  39 C :   -0.009134
  40 C :    0.054473
  41 O :   -0.089171
  42 C :   -0.038622
  43 N :    0.010227
  44 C :   -0.191244
  45 S :    0.505210
  46 C :   -0.181251
  47 C :   -0.029383
  48 C :   -0.069087
  49 C :   -0.181615
  50 S :    0.536498
  51 C :   -0.174375
  52 C :   -0.069717
  53 C :    0.082805
  54 C :   -0.104647
  55 C :   -0.016399
  56 N :   -0.033812
  57 C :   -0.016292
  58 N :   -0.034681
  59 C :   -0.030119
  60 C :   -0.191077
  61 S :    0.527861
  62 C :   -0.138767
  63 C :   -0.108217
  64 C :   -0.059420
  65 N :   -0.024984
  66 C :   -0.060702
  67 C :   -0.333312
  68 S :    0.459014
  69 S :    0.426646
  70 C :   -0.335205
  71 C :   -0.064687
  72 C :   -0.096264
  73 C :   -0.040865
  74 N :   -0.030579
  75 C :   -0.138740
  76 S :    0.460927
  77 H :    0.037595
  78 H :    0.035030
  79 H :    0.044681
  80 H :    0.046684
  81 H :    0.047413
  82 H :    0.036852
  83 H :    0.034928
  84 H :    0.037278

  Mayer bond orders larger than 0.100000
B(  0-C ,  1-C ) :   1.5738 B(  0-C ,  6-S ) :   1.1718 B(  0-C , 77-H ) :   0.9691
B(  1-C ,  2-C ) :   1.1551 B(  1-C ,  4-C ) :   1.2434 B(  2-C ,  3-N ) :   3.0358
B(  4-C ,  5-C ) :   1.3956 B(  4-C ,  9-C ) :   1.0659 B(  5-C ,  6-S ) :   1.1174
B(  5-C ,  7-S ) :   1.0835 B(  7-S ,  8-C ) :   1.0872 B(  8-C ,  9-C ) :   1.4291
B(  8-C , 14-S ) :   1.0801 B(  9-C , 10-C ) :   1.2548 B( 10-C , 11-C ) :   1.1534
B( 10-C , 13-C ) :   1.4900 B( 11-C , 12-N ) :   2.9632 B( 13-C , 14-S ) :   1.1437
B( 13-C , 15-C ) :   1.1984 B( 15-C , 16-C ) :   1.4329 B( 15-C , 19-S ) :   1.1054
B( 16-C , 17-C ) :   1.3172 B( 16-C , 78-H ) :   0.9823 B( 17-C , 18-C ) :   1.4200
B( 17-C , 22-C ) :   0.9922 B( 18-C , 19-S ) :   1.1265 B( 18-C , 20-C ) :   1.2010
B( 20-C , 21-C ) :   1.4210 B( 20-C , 30-S ) :   1.1239 B( 21-C , 22-C ) :   0.9858
B( 21-C , 28-C ) :   1.2754 B( 22-C , 23-C ) :   1.7192 B( 23-C , 24-C ) :   1.1352
B( 23-C , 26-C ) :   1.1321 B( 24-C , 25-N ) :   2.9861 B( 26-C , 27-N ) :   3.0046
B( 28-C , 29-C ) :   1.4495 B( 28-C , 79-H ) :   0.9879 B( 29-C , 30-S ) :   1.0840
B( 29-C , 31-C ) :   1.1935 B( 31-C , 32-C ) :   1.3677 B( 31-C , 44-C ) :   0.1334
B( 31-C , 45-S ) :   1.1514 B( 32-C , 33-C ) :   1.1841 B( 32-C , 43-N ) :   1.4412
B( 33-C , 34-N ) :   1.4182 B( 33-C , 44-C ) :   1.3229 B( 34-N , 35-C ) :   1.6998
B( 35-C , 36-C ) :   0.8935 B( 35-C , 42-C ) :   1.0975 B( 36-C , 37-O ) :   2.2502
B( 36-C , 38-C ) :   1.0249 B( 38-C , 39-C ) :   1.6830 B( 38-C , 80-H ) :   0.9973
B( 39-C , 40-C ) :   1.0208 B( 39-C , 81-H ) :   0.9969 B( 40-C , 41-O ) :   2.2441
B( 40-C , 42-C ) :   0.8919 B( 42-C , 43-N ) :   1.7163 B( 44-C , 45-S ) :   1.1552
B( 44-C , 46-C ) :   1.2370 B( 46-C , 47-C ) :   1.3883 B( 46-C , 50-S ) :   1.1144
B( 47-C , 48-C ) :   1.3219 B( 47-C , 82-H ) :   0.9961 B( 48-C , 49-C ) :   1.4042
B( 48-C , 53-C ) :   0.9911 B( 49-C , 50-S ) :   1.1036 B( 49-C , 51-C ) :   1.1943
B( 51-C , 52-C ) :   1.4208 B( 51-C , 61-S ) :   1.1326 B( 52-C , 53-C ) :   0.9922
B( 52-C , 59-C ) :   1.3161 B( 53-C , 54-C ) :   1.7142 B( 54-C , 55-C ) :   1.1341
B( 54-C , 57-C ) :   1.1321 B( 55-C , 56-N ) :   2.9923 B( 57-C , 58-N ) :   2.9892
B( 59-C , 60-C ) :   1.4295 B( 59-C , 83-H ) :   0.9840 B( 60-C , 61-S ) :   1.1079
B( 60-C , 62-C ) :   1.1974 B( 62-C , 63-C ) :   1.4904 B( 62-C , 68-S ) :   1.1435
B( 63-C , 64-C ) :   1.1532 B( 63-C , 66-C ) :   1.2517 B( 64-C , 65-N ) :   2.9635
B( 66-C , 67-C ) :   1.4304 B( 66-C , 71-C ) :   1.0677 B( 67-C , 68-S ) :   1.0796
B( 67-C , 69-S ) :   1.0866 B( 69-S , 70-C ) :   1.0831 B( 70-C , 71-C ) :   1.3961
B( 70-C , 76-S ) :   1.1168 B( 71-C , 72-C ) :   1.2424 B( 72-C , 73-C ) :   1.1546
B( 72-C , 75-C ) :   1.5716 B( 73-C , 74-N ) :   3.0342 B( 75-C , 76-S ) :   1.1718
B( 75-C , 84-H ) :   0.9698

-----------------------------------------------------------------------------
         ABSORPTION SPECTRUM VIA TRANSITION ELECTRIC DIPOLE MOMENTS
-----------------------------------------------------------------------------
State   Energy  Wavelength   fosc         T2         TX        TY        TZ
        (cm-1)    (nm)                  (au**2)     (au)      (au)      (au)
-----------------------------------------------------------------------------
   0    9862.3   1014.0   0.723009472  24.13463  -1.93858  -1.25830   4.33512
   1   11725.7    852.8   0.025335609   0.71133  -0.34057  -0.76786   0.07567
   2   13655.7    732.3   0.149977735   3.61567  -0.73012  -0.08244   1.75380
   3   17051.5    586.5   0.132095624   2.55036  -0.41289  -1.53835  -0.11558
   4   18888.2    529.4   0.037710500   0.65728   0.11337   0.64587   0.47673
   5   21062.8    474.8   0.029721258   0.46454   0.29639   0.12688  -0.60050
   6   23824.3    419.7   0.087984830   1.21580  -0.42804  -1.01169   0.09522
   7   23987.3    416.9   1.864968069  25.59563  -1.91360  -2.04509   4.21324
   8   24724.0    404.5   0.002924461   0.03894   0.10665  -0.10201   0.13100
   9   25684.4    389.3   0.003697069   0.04739   0.07976   0.06125  -0.19306
  10   25859.2    386.7   0.074520315   0.94871   0.35014   0.32934  -0.84714
  11   26215.6    381.5   0.068922543   0.86552  -0.12404  -0.61614  -0.68594
  12   26585.5    376.1   0.001783368   0.02208   0.11454  -0.09415   0.00994
  13   26872.4    372.1   0.002040302   0.02500   0.06787   0.00731  -0.14260
  14   27906.2    358.3   0.002254728   0.02660  -0.02459  -0.01757   0.16027
  15   28809.7    347.1   0.004921430   0.05624  -0.08288  -0.06131   0.21356
  16   28829.1    346.9   0.002876197   0.03284   0.07277   0.02556  -0.16400
  17   29265.2    341.7   0.086496325   0.97302  -0.01381   0.95554   0.24448
  18   29785.1    335.7   0.019218609   0.21242  -0.18404   0.41709   0.06774
  19   30397.4    329.0   0.196514956   2.12831  -0.53983   0.58331   1.22338
  20   30600.8    326.8   0.052995007   0.57013   0.00124  -0.72785  -0.20091
  21   30669.3    326.1   0.452170042   4.85371   0.20108  -2.05770  -0.76101
  22   30826.6    324.4   0.074794300   0.79876  -0.19098   0.75961   0.43044
  23   31892.9    313.5   0.316814391   3.27029  -0.43083  -1.57135   0.78456
  24   32295.8    309.6   0.045996063   0.46887  -0.24880  -0.59568   0.22833
  25   32954.1    303.5   0.069093768   0.69025   0.11464   0.74232   0.35505
  26   33274.9    300.5   0.354287061   3.50521   0.33448   1.82734   0.23274
  27   33591.1    297.7   0.037098727   0.36359  -0.01692  -0.60176   0.03447
  28   33687.7    296.8   0.132380386   1.29368  -0.07184   1.13060   0.10135
  29   33748.1    296.3   0.105389195   1.02807   0.04995  -1.01241  -0.02461
  30   33951.1    294.5   0.028988951   0.28110   0.09066  -0.45502  -0.25657
  31   34251.7    292.0   0.013337732   0.12820   0.01096   0.22257   0.28025
  32   34449.3    290.3   0.170090442   1.62546   0.49666  -0.09834  -1.17009
  33   34466.2    290.1   0.007698611   0.07354  -0.09084  -0.17752   0.18376
  34   34603.4    289.0   0.008099031   0.07705   0.07951  -0.23600  -0.12262
  35   34672.9    288.4   0.311827351   2.96073  -0.60192  -0.94435   1.30638
  36   34920.4    286.4   0.054496339   0.51376   0.35178  -0.26459  -0.56569
  37   35359.3    282.8   0.065990093   0.61440  -0.05804  -0.74690  -0.23060
  38   35465.5    282.0   0.048844420   0.45340   0.05828   0.60289   0.29416
  39   35644.8    280.5   0.011538421   0.10657   0.15637  -0.22357  -0.17926
  40   35841.0    279.0   0.032833990   0.30159   0.06107  -0.47121  -0.27537
  41   36488.4    274.1   0.005072380   0.04576   0.09184   0.17140   0.08919
  42   36547.2    273.6   0.078662964   0.70859   0.17269   0.82147   0.06291
  43   36796.2    271.8   0.008962950   0.08019  -0.08529   0.23697   0.12947
  44   36899.6    271.0   0.080377475   0.71711  -0.07159   0.59829   0.59501
  45   36918.4    270.9   0.044449819   0.39637   0.24666   0.44145  -0.37503
  46   36964.1    270.5   0.096329458   0.85794   0.01732  -0.85096  -0.36538
  47   37064.0    269.8   0.011845091   0.10521  -0.10070  -0.24182   0.19130
  48   37287.6    268.2   0.044214990   0.39037   0.08677   0.61672  -0.05000
  49   37481.4    266.8   0.045825127   0.40250   0.08742   0.61903  -0.10795
  50   37743.3    264.9   0.010304097   0.08988  -0.13071  -0.05537   0.26405
  51   37830.0    264.3   0.026465076   0.23031   0.11973  -0.22890  -0.40445
  52   38284.5    261.2   0.030315822   0.26069  -0.08092  -0.49159   0.11170
  53   38504.0    259.7   0.001204497   0.01030  -0.03791  -0.09318   0.01336
  54   38617.9    258.9   0.047098351   0.40151   0.10362   0.62119  -0.06991
  55   38703.9    258.4   0.013789852   0.11730  -0.12125  -0.29095   0.13396
  56   38860.0    257.3   0.003877381   0.03285  -0.04453   0.13020   0.11796
  57   39112.7    255.7   0.002689208   0.02264   0.02807   0.14652   0.01949
  58   39314.3    254.4   0.001265541   0.01060  -0.01068   0.07974   0.06422
  59   39402.5    253.8   0.014485957   0.12103   0.07139   0.33805  -0.04075
  60   39463.6    253.4   0.019930261   0.16626   0.10042   0.38950  -0.06686
  61   39811.4    251.2   0.021734129   0.17973  -0.10862  -0.40734   0.04473
  62   39891.1    250.7   0.002099000   0.01732   0.06323   0.11502  -0.00979
  63   39973.4    250.2   0.033894647   0.27915   0.02377  -0.49109  -0.19344
  64   40063.0    249.6   0.001332953   0.01095   0.01514   0.07137   0.07504
  65   40164.8    249.0   0.045388019   0.37202  -0.08365  -0.58393  -0.15507
  66   40235.2    248.5   0.003768135   0.03083  -0.03069   0.15976   0.06609

FINAL SINGLE POINT ENERGY     -7135.615729824819

DIPOLE MOMENT
-------------
                                X             Y             Z
Electronic contribution:      1.46586      11.16962       2.58047
Nuclear contribution   :     -1.31556     -10.72699      -2.62801
                        -----------------------------------------
Total Dipole Moment    :      0.15030       0.44263      -0.04754
                        -----------------------------------------
Magnitude (a.u.)       :      0.46986
Magnitude (Debye)      :      1.19430

Rotational constants in cm-1:     0.001513     0.000169     0.000152
Rotational constants in MHz :    45.354018     5.053341     4.567162

                             ****ORCA TERMINATED NORMALLY****
TOTAL RUN TIME: 0 days 0 hours 9 minutes 1 seconds 199 msec
