                         Program Version 4.2.0 -  RELEASE  -
|  1> # ORCA input file
|  2> # SCF done       -167.497605143874          0.000355150847
|  3> ! CAM-B3LYP def2-SVP def2/J RIJCOSX Grid4 TightSCF
|  4> %maxcore 5000
|  5> %tddft
|  6>     Mode sTDDFT
|  7>     Ethresh 5.0
|  8>     maxcore 5000
|  9> end
| 10>
| 11> %pal
| 12>   nprocs 6
| 13>   end
| 14> * xyz 0 1
| 15>    C        9.52455         0.02688         3.71024
| 16>    S        8.86358         0.23494         2.13889
| 17>    C        7.52869         1.13943         2.77122
| 18>    C        7.58797         1.24516         4.15030
| 19>    C        8.75839         0.61441         4.67071
| 20>    O        9.05075         0.62166         6.00355
| 21>    C        6.48880         1.78624         4.98815
| 22>    O        5.35298         1.89886         4.60591
| 23>    O        6.81329         2.11066         6.24768
| 24>    C        6.58273         1.72904         1.87871
| 25>    C        6.08551         1.16525         0.62669
| 26>    N        5.17188         1.89063         0.04113
| 27>    C        5.00182         2.98073         0.83732
| 28>    C        5.91109         2.91934         1.99086
| 29>    C        5.76969         4.10508         2.79553
| 30>    S        6.85595         4.63801         3.91282
| 31>    C        4.62273         4.77118         2.24464
| 32>    C        4.22043         4.10195         0.99598
| 33>    N        3.16389         4.74750         0.42671
| 34>    C        2.88112         5.73374         1.23266
| 35>    C        3.72937         5.81047         2.41914
| 36>    C        3.57017         6.67081         3.55545
| 37>    C        4.12077         6.26362         4.75694
| 38>    C        4.01691         7.07419         5.89079
| 39>    C        4.54250         6.90136         7.17012
| 40>    C        5.45310         5.79731         7.57108
| 41>    C        6.85413         6.33973         7.90406
| 42>    N        7.36128         7.09873         6.77357
| 43>    C        4.90717         4.93459         8.72137
| 44>    N        5.78635         3.79682         8.92307
| 45>    C        4.11932         8.04484         7.94120
| 46>    C        4.34485         8.39873         9.22157
| 47>    C        3.77733         9.64449         9.80107
| 48>    C        3.01363        10.49494         8.83612
| 49>    C        2.79175        10.12897         7.55826
| 50>    C        3.32200         8.91764         7.06083
| 51>    C        3.27426         8.31874         5.81365
| 52>    C        2.68616         8.69403         4.58425
| 53>    C        2.83837         7.89769         3.49115
| 54>    C        2.81998         9.28420        10.91256
| 55>    C        2.84428         9.86348        12.11737
| 56>    C        1.92328         9.59816        13.17825
| 57>    C        0.84251         8.60829        13.22674
| 58>    N        0.16849         8.60130        14.34106
| 59>    C        0.72690         9.58189        15.11186
| 60>    C        1.84722        10.21517        14.40350
| 61>    C        2.45004        11.23241        15.23043
| 62>    S        3.82852        12.07062        14.91408
| 63>    C        1.62519        11.25928        16.40788
| 64>    C        0.60349        10.19631        16.33105
| 65>    N       -0.14032        10.15943        17.47274
| 66>    C        0.32822        11.11297        18.22455
| 67>    C        1.41904        11.87883        17.61959
| 68>    C        2.02323        13.03114        18.18958
| 69>    S        2.08937        13.27469        19.91396
| 70>    C        2.90934        14.75776        19.73321
| 71>    C        3.11413        15.09537        18.41762
| 72>    C        2.59030        14.10643        17.52137
| 73>    O        2.57881        14.22401        16.20145
| 74>    C        3.76649        16.29730        17.88082
| 75>    O        3.83630        16.50471        16.68948
| 76>    O        4.28701        17.17069        18.74947
| 77>    H       10.44366        -0.51025         3.83990
| 78>    H        9.84495         0.10235         6.17158
| 79>    H        7.73257         1.88093         6.46021
| 80>    H        6.40301         0.22751         0.20479
| 81>    H        2.05491         6.38722         1.01185
| 82>    H        4.60470         5.30431         4.82374
| 83>    H        5.57349         5.13129         6.71000
| 84>    H        7.47712         5.47695         8.18490
| 85>    H        6.80428         7.01799         8.76008
| 86>    H        7.36019         6.52128         5.93799
| 87>    H        8.31741         7.38944         6.94556
| 88>    H        3.87018         4.64991         8.47238
| 89>    H        4.88393         5.50594         9.65358
| 90>    H        5.84819         3.24731         8.07025
| 91>    H        5.42255         3.19465         9.65318
| 92>    H        4.91851         7.78008         9.89649
| 93>    H        4.59307        10.23550        10.23942
| 94>    H        2.61821        11.41661         9.23450
| 95>    H        2.22423        10.76519         6.89459
| 96>    H        2.12899         9.61710         4.51835
| 97>    H        2.41071         8.19164         2.54453
| 98>    H        2.06648         8.55618        10.64996
| 99>    H        3.59970        10.60492        12.34754
|100>    H        0.59730         7.91121        12.44485
|101>    H       -0.08394        11.30374        19.20071
|102>    H        3.18341        15.29708        20.62044
|103>    H        3.05341        15.05265        15.95851
|104>    H        4.18365        16.89994        19.66998
|105> *
|106>
|107>                          ****END OF INPUT****

CARTESIAN COORDINATES (ANGSTROEM)
---------------------------------
  C      9.524550    0.026880    3.710240
  S      8.863580    0.234940    2.138890
  C      7.528690    1.139430    2.771220
  C      7.587970    1.245160    4.150300
  C      8.758390    0.614410    4.670710
  O      9.050750    0.621660    6.003550
  C      6.488800    1.786240    4.988150
  O      5.352980    1.898860    4.605910
  O      6.813290    2.110660    6.247680
  C      6.582730    1.729040    1.878710
  C      6.085510    1.165250    0.626690
  N      5.171880    1.890630    0.041130
  C      5.001820    2.980730    0.837320
  C      5.911090    2.919340    1.990860
  C      5.769690    4.105080    2.795530
  S      6.855950    4.638010    3.912820
  C      4.622730    4.771180    2.244640
  C      4.220430    4.101950    0.995980
  N      3.163890    4.747500    0.426710
  C      2.881120    5.733740    1.232660
  C      3.729370    5.810470    2.419140
  C      3.570170    6.670810    3.555450
  C      4.120770    6.263620    4.756940
  C      4.016910    7.074190    5.890790
  C      4.542500    6.901360    7.170120
  C      5.453100    5.797310    7.571080
  C      6.854130    6.339730    7.904060
  N      7.361280    7.098730    6.773570
  C      4.907170    4.934590    8.721370
  N      5.786350    3.796820    8.923070
  C      4.119320    8.044840    7.941200
  C      4.344850    8.398730    9.221570
  C      3.777330    9.644490    9.801070
  C      3.013630   10.494940    8.836120
  C      2.791750   10.128970    7.558260
  C      3.322000    8.917640    7.060830
  C      3.274260    8.318740    5.813650
  C      2.686160    8.694030    4.584250
  C      2.838370    7.897690    3.491150
  C      2.819980    9.284200   10.912560
  C      2.844280    9.863480   12.117370
  C      1.923280    9.598160   13.178250
  C      0.842510    8.608290   13.226740
  N      0.168490    8.601300   14.341060
  C      0.726900    9.581890   15.111860
  C      1.847220   10.215170   14.403500
  C      2.450040   11.232410   15.230430
  S      3.828520   12.070620   14.914080
  C      1.625190   11.259280   16.407880
  C      0.603490   10.196310   16.331050
  N     -0.140320   10.159430   17.472740
  C      0.328220   11.112970   18.224550
  C      1.419040   11.878830   17.619590
  C      2.023230   13.031140   18.189580
  S      2.089370   13.274690   19.913960
  C      2.909340   14.757760   19.733210
  C      3.114130   15.095370   18.417620
  C      2.590300   14.106430   17.521370
  O      2.578810   14.224010   16.201450
  C      3.766490   16.297300   17.880820
  O      3.836300   16.504710   16.689480
  O      4.287010   17.170690   18.749470
  H     10.443660   -0.510250    3.839900
  H      9.844950    0.102350    6.171580
  H      7.732570    1.880930    6.460210
  H      6.403010    0.227510    0.204790
  H      2.054910    6.387220    1.011850
  H      4.604700    5.304310    4.823740
  H      5.573490    5.131290    6.710000
  H      7.477120    5.476950    8.184900
  H      6.804280    7.017990    8.760080
  H      7.360190    6.521280    5.937990
  H      8.317410    7.389440    6.945560
  H      3.870180    4.649910    8.472380
  H      4.883930    5.505940    9.653580
  H      5.848190    3.247310    8.070250
  H      5.422550    3.194650    9.653180
  H      4.918510    7.780080    9.896490
  H      4.593070   10.235500   10.239420
  H      2.618210   11.416610    9.234500
  H      2.224230   10.765190    6.894590
  H      2.128990    9.617100    4.518350
  H      2.410710    8.191640    2.544530
  H      2.066480    8.556180   10.649960
  H      3.599700   10.604920   12.347540
  H      0.597300    7.911210   12.444850
  H     -0.083940   11.303740   19.200710
  H      3.183410   15.297080   20.620440
  H      3.053410   15.052650   15.958510
  H      4.183650   16.899940   19.669980

 Total Charge           Charge          ....    0
 Multiplicity           Mult            ....    1
 Number of Electrons    NEL             ....  458
 Basis Dimension        Dim             .... 1024

ORBITAL ENERGIES
----------------

  NO   OCC          E(Eh)            E(eV)
   0   2.0000     -88.984280     -2421.3854
   1   2.0000     -88.974925     -2421.1308
   2   2.0000     -88.891481     -2418.8602
   3   2.0000     -88.887236     -2418.7447
   4   2.0000     -19.284683      -524.7629
   5   2.0000     -19.281972      -524.6891
   6   2.0000     -19.251519      -523.8605
   7   2.0000     -19.248562      -523.7800
   8   2.0000     -19.225787      -523.1603
   9   2.0000     -19.188356      -522.1417
  10   2.0000     -14.410432      -392.1278
  11   2.0000     -14.408319      -392.0703
  12   2.0000     -14.407073      -392.0364
  13   2.0000     -14.404642      -391.9702
  14   2.0000     -14.361111      -390.7857
  15   2.0000     -14.354790      -390.6137
  16   2.0000     -10.429902      -283.8121
  17   2.0000     -10.399894      -282.9955
  18   2.0000     -10.358794      -281.8771
  19   2.0000     -10.357065      -281.8301
  20   2.0000     -10.337571      -281.2996
  21   2.0000     -10.334055      -281.2039
  22   2.0000     -10.330451      -281.1059
  23   2.0000     -10.328938      -281.0647
  24   2.0000     -10.327158      -281.0162
  25   2.0000     -10.327079      -281.0141
  26   2.0000     -10.327076      -281.0140
  27   2.0000     -10.325878      -280.9814
  28   2.0000     -10.325652      -280.9753
  29   2.0000     -10.321775      -280.8698
  30   2.0000     -10.320896      -280.8459
  31   2.0000     -10.318910      -280.7918
  32   2.0000     -10.311027      -280.5773
  33   2.0000     -10.308785      -280.5163
  34   2.0000     -10.305303      -280.4215
  35   2.0000     -10.304142      -280.3900
  36   2.0000     -10.298426      -280.2344
  37   2.0000     -10.297169      -280.2002
  38   2.0000     -10.296040      -280.1695
  39   2.0000     -10.294807      -280.1359
  40   2.0000     -10.293983      -280.1135
  41   2.0000     -10.289303      -279.9862
  42   2.0000     -10.289211      -279.9837
  43   2.0000     -10.288834      -279.9734
  44   2.0000     -10.286783      -279.9176
  45   2.0000     -10.281919      -279.7852
  46   2.0000     -10.279159      -279.7101
  47   2.0000     -10.276796      -279.6458
  48   2.0000     -10.273709      -279.5618
  49   2.0000     -10.271042      -279.4893
  50   2.0000     -10.268861      -279.4299
  51   2.0000     -10.265568      -279.3403
  52   2.0000     -10.265185      -279.3299
  53   2.0000     -10.264382      -279.3080
  54   2.0000     -10.263438      -279.2823
  55   2.0000     -10.262940      -279.2688
  56   2.0000     -10.260787      -279.2102
  57   2.0000     -10.258870      -279.1580
  58   2.0000     -10.254928      -279.0508
  59   2.0000     -10.254443      -279.0376
  60   2.0000     -10.252966      -278.9974
  61   2.0000     -10.252632      -278.9883
  62   2.0000      -8.079839      -219.8636
  63   2.0000      -8.070660      -219.6138
  64   2.0000      -7.986667      -217.3283
  65   2.0000      -7.982801      -217.2231
  66   2.0000      -6.049037      -164.6027
  67   2.0000      -6.044916      -164.4905
  68   2.0000      -6.042106      -164.4141
  69   2.0000      -6.039953      -164.3555
  70   2.0000      -6.035722      -164.2404
  71   2.0000      -6.032804      -164.1609
  72   2.0000      -5.955655      -162.0616
  73   2.0000      -5.954651      -162.0343
  74   2.0000      -5.951669      -161.9532
  75   2.0000      -5.951526      -161.9493
  76   2.0000      -5.946400      -161.8098
  77   2.0000      -5.941836      -161.6856
  78   2.0000      -1.207317       -32.8528
  79   2.0000      -1.183026       -32.1918
  80   2.0000      -1.167575       -31.7713
  81   2.0000      -1.156084       -31.4586
  82   2.0000      -1.118636       -30.4396
  83   2.0000      -1.087174       -29.5835
  84   2.0000      -1.075941       -29.2778
  85   2.0000      -1.074835       -29.2477
  86   2.0000      -1.057119       -28.7657
  87   2.0000      -1.055904       -28.7326
  88   2.0000      -1.002843       -27.2887
  89   2.0000      -0.997490       -27.1431
  90   2.0000      -0.976539       -26.5730
  91   2.0000      -0.954500       -25.9733
  92   2.0000      -0.952687       -25.9239
  93   2.0000      -0.950923       -25.8759
  94   2.0000      -0.941763       -25.6267
  95   2.0000      -0.931926       -25.3590
  96   2.0000      -0.915105       -24.9013
  97   2.0000      -0.898059       -24.4374
  98   2.0000      -0.892029       -24.2733
  99   2.0000      -0.887434       -24.1483
 100   2.0000      -0.869292       -23.6546
 101   2.0000      -0.858367       -23.3574
 102   2.0000      -0.857370       -23.3302
 103   2.0000      -0.857047       -23.3214
 104   2.0000      -0.844682       -22.9850
 105   2.0000      -0.841205       -22.8904
 106   2.0000      -0.830206       -22.5911
 107   2.0000      -0.825116       -22.4525
 108   2.0000      -0.817805       -22.2536
 109   2.0000      -0.815131       -22.1808
 110   2.0000      -0.811963       -22.0946
 111   2.0000      -0.789177       -21.4746
 112   2.0000      -0.772787       -21.0286
 113   2.0000      -0.765678       -20.8352
 114   2.0000      -0.748211       -20.3599
 115   2.0000      -0.740995       -20.1635
 116   2.0000      -0.738190       -20.0872
 117   2.0000      -0.732043       -19.9199
 118   2.0000      -0.720785       -19.6135
 119   2.0000      -0.717972       -19.5370
 120   2.0000      -0.716939       -19.5089
 121   2.0000      -0.711457       -19.3597
 122   2.0000      -0.704639       -19.1742
 123   2.0000      -0.697527       -18.9807
 124   2.0000      -0.696648       -18.9567
 125   2.0000      -0.685672       -18.6581
 126   2.0000      -0.681074       -18.5330
 127   2.0000      -0.680067       -18.5056
 128   2.0000      -0.668326       -18.1861
 129   2.0000      -0.666657       -18.1406
 130   2.0000      -0.664330       -18.0773
 131   2.0000      -0.663917       -18.0661
 132   2.0000      -0.655420       -17.8349
 133   2.0000      -0.639459       -17.4006
 134   2.0000      -0.634709       -17.2713
 135   2.0000      -0.626858       -17.0577
 136   2.0000      -0.612232       -16.6597
 137   2.0000      -0.601732       -16.3740
 138   2.0000      -0.591642       -16.0994
 139   2.0000      -0.589951       -16.0534
 140   2.0000      -0.584552       -15.9065
 141   2.0000      -0.581693       -15.8287
 142   2.0000      -0.578733       -15.7481
 143   2.0000      -0.569706       -15.5025
 144   2.0000      -0.568423       -15.4676
 145   2.0000      -0.564869       -15.3709
 146   2.0000      -0.563170       -15.3246
 147   2.0000      -0.561538       -15.2802
 148   2.0000      -0.556919       -15.1545
 149   2.0000      -0.552109       -15.0236
 150   2.0000      -0.548447       -14.9240
 151   2.0000      -0.547871       -14.9083
 152   2.0000      -0.544302       -14.8112
 153   2.0000      -0.541454       -14.7337
 154   2.0000      -0.537975       -14.6390
 155   2.0000      -0.535806       -14.5800
 156   2.0000      -0.534338       -14.5401
 157   2.0000      -0.525414       -14.2972
 158   2.0000      -0.522985       -14.2312
 159   2.0000      -0.521179       -14.1820
 160   2.0000      -0.518909       -14.1202
 161   2.0000      -0.515510       -14.0278
 162   2.0000      -0.513165       -13.9639
 163   2.0000      -0.509799       -13.8723
 164   2.0000      -0.508747       -13.8437
 165   2.0000      -0.508231       -13.8297
 166   2.0000      -0.507343       -13.8055
 167   2.0000      -0.501848       -13.6560
 168   2.0000      -0.499605       -13.5949
 169   2.0000      -0.494773       -13.4635
 170   2.0000      -0.490984       -13.3604
 171   2.0000      -0.489543       -13.3211
 172   2.0000      -0.487810       -13.2740
 173   2.0000      -0.484765       -13.1911
 174   2.0000      -0.482297       -13.1240
 175   2.0000      -0.482017       -13.1163
 176   2.0000      -0.480637       -13.0788
 177   2.0000      -0.477908       -13.0045
 178   2.0000      -0.474195       -12.9035
 179   2.0000      -0.470799       -12.8111
 180   2.0000      -0.466115       -12.6836
 181   2.0000      -0.464302       -12.6343
 182   2.0000      -0.460406       -12.5283
 183   2.0000      -0.452880       -12.3235
 184   2.0000      -0.450726       -12.2649
 185   2.0000      -0.447820       -12.1858
 186   2.0000      -0.446907       -12.1610
 187   2.0000      -0.443010       -12.0549
 188   2.0000      -0.441289       -12.0081
 189   2.0000      -0.440793       -11.9946
 190   2.0000      -0.437817       -11.9136
 191   2.0000      -0.435304       -11.8452
 192   2.0000      -0.431791       -11.7496
 193   2.0000      -0.426373       -11.6022
 194   2.0000      -0.423606       -11.5269
 195   2.0000      -0.416265       -11.3271
 196   2.0000      -0.414971       -11.2919
 197   2.0000      -0.414446       -11.2776
 198   2.0000      -0.413220       -11.2443
 199   2.0000      -0.403129       -10.9697
 200   2.0000      -0.400742       -10.9048
 201   2.0000      -0.389245       -10.5919
 202   2.0000      -0.386332       -10.5126
 203   2.0000      -0.381654       -10.3853
 204   2.0000      -0.376837       -10.2543
 205   2.0000      -0.373918       -10.1748
 206   2.0000      -0.369728       -10.0608
 207   2.0000      -0.363489        -9.8910
 208   2.0000      -0.357698        -9.7335
 209   2.0000      -0.349314        -9.5053
 210   2.0000      -0.348595        -9.4858
 211   2.0000      -0.347974        -9.4689
 212   2.0000      -0.345071        -9.3898
 213   2.0000      -0.340966        -9.2782
 214   2.0000      -0.334204        -9.0941
 215   2.0000      -0.329039        -8.9536
 216   2.0000      -0.322430        -8.7738
 217   2.0000      -0.321699        -8.7539
 218   2.0000      -0.306743        -8.3469
 219   2.0000      -0.305169        -8.3041
 220   2.0000      -0.295801        -8.0492
 221   2.0000      -0.286806        -7.8044
 222   2.0000      -0.285389        -7.7658
 223   2.0000      -0.277708        -7.5568
 224   2.0000      -0.276338        -7.5195
 225   2.0000      -0.274682        -7.4745
 226   2.0000      -0.269667        -7.3380
 227   2.0000      -0.267817        -7.2877
 228   2.0000      -0.211737        -5.7617
 229   0.0000      -0.104743        -2.8502
 230   0.0000      -0.101762        -2.7691
 231   0.0000      -0.078139        -2.1263
 232   0.0000      -0.067148        -1.8272
 233   0.0000      -0.054128        -1.4729

MULLIKEN ATOMIC CHARGES
-----------------------
   0 C :   -0.167693
   1 S :    0.160599
   2 C :   -0.181015
   3 C :    0.025189
   4 C :    0.165391
   5 O :   -0.224350
   6 C :    0.152374
   7 O :   -0.184842
   8 O :   -0.162073
   9 C :   -0.001337
  10 C :    0.052338
  11 N :   -0.032431
  12 C :    0.001037
  13 C :    0.032275
  14 C :    0.004622
  15 S :   -0.156899
  16 C :   -0.021559
  17 C :    0.013037
  18 N :   -0.035685
  19 C :    0.060398
  20 C :    0.018405
  21 C :    0.066509
  22 C :   -0.047936
  23 C :    0.029618
  24 C :    0.070956
  25 C :   -0.110359
  26 C :    0.156408
  27 N :   -0.219888
  28 C :    0.158594
  29 N :   -0.231380
  30 C :    0.099201
  31 C :   -0.142156
  32 C :    0.128610
  33 C :   -0.034199
  34 C :    0.019263
  35 C :    0.007286
  36 C :    0.050975
  37 C :   -0.004615
  38 C :   -0.024383
  39 C :   -0.041392
  40 C :   -0.001678
  41 C :   -0.009452
  42 C :    0.058422
  43 N :   -0.035494
  44 C :    0.023142
  45 C :   -0.000486
  46 C :   -0.007559
  47 S :   -0.125955
  48 C :   -0.006285
  49 C :   -0.010425
  50 N :   -0.030691
  51 C :    0.045295
  52 C :    0.027138
  53 C :   -0.231776
  54 S :    0.168503
  55 C :   -0.125055
  56 C :   -0.065312
  57 C :    0.180379
  58 O :   -0.142012
  59 C :    0.207966
  60 O :   -0.225567
  61 O :   -0.138418
  62 H :    0.010755
  63 H :    0.201030
  64 H :    0.187253
  65 H :    0.002242
  66 H :    0.009904
  67 H :   -0.025717
  68 H :   -0.013272
  69 H :   -0.007884
  70 H :   -0.030471
  71 H :    0.086935
  72 H :    0.083700
  73 H :   -0.009071
  74 H :   -0.029532
  75 H :    0.098865
  76 H :    0.085208
  77 H :    0.005691
  78 H :    0.033563
  79 H :   -0.010677
  80 H :   -0.035157
  81 H :   -0.039312
  82 H :   -0.036065
  83 H :    0.008548
  84 H :   -0.006936
  85 H :    0.007724
  86 H :    0.003307
  87 H :    0.030249
  88 H :    0.202825
  89 H :    0.182724
Sum of atomic charges:   -0.0000000

LOEWDIN ATOMIC CHARGES
----------------------
   0 C :   -0.251968
   1 S :    0.467792
   2 C :   -0.130767
   3 C :   -0.128886
   4 C :    0.020020
   5 O :   -0.052980
   6 C :    0.074798
   7 O :   -0.168219
   8 O :   -0.023809
   9 C :   -0.071759
  10 C :    0.076381
  11 N :   -0.085994
  12 C :    0.028827
  13 C :   -0.004940
  14 C :   -0.121422
  15 S :    0.061017
  16 C :   -0.052148
  17 C :    0.055712
  18 N :   -0.082623
  19 C :    0.095738
  20 C :   -0.017548
  21 C :   -0.046527
  22 C :    0.039497
  23 C :   -0.022359
  24 C :    0.010549
  25 C :   -0.042677
  26 C :    0.026799
  27 N :   -0.123700
  28 C :    0.029111
  29 N :   -0.124512
  30 C :   -0.010872
  31 C :    0.071652
  32 C :   -0.028409
  33 C :   -0.033739
  34 C :   -0.014988
  35 C :   -0.036915
  36 C :   -0.027405
  37 C :   -0.010482
  38 C :   -0.030775
  39 C :    0.016209
  40 C :   -0.033807
  41 C :   -0.037210
  42 C :    0.089150
  43 N :   -0.085211
  44 C :    0.037187
  45 C :   -0.036552
  46 C :   -0.147270
  47 S :    0.062065
  48 C :   -0.033408
  49 C :    0.032335
  50 N :   -0.079809
  51 C :    0.074213
  52 C :   -0.054818
  53 C :   -0.225437
  54 S :    0.474484
  55 C :   -0.169554
  56 C :   -0.156520
  57 C :    0.051863
  58 O :   -0.012635
  59 C :    0.102118
  60 O :   -0.162105
  61 O :   -0.013362
  62 H :    0.023008
  63 H :    0.108500
  64 H :    0.076397
  65 H :    0.021563
  66 H :    0.025806
  67 H :    0.021269
  68 H :    0.024679
  69 H :   -0.000447
  70 H :    0.006735
  71 H :    0.038044
  72 H :    0.051315
  73 H :    0.002190
  74 H :    0.008019
  75 H :    0.046083
  76 H :    0.052629
  77 H :    0.029651
  78 H :    0.057284
  79 H :    0.025521
  80 H :    0.030113
  81 H :    0.026548
  82 H :    0.022549
  83 H :    0.026501
  84 H :    0.028302
  85 H :    0.023747
  86 H :    0.020201
  87 H :    0.022853
  88 H :    0.079858
  89 H :    0.097686

  Mayer bond orders larger than 0.100000
B(  0-C ,  1-S ) :   1.1095 B(  0-C ,  2-C ) :   0.1027 B(  0-C ,  4-C ) :   1.5465
B(  0-C , 62-H ) :   0.9756 B(  1-S ,  2-C ) :   1.2041 B(  2-C ,  3-C ) :   1.5268
B(  2-C ,  9-C ) :   1.0634 B(  3-C ,  4-C ) :   1.2131 B(  3-C ,  6-C ) :   0.8977
B(  4-C ,  5-O ) :   1.1341 B(  5-O , 63-H ) :   0.9505 B(  6-C ,  7-O ) :   2.1508
B(  6-C ,  8-O ) :   1.2418 B(  8-O , 64-H ) :   0.9163 B(  9-C , 10-C ) :   1.0529
B(  9-C , 13-C ) :   1.5711 B( 10-C , 11-N ) :   1.7061 B( 10-C , 65-H ) :   0.9928
B( 11-N , 12-C ) :   1.2821 B( 12-C , 13-C ) :   1.0727 B( 12-C , 17-C ) :   1.4966
B( 13-C , 14-C ) :   1.0191 B( 14-C , 15-S ) :   1.6667 B( 14-C , 16-C ) :   1.0451
B( 16-C , 17-C ) :   1.0665 B( 16-C , 20-C ) :   1.5028 B( 17-C , 18-N ) :   1.2686
B( 18-N , 19-C ) :   1.7094 B( 19-C , 20-C ) :   1.0337 B( 19-C , 66-H ) :   0.9887
B( 20-C , 21-C ) :   1.0446 B( 21-C , 22-C ) :   1.4923 B( 21-C , 38-C ) :   1.1166
B( 22-C , 23-C ) :   1.1765 B( 22-C , 67-H ) :   0.9758 B( 23-C , 24-C ) :   1.4652
B( 23-C , 36-C ) :   1.1178 B( 24-C , 25-C ) :   1.0176 B( 24-C , 30-C ) :   1.0858
B( 25-C , 26-C ) :   1.0393 B( 25-C , 28-C ) :   1.0444 B( 25-C , 68-H ) :   0.8913
B( 26-C , 27-N ) :   1.0815 B( 26-C , 69-H ) :   0.9329 B( 26-C , 70-H ) :   0.9320
B( 27-N , 71-H ) :   0.9628 B( 27-N , 72-H ) :   0.9692 B( 28-C , 29-N ) :   1.0929
B( 28-C , 73-H ) :   0.9436 B( 28-C , 74-H ) :   0.9282 B( 29-N , 75-H ) :   0.9503
B( 29-N , 76-H ) :   0.9667 B( 30-C , 31-C ) :   1.6458 B( 30-C , 35-C ) :   1.0477
B( 31-C , 32-C ) :   0.9664 B( 31-C , 77-H ) :   0.9743 B( 32-C , 33-C ) :   0.9929
B( 32-C , 39-C ) :   0.9529 B( 32-C , 78-H ) :   0.8761 B( 33-C , 34-C ) :   1.7024
B( 33-C , 79-H ) :   0.9720 B( 34-C , 35-C ) :   1.1363 B( 34-C , 80-H ) :   0.9889
B( 35-C , 36-C ) :   1.4332 B( 36-C , 37-C ) :   1.1415 B( 37-C , 38-C ) :   1.6108
B( 37-C , 81-H ) :   0.9894 B( 38-C , 82-H ) :   0.9849 B( 39-C , 40-C ) :   1.7580
B( 39-C , 83-H ) :   0.9654 B( 40-C , 41-C ) :   1.0880 B( 40-C , 84-H ) :   0.9674
B( 41-C , 42-C ) :   1.0041 B( 41-C , 45-C ) :   1.5476 B( 42-C , 43-N ) :   1.7396
B( 42-C , 85-H ) :   0.9894 B( 43-N , 44-C ) :   1.2494 B( 44-C , 45-C ) :   1.0648
B( 44-C , 49-C ) :   1.5314 B( 45-C , 46-C ) :   1.0159 B( 46-C , 47-S ) :   1.6870
B( 46-C , 48-C ) :   1.0532 B( 48-C , 49-C ) :   1.0651 B( 48-C , 52-C ) :   1.5576
B( 49-C , 50-N ) :   1.2582 B( 50-N , 51-C ) :   1.7315 B( 51-C , 52-C ) :   1.0363
B( 51-C , 86-H ) :   0.9898 B( 52-C , 53-C ) :   1.0731 B( 53-C , 54-S ) :   1.1060
B( 53-C , 55-C ) :   0.1031 B( 53-C , 57-C ) :   1.4675 B( 54-S , 55-C ) :   1.2249
B( 55-C , 56-C ) :   1.4645 B( 55-C , 87-H ) :   0.9696 B( 56-C , 57-C ) :   1.1604
B( 56-C , 59-C ) :   0.9330 B( 57-C , 58-O ) :   1.3730 B( 58-O , 88-H ) :   0.8825
B( 59-C , 60-O ) :   2.0193 B( 59-C , 61-O ) :   1.2851 B( 60-O , 88-H ) :   0.1208
B( 61-O , 89-H ) :   0.9541

-----------------------------------------------------------------------------
         ABSORPTION SPECTRUM VIA TRANSITION ELECTRIC DIPOLE MOMENTS
-----------------------------------------------------------------------------
State   Energy  Wavelength   fosc         T2         TX        TY        TZ
        (cm-1)    (nm)                  (au**2)     (au)      (au)      (au)
-----------------------------------------------------------------------------
   0    8084.1   1237.0   0.082806676   3.37218  -0.36317   1.07962   1.44039
   1   11599.1    862.1   0.045777341   1.29928   0.12774  -0.13856  -1.12417
   2   12541.7    797.3   0.019294373   0.50646  -0.21468   0.32411   0.59610
   3   14518.9    688.8   0.000612055   0.01388   0.08423   0.07931   0.02220
   4   15766.0    634.3   0.116943623   2.44191   0.52089  -1.18643  -0.87348
   5   16216.0    616.7   0.136955857   2.78043   0.66996  -1.24489  -0.88421
   6   17666.2    566.1   0.012820015   0.23890   0.02752  -0.19974  -0.44525
   7   18021.5    554.9   0.000639735   0.01169   0.01195   0.00954   0.10702
   8   18038.7    554.4   0.062765548   1.14549   0.07329   0.67231   0.82952
   9   18372.7    544.3   0.064576692   1.15712   0.51698  -0.82443  -0.45844
  10   19404.7    515.3   0.078527453   1.33226  -0.06574   0.73443   0.88800
  11   19963.8    500.9   0.023742861   0.39153  -0.10277   0.05037  -0.61517
  12   20037.0    499.1   0.020566259   0.33791   0.34598  -0.15074  -0.44213
  13   20438.6    489.3   0.002687446   0.04329  -0.01450   0.18855   0.08675
  14   23790.4    420.3   0.001617097   0.02238  -0.06372  -0.09383  -0.09753
  15   24277.8    411.9   0.176831705   2.39788   0.71839  -1.19195  -0.67899
  16   25004.9    399.9   0.321848522   4.23742   0.47143  -1.30310  -1.52221
  17   25104.4    398.3   0.008382207   0.10992  -0.16690   0.13463  -0.25287
  18   25260.6    395.9   0.047226126   0.61548   0.50182  -0.58657  -0.14000
  19   25800.1    387.6   0.155636528   1.98594   0.20432   0.85914   1.09821
  20   25869.3    386.6   0.199961698   2.54471  -0.07504  -1.03489  -1.21164
  21   26033.3    384.1   0.040922229   0.51750  -0.05721  -0.23599   0.67715
  22   26214.2    381.5   0.000670332   0.00842   0.01258   0.08689  -0.02664
  23   26574.8    376.3   0.046325319   0.57388  -0.35053   0.67123  -0.02152
  24   26958.1    370.9   0.355004465   4.33530   0.97299  -1.64038  -0.83531
  25   27190.0    367.8   0.072821497   0.88171  -0.18778  -0.59015  -0.70581
  26   27979.5    357.4   0.015002318   0.17652  -0.19857   0.19086  -0.31728
  27   28155.4    355.2   0.002659904   0.03110  -0.12336   0.11941  -0.04031
  28   28182.3    354.8   0.001307979   0.01528  -0.01816   0.09790   0.07325
  29   28707.5    348.3   0.034489868   0.39552  -0.15634  -0.06361  -0.60583
  30   29544.6    338.5   0.075405467   0.84024  -0.32756  -0.03558  -0.85538
  31   29632.6    337.5   0.030484596   0.33868   0.10397  -0.15851  -0.55022
  32   29888.2    334.6   0.104375606   1.14967  -0.25593   0.72146   0.75078
  33   29938.8    334.0   0.002960961   0.03256  -0.03680   0.17125  -0.04336
  34   30158.5    331.6   0.020027180   0.21862   0.19685  -0.38968   0.16738
  35   30214.8    331.0   0.028817922   0.31399   0.07325   0.17097   0.52858
  36   30791.2    324.8   0.000295939   0.00316   0.04570   0.01712  -0.02797
  37   30931.5    323.3   0.034749757   0.36985  -0.06572   0.42456   0.43045
  38   31151.4    321.0   0.033888577   0.35814   0.29276  -0.45766  -0.25096
  39   31498.3    317.5   0.089126930   0.93153   0.01033   0.21025   0.94192
  40   31549.1    317.0   0.025519430   0.26629  -0.10729  -0.05761  -0.50146
  41   31818.2    314.3   0.001874124   0.01939  -0.04770   0.08341   0.10079
  42   32137.5    311.2   0.553460786   5.66957  -0.09847   1.10471   2.10701
  43   32227.7    310.3   0.013174280   0.13458  -0.36519   0.01595   0.03099
  44   32440.3    308.3   0.070683753   0.71732  -0.58053   0.07441  -0.61218
  45   32722.9    305.6   0.012634870   0.12711  -0.21380  -0.14315   0.24681
  46   32807.3    304.8   0.034022952   0.34141   0.07431  -0.24812  -0.52376
  47   32988.0    303.1   0.030802393   0.30740  -0.26578   0.42021   0.24533
  48   33647.9    297.2   0.001360131   0.01331   0.03462  -0.06550  -0.08842
  49   33681.1    296.9   0.058962122   0.57632  -0.46390   0.41810   0.43163
  50   34245.9    292.0   0.071741487   0.68966   0.15146  -0.63513  -0.51316
  51   34532.0    289.6   0.144124243   1.37401  -0.16845  -0.59932  -0.99321
  52   34645.7    288.6   0.059960634   0.56976  -0.53955   0.00012  -0.52787
  53   34756.6    287.7   0.038796011   0.36747  -0.02467  -0.16027  -0.58411
  54   34901.5    286.5   0.240933628   2.27263  -0.15314  -0.63188  -1.36011
  55   35186.2    284.2   0.013675893   0.12796   0.03990  -0.12173  -0.33398
  56   35432.2    282.2   0.008136182   0.07560  -0.19305  -0.11819  -0.15608
  57   35577.2    281.1   0.005788889   0.05357  -0.11154  -0.01850  -0.20195
  58   35758.5    279.7   0.030858362   0.28410  -0.09617   0.32922   0.40800
  59   35994.7    277.8   0.057376848   0.52478  -0.17534   0.28097   0.64427
  60   36083.2    277.1   0.018887252   0.17232  -0.03380  -0.29073  -0.29437
  61   36288.2    275.6   0.007756576   0.07037   0.04934  -0.09223  -0.24378
  62   36398.2    274.7   0.037211188   0.33657  -0.52123  -0.25373   0.02241
  63   36476.1    274.2   0.029408923   0.26543   0.17705   0.24982  -0.41433
  64   36802.3    271.7   0.067174885   0.60091  -0.53074  -0.21035   0.52438
  65   37082.4    269.7   0.066023525   0.58615  -0.09635   0.41026   0.63918
  66   37156.2    269.1   0.015739853   0.13946   0.17827   0.31672  -0.08581
  67   37420.5    267.2   0.000781466   0.00688   0.07281  -0.03931  -0.00541
  68   37569.4    266.2   0.008221385   0.07204   0.07987   0.24677   0.06904
  69   37719.3    265.1   0.000921199   0.00804   0.01712   0.04672   0.07460
  70   37978.6    263.3   0.067484225   0.58498   0.09998   0.62427   0.43043
  71   38080.1    262.6   0.068353265   0.59093  -0.12239  -0.74619   0.13836
  72   38105.9    262.4   0.306326170   2.64648   1.23988  -0.92035   0.51198
  73   38848.2    257.4   0.102449640   0.86819  -0.82435  -0.28704  -0.32595
  74   39071.8    255.9   0.029662560   0.24993  -0.04507  -0.43932   0.23430
  75   39345.2    254.2   0.000182780   0.00153  -0.00016  -0.01881   0.03429
  76   39604.5    252.5   0.096900553   0.80548  -0.39443   0.38113  -0.71039
  77   39926.8    250.5   0.157739377   1.30062   0.80621   0.44097  -0.67542

FINAL SINGLE POINT ENERGY     -4138.514985003420

DIPOLE MOMENT
-------------
                                X             Y             Z
Electronic contribution:     -9.13265       5.61051       9.33383
Nuclear contribution   :     11.53779      -5.84257      -6.48483
                        -----------------------------------------
Total Dipole Moment    :      2.40514      -0.23206       2.84900
                        -----------------------------------------
Magnitude (a.u.)       :      3.73569
Magnitude (Debye)      :      9.49537

Rotational constants in cm-1:     0.002900     0.000304     0.000294
Rotational constants in MHz :    86.943721     9.126748     8.813548

                             ****ORCA TERMINATED NORMALLY****
TOTAL RUN TIME: 0 days 0 hours 8 minutes 26 seconds 967 msec
