                         Program Version 4.2.0 -  RELEASE  -
|  1> # ORCA input file
|  2> # SCF done       -193.230980461334          0.000469579985
|  3> ! CAM-B3LYP def2-SVP def2/J RIJCOSX Grid4 TightSCF
|  4> %maxcore 5000
|  5> %tddft
|  6>     Mode sTDDFT
|  7>     Ethresh 5.0
|  8>     maxcore 5000
|  9> end
| 10>
| 11> %pal
| 12>   nprocs 6
| 13>   end
| 14> * xyz 0 1
| 15>    C       -2.44897         3.12338         8.68709
| 16>    N       -2.76150         4.40273         9.04132
| 17>    C       -3.69125         4.92176         8.19305
| 18>    C       -3.99221         3.95255         7.26400
| 19>    C       -3.19714         2.81764         7.59109
| 20>    S       -3.55767         1.56832         6.39204
| 21>    O       -4.29077         0.46610         6.96344
| 22>    O       -2.40472         1.21898         5.60368
| 23>    C       -4.73126         2.62150         5.49633
| 24>    C       -4.84777         3.80921         6.11512
| 25>    C       -5.37827         1.93846         4.43336
| 26>    C       -6.64683         2.11592         4.00516
| 27>    C       -7.29630         1.24049         3.08331
| 28>    N       -8.28810         1.67303         2.32085
| 29>    C       -8.63167         0.63063         1.53567
| 30>    C       -7.80334        -0.54534         1.81584
| 31>    C       -8.20753        -1.67178         0.96284
| 32>    O       -7.72512        -2.78410         0.89199
| 33>    C       -9.33848        -1.11028         0.19962
| 34>    C       -9.55581         0.29904         0.56852
| 35>    N      -10.61244         0.81443        -0.10410
| 36>    C      -11.06199        -0.17430        -0.84278
| 37>    C      -10.32107        -1.40634        -0.69290
| 38>    C       -6.96790        -0.18830         2.84993
| 39>    C       -6.05878        -0.97189         3.61870
| 40>    C       -5.58605        -2.17426         3.21358
| 41>    C       -4.63543        -2.98459         3.92612
| 42>    C       -3.89208        -2.51116         4.99512
| 43>    C       -2.96510        -3.35106         5.62938
| 44>    C       -2.10267        -3.10565         6.70005
| 45>    C       -1.92229        -1.80476         7.39362
| 46>    C       -2.52301        -1.82022         8.81097
| 47>    N       -3.95704        -2.02570         8.72818
| 48>    C       -0.45494        -1.34322         7.42468
| 49>    N       -0.40421         0.07971         7.73842
| 50>    C       -1.41868        -4.34469         6.97149
| 51>    C       -0.56558        -4.69672         7.95234
| 52>    C        0.02959        -6.06403         8.01369
| 53>    C       -0.43835        -7.00109         6.95124
| 54>    C       -1.33088        -6.64759         6.00478
| 55>    C       -1.86160        -5.33875         5.97935
| 56>    C       -2.80407        -4.72173         5.17373
| 57>    C       -3.56013        -5.17735         4.07168
| 58>    C       -4.43447        -4.32833         3.46930
| 59>    C        1.51789        -5.83453         7.98451
| 60>    C        2.27601        -6.07325         6.90572
| 61>    C        3.68157        -5.82641         6.88387
| 62>    N        4.33715        -5.25242         7.88587
| 63>    C        5.62407        -5.19120         7.49562
| 64>    C        5.80847        -5.77453         6.15786
| 65>    C        7.21811        -5.70830         5.75264
| 66>    O        7.72551        -6.10119         4.71935
| 67>    C        7.85443        -5.05249         6.90645
| 68>    C        6.85101        -4.75279         7.94544
| 69>    N        7.42944        -4.15014         9.00993
| 70>    C        8.70475        -4.06100         8.70184
| 71>    C        9.03798        -4.60379         7.40729
| 72>    C        4.56319        -6.18594         5.75326
| 73>    C        4.12357        -6.83852         4.57098
| 74>    C        4.92601        -7.20664         3.54893
| 75>    C        4.36734        -7.88109         2.42424
| 76>    N        5.07857        -8.29109         1.32346
| 77>    C        4.26727        -8.90911         0.42520
| 78>    C        2.98876        -8.90793         0.94624
| 79>    C        3.05861        -8.26084         2.20088
| 80>    S        1.42971        -8.25230         2.90246
| 81>    O        0.89935        -6.91836         3.03047
| 82>    O        1.35234        -9.06917         4.08801
| 83>    C        0.71955        -9.11275         1.46937
| 84>    C        1.68033        -9.36902         0.56522
| 85>    C       -0.68580        -9.38868         1.49583
| 86>    C       -1.37593       -10.02666         0.55196
| 87>    H       -1.73068         2.53489         9.22083
| 88>    H       -2.35604         4.89711         9.82032
| 89>    H       -4.06497         5.91891         8.30969
| 90>    H       -5.48761         4.61009         5.78035
| 91>    H       -4.77387         1.14643         4.01005
| 92>    H       -7.23371         2.95472         4.35375
| 93>    H      -11.90975        -0.02646        -1.48920
| 94>    H      -10.53279        -2.32826        -1.19796
| 95>    H       -5.77591        -0.57864         4.58545
| 96>    H       -5.94268        -2.57617         2.27363
| 97>    H       -4.01000        -1.49924         5.34914
| 98>    H       -2.47519        -1.04834         6.83205
| 99>    H       -2.23668        -0.86820         9.28729
|100>    H       -2.09892        -2.64306         9.39515
|101>    H       -4.36458        -1.29098         8.15633
|102>    H       -4.37498        -1.96770         9.65057
|103>    H        0.00526        -1.58575         6.45316
|104>    H        0.10348        -1.87084         8.20270
|105>    H       -0.91689         0.59004         7.02293
|106>    H        0.55965         0.39770         7.70351
|107>    H       -0.25001        -4.00269         8.71692
|108>    H       -0.20949        -6.50095         8.99592
|109>    H       -0.00865        -7.99088         6.96545
|110>    H       -1.64279        -7.35851         5.25516
|111>    H       -3.43172        -6.18888         3.71648
|112>    H       -5.01998        -4.65883         2.62377
|113>    H        1.97510        -5.42473         8.87405
|114>    H        1.82689        -6.47741         6.00972
|115>    H        9.39824        -3.61289         9.39236
|116>    H       10.01810        -4.62815         6.97309
|117>    H        3.06936        -7.06379         4.49404
|118>    H        5.98840        -7.00500         3.56695
|119>    H        6.06989        -8.14511         1.21119
|120>    H        4.64457        -9.29802        -0.49948
|121>    H        1.51554        -9.87302        -0.37407
|122>    H       -1.18089        -9.02539         2.38684
|123>    H       -0.90657       -10.39917        -0.34239
|124>    H       -2.43391       -10.19507         0.64692
|125> *
|126>
|127>                          ****END OF INPUT****

CARTESIAN COORDINATES (ANGSTROEM)
---------------------------------
  C     -2.448970    3.123380    8.687090
  N     -2.761500    4.402730    9.041320
  C     -3.691250    4.921760    8.193050
  C     -3.992210    3.952550    7.264000
  C     -3.197140    2.817640    7.591090
  S     -3.557670    1.568320    6.392040
  O     -4.290770    0.466100    6.963440
  O     -2.404720    1.218980    5.603680
  C     -4.731260    2.621500    5.496330
  C     -4.847770    3.809210    6.115120
  C     -5.378270    1.938460    4.433360
  C     -6.646830    2.115920    4.005160
  C     -7.296300    1.240490    3.083310
  N     -8.288100    1.673030    2.320850
  C     -8.631670    0.630630    1.535670
  C     -7.803340   -0.545340    1.815840
  C     -8.207530   -1.671780    0.962840
  O     -7.725120   -2.784100    0.891990
  C     -9.338480   -1.110280    0.199620
  C     -9.555810    0.299040    0.568520
  N    -10.612440    0.814430   -0.104100
  C    -11.061990   -0.174300   -0.842780
  C    -10.321070   -1.406340   -0.692900
  C     -6.967900   -0.188300    2.849930
  C     -6.058780   -0.971890    3.618700
  C     -5.586050   -2.174260    3.213580
  C     -4.635430   -2.984590    3.926120
  C     -3.892080   -2.511160    4.995120
  C     -2.965100   -3.351060    5.629380
  C     -2.102670   -3.105650    6.700050
  C     -1.922290   -1.804760    7.393620
  C     -2.523010   -1.820220    8.810970
  N     -3.957040   -2.025700    8.728180
  C     -0.454940   -1.343220    7.424680
  N     -0.404210    0.079710    7.738420
  C     -1.418680   -4.344690    6.971490
  C     -0.565580   -4.696720    7.952340
  C      0.029590   -6.064030    8.013690
  C     -0.438350   -7.001090    6.951240
  C     -1.330880   -6.647590    6.004780
  C     -1.861600   -5.338750    5.979350
  C     -2.804070   -4.721730    5.173730
  C     -3.560130   -5.177350    4.071680
  C     -4.434470   -4.328330    3.469300
  C      1.517890   -5.834530    7.984510
  C      2.276010   -6.073250    6.905720
  C      3.681570   -5.826410    6.883870
  N      4.337150   -5.252420    7.885870
  C      5.624070   -5.191200    7.495620
  C      5.808470   -5.774530    6.157860
  C      7.218110   -5.708300    5.752640
  O      7.725510   -6.101190    4.719350
  C      7.854430   -5.052490    6.906450
  C      6.851010   -4.752790    7.945440
  N      7.429440   -4.150140    9.009930
  C      8.704750   -4.061000    8.701840
  C      9.037980   -4.603790    7.407290
  C      4.563190   -6.185940    5.753260
  C      4.123570   -6.838520    4.570980
  C      4.926010   -7.206640    3.548930
  C      4.367340   -7.881090    2.424240
  N      5.078570   -8.291090    1.323460
  C      4.267270   -8.909110    0.425200
  C      2.988760   -8.907930    0.946240
  C      3.058610   -8.260840    2.200880
  S      1.429710   -8.252300    2.902460
  O      0.899350   -6.918360    3.030470
  O      1.352340   -9.069170    4.088010
  C      0.719550   -9.112750    1.469370
  C      1.680330   -9.369020    0.565220
  C     -0.685800   -9.388680    1.495830
  C     -1.375930  -10.026660    0.551960
  H     -1.730680    2.534890    9.220830
  H     -2.356040    4.897110    9.820320
  H     -4.064970    5.918910    8.309690
  H     -5.487610    4.610090    5.780350
  H     -4.773870    1.146430    4.010050
  H     -7.233710    2.954720    4.353750
  H    -11.909750   -0.026460   -1.489200
  H    -10.532790   -2.328260   -1.197960
  H     -5.775910   -0.578640    4.585450
  H     -5.942680   -2.576170    2.273630
  H     -4.010000   -1.499240    5.349140
  H     -2.475190   -1.048340    6.832050
  H     -2.236680   -0.868200    9.287290
  H     -2.098920   -2.643060    9.395150
  H     -4.364580   -1.290980    8.156330
  H     -4.374980   -1.967700    9.650570
  H      0.005260   -1.585750    6.453160
  H      0.103480   -1.870840    8.202700
  H     -0.916890    0.590040    7.022930
  H      0.559650    0.397700    7.703510
  H     -0.250010   -4.002690    8.716920
  H     -0.209490   -6.500950    8.995920
  H     -0.008650   -7.990880    6.965450
  H     -1.642790   -7.358510    5.255160
  H     -3.431720   -6.188880    3.716480
  H     -5.019980   -4.658830    2.623770
  H      1.975100   -5.424730    8.874050
  H      1.826890   -6.477410    6.009720
  H      9.398240   -3.612890    9.392360
  H     10.018100   -4.628150    6.973090
  H      3.069360   -7.063790    4.494040
  H      5.988400   -7.005000    3.566950
  H      6.069890   -8.145110    1.211190
  H      4.644570   -9.298020   -0.499480
  H      1.515540   -9.873020   -0.374070
  H     -1.180890   -9.025390    2.386840
  H     -0.906570  -10.399170   -0.342390
  H     -2.433910  -10.195070    0.646920

 Total Charge           Charge          ....    0
 Multiplicity           Mult            ....    1
 Number of Electrons    NEL             ....  510
 Basis Dimension        Dim             .... 1206

ORBITAL ENERGIES
----------------

  NO   OCC          E(Eh)            E(eV)
   0   2.0000     -89.160272     -2426.1743
   1   2.0000     -89.136858     -2425.5372
   2   2.0000     -19.214748      -522.8599
   3   2.0000     -19.211901      -522.7824
   4   2.0000     -19.204263      -522.5746
   5   2.0000     -19.193302      -522.2763
   6   2.0000     -19.187659      -522.1228
   7   2.0000     -19.187300      -522.1130
   8   2.0000     -14.500718      -394.5846
   9   2.0000     -14.483652      -394.1202
  10   2.0000     -14.398909      -391.8142
  11   2.0000     -14.397164      -391.7668
  12   2.0000     -14.394298      -391.6888
  13   2.0000     -14.389541      -391.5593
  14   2.0000     -14.363864      -390.8606
  15   2.0000     -14.340466      -390.2239
  16   2.0000     -10.363811      -282.0136
  17   2.0000     -10.353176      -281.7242
  18   2.0000     -10.337796      -281.3057
  19   2.0000     -10.333509      -281.1891
  20   2.0000     -10.332422      -281.1595
  21   2.0000     -10.331899      -281.1453
  22   2.0000     -10.326845      -281.0077
  23   2.0000     -10.324268      -280.9376
  24   2.0000     -10.324015      -280.9307
  25   2.0000     -10.319679      -280.8127
  26   2.0000     -10.319546      -280.8091
  27   2.0000     -10.317212      -280.7456
  28   2.0000     -10.311822      -280.5989
  29   2.0000     -10.309691      -280.5410
  30   2.0000     -10.309686      -280.5408
  31   2.0000     -10.307898      -280.4922
  32   2.0000     -10.304865      -280.4096
  33   2.0000     -10.301940      -280.3300
  34   2.0000     -10.299864      -280.2735
  35   2.0000     -10.299539      -280.2647
  36   2.0000     -10.298006      -280.2230
  37   2.0000     -10.297598      -280.2119
  38   2.0000     -10.296164      -280.1729
  39   2.0000     -10.294933      -280.1394
  40   2.0000     -10.289575      -279.9936
  41   2.0000     -10.288521      -279.9649
  42   2.0000     -10.286451      -279.9086
  43   2.0000     -10.285030      -279.8699
  44   2.0000     -10.284421      -279.8533
  45   2.0000     -10.284187      -279.8470
  46   2.0000     -10.281430      -279.7719
  47   2.0000     -10.279848      -279.7289
  48   2.0000     -10.278777      -279.6998
  49   2.0000     -10.278728      -279.6984
  50   2.0000     -10.277686      -279.6700
  51   2.0000     -10.274347      -279.5792
  52   2.0000     -10.273635      -279.5598
  53   2.0000     -10.271114      -279.4912
  54   2.0000     -10.271041      -279.4892
  55   2.0000     -10.265203      -279.3304
  56   2.0000     -10.264274      -279.3051
  57   2.0000     -10.262143      -279.2471
  58   2.0000     -10.258424      -279.1459
  59   2.0000     -10.256499      -279.0935
  60   2.0000     -10.254531      -279.0400
  61   2.0000     -10.252127      -278.9745
  62   2.0000     -10.251690      -278.9627
  63   2.0000     -10.250599      -278.9330
  64   2.0000     -10.247194      -278.8403
  65   2.0000     -10.245817      -278.8029
  66   2.0000     -10.244486      -278.7666
  67   2.0000     -10.242430      -278.7107
  68   2.0000     -10.240791      -278.6661
  69   2.0000     -10.240641      -278.6620
  70   2.0000     -10.239221      -278.6234
  71   2.0000     -10.238530      -278.6046
  72   2.0000      -8.225008      -223.8138
  73   2.0000      -8.201265      -223.1678
  74   2.0000      -6.194062      -168.5490
  75   2.0000      -6.193894      -168.5444
  76   2.0000      -6.192941      -168.5185
  77   2.0000      -6.170408      -167.9053
  78   2.0000      -6.170031      -167.8951
  79   2.0000      -6.169377      -167.8773
  80   2.0000      -1.217739       -33.1364
  81   2.0000      -1.191296       -32.4168
  82   2.0000      -1.116776       -30.3890
  83   2.0000      -1.112414       -30.2703
  84   2.0000      -1.106691       -30.1146
  85   2.0000      -1.097159       -29.8552
  86   2.0000      -1.094553       -29.7843
  87   2.0000      -1.066764       -29.0281
  88   2.0000      -1.066610       -29.0239
  89   2.0000      -1.063391       -28.9363
  90   2.0000      -1.047141       -28.4941
  91   2.0000      -1.043430       -28.3932
  92   2.0000      -0.979682       -26.6585
  93   2.0000      -0.963683       -26.2231
  94   2.0000      -0.959650       -26.1134
  95   2.0000      -0.945829       -25.7373
  96   2.0000      -0.934277       -25.4230
  97   2.0000      -0.927015       -25.2254
  98   2.0000      -0.924673       -25.1616
  99   2.0000      -0.922580       -25.1047
 100   2.0000      -0.918072       -24.9820
 101   2.0000      -0.913305       -24.8523
 102   2.0000      -0.903180       -24.5768
 103   2.0000      -0.891613       -24.2620
 104   2.0000      -0.884555       -24.0700
 105   2.0000      -0.871878       -23.7250
 106   2.0000      -0.867139       -23.5960
 107   2.0000      -0.861445       -23.4411
 108   2.0000      -0.856340       -23.3022
 109   2.0000      -0.849943       -23.1281
 110   2.0000      -0.842766       -22.9328
 111   2.0000      -0.839971       -22.8568
 112   2.0000      -0.833046       -22.6683
 113   2.0000      -0.823461       -22.4075
 114   2.0000      -0.813425       -22.1344
 115   2.0000      -0.811824       -22.0908
 116   2.0000      -0.805467       -21.9179
 117   2.0000      -0.796169       -21.6649
 118   2.0000      -0.790480       -21.5101
 119   2.0000      -0.786072       -21.3901
 120   2.0000      -0.776974       -21.1425
 121   2.0000      -0.756762       -20.5925
 122   2.0000      -0.747049       -20.3282
 123   2.0000      -0.739426       -20.1208
 124   2.0000      -0.737437       -20.0667
 125   2.0000      -0.734642       -19.9906
 126   2.0000      -0.732982       -19.9455
 127   2.0000      -0.718722       -19.5574
 128   2.0000      -0.701903       -19.0997
 129   2.0000      -0.695759       -18.9326
 130   2.0000      -0.695159       -18.9162
 131   2.0000      -0.690866       -18.7994
 132   2.0000      -0.685524       -18.6541
 133   2.0000      -0.673141       -18.3171
 134   2.0000      -0.672845       -18.3090
 135   2.0000      -0.668057       -18.1787
 136   2.0000      -0.667589       -18.1660
 137   2.0000      -0.654594       -17.8124
 138   2.0000      -0.652491       -17.7552
 139   2.0000      -0.647365       -17.6157
 140   2.0000      -0.641870       -17.4662
 141   2.0000      -0.637544       -17.3485
 142   2.0000      -0.635041       -17.2803
 143   2.0000      -0.623941       -16.9783
 144   2.0000      -0.622428       -16.9371
 145   2.0000      -0.617359       -16.7992
 146   2.0000      -0.615246       -16.7417
 147   2.0000      -0.610354       -16.6086
 148   2.0000      -0.604210       -16.4414
 149   2.0000      -0.600999       -16.3540
 150   2.0000      -0.597735       -16.2652
 151   2.0000      -0.593263       -16.1435
 152   2.0000      -0.585068       -15.9205
 153   2.0000      -0.583502       -15.8779
 154   2.0000      -0.578748       -15.7485
 155   2.0000      -0.574586       -15.6353
 156   2.0000      -0.573071       -15.5940
 157   2.0000      -0.566448       -15.4138
 158   2.0000      -0.564481       -15.3603
 159   2.0000      -0.561243       -15.2722
 160   2.0000      -0.558681       -15.2025
 161   2.0000      -0.555489       -15.1156
 162   2.0000      -0.553641       -15.0653
 163   2.0000      -0.549576       -14.9547
 164   2.0000      -0.543607       -14.7923
 165   2.0000      -0.541138       -14.7251
 166   2.0000      -0.540527       -14.7085
 167   2.0000      -0.539311       -14.6754
 168   2.0000      -0.538857       -14.6630
 169   2.0000      -0.535676       -14.5765
 170   2.0000      -0.534799       -14.5526
 171   2.0000      -0.534431       -14.5426
 172   2.0000      -0.526930       -14.3385
 173   2.0000      -0.524570       -14.2743
 174   2.0000      -0.522093       -14.2069
 175   2.0000      -0.520819       -14.1722
 176   2.0000      -0.518063       -14.0972
 177   2.0000      -0.517171       -14.0729
 178   2.0000      -0.516122       -14.0444
 179   2.0000      -0.510019       -13.8783
 180   2.0000      -0.507995       -13.8232
 181   2.0000      -0.506626       -13.7860
 182   2.0000      -0.506577       -13.7847
 183   2.0000      -0.505644       -13.7593
 184   2.0000      -0.501371       -13.6430
 185   2.0000      -0.498463       -13.5639
 186   2.0000      -0.494470       -13.4552
 187   2.0000      -0.493404       -13.4262
 188   2.0000      -0.489858       -13.3297
 189   2.0000      -0.488010       -13.2794
 190   2.0000      -0.487091       -13.2544
 191   2.0000      -0.485368       -13.2075
 192   2.0000      -0.480774       -13.0825
 193   2.0000      -0.477017       -12.9803
 194   2.0000      -0.475689       -12.9442
 195   2.0000      -0.472715       -12.8632
 196   2.0000      -0.471965       -12.8428
 197   2.0000      -0.464748       -12.6464
 198   2.0000      -0.464181       -12.6310
 199   2.0000      -0.463255       -12.6058
 200   2.0000      -0.460558       -12.5324
 201   2.0000      -0.457534       -12.4501
 202   2.0000      -0.455155       -12.3854
 203   2.0000      -0.451705       -12.2915
 204   2.0000      -0.450956       -12.2711
 205   2.0000      -0.447753       -12.1840
 206   2.0000      -0.444362       -12.0917
 207   2.0000      -0.443756       -12.0752
 208   2.0000      -0.441753       -12.0207
 209   2.0000      -0.441529       -12.0146
 210   2.0000      -0.435793       -11.8585
 211   2.0000      -0.429907       -11.6984
 212   2.0000      -0.426860       -11.6154
 213   2.0000      -0.420303       -11.4370
 214   2.0000      -0.418320       -11.3831
 215   2.0000      -0.414530       -11.2799
 216   2.0000      -0.408833       -11.1249
 217   2.0000      -0.407643       -11.0925
 218   2.0000      -0.406525       -11.0621
 219   2.0000      -0.396572       -10.7913
 220   2.0000      -0.395211       -10.7542
 221   2.0000      -0.393378       -10.7044
 222   2.0000      -0.389968       -10.6116
 223   2.0000      -0.386460       -10.5161
 224   2.0000      -0.382657       -10.4126
 225   2.0000      -0.378362       -10.2958
 226   2.0000      -0.374072       -10.1790
 227   2.0000      -0.371664       -10.1135
 228   2.0000      -0.366002        -9.9594
 229   2.0000      -0.365109        -9.9351
 230   2.0000      -0.357161        -9.7189
 231   2.0000      -0.356526        -9.7016
 232   2.0000      -0.355096        -9.6626
 233   2.0000      -0.349603        -9.5132
 234   2.0000      -0.345157        -9.3922
 235   2.0000      -0.343219        -9.3395
 236   2.0000      -0.342613        -9.3230
 237   2.0000      -0.338184        -9.2025
 238   2.0000      -0.337335        -9.1794
 239   2.0000      -0.334715        -9.1081
 240   2.0000      -0.322931        -8.7874
 241   2.0000      -0.322280        -8.7697
 242   2.0000      -0.322045        -8.7633
 243   2.0000      -0.318194        -8.6585
 244   2.0000      -0.313700        -8.5362
 245   2.0000      -0.312092        -8.4924
 246   2.0000      -0.304965        -8.2985
 247   2.0000      -0.294413        -8.0114
 248   2.0000      -0.291971        -7.9449
 249   2.0000      -0.287015        -7.8101
 250   2.0000      -0.284496        -7.7415
 251   2.0000      -0.262564        -7.1447
 252   2.0000      -0.257860        -7.0167
 253   2.0000      -0.253933        -6.9099
 254   2.0000      -0.197259        -5.3677
 255   0.0000      -0.105845        -2.8802
 256   0.0000      -0.103465        -2.8154
 257   0.0000      -0.057846        -1.5741
 258   0.0000      -0.048103        -1.3089
 259   0.0000      -0.040322        -1.0972

MULLIKEN ATOMIC CHARGES
-----------------------
   0 C :   -0.023366
   1 N :   -0.047811
   2 C :    0.014101
   3 C :   -0.007653
   4 C :    0.006883
   5 S :    0.813956
   6 O :   -0.448212
   7 O :   -0.443468
   8 C :   -0.091305
   9 C :    0.088157
  10 C :    0.052656
  11 C :    0.019068
  12 C :    0.022433
  13 N :   -0.043829
  14 C :    0.066274
  15 C :   -0.167756
  16 C :    0.209622
  17 O :   -0.148729
  18 C :   -0.021759
  19 C :   -0.030782
  20 N :   -0.060000
  21 C :    0.082941
  22 C :   -0.095406
  23 C :    0.061953
  24 C :   -0.075285
  25 C :    0.009894
  26 C :    0.094465
  27 C :   -0.047118
  28 C :    0.047931
  29 C :    0.036744
  30 C :   -0.092860
  31 C :    0.165955
  32 N :   -0.222683
  33 C :    0.152188
  34 N :   -0.244799
  35 C :    0.097226
  36 C :   -0.133722
  37 C :    0.175194
  38 C :   -0.065025
  39 C :    0.041428
  40 C :    0.001050
  41 C :    0.042101
  42 C :    0.002940
  43 C :   -0.014202
  44 C :   -0.049256
  45 C :   -0.021559
  46 C :    0.057980
  47 N :   -0.042013
  48 C :    0.078374
  49 C :   -0.167991
  50 C :    0.211641
  51 O :   -0.159552
  52 C :   -0.011839
  53 C :   -0.049370
  54 N :   -0.056683
  55 C :    0.083826
  56 C :   -0.101428
  57 C :    0.066600
  58 C :   -0.025803
  59 C :    0.036210
  60 C :   -0.000047
  61 N :   -0.028410
  62 C :   -0.001734
  63 C :    0.057568
  64 C :   -0.071708
  65 S :    0.793828
  66 O :   -0.454330
  67 O :   -0.464885
  68 C :   -0.073142
  69 C :    0.039872
  70 C :    0.057850
  71 C :   -0.008684
  72 H :    0.027958
  73 H :    0.144259
  74 H :    0.008255
  75 H :    0.005285
  76 H :    0.043831
  77 H :    0.013234
  78 H :    0.003005
  79 H :   -0.010816
  80 H :    0.006104
  81 H :    0.002873
  82 H :   -0.059614
  83 H :   -0.029797
  84 H :   -0.025986
  85 H :   -0.034671
  86 H :    0.090967
  87 H :    0.077523
  88 H :    0.000277
  89 H :   -0.025687
  90 H :    0.088782
  91 H :    0.085996
  92 H :   -0.000065
  93 H :    0.037570
  94 H :   -0.002669
  95 H :   -0.043213
  96 H :   -0.044368
  97 H :   -0.020759
  98 H :    0.026073
  99 H :    0.033192
 100 H :    0.002824
 101 H :   -0.012693
 102 H :   -0.029879
 103 H :   -0.020562
 104 H :    0.138810
 105 H :    0.001011
 106 H :   -0.013395
 107 H :    0.006887
 108 H :    0.017606
 109 H :    0.037149
Sum of atomic charges:    0.0000000

LOEWDIN ATOMIC CHARGES
----------------------
   0 C :    0.022963
   1 N :    0.107436
   2 C :    0.005621
   3 C :   -0.091433
   4 C :   -0.227431
   5 S :    1.198104
   6 O :   -0.482933
   7 O :   -0.481263
   8 C :   -0.161341
   9 C :    0.019456
  10 C :   -0.010900
  11 C :   -0.003400
  12 C :    0.065026
  13 N :   -0.098649
  14 C :    0.050197
  15 C :   -0.073189
  16 C :    0.069308
  17 O :   -0.148556
  18 C :   -0.040620
  19 C :    0.013237
  20 N :   -0.100537
  21 C :    0.063655
  22 C :   -0.039102
  23 C :   -0.014036
  24 C :   -0.059470
  25 C :    0.038042
  26 C :   -0.043278
  27 C :    0.022251
  28 C :   -0.015694
  29 C :   -0.001672
  30 C :   -0.045814
  31 C :    0.025855
  32 N :   -0.127447
  33 C :    0.031159
  34 N :   -0.133855
  35 C :   -0.007524
  36 C :    0.065188
  37 C :   -0.030805
  38 C :   -0.045096
  39 C :   -0.002579
  40 C :   -0.040159
  41 C :   -0.021786
  42 C :   -0.012703
  43 C :   -0.021603
  44 C :    0.084618
  45 C :   -0.054759
  46 C :    0.085885
  47 N :   -0.112573
  48 C :    0.054740
  49 C :   -0.049278
  50 C :    0.068950
  51 O :   -0.159833
  52 C :   -0.042947
  53 C :    0.009511
  54 N :   -0.098931
  55 C :    0.062549
  56 C :   -0.043106
  57 C :   -0.022981
  58 C :   -0.014450
  59 C :   -0.002162
  60 C :   -0.000023
  61 N :    0.107410
  62 C :    0.004680
  63 C :   -0.083954
  64 C :   -0.220971
  65 S :    1.176224
  66 O :   -0.500121
  67 O :   -0.507877
  68 C :   -0.159363
  69 C :    0.004872
  70 C :   -0.037039
  71 C :   -0.018961
  72 H :    0.035412
  73 H :    0.100834
  74 H :    0.028722
  75 H :    0.042857
  76 H :    0.042184
  77 H :    0.042383
  78 H :    0.020521
  79 H :    0.031841
  80 H :    0.025611
  81 H :    0.032023
  82 H :    0.018394
  83 H :    0.016643
  84 H :   -0.009121
  85 H :    0.004395
  86 H :    0.041656
  87 H :    0.048170
  88 H :    0.006412
  89 H :    0.008126
  90 H :    0.034359
  91 H :    0.052738
  92 H :    0.026575
  93 H :    0.060480
  94 H :    0.027021
  95 H :    0.029079
  96 H :    0.025038
  97 H :    0.028732
  98 H :    0.035951
  99 H :    0.039565
 100 H :    0.020830
 101 H :    0.031454
 102 H :    0.023021
 103 H :    0.031887
 104 H :    0.100273
 105 H :    0.026065
 106 H :    0.035739
 107 H :    0.034959
 108 H :    0.022384
 109 H :    0.032054

  Mayer bond orders larger than 0.100000
B(  0-C ,  1-N ) :   1.2432 B(  0-C ,  4-C ) :   1.5413 B(  0-C , 72-H ) :   0.9924
B(  1-N ,  2-C ) :   1.2349 B(  1-N , 73-H ) :   0.9371 B(  2-C ,  3-C ) :   1.4663
B(  2-C , 74-H ) :   0.9881 B(  3-C ,  4-C ) :   1.3126 B(  3-C ,  9-C ) :   1.0546
B(  4-C ,  5-S ) :   0.7929 B(  5-S ,  6-O ) :   1.6264 B(  5-S ,  7-O ) :   1.6417
B(  5-S ,  8-C ) :   0.8428 B(  8-C ,  9-C ) :   1.6991 B(  8-C , 10-C ) :   1.0843
B(  9-C , 75-H ) :   0.9985 B( 10-C , 11-C ) :   1.7186 B( 10-C , 76-H ) :   0.9341
B( 11-C , 12-C ) :   1.1221 B( 11-C , 77-H ) :   0.9599 B( 12-C , 13-N ) :   1.5962
B( 12-C , 23-C ) :   1.0125 B( 13-N , 14-C ) :   1.3202 B( 14-C , 15-C ) :   1.0624
B( 14-C , 19-C ) :   1.4235 B( 15-C , 16-C ) :   0.9089 B( 15-C , 23-C ) :   1.5449
B( 16-C , 17-O ) :   2.1984 B( 16-C , 18-C ) :   0.9259 B( 18-C , 19-C ) :   1.0715
B( 18-C , 22-C ) :   1.6031 B( 19-C , 20-N ) :   1.3116 B( 20-N , 21-C ) :   1.6579
B( 21-C , 22-C ) :   1.0741 B( 21-C , 78-H ) :   0.9897 B( 22-C , 79-H ) :   1.0105
B( 23-C , 24-C ) :   1.1085 B( 24-C , 25-C ) :   1.6517 B( 24-C , 80-H ) :   0.9534
B( 25-C , 26-C ) :   1.0756 B( 25-C , 81-H ) :   0.9707 B( 26-C , 27-C ) :   1.4868
B( 26-C , 43-C ) :   1.1140 B( 27-C , 28-C ) :   1.1762 B( 27-C , 82-H ) :   0.9766
B( 28-C , 29-C ) :   1.4768 B( 28-C , 41-C ) :   1.1071 B( 29-C , 30-C ) :   1.0172
B( 29-C , 35-C ) :   1.0949 B( 30-C , 31-C ) :   1.0338 B( 30-C , 33-C ) :   1.0429
B( 30-C , 83-H ) :   0.8898 B( 31-C , 32-N ) :   1.0860 B( 31-C , 84-H ) :   0.9312
B( 31-C , 85-H ) :   0.9320 B( 32-N , 86-H ) :   0.9622 B( 32-N , 87-H ) :   0.9676
B( 33-C , 34-N ) :   1.0686 B( 33-C , 88-H ) :   0.9487 B( 33-C , 89-H ) :   0.9266
B( 34-N , 90-H ) :   0.9468 B( 34-N , 91-H ) :   0.9650 B( 35-C , 36-C ) :   1.6905
B( 35-C , 40-C ) :   1.0420 B( 36-C , 37-C ) :   0.9541 B( 36-C , 92-H ) :   0.9552
B( 37-C , 38-C ) :   1.0012 B( 37-C , 44-C ) :   0.9349 B( 37-C , 93-H ) :   0.8545
B( 38-C , 39-C ) :   1.7130 B( 38-C , 94-H ) :   0.9684 B( 39-C , 40-C ) :   1.1367
B( 39-C , 95-H ) :   0.9905 B( 40-C , 41-C ) :   1.4382 B( 41-C , 42-C ) :   1.1430
B( 42-C , 43-C ) :   1.5963 B( 42-C , 96-H ) :   0.9907 B( 43-C , 97-H ) :   0.9938
B( 44-C , 45-C ) :   1.7782 B( 44-C , 98-H ) :   0.9745 B( 45-C , 46-C ) :   1.1186
B( 45-C , 99-H ) :   0.9359 B( 46-C , 47-N ) :   1.5877 B( 46-C , 48-C ) :   0.1117
B( 46-C , 57-C ) :   1.0026 B( 47-N , 48-C ) :   1.3632 B( 48-C , 49-C ) :   1.0452
B( 48-C , 53-C ) :   1.3964 B( 49-C , 50-C ) :   0.9060 B( 49-C , 57-C ) :   1.5391
B( 50-C , 51-O ) :   2.1791 B( 50-C , 52-C ) :   0.9344 B( 52-C , 53-C ) :   1.0804
B( 52-C , 56-C ) :   1.5758 B( 53-C , 54-N ) :   1.3250 B( 54-N , 55-C ) :   1.6422
B( 55-C , 56-C ) :   1.0897 B( 55-C ,100-H ) :   0.9898 B( 56-C ,101-H ) :   1.0120
B( 57-C , 58-C ) :   1.1357 B( 58-C , 59-C ) :   1.6667 B( 58-C ,102-H ) :   0.9530
B( 59-C , 60-C ) :   1.0932 B( 59-C ,103-H ) :   0.9557 B( 60-C , 61-N ) :   1.2334
B( 60-C , 64-C ) :   1.4796 B( 61-N , 62-C ) :   1.2258 B( 61-N ,104-H ) :   0.9290
B( 62-C , 63-C ) :   1.4323 B( 62-C ,105-H ) :   0.9874 B( 63-C , 64-C ) :   1.3570
B( 63-C , 69-C ) :   1.0479 B( 64-C , 65-S ) :   0.8310 B( 65-S , 66-O ) :   1.6903
B( 65-S , 67-O ) :   1.6882 B( 65-S , 68-C ) :   0.8136 B( 68-C , 69-C ) :   1.7301
B( 68-C , 70-C ) :   1.0961 B( 69-C ,106-H ) :   0.9905 B( 70-C , 71-C ) :   1.9533
B( 70-C ,107-H ) :   0.9480 B( 71-C ,108-H ) :   0.9541 B( 71-C ,109-H ) :   0.9497

-----------------------------------------------------------------------------
         ABSORPTION SPECTRUM VIA TRANSITION ELECTRIC DIPOLE MOMENTS
-----------------------------------------------------------------------------
State   Energy  Wavelength   fosc         T2         TX        TY        TZ
        (cm-1)    (nm)                  (au**2)     (au)      (au)      (au)
-----------------------------------------------------------------------------
   0    6541.8   1528.6   0.082575187   4.15556   1.80675  -0.48130   0.81215
   1    7429.8   1345.9   0.025550502   1.13213  -0.48032   0.60523  -0.73151
   2   12900.7    775.2   0.028999222   0.74003  -0.41239   0.72647   0.20544
   3   16032.9    623.7   0.050160375   1.02997  -0.70576  -0.13508  -0.71668
   4   16782.3    595.9   0.154487511   3.03052   1.00384   0.77607   1.19186
   5   19223.5    520.2   0.165991184   2.84268  -1.16908   1.00856  -0.67730
   6   19862.2    503.5   0.042969206   0.71220  -0.67246   0.49904  -0.10471
   7   20805.0    480.7   0.011519309   0.18228   0.37199  -0.06675   0.19861
   8   21179.7    472.1   0.012632067   0.19635   0.18734   0.18285   0.35752
   9   21467.2    465.8   0.193318490   2.96465   1.52500  -0.55470   0.57563
  10   22381.2    446.8   0.010334453   0.15201   0.36147  -0.12969   0.06735
  11   22484.1    444.8   0.090746430   1.32871  -0.49866   1.03925  -0.00144
  12   22825.8    438.1   0.001297073   0.01871  -0.06116   0.05052  -0.11142
  13   23634.5    423.1   0.088758509   1.23634   0.56018   0.44734   0.84996
  14   23675.4    422.4   0.942186117  13.10131   2.54523   0.89120   2.41430
  15   24331.9    411.0   0.405563942   5.48730   2.19642   0.43339   0.68934
  16   25130.1    397.9   0.104176030   1.36474   0.08555  -1.09878  -0.38742
  17   25335.7    394.7   0.083971308   1.09112   0.77465  -0.69763  -0.06600
  18   25548.3    391.4   0.109555057   1.41171   0.71034  -0.09395   0.94779
  19   25629.3    390.2   0.011009294   0.14142  -0.22771  -0.06931  -0.29114
  20   25748.1    388.4   0.018565521   0.23738   0.33354  -0.04258   0.35258
  21   25837.1    387.0   0.474994714   6.05230   1.92265  -0.19440   1.52248
  22   25912.4    385.9   0.024453604   0.31068   0.38227  -0.11600   0.38870
  23   26235.0    381.2   0.088509885   1.11067  -0.74428  -0.61561   0.42161
  24   27003.7    370.3   0.069414541   0.84626   0.71736   0.07292   0.57126
  25   27687.9    361.2   0.398595469   4.73934  -1.43022  -0.83259  -1.41443
  26   27803.3    359.7   0.176443946   2.08923  -0.90303  -0.58727  -0.96378
  27   27960.8    357.6   0.003892636   0.04583   0.04437   0.18229   0.10311
  28   28304.4    353.3   0.021288260   0.24761  -0.21215  -0.19490  -0.40573
  29   28738.6    348.0   0.026843853   0.30751  -0.16262  -0.49013  -0.20208
  30   28868.7    346.4   0.016767433   0.19121   0.22203  -0.35655   0.12161
  31   29892.4    334.5   0.048011261   0.52876   0.50043  -0.35056   0.39426
  32   30312.0    329.9   0.007351360   0.07984   0.13825  -0.24569   0.01905
  33   30780.7    324.9   0.064107276   0.68565   0.50032  -0.63972   0.16155
  34   30926.7    323.3   0.002863949   0.03049   0.02126   0.12640   0.11856
  35   31233.3    320.2   0.052069562   0.54883  -0.69604   0.07710   0.24169
  36   31299.6    319.5   0.033264429   0.34988   0.42213   0.40771   0.07388
  37   31493.2    317.5   0.035081633   0.36672  -0.50930   0.24017  -0.22285
  38   31512.5    317.3   0.039880816   0.41664   0.51995  -0.29885   0.23870
  39   31837.3    314.1   0.011284704   0.11669   0.24579  -0.10206  -0.21414
  40   32062.5    311.9   0.056743193   0.58263  -0.73471   0.16560  -0.12415
  41   32151.4    311.0   0.173572459   1.77728   0.90913  -0.55983   0.79835
  42   32227.3    310.3   0.002777234   0.02837   0.03452   0.15399   0.05888
  43   32343.8    309.2   0.036544594   0.37197  -0.23917   0.24870   0.50291
  44   33026.3    302.8   0.065901213   0.65691  -0.66379   0.15078  -0.43995
  45   33280.1    300.5   0.001833585   0.01814   0.01014  -0.12771  -0.04154
  46   33769.7    296.1   0.050996214   0.49715   0.69319   0.06829   0.10943
  47   34183.5    292.5   0.103714954   0.99885   0.60089   0.46436   0.64973
  48   34268.0    291.8   0.094058253   0.90362   0.83407   0.27140   0.36646
  49   34352.6    291.1   0.306862895   2.94077   0.83550   0.92017   1.18152
  50   34413.9    290.6   0.069483669   0.66470  -0.59850  -0.17272  -0.52598
  51   34911.1    286.4   0.039595571   0.37339  -0.49237  -0.09236   0.34990
  52   35184.1    284.2   0.030266124   0.28320  -0.49479  -0.03819  -0.19213
  53   35444.5    282.1   0.170504584   1.58367   1.20178  -0.08978   0.36239
  54   35977.8    277.9   0.175135175   1.60256   1.09737  -0.62289   0.10169
  55   36579.7    273.4   0.009399772   0.08460   0.09276   0.27560   0.00598
  56   36742.9    272.2   0.106668047   0.95573   0.66613   0.71539   0.01471
  57   37226.3    268.6   0.098503358   0.87112   0.28260   0.67380   0.58073
  58   37562.1    266.2   0.044214346   0.38752  -0.30880   0.18597  -0.50752
  59   37850.4    264.2   0.011933761   0.10380   0.21229   0.10477   0.21853
  60   37996.0    263.2   0.067098434   0.58137  -0.03425   0.29043   0.70416
  61   38055.7    262.8   0.011478918   0.09930   0.09567  -0.01033  -0.30007
  62   38087.9    262.6   0.003328013   0.02877   0.06021   0.13777   0.07849
  63   38192.0    261.8   0.039100941   0.33705   0.03082  -0.27206  -0.51194
  64   38363.2    260.7   0.002521282   0.02164  -0.06171  -0.06162  -0.11845
  65   38570.6    259.3   0.098931242   0.84441   0.89786   0.13779   0.13884
  66   38879.2    257.2   0.041233833   0.34915   0.26390  -0.52273  -0.07911
  67   38999.3    256.4   0.008955968   0.07560  -0.25266  -0.06261   0.08857
  68   39070.5    255.9   0.111537180   0.93982   0.22015  -0.62025  -0.71179
  69   39146.0    255.5   0.005405592   0.04546  -0.00759   0.15443  -0.14681
  70   39372.0    254.0   0.001887352   0.01578  -0.10884   0.02734  -0.05645
  71   39448.8    253.5   0.066324009   0.55349   0.50587  -0.40767   0.36248
  72   39521.4    253.0   0.069150279   0.57602  -0.64444   0.32367  -0.23654
  73   39744.9    251.6   0.362759267   3.00478   1.72869   0.07726  -0.10223
  74   40004.4    250.0   0.019578460   0.16112   0.13312   0.21290  -0.31316
  75   40250.3    248.4   0.076474803   0.62550  -0.37220  -0.27930   0.63950

FINAL SINGLE POINT ENERGY     -3838.058566393070

DIPOLE MOMENT
-------------
                                X             Y             Z
Electronic contribution:      5.57351       2.18135     -18.20786
Nuclear contribution   :     -3.52006      -0.06707      18.76563
                        -----------------------------------------
Total Dipole Moment    :      2.05345       2.11428       0.55777
                        -----------------------------------------
Magnitude (a.u.)       :      2.99966
Magnitude (Debye)      :      7.62453

Rotational constants in cm-1:     0.001151     0.000463     0.000360
Rotational constants in MHz :    34.496286    13.882497    10.787527

                             ****ORCA TERMINATED NORMALLY****
TOTAL RUN TIME: 0 days 0 hours 11 minutes 33 seconds 533 msec
