                         Program Version 4.2.0 -  RELEASE  -
|  1> # ORCA input file
|  2> # SCF done       -166.115583233099          0.000750010431
|  3> ! CAM-B3LYP def2-SVP def2/J RIJCOSX Grid4 TightSCF
|  4> %maxcore 5000
|  5> %tddft
|  6>     Mode sTDDFT
|  7>     Ethresh 5.0
|  8>     maxcore 5000
|  9> end
| 10>
| 11> %pal
| 12>   nprocs 6
| 13>   end
| 14> * xyz 0 1
| 15>    C        2.12693        -0.08362        -6.93495
| 16>    O        1.64439        -0.91303        -7.87470
| 17>    C        1.93951        -0.37673        -9.06695
| 18>    C        2.61059         0.79671        -8.92607
| 19>    C        2.73606         1.00196        -7.52068
| 20>    N        3.36756         2.01306        -6.83529
| 21>    C        3.74421         3.23650        -7.29083
| 22>    C        3.41293         3.89160        -8.44211
| 23>    C        3.95138         5.21507        -8.35104
| 24>    C        3.82883         6.19636        -9.33811
| 25>    N        3.71593         7.02177       -10.13114
| 26>    C        4.59123         5.38833        -7.13139
| 27>    C        4.52376         4.16999        -6.42759
| 28>    C        5.11551         3.85463        -5.21386
| 29>    C        5.54111         4.82291        -4.17908
| 30>    C        6.18851         4.11232        -3.19576
| 31>    C        6.19614         2.73226        -3.56190
| 32>    C        5.52066         2.57292        -4.76208
| 33>    C        6.78796         1.70696        -2.81708
| 34>    N        7.26421         0.86090        -2.20221
| 35>    C        5.18147         6.19618        -4.17084
| 36>    C        5.73187         7.13386        -3.35847
| 37>    C        5.40064         8.52804        -3.34853
| 38>    C        4.45185         9.08003        -4.19441
| 39>    C        4.18064        10.45394        -4.14224
| 40>    C        3.28137        11.22916        -4.87278
| 41>    C        2.30228        10.79101        -5.90901
| 42>    C        2.95140         9.98072        -7.05936
| 43>    N        2.96697         8.54818        -6.81284
| 44>    C        1.14913        10.02048        -5.23650
| 45>    N        0.21402         9.52405        -6.23384
| 46>    C        3.42227        12.58389        -4.39725
| 47>    C        2.78019        13.71826        -4.73815
| 48>    C        3.09689        15.02272        -4.09231
| 49>    C        4.15663        14.95461        -3.04436
| 50>    C        4.78146        13.81240        -2.70294
| 51>    C        4.45106        12.59726        -3.34921
| 52>    C        4.90243        11.29967        -3.20327
| 53>    C        5.86818        10.71488        -2.35251
| 54>    C        6.09864         9.37929        -2.42718
| 55>    C        3.40651        16.00774        -5.20116
| 56>    C        4.61576        16.49885        -5.46056
| 57>    C        4.88033        17.41647        -6.54688
| 58>    C        4.31114        17.39028        -7.78183
| 59>    C        4.92882        18.41520        -8.59873
| 60>    C        4.56608        18.70066        -9.91838
| 61>    N        4.26688        18.92292       -11.00549
| 62>    C        5.90573        19.03738        -7.86538
| 63>    C        5.90889        18.46723        -6.54850
| 64>    C        6.62612        18.90193        -5.45449
| 65>    C        7.83485        19.77055        -5.44766
| 66>    C        8.09017        20.09782        -4.14151
| 67>    C        7.10989        19.46092        -3.31018
| 68>    C        6.25773        18.71153        -4.09490
| 69>    C        7.04185        19.58182        -1.91728
| 70>    N        6.98640        19.67223        -0.77331
| 71>    C        8.62456        20.06258        -6.59003
| 72>    C        9.60749        21.00223        -6.61746
| 73>    C       10.42915        21.32690        -7.72159
| 74>    O       11.21832        22.43885        -7.61274
| 75>    C       11.88421        22.58147        -8.76023
| 76>    C       11.57774        21.58768        -9.63899
| 77>    C       10.63829        20.75322        -8.98244
| 78>    N       10.04130        19.64776        -9.52378
| 79>    H        1.99218        -0.35721        -5.90746
| 80>    H        1.62820        -0.91411        -9.94049
| 81>    H        2.99083         1.41391        -9.71122
| 82>    H        3.52886         1.84000        -5.85254
| 83>    H        2.82364         3.53977        -9.26406
| 84>    H        5.14224         6.26120        -6.84322
| 85>    H        6.59476         4.49387        -2.27854
| 86>    H        5.47335         1.64928        -5.30953
| 87>    H        4.41114         6.49134        -4.86716
| 88>    H        6.51245         6.83005        -2.67288
| 89>    H        3.92474         8.48825        -4.92747
| 90>    H        1.87409        11.69048        -6.36541
| 91>    H        3.98613        10.31549        -7.18014
| 92>    H        2.40911        10.22701        -7.98438
| 93>    H        3.43720         8.08878        -7.58640
| 94>    H        2.00555         8.21787        -6.80066
| 95>    H        0.68214        10.69114        -4.49422
| 96>    H        1.55662         9.16167        -4.69968
| 97>    H       -0.20432        10.29678        -6.74214
| 98>    H       -0.53562         9.00794        -5.78632
| 99>    H        2.02252        13.73779        -5.51010
|100>    H        2.17248        15.38503        -3.61100
|101>    H        4.39026        15.88462        -2.54766
|102>    H        5.53553        13.80695        -1.92931
|103>    H        6.40939        11.33462        -1.65253
|104>    H        6.83260         8.92217        -1.77850
|105>    H        2.56046        16.29750        -5.80896
|106>    H        5.46009        16.21617        -4.84587
|107>    H        3.55724        16.71233        -8.13596
|108>    H        6.47366        19.88923        -8.18569
|109>    H        8.90119        20.69082        -3.76437
|110>    H        5.39036        18.18543        -3.74754
|111>    H        8.40722        19.49976        -7.48341
|112>    H        9.77750        21.61695        -5.74456
|113>    H       12.54939        23.41873        -8.84202
|114>    H       11.96539        21.45573       -10.62823
|115>    H       10.46915        19.29633       -10.36576
|116>    H        9.72598        18.93631        -8.88499
|117> *
|118>
|119>                          ****END OF INPUT****

CARTESIAN COORDINATES (ANGSTROEM)
---------------------------------
  C      2.126930   -0.083620   -6.934950
  O      1.644390   -0.913030   -7.874700
  C      1.939510   -0.376730   -9.066950
  C      2.610590    0.796710   -8.926070
  C      2.736060    1.001960   -7.520680
  N      3.367560    2.013060   -6.835290
  C      3.744210    3.236500   -7.290830
  C      3.412930    3.891600   -8.442110
  C      3.951380    5.215070   -8.351040
  C      3.828830    6.196360   -9.338110
  N      3.715930    7.021770  -10.131140
  C      4.591230    5.388330   -7.131390
  C      4.523760    4.169990   -6.427590
  C      5.115510    3.854630   -5.213860
  C      5.541110    4.822910   -4.179080
  C      6.188510    4.112320   -3.195760
  C      6.196140    2.732260   -3.561900
  C      5.520660    2.572920   -4.762080
  C      6.787960    1.706960   -2.817080
  N      7.264210    0.860900   -2.202210
  C      5.181470    6.196180   -4.170840
  C      5.731870    7.133860   -3.358470
  C      5.400640    8.528040   -3.348530
  C      4.451850    9.080030   -4.194410
  C      4.180640   10.453940   -4.142240
  C      3.281370   11.229160   -4.872780
  C      2.302280   10.791010   -5.909010
  C      2.951400    9.980720   -7.059360
  N      2.966970    8.548180   -6.812840
  C      1.149130   10.020480   -5.236500
  N      0.214020    9.524050   -6.233840
  C      3.422270   12.583890   -4.397250
  C      2.780190   13.718260   -4.738150
  C      3.096890   15.022720   -4.092310
  C      4.156630   14.954610   -3.044360
  C      4.781460   13.812400   -2.702940
  C      4.451060   12.597260   -3.349210
  C      4.902430   11.299670   -3.203270
  C      5.868180   10.714880   -2.352510
  C      6.098640    9.379290   -2.427180
  C      3.406510   16.007740   -5.201160
  C      4.615760   16.498850   -5.460560
  C      4.880330   17.416470   -6.546880
  C      4.311140   17.390280   -7.781830
  C      4.928820   18.415200   -8.598730
  C      4.566080   18.700660   -9.918380
  N      4.266880   18.922920  -11.005490
  C      5.905730   19.037380   -7.865380
  C      5.908890   18.467230   -6.548500
  C      6.626120   18.901930   -5.454490
  C      7.834850   19.770550   -5.447660
  C      8.090170   20.097820   -4.141510
  C      7.109890   19.460920   -3.310180
  C      6.257730   18.711530   -4.094900
  C      7.041850   19.581820   -1.917280
  N      6.986400   19.672230   -0.773310
  C      8.624560   20.062580   -6.590030
  C      9.607490   21.002230   -6.617460
  C     10.429150   21.326900   -7.721590
  O     11.218320   22.438850   -7.612740
  C     11.884210   22.581470   -8.760230
  C     11.577740   21.587680   -9.638990
  C     10.638290   20.753220   -8.982440
  N     10.041300   19.647760   -9.523780
  H      1.992180   -0.357210   -5.907460
  H      1.628200   -0.914110   -9.940490
  H      2.990830    1.413910   -9.711220
  H      3.528860    1.840000   -5.852540
  H      2.823640    3.539770   -9.264060
  H      5.142240    6.261200   -6.843220
  H      6.594760    4.493870   -2.278540
  H      5.473350    1.649280   -5.309530
  H      4.411140    6.491340   -4.867160
  H      6.512450    6.830050   -2.672880
  H      3.924740    8.488250   -4.927470
  H      1.874090   11.690480   -6.365410
  H      3.986130   10.315490   -7.180140
  H      2.409110   10.227010   -7.984380
  H      3.437200    8.088780   -7.586400
  H      2.005550    8.217870   -6.800660
  H      0.682140   10.691140   -4.494220
  H      1.556620    9.161670   -4.699680
  H     -0.204320   10.296780   -6.742140
  H     -0.535620    9.007940   -5.786320
  H      2.022520   13.737790   -5.510100
  H      2.172480   15.385030   -3.611000
  H      4.390260   15.884620   -2.547660
  H      5.535530   13.806950   -1.929310
  H      6.409390   11.334620   -1.652530
  H      6.832600    8.922170   -1.778500
  H      2.560460   16.297500   -5.808960
  H      5.460090   16.216170   -4.845870
  H      3.557240   16.712330   -8.135960
  H      6.473660   19.889230   -8.185690
  H      8.901190   20.690820   -3.764370
  H      5.390360   18.185430   -3.747540
  H      8.407220   19.499760   -7.483410
  H      9.777500   21.616950   -5.744560
  H     12.549390   23.418730   -8.842020
  H     11.965390   21.455730  -10.628230
  H     10.469150   19.296330  -10.365760
  H      9.725980   18.936310   -8.884990

 Total Charge           Charge          ....    0
 Multiplicity           Mult            ....    1
 Number of Electrons    NEL             ....  434
 Basis Dimension        Dim             .... 1086

ORBITAL ENERGIES
----------------

  NO   OCC          E(Eh)            E(eV)
   0   2.0000     -19.296937      -525.0964
   1   2.0000     -19.290088      -524.9100
   2   2.0000     -14.470599      -393.7650
   3   2.0000     -14.438760      -392.8986
   4   2.0000     -14.413702      -392.2168
   5   2.0000     -14.409479      -392.1019
   6   2.0000     -14.407632      -392.0516
   7   2.0000     -14.403469      -391.9383
   8   2.0000     -14.389492      -391.5580
   9   2.0000     -14.370633      -391.0448
  10   2.0000     -10.337449      -281.2963
  11   2.0000     -10.336933      -281.2822
  12   2.0000     -10.329631      -281.0836
  13   2.0000     -10.327348      -281.0214
  14   2.0000     -10.325171      -280.9622
  15   2.0000     -10.324014      -280.9307
  16   2.0000     -10.323198      -280.9085
  17   2.0000     -10.318659      -280.7850
  18   2.0000     -10.318477      -280.7800
  19   2.0000     -10.318411      -280.7782
  20   2.0000     -10.316530      -280.7270
  21   2.0000     -10.315603      -280.7018
  22   2.0000     -10.315128      -280.6889
  23   2.0000     -10.311284      -280.5843
  24   2.0000     -10.310767      -280.5702
  25   2.0000     -10.308676      -280.5133
  26   2.0000     -10.307347      -280.4772
  27   2.0000     -10.306563      -280.4558
  28   2.0000     -10.303054      -280.3603
  29   2.0000     -10.301954      -280.3304
  30   2.0000     -10.296322      -280.1772
  31   2.0000     -10.295114      -280.1443
  32   2.0000     -10.294276      -280.1215
  33   2.0000     -10.292981      -280.0863
  34   2.0000     -10.290271      -280.0125
  35   2.0000     -10.288737      -279.9708
  36   2.0000     -10.288192      -279.9559
  37   2.0000     -10.284862      -279.8653
  38   2.0000     -10.284786      -279.8633
  39   2.0000     -10.283351      -279.8242
  40   2.0000     -10.281829      -279.7828
  41   2.0000     -10.281175      -279.7650
  42   2.0000     -10.281053      -279.7617
  43   2.0000     -10.277974      -279.6779
  44   2.0000     -10.277287      -279.6592
  45   2.0000     -10.277193      -279.6566
  46   2.0000     -10.275378      -279.6072
  47   2.0000     -10.275026      -279.5977
  48   2.0000     -10.273609      -279.5591
  49   2.0000     -10.271799      -279.5099
  50   2.0000     -10.271438      -279.5000
  51   2.0000     -10.270250      -279.4677
  52   2.0000     -10.268530      -279.4209
  53   2.0000     -10.267785      -279.4006
  54   2.0000     -10.267779      -279.4005
  55   2.0000     -10.266898      -279.3765
  56   2.0000     -10.266291      -279.3600
  57   2.0000     -10.261870      -279.2397
  58   2.0000     -10.260982      -279.2155
  59   2.0000     -10.258501      -279.1480
  60   2.0000     -10.257626      -279.1242
  61   2.0000     -10.257456      -279.1196
  62   2.0000     -10.257101      -279.1099
  63   2.0000     -10.252201      -278.9766
  64   2.0000      -1.216419       -33.1005
  65   2.0000      -1.209993       -32.9256
  66   2.0000      -1.070486       -29.1294
  67   2.0000      -1.021234       -27.7892
  68   2.0000      -1.008019       -27.4296
  69   2.0000      -1.001150       -27.2427
  70   2.0000      -0.997207       -27.1354
  71   2.0000      -0.995168       -27.0799
  72   2.0000      -0.985266       -26.8105
  73   2.0000      -0.982084       -26.7239
  74   2.0000      -0.980335       -26.6763
  75   2.0000      -0.972976       -26.4760
  76   2.0000      -0.970925       -26.4202
  77   2.0000      -0.966112       -26.2892
  78   2.0000      -0.944873       -25.7113
  79   2.0000      -0.941212       -25.6117
  80   2.0000      -0.915075       -24.9005
  81   2.0000      -0.909111       -24.7382
  82   2.0000      -0.897284       -24.4163
  83   2.0000      -0.886672       -24.1276
  84   2.0000      -0.882734       -24.0204
  85   2.0000      -0.879068       -23.9207
  86   2.0000      -0.872847       -23.7514
  87   2.0000      -0.868021       -23.6201
  88   2.0000      -0.860357       -23.4115
  89   2.0000      -0.850599       -23.1460
  90   2.0000      -0.849102       -23.1052
  91   2.0000      -0.835524       -22.7358
  92   2.0000      -0.827906       -22.5285
  93   2.0000      -0.824474       -22.4351
  94   2.0000      -0.812695       -22.1146
  95   2.0000      -0.802427       -21.8352
  96   2.0000      -0.798474       -21.7276
  97   2.0000      -0.792075       -21.5535
  98   2.0000      -0.790562       -21.5123
  99   2.0000      -0.776264       -21.1232
 100   2.0000      -0.749406       -20.3924
 101   2.0000      -0.741075       -20.1657
 102   2.0000      -0.732628       -19.9358
 103   2.0000      -0.730575       -19.8800
 104   2.0000      -0.729451       -19.8494
 105   2.0000      -0.718022       -19.5384
 106   2.0000      -0.711964       -19.3735
 107   2.0000      -0.704857       -19.1801
 108   2.0000      -0.703061       -19.1313
 109   2.0000      -0.699210       -19.0265
 110   2.0000      -0.687562       -18.7095
 111   2.0000      -0.676892       -18.4192
 112   2.0000      -0.668914       -18.2021
 113   2.0000      -0.667635       -18.1673
 114   2.0000      -0.664462       -18.0809
 115   2.0000      -0.656319       -17.8593
 116   2.0000      -0.650256       -17.6944
 117   2.0000      -0.646153       -17.5827
 118   2.0000      -0.635262       -17.2864
 119   2.0000      -0.634238       -17.2585
 120   2.0000      -0.626813       -17.0564
 121   2.0000      -0.622757       -16.9461
 122   2.0000      -0.620463       -16.8836
 123   2.0000      -0.617624       -16.8064
 124   2.0000      -0.611468       -16.6389
 125   2.0000      -0.607043       -16.5185
 126   2.0000      -0.590475       -16.0676
 127   2.0000      -0.589418       -16.0389
 128   2.0000      -0.588250       -16.0071
 129   2.0000      -0.584432       -15.9032
 130   2.0000      -0.577518       -15.7151
 131   2.0000      -0.574315       -15.6279
 132   2.0000      -0.569934       -15.5087
 133   2.0000      -0.566891       -15.4259
 134   2.0000      -0.559817       -15.2334
 135   2.0000      -0.558909       -15.2087
 136   2.0000      -0.555638       -15.1197
 137   2.0000      -0.554191       -15.0803
 138   2.0000      -0.548547       -14.9267
 139   2.0000      -0.547367       -14.8946
 140   2.0000      -0.538798       -14.6614
 141   2.0000      -0.537166       -14.6170
 142   2.0000      -0.534332       -14.5399
 143   2.0000      -0.527194       -14.3457
 144   2.0000      -0.525469       -14.2987
 145   2.0000      -0.523114       -14.2346
 146   2.0000      -0.520216       -14.1558
 147   2.0000      -0.516015       -14.0415
 148   2.0000      -0.515458       -14.0263
 149   2.0000      -0.513347       -13.9689
 150   2.0000      -0.511088       -13.9074
 151   2.0000      -0.506459       -13.7814
 152   2.0000      -0.504581       -13.7304
 153   2.0000      -0.500264       -13.6129
 154   2.0000      -0.498802       -13.5731
 155   2.0000      -0.497777       -13.5452
 156   2.0000      -0.496642       -13.5143
 157   2.0000      -0.494745       -13.4627
 158   2.0000      -0.492579       -13.4038
 159   2.0000      -0.491617       -13.3776
 160   2.0000      -0.488034       -13.2801
 161   2.0000      -0.487710       -13.2713
 162   2.0000      -0.485526       -13.2118
 163   2.0000      -0.484075       -13.1723
 164   2.0000      -0.481096       -13.0913
 165   2.0000      -0.479100       -13.0370
 166   2.0000      -0.475259       -12.9325
 167   2.0000      -0.474904       -12.9228
 168   2.0000      -0.468223       -12.7410
 169   2.0000      -0.465971       -12.6797
 170   2.0000      -0.463641       -12.6163
 171   2.0000      -0.461006       -12.5446
 172   2.0000      -0.455673       -12.3995
 173   2.0000      -0.453100       -12.3295
 174   2.0000      -0.450077       -12.2472
 175   2.0000      -0.444715       -12.1013
 176   2.0000      -0.442702       -12.0465
 177   2.0000      -0.441554       -12.0153
 178   2.0000      -0.440977       -11.9996
 179   2.0000      -0.437989       -11.9183
 180   2.0000      -0.436239       -11.8707
 181   2.0000      -0.435633       -11.8542
 182   2.0000      -0.434184       -11.8147
 183   2.0000      -0.432895       -11.7797
 184   2.0000      -0.432387       -11.7659
 185   2.0000      -0.431463       -11.7407
 186   2.0000      -0.426290       -11.5999
 187   2.0000      -0.421520       -11.4701
 188   2.0000      -0.420369       -11.4388
 189   2.0000      -0.411312       -11.1924
 190   2.0000      -0.409299       -11.1376
 191   2.0000      -0.407932       -11.1004
 192   2.0000      -0.405070       -11.0225
 193   2.0000      -0.404411       -11.0046
 194   2.0000      -0.402091       -10.9415
 195   2.0000      -0.400345       -10.8939
 196   2.0000      -0.390880       -10.6364
 197   2.0000      -0.389477       -10.5982
 198   2.0000      -0.382725       -10.4145
 199   2.0000      -0.369571       -10.0565
 200   2.0000      -0.365718        -9.9517
 201   2.0000      -0.357631        -9.7316
 202   2.0000      -0.347444        -9.4544
 203   2.0000      -0.334350        -9.0981
 204   2.0000      -0.326191        -8.8761
 205   2.0000      -0.323768        -8.8102
 206   2.0000      -0.321780        -8.7561
 207   2.0000      -0.314000        -8.5444
 208   2.0000      -0.309962        -8.4345
 209   2.0000      -0.307966        -8.3802
 210   2.0000      -0.307325        -8.3627
 211   2.0000      -0.295381        -8.0377
 212   2.0000      -0.286354        -7.7921
 213   2.0000      -0.260691        -7.0938
 214   2.0000      -0.249022        -6.7762
 215   2.0000      -0.241626        -6.5750
 216   2.0000      -0.212725        -5.7885
 217   0.0000      -0.121089        -3.2950
 218   0.0000      -0.119063        -3.2399
 219   0.0000      -0.067107        -1.8261
 220   0.0000      -0.018648        -0.5074
 221   0.0000      -0.001922        -0.0523

MULLIKEN ATOMIC CHARGES
-----------------------
   0 C :    0.040118
   1 O :   -0.173220
   2 C :    0.148203
   3 C :   -0.076088
   4 C :    0.091750
   5 N :    0.015703
   6 C :    0.115456
   7 C :   -0.138242
   8 C :   -0.081028
   9 C :   -0.134124
  10 N :    0.126645
  11 C :   -0.066278
  12 C :    0.072791
  13 C :    0.035189
  14 C :    0.109459
  15 C :   -0.059378
  16 C :   -0.085536
  17 C :   -0.099828
  18 C :   -0.134049
  19 N :    0.132597
  20 C :   -0.021699
  21 C :   -0.013485
  22 C :    0.118756
  23 C :   -0.060966
  24 C :    0.026791
  25 C :   -0.034946
  26 C :   -0.046351
  27 C :    0.156124
  28 N :   -0.233515
  29 C :    0.130683
  30 N :   -0.221210
  31 C :    0.106712
  32 C :   -0.129836
  33 C :    0.181394
  34 C :   -0.071729
  35 C :    0.017980
  36 C :    0.002618
  37 C :    0.037320
  38 C :   -0.006916
  39 C :   -0.012474
  40 C :   -0.108459
  41 C :    0.014908
  42 C :    0.079095
  43 C :   -0.023772
  44 C :   -0.115259
  45 C :   -0.129314
  46 N :    0.133846
  47 C :   -0.036673
  48 C :    0.047200
  49 C :    0.066648
  50 C :    0.098004
  51 C :   -0.057304
  52 C :   -0.077996
  53 C :   -0.063195
  54 C :   -0.130813
  55 N :    0.136643
  56 C :   -0.064573
  57 C :    0.005975
  58 C :    0.096753
  59 O :   -0.196146
  60 C :    0.169831
  61 C :   -0.067180
  62 C :    0.004394
  63 N :   -0.044292
  64 H :    0.001262
  65 H :    0.018415
  66 H :   -0.004004
  67 H :    0.132930
  68 H :   -0.028262
  69 H :    0.002444
  70 H :   -0.018037
  71 H :   -0.008716
  72 H :    0.005429
  73 H :   -0.026113
  74 H :   -0.040672
  75 H :   -0.037173
  76 H :    0.006129
  77 H :   -0.012135
  78 H :    0.104789
  79 H :    0.103569
  80 H :   -0.008750
  81 H :    0.004714
  82 H :    0.094269
  83 H :    0.098513
  84 H :   -0.011307
  85 H :    0.039351
  86 H :   -0.007410
  87 H :   -0.033170
  88 H :   -0.039513
  89 H :   -0.032636
  90 H :   -0.001000
  91 H :    0.023513
  92 H :   -0.014229
  93 H :    0.006016
  94 H :   -0.015936
  95 H :   -0.007032
  96 H :   -0.041108
  97 H :   -0.001921
  98 H :    0.018633
  99 H :   -0.024160
 100 H :    0.122131
 101 H :    0.127468
Sum of atomic charges:   -0.0000000

LOEWDIN ATOMIC CHARGES
----------------------
   0 C :   -0.005074
   1 O :    0.029907
   2 C :    0.043856
   3 C :   -0.088774
   4 C :   -0.026448
   5 N :    0.058446
   6 C :    0.049639
   7 C :   -0.115810
   8 C :   -0.026031
   9 C :   -0.026716
  10 N :   -0.050401
  11 C :   -0.055341
  12 C :    0.030893
  13 C :    0.019133
  14 C :   -0.013220
  15 C :   -0.029124
  16 C :   -0.044515
  17 C :   -0.063429
  18 C :   -0.029477
  19 N :   -0.051264
  20 C :   -0.028111
  21 C :    0.008512
  22 C :   -0.040782
  23 C :    0.007153
  24 C :   -0.018879
  25 C :   -0.026669
  26 C :   -0.040467
  27 C :    0.032318
  28 N :   -0.099778
  29 C :    0.023915
  30 N :   -0.113463
  31 C :   -0.018005
  32 C :    0.064559
  33 C :   -0.030773
  34 C :   -0.041438
  35 C :   -0.012989
  36 C :   -0.043262
  37 C :   -0.025318
  38 C :   -0.017305
  39 C :   -0.023819
  40 C :   -0.002878
  41 C :   -0.027078
  42 C :   -0.028488
  43 C :    0.003318
  44 C :   -0.059592
  45 C :   -0.031454
  46 N :   -0.050454
  47 C :   -0.008574
  48 C :    0.025346
  49 C :    0.048412
  50 C :   -0.010920
  51 C :   -0.034738
  52 C :   -0.035504
  53 C :   -0.035140
  54 C :   -0.027476
  55 N :   -0.044925
  56 C :   -0.066794
  57 C :    0.005445
  58 C :   -0.033666
  59 O :    0.010272
  60 C :    0.064836
  61 C :   -0.101823
  62 C :    0.007575
  63 N :   -0.013992
  64 H :    0.022242
  65 H :    0.025903
  66 H :    0.033302
  67 H :    0.089863
  68 H :    0.025057
  69 H :    0.032747
  70 H :    0.027459
  71 H :    0.025371
  72 H :    0.032672
  73 H :    0.025749
  74 H :    0.017049
  75 H :    0.019036
  76 H :    0.020716
  77 H :    0.005363
  78 H :    0.054242
  79 H :    0.048117
  80 H :    0.004246
  81 H :    0.021259
  82 H :    0.054242
  83 H :    0.058127
  84 H :    0.026165
  85 H :    0.060984
  86 H :    0.024102
  87 H :    0.031113
  88 H :    0.026027
  89 H :    0.023582
  90 H :    0.023677
  91 H :    0.034334
  92 H :    0.030203
  93 H :    0.034136
  94 H :    0.027598
  95 H :    0.030612
  96 H :    0.018714
  97 H :    0.039870
  98 H :    0.026936
  99 H :    0.030366
 100 H :    0.081755
 101 H :    0.073705

  Mayer bond orders larger than 0.100000
B(  0-C ,  1-O ) :   1.1509 B(  0-C ,  4-C ) :   1.4951 B(  0-C , 64-H ) :   1.0165
B(  1-O ,  2-C ) :   1.1671 B(  2-C ,  3-C ) :   1.5460 B(  2-C , 65-H ) :   0.9992
B(  3-C ,  4-C ) :   1.2301 B(  3-C , 66-H ) :   1.0161 B(  4-C ,  5-N ) :   1.0835
B(  5-N ,  6-C ) :   1.2170 B(  5-N , 67-H ) :   0.8982 B(  6-C ,  7-C ) :   1.5188
B(  6-C , 12-C ) :   1.0435 B(  7-C ,  8-C ) :   1.1200 B(  7-C , 68-H ) :   1.0307
B(  8-C ,  9-C ) :   1.0770 B(  8-C , 11-C ) :   1.5298 B(  9-C , 10-N ) :   2.9852
B( 11-C , 12-C ) :   1.1869 B( 11-C , 69-H ) :   1.0137 B( 12-C , 13-C ) :   1.3794
B( 13-C , 14-C ) :   1.0566 B( 13-C , 17-C ) :   1.1407 B( 14-C , 15-C ) :   1.5410
B( 14-C , 20-C ) :   1.1019 B( 15-C , 16-C ) :   1.1647 B( 15-C , 70-H ) :   1.0154
B( 16-C , 17-C ) :   1.5432 B( 16-C , 18-C ) :   1.0494 B( 17-C , 71-H ) :   1.0029
B( 18-C , 19-N ) :   3.0366 B( 20-C , 21-C ) :   1.6494 B( 20-C , 72-H ) :   0.9586
B( 21-C , 22-C ) :   1.0868 B( 21-C , 73-H ) :   0.9895 B( 22-C , 23-C ) :   1.4709
B( 22-C , 39-C ) :   1.1055 B( 23-C , 24-C ) :   1.1885 B( 23-C , 74-H ) :   0.9530
B( 24-C , 25-C ) :   1.4493 B( 24-C , 37-C ) :   1.1125 B( 25-C , 26-C ) :   1.0315
B( 25-C , 31-C ) :   1.1180 B( 26-C , 27-C ) :   1.0226 B( 26-C , 29-C ) :   1.0621
B( 26-C , 75-H ) :   0.8749 B( 27-C , 28-N ) :   1.0799 B( 27-C , 76-H ) :   0.9524
B( 27-C , 77-H ) :   0.9348 B( 28-N , 74-H ) :   0.1420 B( 28-N , 78-H ) :   0.9488
B( 28-N , 79-H ) :   0.9420 B( 29-C , 30-N ) :   1.0670 B( 29-C , 80-H ) :   0.9419
B( 29-C , 81-H ) :   0.9339 B( 30-N , 82-H ) :   0.9687 B( 30-N , 83-H ) :   0.9671
B( 31-C , 32-C ) :   1.6834 B( 31-C , 36-C ) :   1.0453 B( 32-C , 33-C ) :   0.9610
B( 32-C , 84-H ) :   0.9628 B( 33-C , 34-C ) :   1.0044 B( 33-C , 40-C ) :   0.9440
B( 33-C , 85-H ) :   0.8517 B( 34-C , 35-C ) :   1.7142 B( 34-C , 86-H ) :   0.9691
B( 35-C , 36-C ) :   1.1257 B( 35-C , 87-H ) :   0.9931 B( 36-C , 37-C ) :   1.4364
B( 37-C , 38-C ) :   1.1425 B( 38-C , 39-C ) :   1.6065 B( 38-C , 88-H ) :   0.9914
B( 39-C , 89-H ) :   0.9904 B( 40-C , 41-C ) :   1.8910 B( 40-C , 90-H ) :   0.9728
B( 41-C , 42-C ) :   1.0106 B( 41-C , 91-H ) :   0.9313 B( 42-C , 43-C ) :   1.6393
B( 42-C , 48-C ) :   1.0768 B( 43-C , 44-C ) :   1.0879 B( 43-C , 92-H ) :   1.0186
B( 44-C , 45-C ) :   1.0582 B( 44-C , 47-C ) :   1.6310 B( 45-C , 46-N ) :   3.0369
B( 47-C , 48-C ) :   1.0817 B( 47-C , 93-H ) :   1.0134 B( 48-C , 49-C ) :   1.4566
B( 49-C , 50-C ) :   1.0182 B( 49-C , 53-C ) :   1.1257 B( 50-C , 51-C ) :   1.5680
B( 50-C , 56-C ) :   1.1512 B( 51-C , 52-C ) :   1.1256 B( 51-C , 94-H ) :   1.0131
B( 52-C , 53-C ) :   1.5698 B( 52-C , 54-C ) :   1.0551 B( 53-C , 95-H ) :   1.0158
B( 54-C , 55-N ) :   3.0373 B( 56-C , 57-C ) :   1.5915 B( 56-C , 96-H ) :   0.9545
B( 57-C , 58-C ) :   1.1922 B( 57-C , 97-H ) :   0.9551 B( 58-C , 59-O ) :   1.0913
B( 58-C , 62-C ) :   1.3805 B( 59-O , 60-C ) :   1.1802 B( 60-C , 61-C ) :   1.4977
B( 60-C , 98-H ) :   1.0030 B( 61-C , 62-C ) :   1.2277 B( 61-C , 99-H ) :   1.0157
B( 62-C , 63-N ) :   1.2568 B( 63-N ,100-H ) :   0.9433 B( 63-N ,101-H ) :   0.9395

-----------------------------------------------------------------------------
         ABSORPTION SPECTRUM VIA TRANSITION ELECTRIC DIPOLE MOMENTS
-----------------------------------------------------------------------------
State   Energy  Wavelength   fosc         T2         TX        TY        TZ
        (cm-1)    (nm)                  (au**2)     (au)      (au)      (au)
-----------------------------------------------------------------------------
   0    5774.1   1731.9   0.120233131   6.85516   0.17158   2.46337   0.87036
   1    7630.9   1310.5   0.006435805   0.27765   0.35182   0.22578  -0.32078
   2    7905.6   1264.9   0.093591247   3.89741  -1.63394  -0.94446   0.57935
   3    9272.2   1078.5   0.054348141   1.92964  -0.93398  -0.53798  -0.87630
   4   12389.4    807.1   0.023856915   0.63393   0.40110   0.28537   0.62578
   5   14096.5    709.4   0.028558679   0.66696   0.40658   0.57041   0.41987
   6   15601.4    641.0   0.021052113   0.44423   0.32208   0.58285   0.02789
   7   19098.5    523.6   0.007458160   0.12856   0.08878  -0.34509   0.03993
   8   19916.5    502.1   0.000439784   0.00727  -0.01864   0.08318  -0.00164
   9   20384.5    490.6   0.002845585   0.04596   0.14026   0.12492   0.10333
  10   22326.2    447.9   0.005205750   0.07676  -0.15858   0.15020   0.17045
  11   22401.2    446.4   0.096804139   1.42265  -0.54955  -0.15783   1.04677
  12   24122.4    414.6   0.467640165   6.38214   0.40436  -2.49153  -0.10454
  13   24347.2    410.7   0.050802634   0.68693   0.53306   0.60679  -0.18597
  14   25010.4    399.8   0.051511871   0.67805  -0.27119   0.64248  -0.43788
  15   27214.7    367.4   0.055496524   0.67133  -0.29198  -0.39632  -0.65499
  16   27298.9    366.3   0.001268901   0.01530  -0.04058  -0.06451   0.09744
  17   27410.9    364.8   0.133011825   1.59750   0.19646   0.92772   0.83562
  18   27720.6    360.7   0.098102772   1.16508   0.94556   0.35207   0.38345
  19   27878.2    358.7   0.006785475   0.08013  -0.15093   0.19685   0.13638
  20   28110.4    355.7   0.456702471   5.34862   1.25282   1.26660   1.47471
  21   28166.4    355.0   0.062841298   0.73450  -0.84923  -0.10990   0.03499
  22   29288.1    341.4   0.010034716   0.11279   0.13461   0.28569  -0.11427
  23   29866.6    334.8   0.210723297   2.32275   0.74632   1.08801  -0.76289
  24   30128.8    331.9   0.311877850   3.40783   0.90859  -0.93771   1.30499
  25   30285.8    330.2   0.317015964   3.44602   0.81344  -1.36808   0.95535
  26   30474.9    328.1   0.443435547   4.79032   0.93992  -1.56152   1.21184
  27   31305.5    319.4   0.063604072   0.66887   0.26567   0.61406  -0.47034
  28   31608.8    316.4   0.037774446   0.39343   0.12670  -0.57255   0.22263
  29   31772.9    314.7   0.101179980   1.04837   0.22318   0.98101  -0.19019
  30   31884.8    313.6   0.154248570   1.59262   0.44372  -1.18126  -0.01880
  31   32141.4    311.1   0.002392211   0.02450  -0.00784   0.15028  -0.04309
  32   32863.6    304.3   0.958123891   9.59802  -0.50744  -0.25601   3.04549
  33   33560.4    298.0   0.116620978   1.14400   0.08370  -0.00290   1.06629
  34   33916.4    294.8   0.158964487   1.54300  -0.03897  -1.22570  -0.19783
  35   34098.8    293.3   0.005085545   0.04910   0.03316  -0.11442   0.18683
  36   34540.3    289.5   0.001280751   0.01221  -0.01534  -0.10818  -0.01639
  37   34796.5    287.4   0.060082193   0.56844   0.25890  -0.66682   0.23826
  38   36111.0    276.9   0.065471726   0.59688  -0.36301   0.25313  -0.63327
  39   36486.7    274.1   0.000978781   0.00883  -0.09290  -0.01383  -0.00308
  40   36894.9    271.0   0.012128984   0.10823  -0.21606   0.18624  -0.16390
  41   36939.9    270.7   0.002192616   0.01954  -0.02244   0.01421   0.13724
  42   37070.3    269.8   0.000744326   0.00661  -0.02474   0.07462   0.02075
  43   37826.1    264.4   0.108188881   0.94160   0.27398  -0.92694   0.08551
  44   38428.2    260.2   0.034561226   0.29608   0.28308  -0.46380  -0.02887
  45   39249.5    254.8   0.005139723   0.04311   0.05708   0.08622  -0.18005
  46   39616.7    252.4   0.021394116   0.17778   0.03272   0.04121   0.41835
  47   40020.9    249.9   0.571422192   4.70052   0.39727  -2.11470   0.26601

FINAL SINGLE POINT ENERGY     -2665.339830049203

DIPOLE MOMENT
-------------
                                X             Y             Z
Electronic contribution:     16.22139       0.74610       2.57890
Nuclear contribution   :    -16.54429       0.04359      -4.07967
                        -----------------------------------------
Total Dipole Moment    :     -0.32290       0.78969      -1.50077
                        -----------------------------------------
Magnitude (a.u.)       :      1.72632
Magnitude (Debye)      :      4.38795

Rotational constants in cm-1:     0.002011     0.000346     0.000336
Rotational constants in MHz :    60.279704    10.381709    10.086540

                             ****ORCA TERMINATED NORMALLY****
TOTAL RUN TIME: 0 days 0 hours 13 minutes 43 seconds 712 msec
