                         Program Version 4.2.0 -  RELEASE  -
|  1> # ORCA input file
|  2> # SCF done       -177.387086619325          0.000512086958
|  3> ! CAM-B3LYP def2-SVP def2/J RIJCOSX Grid4 TightSCF
|  4> %maxcore 5000
|  5> %tddft
|  6>     Mode sTDDFT
|  7>     Ethresh 5.0
|  8>     maxcore 5000
|  9> end
| 10>
| 11> %pal
| 12>   nprocs 6
| 13>   end
| 14> * xyz 0 1
| 15>    C       -2.12153        -9.39080         1.34304
| 16>    N       -0.95046        -9.30967         0.69512
| 17>    C       -0.51646        -8.09641         0.65543
| 18>    C        0.66763        -7.41271         0.73307
| 19>    C       -2.61911        -8.26110         1.93070
| 20>    S       -1.85281        -6.85379         1.17950
| 21>    N       -0.71757        -5.87719         1.86522
| 22>    C        0.49553        -6.17544         1.39609
| 23>    C        1.58340        -5.26235         1.61752
| 24>    C        1.42916        -4.07172         2.23824
| 25>    C        2.51115        -3.17197         2.44944
| 26>    N        3.74317        -3.44699         2.04354
| 27>    C        4.49700        -2.39241         2.41025
| 28>    C        3.69655        -1.37188         3.09958
| 29>    C        4.54199        -0.23376         3.48391
| 30>    O        4.22721         0.78593         4.06480
| 31>    C        5.87249        -0.63332         2.98914
| 32>    C        5.80096        -1.95623         2.34185
| 33>    N        7.01953        -2.33234         1.88344
| 34>    C        7.82317        -1.34467         2.20008
| 35>    C        7.17290        -0.25171         2.89147
| 36>    C        2.41019        -1.85836         3.13244
| 37>    C        1.21370        -1.30706         3.66482
| 38>    C        1.17193        -0.10902         4.29517
| 39>    C        0.00254         0.52099         4.84204
| 40>    C       -1.24072        -0.08264         4.85973
| 41>    C       -2.35320         0.60182         5.37731
| 42>    C       -3.69307         0.23298         5.48525
| 43>    C       -4.36230        -1.04626         5.11999
| 44>    C       -4.68303        -1.11315         3.60808
| 45>    N       -3.46757        -1.06330         2.81781
| 46>    C       -3.57688        -2.30534         5.52819
| 47>    N       -4.50904        -3.40892         5.69576
| 48>    C       -4.39303         1.37308         6.02534
| 49>    C       -5.69936         1.56913         6.28763
| 50>    C       -6.20048         2.88789         6.77624
| 51>    C       -5.13569         3.88213         7.09922
| 52>    C       -3.83002         3.66231         6.85133
| 53>    C       -3.41025         2.43645         6.28439
| 54>    C       -2.17885         1.95781         5.88358
| 55>    C       -0.89157         2.54403         5.87945
| 56>    C        0.15694         1.84248         5.38107
| 57>    C       -7.10706         3.36623         5.66861
| 58>    C       -6.72385         4.22050         4.70904
| 59>    C       -7.60714         4.61845         3.65893
| 60>    N       -8.85486         4.17538         3.58737
| 61>    C       -9.38860         4.75260         2.49446
| 62>    C       -8.41581         5.62948         1.82191
| 63>    C       -9.02080         6.24788         0.63170
| 64>    O       -8.52023         7.02206        -0.15785
| 65>    C      -10.38546         5.69270         0.63637
| 66>    C      -10.56770         4.78668         1.78774
| 67>    N      -11.82026         4.27077         1.79761
| 68>    C      -12.41181         4.79021         0.74723
| 69>    C      -11.57448         5.68469        -0.02173
| 70>    C       -7.26114         5.54921         2.56027
| 71>    C       -5.99550         6.17996         2.37946
| 72>    C       -5.73975         7.06721         1.39649
| 73>    C       -4.45178         7.68557         1.24027
| 74>    N       -3.44819         7.43080         2.11904
| 75>    C       -2.37865         8.07462         1.81694
| 76>    C       -1.34312         8.72753         2.43493
| 77>    C       -4.19613         8.62739         0.25917
| 78>    S       -2.45760         8.81031         0.06780
| 79>    N       -1.56180        10.11431         0.54629
| 80>    C       -0.92285         9.84190         1.67865
| 81>    C        0.14691        10.71749         2.12510
| 82>    C        0.54273        11.79413         1.45567
| 83>    H       -2.58045       -10.36148         1.44692
| 84>    H        1.62096        -7.80487         0.43719
| 85>    H       -3.59241        -8.15181         2.36609
| 86>    H        2.56147        -5.55268         1.26231
| 87>    H        0.44492        -3.79368         2.58571
| 88>    H        8.86782        -1.39206         1.94553
| 89>    H        7.65227         0.64432         3.23347
| 90>    H        0.31316        -1.89022         3.53590
| 91>    H        2.09492         0.44836         4.39200
| 92>    H       -1.38079        -1.07007         4.45571
| 93>    H       -5.32526        -1.08460         5.64063
| 94>    H       -5.39586        -0.30726         3.36537
| 95>    H       -5.16731        -2.07494         3.42709
| 96>    H       -3.08131        -0.12518         2.81674
| 97>    H       -3.65575        -1.32726         1.85820
| 98>    H       -2.98523        -2.09096         6.43350
| 99>    H       -2.89728        -2.57538         4.71940
|100>    H       -5.07610        -3.27414         6.52686
|101>    H       -4.00741        -4.28304         5.80230
|102>    H       -6.44617         0.81054         6.09841
|103>    H       -6.82518         2.72520         7.66535
|104>    H       -5.47763         4.81769         7.51472
|105>    H       -3.08931         4.41356         7.08328
|106>    H       -0.76065         3.54319         6.26778
|107>    H        1.14665         2.27443         5.36695
|108>    H       -8.10683         2.95802         5.63261
|109>    H       -5.72626         4.63591         4.71106
|110>    H      -13.43407         4.53990         0.52190
|111>    H      -11.86908         6.20675        -0.91058
|112>    H       -5.20089         5.93899         3.07184
|113>    H       -6.50312         7.34493         0.68372
|114>    H       -0.97915         8.49747         3.41761
|115>    H       -4.84093         8.83922        -0.57079
|116>    H        0.61651        10.43121         3.05660
|117>    H        0.06686        12.06605         0.52933
|118>    H        1.34322        12.42113         1.80890
|119> *
|120>
|121>                          ****END OF INPUT****

CARTESIAN COORDINATES (ANGSTROEM)
---------------------------------
  C     -2.121530   -9.390800    1.343040
  N     -0.950460   -9.309670    0.695120
  C     -0.516460   -8.096410    0.655430
  C      0.667630   -7.412710    0.733070
  C     -2.619110   -8.261100    1.930700
  S     -1.852810   -6.853790    1.179500
  N     -0.717570   -5.877190    1.865220
  C      0.495530   -6.175440    1.396090
  C      1.583400   -5.262350    1.617520
  C      1.429160   -4.071720    2.238240
  C      2.511150   -3.171970    2.449440
  N      3.743170   -3.446990    2.043540
  C      4.497000   -2.392410    2.410250
  C      3.696550   -1.371880    3.099580
  C      4.541990   -0.233760    3.483910
  O      4.227210    0.785930    4.064800
  C      5.872490   -0.633320    2.989140
  C      5.800960   -1.956230    2.341850
  N      7.019530   -2.332340    1.883440
  C      7.823170   -1.344670    2.200080
  C      7.172900   -0.251710    2.891470
  C      2.410190   -1.858360    3.132440
  C      1.213700   -1.307060    3.664820
  C      1.171930   -0.109020    4.295170
  C      0.002540    0.520990    4.842040
  C     -1.240720   -0.082640    4.859730
  C     -2.353200    0.601820    5.377310
  C     -3.693070    0.232980    5.485250
  C     -4.362300   -1.046260    5.119990
  C     -4.683030   -1.113150    3.608080
  N     -3.467570   -1.063300    2.817810
  C     -3.576880   -2.305340    5.528190
  N     -4.509040   -3.408920    5.695760
  C     -4.393030    1.373080    6.025340
  C     -5.699360    1.569130    6.287630
  C     -6.200480    2.887890    6.776240
  C     -5.135690    3.882130    7.099220
  C     -3.830020    3.662310    6.851330
  C     -3.410250    2.436450    6.284390
  C     -2.178850    1.957810    5.883580
  C     -0.891570    2.544030    5.879450
  C      0.156940    1.842480    5.381070
  C     -7.107060    3.366230    5.668610
  C     -6.723850    4.220500    4.709040
  C     -7.607140    4.618450    3.658930
  N     -8.854860    4.175380    3.587370
  C     -9.388600    4.752600    2.494460
  C     -8.415810    5.629480    1.821910
  C     -9.020800    6.247880    0.631700
  O     -8.520230    7.022060   -0.157850
  C    -10.385460    5.692700    0.636370
  C    -10.567700    4.786680    1.787740
  N    -11.820260    4.270770    1.797610
  C    -12.411810    4.790210    0.747230
  C    -11.574480    5.684690   -0.021730
  C     -7.261140    5.549210    2.560270
  C     -5.995500    6.179960    2.379460
  C     -5.739750    7.067210    1.396490
  C     -4.451780    7.685570    1.240270
  N     -3.448190    7.430800    2.119040
  C     -2.378650    8.074620    1.816940
  C     -1.343120    8.727530    2.434930
  C     -4.196130    8.627390    0.259170
  S     -2.457600    8.810310    0.067800
  N     -1.561800   10.114310    0.546290
  C     -0.922850    9.841900    1.678650
  C      0.146910   10.717490    2.125100
  C      0.542730   11.794130    1.455670
  H     -2.580450  -10.361480    1.446920
  H      1.620960   -7.804870    0.437190
  H     -3.592410   -8.151810    2.366090
  H      2.561470   -5.552680    1.262310
  H      0.444920   -3.793680    2.585710
  H      8.867820   -1.392060    1.945530
  H      7.652270    0.644320    3.233470
  H      0.313160   -1.890220    3.535900
  H      2.094920    0.448360    4.392000
  H     -1.380790   -1.070070    4.455710
  H     -5.325260   -1.084600    5.640630
  H     -5.395860   -0.307260    3.365370
  H     -5.167310   -2.074940    3.427090
  H     -3.081310   -0.125180    2.816740
  H     -3.655750   -1.327260    1.858200
  H     -2.985230   -2.090960    6.433500
  H     -2.897280   -2.575380    4.719400
  H     -5.076100   -3.274140    6.526860
  H     -4.007410   -4.283040    5.802300
  H     -6.446170    0.810540    6.098410
  H     -6.825180    2.725200    7.665350
  H     -5.477630    4.817690    7.514720
  H     -3.089310    4.413560    7.083280
  H     -0.760650    3.543190    6.267780
  H      1.146650    2.274430    5.366950
  H     -8.106830    2.958020    5.632610
  H     -5.726260    4.635910    4.711060
  H    -13.434070    4.539900    0.521900
  H    -11.869080    6.206750   -0.910580
  H     -5.200890    5.938990    3.071840
  H     -6.503120    7.344930    0.683720
  H     -0.979150    8.497470    3.417610
  H     -4.840930    8.839220   -0.570790
  H      0.616510   10.431210    3.056600
  H      0.066860   12.066050    0.529330
  H      1.343220   12.421130    1.808900

 Total Charge           Charge          ....    0
 Multiplicity           Mult            ....    1
 Number of Electrons    NEL             ....  478
 Basis Dimension        Dim             .... 1140

ORBITAL ENERGIES
----------------

  NO   OCC          E(Eh)            E(eV)
   0   2.0000     -89.030035     -2422.6304
   1   2.0000     -89.017956     -2422.3017
   2   2.0000     -19.211896      -522.7823
   3   2.0000     -19.202193      -522.5182
   4   2.0000     -14.408944      -392.0873
   5   2.0000     -14.407452      -392.0467
   6   2.0000     -14.403905      -391.9502
   7   2.0000     -14.403839      -391.9484
   8   2.0000     -14.403712      -391.9449
   9   2.0000     -14.396399      -391.7459
  10   2.0000     -14.393772      -391.6744
  11   2.0000     -14.392166      -391.6307
  12   2.0000     -14.378804      -391.2672
  13   2.0000     -14.377438      -391.2300
  14   2.0000     -10.371840      -282.2321
  15   2.0000     -10.361917      -281.9621
  16   2.0000     -10.353537      -281.7341
  17   2.0000     -10.342878      -281.4440
  18   2.0000     -10.342731      -281.4400
  19   2.0000     -10.338026      -281.3120
  20   2.0000     -10.335586      -281.2456
  21   2.0000     -10.332401      -281.1589
  22   2.0000     -10.332244      -281.1547
  23   2.0000     -10.327612      -281.0286
  24   2.0000     -10.324459      -280.9428
  25   2.0000     -10.324359      -280.9401
  26   2.0000     -10.322443      -280.8880
  27   2.0000     -10.321044      -280.8499
  28   2.0000     -10.315020      -280.6860
  29   2.0000     -10.312594      -280.6199
  30   2.0000     -10.310925      -280.5745
  31   2.0000     -10.309641      -280.5396
  32   2.0000     -10.304880      -280.4100
  33   2.0000     -10.304110      -280.3891
  34   2.0000     -10.298336      -280.2320
  35   2.0000     -10.298100      -280.2256
  36   2.0000     -10.296192      -280.1736
  37   2.0000     -10.291127      -280.0358
  38   2.0000     -10.290919      -280.0301
  39   2.0000     -10.288231      -279.9570
  40   2.0000     -10.287870      -279.9472
  41   2.0000     -10.287538      -279.9381
  42   2.0000     -10.286904      -279.9209
  43   2.0000     -10.286324      -279.9051
  44   2.0000     -10.281185      -279.7653
  45   2.0000     -10.280647      -279.7506
  46   2.0000     -10.278494      -279.6920
  47   2.0000     -10.277928      -279.6766
  48   2.0000     -10.277417      -279.6627
  49   2.0000     -10.276143      -279.6281
  50   2.0000     -10.275690      -279.6157
  51   2.0000     -10.275465      -279.6096
  52   2.0000     -10.273623      -279.5595
  53   2.0000     -10.273495      -279.5560
  54   2.0000     -10.272843      -279.5383
  55   2.0000     -10.272750      -279.5358
  56   2.0000     -10.272639      -279.5327
  57   2.0000     -10.272054      -279.5168
  58   2.0000     -10.271409      -279.4992
  59   2.0000     -10.266661      -279.3701
  60   2.0000     -10.266211      -279.3578
  61   2.0000     -10.265528      -279.3392
  62   2.0000     -10.264398      -279.3085
  63   2.0000     -10.264129      -279.3011
  64   2.0000     -10.263745      -279.2907
  65   2.0000     -10.263676      -279.2888
  66   2.0000     -10.262145      -279.2472
  67   2.0000     -10.260427      -279.2004
  68   2.0000      -8.120877      -220.9803
  69   2.0000      -8.108681      -220.6484
  70   2.0000      -6.089196      -165.6955
  71   2.0000      -6.087606      -165.6522
  72   2.0000      -6.083368      -165.5369
  73   2.0000      -6.076970      -165.3628
  74   2.0000      -6.075482      -165.3223
  75   2.0000      -6.071138      -165.2041
  76   2.0000      -1.125637       -30.6301
  77   2.0000      -1.115595       -30.3569
  78   2.0000      -1.087361       -29.5886
  79   2.0000      -1.076855       -29.3027
  80   2.0000      -1.075205       -29.2578
  81   2.0000      -1.069584       -29.1049
  82   2.0000      -1.057334       -28.7715
  83   2.0000      -1.050131       -28.5755
  84   2.0000      -1.037123       -28.2216
  85   2.0000      -1.025873       -27.9154
  86   2.0000      -0.986534       -26.8449
  87   2.0000      -0.966216       -26.2921
  88   2.0000      -0.952190       -25.9104
  89   2.0000      -0.947641       -25.7866
  90   2.0000      -0.936253       -25.4767
  91   2.0000      -0.932424       -25.3726
  92   2.0000      -0.922269       -25.0962
  93   2.0000      -0.917795       -24.9745
  94   2.0000      -0.916331       -24.9346
  95   2.0000      -0.905750       -24.6467
  96   2.0000      -0.898695       -24.4547
  97   2.0000      -0.886725       -24.1290
  98   2.0000      -0.883254       -24.0346
  99   2.0000      -0.874031       -23.7836
 100   2.0000      -0.868149       -23.6235
 101   2.0000      -0.854806       -23.2605
 102   2.0000      -0.853491       -23.2247
 103   2.0000      -0.846797       -23.0425
 104   2.0000      -0.845846       -23.0166
 105   2.0000      -0.841258       -22.8918
 106   2.0000      -0.833735       -22.6871
 107   2.0000      -0.832743       -22.6601
 108   2.0000      -0.826430       -22.4883
 109   2.0000      -0.823967       -22.4213
 110   2.0000      -0.800684       -21.7877
 111   2.0000      -0.796503       -21.6740
 112   2.0000      -0.773648       -21.0520
 113   2.0000      -0.765984       -20.8435
 114   2.0000      -0.757143       -20.6029
 115   2.0000      -0.755694       -20.5635
 116   2.0000      -0.746964       -20.3259
 117   2.0000      -0.733476       -19.9589
 118   2.0000      -0.722890       -19.6708
 119   2.0000      -0.720613       -19.6089
 120   2.0000      -0.718480       -19.5508
 121   2.0000      -0.709062       -19.2946
 122   2.0000      -0.696243       -18.9457
 123   2.0000      -0.690720       -18.7955
 124   2.0000      -0.686607       -18.6835
 125   2.0000      -0.681018       -18.5314
 126   2.0000      -0.674398       -18.3513
 127   2.0000      -0.670605       -18.2481
 128   2.0000      -0.666035       -18.1237
 129   2.0000      -0.652616       -17.7586
 130   2.0000      -0.648266       -17.6402
 131   2.0000      -0.644469       -17.5369
 132   2.0000      -0.643309       -17.5053
 133   2.0000      -0.637688       -17.3524
 134   2.0000      -0.630907       -17.1679
 135   2.0000      -0.629356       -17.1257
 136   2.0000      -0.625817       -17.0293
 137   2.0000      -0.618754       -16.8371
 138   2.0000      -0.610528       -16.6133
 139   2.0000      -0.608763       -16.5653
 140   2.0000      -0.598456       -16.2848
 141   2.0000      -0.594490       -16.1769
 142   2.0000      -0.591773       -16.1030
 143   2.0000      -0.587491       -15.9864
 144   2.0000      -0.581990       -15.8367
 145   2.0000      -0.577913       -15.7258
 146   2.0000      -0.577882       -15.7250
 147   2.0000      -0.574646       -15.6369
 148   2.0000      -0.570761       -15.5312
 149   2.0000      -0.568631       -15.4732
 150   2.0000      -0.565419       -15.3858
 151   2.0000      -0.560728       -15.2582
 152   2.0000      -0.559772       -15.2322
 153   2.0000      -0.550646       -14.9838
 154   2.0000      -0.547368       -14.8947
 155   2.0000      -0.545074       -14.8322
 156   2.0000      -0.544540       -14.8177
 157   2.0000      -0.543839       -14.7986
 158   2.0000      -0.540612       -14.7108
 159   2.0000      -0.539074       -14.6690
 160   2.0000      -0.536704       -14.6045
 161   2.0000      -0.533117       -14.5068
 162   2.0000      -0.531391       -14.4599
 163   2.0000      -0.528078       -14.3697
 164   2.0000      -0.524123       -14.2621
 165   2.0000      -0.522400       -14.2152
 166   2.0000      -0.521247       -14.1839
 167   2.0000      -0.515587       -14.0298
 168   2.0000      -0.513841       -13.9823
 169   2.0000      -0.511622       -13.9219
 170   2.0000      -0.510377       -13.8881
 171   2.0000      -0.505885       -13.7658
 172   2.0000      -0.503091       -13.6898
 173   2.0000      -0.499247       -13.5852
 174   2.0000      -0.496214       -13.5027
 175   2.0000      -0.492428       -13.3997
 176   2.0000      -0.490503       -13.3473
 177   2.0000      -0.488066       -13.2810
 178   2.0000      -0.487558       -13.2671
 179   2.0000      -0.484618       -13.1871
 180   2.0000      -0.479858       -13.0576
 181   2.0000      -0.479390       -13.0449
 182   2.0000      -0.476558       -12.9678
 183   2.0000      -0.474808       -12.9202
 184   2.0000      -0.472861       -12.8672
 185   2.0000      -0.471743       -12.8368
 186   2.0000      -0.464466       -12.6387
 187   2.0000      -0.464259       -12.6331
 188   2.0000      -0.463278       -12.6064
 189   2.0000      -0.462122       -12.5750
 190   2.0000      -0.459525       -12.5043
 191   2.0000      -0.456661       -12.4264
 192   2.0000      -0.454254       -12.3609
 193   2.0000      -0.452695       -12.3185
 194   2.0000      -0.449180       -12.2228
 195   2.0000      -0.447291       -12.1714
 196   2.0000      -0.442692       -12.0463
 197   2.0000      -0.439423       -11.9573
 198   2.0000      -0.433528       -11.7969
 199   2.0000      -0.432282       -11.7630
 200   2.0000      -0.430247       -11.7076
 201   2.0000      -0.428010       -11.6468
 202   2.0000      -0.427065       -11.6210
 203   2.0000      -0.420313       -11.4373
 204   2.0000      -0.418434       -11.3862
 205   2.0000      -0.409470       -11.1422
 206   2.0000      -0.402720       -10.9586
 207   2.0000      -0.394420       -10.7327
 208   2.0000      -0.391431       -10.6514
 209   2.0000      -0.390361       -10.6223
 210   2.0000      -0.383417       -10.4333
 211   2.0000      -0.382531       -10.4092
 212   2.0000      -0.380223       -10.3464
 213   2.0000      -0.372697       -10.1416
 214   2.0000      -0.366746        -9.9797
 215   2.0000      -0.358955        -9.7676
 216   2.0000      -0.354401        -9.6437
 217   2.0000      -0.352831        -9.6010
 218   2.0000      -0.352500        -9.5920
 219   2.0000      -0.351152        -9.5553
 220   2.0000      -0.345077        -9.3900
 221   2.0000      -0.334978        -9.1152
 222   2.0000      -0.332794        -9.0558
 223   2.0000      -0.329733        -8.9725
 224   2.0000      -0.327043        -8.8993
 225   2.0000      -0.326929        -8.8962
 226   2.0000      -0.322464        -8.7747
 227   2.0000      -0.321886        -8.7590
 228   2.0000      -0.320733        -8.7276
 229   2.0000      -0.310979        -8.4622
 230   2.0000      -0.304994        -8.2993
 231   2.0000      -0.302698        -8.2368
 232   2.0000      -0.299631        -8.1534
 233   2.0000      -0.298448        -8.1212
 234   2.0000      -0.281566        -7.6618
 235   2.0000      -0.270748        -7.3674
 236   2.0000      -0.267115        -7.2686
 237   2.0000      -0.259177        -7.0526
 238   2.0000      -0.220323        -5.9953
 239   0.0000      -0.115097        -3.1319
 240   0.0000      -0.112505        -3.0614
 241   0.0000      -0.076147        -2.0721
 242   0.0000      -0.058536        -1.5928
 243   0.0000      -0.049514        -1.3474

MULLIKEN ATOMIC CHARGES
-----------------------
   0 C :    0.091447
   1 N :   -0.079215
   2 C :   -0.013387
   3 C :   -0.040843
   4 C :   -0.130771
   5 S :    0.348699
   6 N :   -0.350153
   7 C :    0.069727
   8 C :    0.051902
   9 C :   -0.016809
  10 C :    0.041110
  11 N :   -0.039754
  12 C :    0.060405
  13 C :   -0.174833
  14 C :    0.218121
  15 O :   -0.150957
  16 C :   -0.009107
  17 C :   -0.030949
  18 N :   -0.053565
  19 C :    0.085006
  20 C :   -0.100676
  21 C :    0.079690
  22 C :   -0.026121
  23 C :   -0.000650
  24 C :    0.119318
  25 C :   -0.086336
  26 C :    0.033098
  27 C :   -0.047097
  28 C :   -0.025774
  29 C :    0.151582
  30 N :   -0.238053
  31 C :    0.113772
  32 N :   -0.221409
  33 C :    0.106273
  34 C :   -0.126405
  35 C :    0.163867
  36 C :   -0.062340
  37 C :    0.024381
  38 C :    0.003953
  39 C :    0.036210
  40 C :   -0.001503
  41 C :   -0.012220
  42 C :   -0.039780
  43 C :   -0.007657
  44 C :    0.047863
  45 N :   -0.045274
  46 C :    0.067343
  47 C :   -0.157052
  48 C :    0.220687
  49 O :   -0.145216
  50 C :   -0.015595
  51 C :   -0.030149
  52 N :   -0.058162
  53 C :    0.087677
  54 C :   -0.094426
  55 C :    0.060771
  56 C :   -0.019852
  57 C :    0.021881
  58 C :    0.054932
  59 N :   -0.068339
  60 C :    0.000117
  61 C :   -0.061330
  62 C :   -0.138277
  63 S :    0.343717
  64 N :   -0.350205
  65 C :    0.057510
  66 C :   -0.008219
  67 C :    0.040569
  68 H :    0.031141
  69 H :    0.007306
  70 H :    0.045642
  71 H :    0.018654
  72 H :    0.021169
  73 H :    0.005572
  74 H :   -0.009411
  75 H :   -0.029534
  76 H :   -0.006234
  77 H :   -0.030081
  78 H :   -0.036354
  79 H :   -0.019762
  80 H :    0.001020
  81 H :    0.105122
  82 H :    0.097769
  83 H :   -0.006367
  84 H :    0.021432
  85 H :    0.087986
  86 H :    0.091333
  87 H :    0.002254
  88 H :    0.034522
  89 H :   -0.006619
  90 H :   -0.031166
  91 H :   -0.038597
  92 H :   -0.012410
  93 H :    0.034235
  94 H :    0.009952
  95 H :    0.007795
  96 H :   -0.007073
  97 H :   -0.001617
  98 H :    0.001021
  99 H :   -0.006718
 100 H :    0.036139
 101 H :   -0.012377
 102 H :    0.044179
 103 H :    0.026909
Sum of atomic charges:   -0.0000000

LOEWDIN ATOMIC CHARGES
----------------------
   0 C :    0.036674
   1 N :   -0.141251
   2 C :   -0.023121
   3 C :   -0.138006
   4 C :   -0.274341
   5 S :    0.779851
   6 N :   -0.378536
   7 C :    0.011061
   8 C :    0.036266
   9 C :   -0.005691
  10 C :    0.068665
  11 N :   -0.099501
  12 C :    0.049582
  13 C :   -0.065331
  14 C :    0.069455
  15 O :   -0.149993
  16 C :   -0.040173
  17 C :    0.016651
  18 N :   -0.098601
  19 C :    0.067450
  20 C :   -0.038165
  21 C :   -0.015733
  22 C :   -0.044662
  23 C :    0.031030
  24 C :   -0.037820
  25 C :    0.005587
  26 C :   -0.023501
  27 C :   -0.029614
  28 C :   -0.041491
  29 C :    0.030802
  30 N :   -0.111304
  31 C :    0.023573
  32 N :   -0.117838
  33 C :   -0.013969
  34 C :    0.065484
  35 C :   -0.030632
  36 C :   -0.040769
  37 C :   -0.012403
  38 C :   -0.046504
  39 C :   -0.021821
  40 C :   -0.015924
  41 C :   -0.014989
  42 C :    0.080049
  43 C :   -0.053104
  44 C :    0.078587
  45 N :   -0.109733
  46 C :    0.048844
  47 C :   -0.040139
  48 C :    0.069244
  49 O :   -0.143921
  50 C :   -0.040069
  51 C :    0.018514
  52 N :   -0.098089
  53 C :    0.071099
  54 C :   -0.037932
  55 C :   -0.026900
  56 C :   -0.005355
  57 C :    0.004926
  58 C :    0.016120
  59 N :   -0.155037
  60 C :   -0.020336
  61 C :   -0.159586
  62 C :   -0.270134
  63 S :    0.779988
  64 N :   -0.379942
  65 C :    0.020147
  66 C :   -0.044600
  67 C :    0.016672
  68 H :    0.036433
  69 H :    0.043662
  70 H :    0.024696
  71 H :    0.043815
  72 H :    0.038416
  73 H :    0.021780
  74 H :    0.032605
  75 H :    0.026358
  76 H :    0.031791
  77 H :    0.025735
  78 H :    0.021492
  79 H :   -0.002161
  80 H :    0.018954
  81 H :    0.055269
  82 H :    0.057779
  83 H :    0.000049
  84 H :    0.018879
  85 H :    0.049856
  86 H :    0.054442
  87 H :    0.031167
  88 H :    0.057785
  89 H :    0.025700
  90 H :    0.031815
  91 H :    0.026982
  92 H :    0.032299
  93 H :    0.038269
  94 H :    0.036537
  95 H :    0.022968
  96 H :    0.033753
  97 H :    0.033640
  98 H :    0.034836
  99 H :    0.036984
 100 H :    0.025170
 101 H :    0.030666
 102 H :    0.033719
 103 H :    0.028095

  Mayer bond orders larger than 0.100000
B(  0-C ,  1-N ) :   1.3767 B(  0-C ,  4-C ) :   1.5380 B(  0-C , 68-H ) :   0.9833
B(  1-N ,  2-C ) :   1.6191 B(  2-C ,  3-C ) :   1.3636 B(  2-C ,  5-S ) :   0.8350
B(  3-C ,  7-C ) :   1.2238 B(  3-C , 69-H ) :   1.0066 B(  4-C ,  5-S ) :   0.9962
B(  4-C , 70-H ) :   0.9675 B(  5-S ,  6-N ) :   1.0663 B(  6-N ,  7-C ) :   1.5442
B(  7-C ,  8-C ) :   1.0592 B(  8-C ,  9-C ) :   1.7079 B(  8-C , 71-H ) :   0.9809
B(  9-C , 10-C ) :   1.0887 B(  9-C , 72-H ) :   0.9627 B( 10-C , 11-N ) :   1.6146
B( 10-C , 12-C ) :   0.1079 B( 10-C , 21-C ) :   0.9950 B( 11-N , 12-C ) :   1.3427
B( 12-C , 13-C ) :   1.0599 B( 12-C , 17-C ) :   1.4171 B( 13-C , 14-C ) :   0.9058
B( 13-C , 21-C ) :   1.5290 B( 14-C , 15-O ) :   2.1720 B( 14-C , 16-C ) :   0.9331
B( 15-O , 76-H ) :   0.1086 B( 16-C , 17-C ) :   1.0739 B( 16-C , 20-C ) :   1.5992
B( 17-C , 18-N ) :   1.3125 B( 18-N , 19-C ) :   1.6562 B( 19-C , 20-C ) :   1.0721
B( 19-C , 73-H ) :   0.9890 B( 20-C , 74-H ) :   1.0112 B( 21-C , 22-C ) :   1.1353
B( 22-C , 23-C ) :   1.6453 B( 22-C , 75-H ) :   0.9588 B( 23-C , 24-C ) :   1.0690
B( 23-C , 76-H ) :   0.9701 B( 24-C , 25-C ) :   1.4874 B( 24-C , 41-C ) :   1.1110
B( 25-C , 26-C ) :   1.1576 B( 25-C , 77-H ) :   0.9896 B( 26-C , 27-C ) :   1.4561
B( 26-C , 39-C ) :   1.1130 B( 27-C , 28-C ) :   1.0122 B( 27-C , 33-C ) :   1.1196
B( 28-C , 29-C ) :   1.0268 B( 28-C , 31-C ) :   1.0284 B( 28-C , 78-H ) :   0.8902
B( 29-C , 30-N ) :   1.0952 B( 29-C , 79-H ) :   0.9390 B( 29-C , 80-H ) :   0.9320
B( 30-N , 81-H ) :   0.9591 B( 30-N , 82-H ) :   0.9694 B( 31-C , 32-N ) :   1.0914
B( 31-C , 83-H ) :   0.9590 B( 31-C , 84-H ) :   0.9189 B( 32-N , 85-H ) :   0.9712
B( 32-N , 86-H ) :   0.9693 B( 33-C , 34-C ) :   1.6840 B( 33-C , 38-C ) :   1.0410
B( 34-C , 35-C ) :   0.9635 B( 34-C , 87-H ) :   0.9583 B( 35-C , 36-C ) :   1.0001
B( 35-C , 42-C ) :   0.9385 B( 35-C , 88-H ) :   0.8673 B( 36-C , 37-C ) :   1.7058
B( 36-C , 89-H ) :   0.9760 B( 37-C , 38-C ) :   1.1314 B( 37-C , 90-H ) :   0.9925
B( 38-C , 39-C ) :   1.4379 B( 39-C , 40-C ) :   1.1407 B( 40-C , 41-C ) :   1.6022
B( 40-C , 91-H ) :   0.9908 B( 41-C , 92-H ) :   0.9940 B( 42-C , 43-C ) :   1.7808
B( 42-C , 93-H ) :   0.9687 B( 43-C , 44-C ) :   1.1149 B( 43-C , 94-H ) :   0.9474
B( 44-C , 45-N ) :   1.5989 B( 44-C , 46-C ) :   0.1098 B( 44-C , 55-C ) :   1.0030
B( 45-N , 46-C ) :   1.3572 B( 46-C , 47-C ) :   1.0533 B( 46-C , 51-C ) :   1.4099
B( 47-C , 48-C ) :   0.8941 B( 47-C , 55-C ) :   1.5582 B( 48-C , 49-O ) :   2.1830
B( 48-C , 50-C ) :   0.9341 B( 49-O , 98-H ) :   0.1001 B( 50-C , 51-C ) :   1.0699
B( 50-C , 54-C ) :   1.5950 B( 51-C , 52-N ) :   1.3163 B( 52-N , 53-C ) :   1.6503
B( 53-C , 54-C ) :   1.0782 B( 53-C , 95-H ) :   0.9894 B( 54-C , 96-H ) :   1.0113
B( 55-C , 56-C ) :   1.0880 B( 56-C , 57-C ) :   1.7038 B( 56-C , 97-H ) :   0.9650
B( 57-C , 58-C ) :   1.0911 B( 57-C , 98-H ) :   0.9516 B( 58-C , 59-N ) :   1.3526
B( 58-C , 62-C ) :   1.4794 B( 59-N , 60-C ) :   1.6162 B( 60-C , 61-C ) :   1.3676
B( 60-C , 63-S ) :   0.8338 B( 61-C , 65-C ) :   1.2222 B( 61-C , 99-H ) :   1.0014
B( 62-C , 63-S ) :   0.9959 B( 62-C ,100-H ) :   0.9557 B( 63-S , 64-N ) :   1.0591
B( 64-N , 65-C ) :   1.5601 B( 65-C , 66-C ) :   1.0850 B( 66-C , 67-C ) :   1.9561
B( 66-C ,101-H ) :   0.9636 B( 67-C ,102-H ) :   0.9426 B( 67-C ,103-H ) :   0.9467

-----------------------------------------------------------------------------
         ABSORPTION SPECTRUM VIA TRANSITION ELECTRIC DIPOLE MOMENTS
-----------------------------------------------------------------------------
State   Energy  Wavelength   fosc         T2         TX        TY        TZ
        (cm-1)    (nm)                  (au**2)     (au)      (au)      (au)
-----------------------------------------------------------------------------
   0    9157.8   1092.0   0.081104193   2.91561   1.63889  -0.39420   0.27252
   1   10439.3    957.9   0.046214633   1.45742  -0.99760   0.15848   0.66113
   2   13930.1    717.9   0.042839468   1.01243  -0.34582   0.94415   0.03771
   3   17544.3    570.0   0.004627724   0.08684  -0.24796  -0.04011  -0.15410
   4   17614.2    567.7   0.147741678   2.76132   0.80431   1.40630   0.36977
   5   17695.0    565.1   0.093984977   1.74857  -1.06222  -0.78064  -0.10426
   6   18851.4    530.5   0.095054287   1.65999   1.19277   0.46708   0.13828
   7   21251.7    470.6   0.000661011   0.01024   0.05446   0.02090   0.08269
   8   21993.7    454.7   0.074348388   1.11288  -0.95418   0.44895   0.02941
   9   22163.9    451.2   0.041787815   0.62070   0.49395   0.59143   0.16408
  10   22264.5    449.1   0.201290534   2.97637  -1.62871   0.56821   0.02877
  11   22717.4    440.2   0.040808142   0.59138  -0.05783   0.53958   0.54487
  12   23053.6    433.8   0.301379148   4.30379   1.30738  -1.59261  -0.24109
  13   23453.2    426.4   0.001534517   0.02154  -0.11613  -0.08635  -0.02444
  14   24096.2    415.0   0.606434363   8.28535   2.78854   0.70748   0.09417
  15   24931.8    401.1   0.359829444   4.75136   1.97762  -0.43167   0.80872
  16   24971.6    400.5   0.026130727   0.34449  -0.52451  -0.24284  -0.10204
  17   25212.0    396.6   0.009015417   0.11772   0.28727   0.18571   0.02660
  18   25354.3    394.4   0.147556050   1.91594   0.00474  -1.25216  -0.58992
  19   25502.1    392.1   0.666852901   8.60853  -2.91197  -0.02104   0.35854
  20   25903.3    386.1   0.001418491   0.01803  -0.07458   0.02588  -0.10861
  21   25998.4    384.6   0.023661900   0.29962  -0.51667   0.12253  -0.13291
  22   26161.6    382.2   0.158827671   1.99865  -0.84284   0.28121  -1.09963
  23   26563.6    376.5   0.012095922   0.14991   0.29690  -0.16705  -0.18401
  24   26716.3    374.3   0.063372327   0.78091   0.09912  -0.21851  -0.85049
  25   26910.2    371.6   0.004766744   0.05831   0.15533   0.06956   0.17132
  26   27318.4    366.1   0.044178219   0.53239   0.53396   0.49251  -0.06868
  27   27527.9    363.3   0.018147378   0.21703   0.19678   0.37141   0.20090
  28   27592.7    362.4   0.013622167   0.16253   0.13282   0.16022  -0.34528
  29   27758.6    360.2   0.043637388   0.51753  -0.37312  -0.12839   0.60152
  30   28301.8    353.3   0.003750939   0.04363  -0.02189   0.14214  -0.15149
  31   28336.4    352.9   0.004778305   0.05551   0.07184  -0.10522   0.19820
  32   28448.3    351.5   0.029858283   0.34553  -0.51935  -0.27284  -0.03701
  33   29027.3    344.5   0.012204488   0.13842   0.31498   0.10730  -0.16641
  34   29328.7    341.0   0.011046778   0.12400   0.26884   0.18884   0.12675
  35   29835.4    335.2   0.237300240   2.61843  -1.50310  -0.59159   0.09562
  36   30060.4    332.7   0.497304944   5.44632   1.93882   1.26475  -0.29613
  37   30146.1    331.7   0.037124265   0.40542   0.07407   0.54063   0.32810
  38   30596.4    326.8   0.005203426   0.05599   0.13153  -0.11076  -0.16255
  39   30940.3    323.2   0.003341104   0.03555  -0.08683  -0.16508  -0.02753
  40   31158.5    320.9   0.100542375   1.06230  -0.46835  -0.87973  -0.26273
  41   31279.0    319.7   0.000224089   0.00236   0.02967  -0.03200   0.02132
  42   31488.5    317.6   0.002676534   0.02798   0.07236   0.01038   0.15047
  43   31540.9    317.0   0.019200779   0.20041   0.19981  -0.38051  -0.12530
  44   31926.4    313.2   0.058072728   0.59882   0.75944   0.05049  -0.13973
  45   32002.5    312.5   0.049163938   0.50575   0.48327  -0.50771  -0.12016
  46   32076.0    311.8   0.012781339   0.13118  -0.09919  -0.01104  -0.34817
  47   32346.8    309.1   0.145840755   1.48430  -0.87433   0.74672   0.40283
  48   32639.7    306.4   0.041549638   0.41908  -0.29310   0.47817   0.32330
  49   32983.1    303.2   0.054317901   0.54216   0.45481   0.52511   0.24406
  50   33398.8    299.4   0.041762125   0.41165   0.51639   0.12716  -0.35892
  51   33851.9    295.4   0.138408492   1.34603   1.13472  -0.14163  -0.19591
  52   33877.2    295.2   0.018850404   0.18318  -0.01717  -0.37408  -0.20725
  53   34185.3    292.5   0.024067961   0.23178   0.46735  -0.05206   0.10323
  54   34317.2    291.4   0.197549537   1.89513  -1.26545  -0.27251  -0.46853
  55   34525.9    289.6   0.151149724   1.44125  -0.64584  -1.00929   0.07395
  56   34714.4    288.1   0.004156459   0.03942  -0.18390  -0.07313  -0.01589
  57   34872.0    286.8   0.040788679   0.38507   0.41706   0.42597   0.17227
  58   35104.0    284.9   0.117089766   1.09809  -0.96237  -0.38621  -0.15089
  59   35245.8    283.7   0.043908397   0.41013  -0.54885  -0.31103  -0.11022
  60   35429.4    282.3   0.043696868   0.40603  -0.28922  -0.52724   0.21072
  61   35620.1    280.7   0.004917215   0.04545  -0.03173  -0.20505  -0.04892
  62   36113.1    276.9   0.076263165   0.69523   0.49963  -0.30052   0.59606
  63   36348.4    275.1   0.096135271   0.87071   0.51316   0.76487   0.14948
  64   36566.2    273.5   0.018465904   0.16625   0.22605   0.32562  -0.09552
  65   36661.1    272.8   0.054405260   0.48855  -0.28374   0.61033   0.18851
  66   37082.0    269.7   0.078366958   0.69574   0.45796  -0.68440   0.13268
  67   37343.1    267.8   0.002031843   0.01791  -0.00126   0.06504  -0.11696
  68   37353.4    267.7   0.000189375   0.00167  -0.02366  -0.00758  -0.03244
  69   37776.5    264.7   0.096759092   0.84323  -0.40307   0.30550  -0.76644
  70   37851.0    264.2   0.023819603   0.20717  -0.37843  -0.25239  -0.01612
  71   38021.8    263.0   0.176164231   1.52532   0.86298  -0.30470   0.82930
  72   38190.7    261.8   0.042405143   0.36554  -0.52648  -0.19083  -0.22791
  73   38389.1    260.5   0.069144978   0.59296  -0.58753  -0.25929  -0.42490
  74   38507.2    259.7   0.111099819   0.94983  -0.26010   0.82824   0.44295
  75   38704.8    258.4   0.052475569   0.44634   0.31527  -0.29416   0.51031
  76   38826.1    257.6   0.094096802   0.79786   0.57960  -0.36238   0.57498
  77   38941.7    256.8   0.010200372   0.08623  -0.26643  -0.12086   0.02528
  78   39137.4    255.5   0.051803520   0.43576  -0.02647   0.42978   0.50035
  79   39290.3    254.5   0.011554834   0.09682  -0.09731  -0.20572  -0.21219
  80   39440.0    253.5   0.003424680   0.02859   0.01690   0.08249  -0.14662
  81   39929.0    250.4   0.001392777   0.01148  -0.01591  -0.08034   0.06911
  82   39991.4    250.1   0.001110121   0.00914  -0.08977  -0.00248  -0.03277
  83   40061.8    249.6   0.001552363   0.01276   0.11174   0.00937  -0.01349
  84   40076.9    249.5   0.113686081   0.93387  -0.47789  -0.79161   0.28081
  85   40152.4    249.1   0.028004889   0.22961   0.39900  -0.01252  -0.26505
  86   40258.3    248.4   0.000732134   0.00599  -0.04345  -0.03650   0.05260

FINAL SINGLE POINT ENERGY     -3569.498772894665

DIPOLE MOMENT
-------------
                                X             Y             Z
Electronic contribution:      8.78896       4.45001     -22.70784
Nuclear contribution   :    -10.28611      -4.84110      23.53273
                        -----------------------------------------
Total Dipole Moment    :     -1.49715      -0.39110       0.82489
                        -----------------------------------------
Magnitude (a.u.)       :      1.75352
Magnitude (Debye)      :      4.45711

Rotational constants in cm-1:     0.000979     0.000454     0.000358
Rotational constants in MHz :    29.348782    13.607750    10.719808

                             ****ORCA TERMINATED NORMALLY****
TOTAL RUN TIME: 0 days 0 hours 18 minutes 50 seconds 774 msec
