                         Program Version 4.2.0 -  RELEASE  -
|  1> # ORCA input file
|  2> # SCF done       -199.293372640067          0.000529177595
|  3> ! CAM-B3LYP def2-SVP def2/J RIJCOSX Grid4 TightSCF
|  4> %maxcore 5000
|  5> %tddft
|  6>     Mode sTDDFT
|  7>     Ethresh 5.0
|  8>     maxcore 5000
|  9> end
| 10>
| 11> %pal
| 12>   nprocs 6
| 13>   end
| 14> * xyz 0 1
| 15>    C        1.93783        -0.63243        -0.23927
| 16>    S        1.93161         0.97100        -0.80759
| 17>    C        0.50044         1.36896         0.11295
| 18>    C        0.06807         0.27036         0.83272
| 19>    C        0.90132        -0.87069         0.61854
| 20>    N        0.69084        -2.14442         1.22251
| 21>    O        1.51673        -3.00447         0.98765
| 22>    O       -0.28877        -2.28755         1.91998
| 23>    C       -1.01581         0.27317         1.73271
| 24>    N       -1.88721         0.31128         2.47682
| 25>    C       -0.05004         2.70133         0.02020
| 26>    C        0.76934         3.74937        -0.42862
| 27>    C        0.24996         5.01311        -0.54281
| 28>    C       -1.09548         5.26510        -0.21965
| 29>    C       -1.91259         4.23487         0.22071
| 30>    C       -1.38872         2.96215         0.33669
| 31>    C       -1.36814         6.66818        -0.45183
| 32>    C       -0.19176         7.28061        -0.91371
| 33>    C        0.93473         6.27763        -1.00330
| 34>    C        1.45201         6.13996        -2.44744
| 35>    C        0.35456         5.76445        -3.43585
| 36>    C        2.10038         6.65703        -0.07105
| 37>    C        1.66933         6.81034         1.38257
| 38>    C       -0.17756         8.61843        -1.22980
| 39>    C       -1.35072         9.36872        -1.10207
| 40>    C       -2.51334         8.74883        -0.63836
| 41>    C       -2.53193         7.40769        -0.30567
| 42>    C       -1.35914        10.78880        -1.47236
| 43>    C       -0.32470        11.61185        -1.12056
| 44>    C       -0.33234        12.97672        -1.50017
| 45>    C        0.56904        14.00690        -1.29207
| 46>    C        1.87581        13.98386        -0.56558
| 47>    C        1.68583        13.64175         0.92001
| 48>    N        0.85219        14.65321         1.54680
| 49>    C        2.87281        13.03238        -1.24625
| 50>    N        3.19396        13.55176        -2.56581
| 51>    C        0.02846        15.17448        -1.94874
| 52>    C        0.50578        16.42574        -2.07605
| 53>    C       -0.24291        17.47866        -2.81449
| 54>    C       -1.51666        17.01088        -3.44918
| 55>    C       -1.98458        15.75708        -3.30685
| 56>    C       -1.25174        14.80122        -2.56620
| 57>    C       -1.46251        13.46777        -2.28283
| 58>    C       -2.51768        12.59107        -2.62413
| 59>    C       -2.46581        11.29581        -2.22517
| 60>    C       -0.59953        18.60269        -1.86954
| 61>    C       -0.38492        19.88790        -2.14232
| 62>    C       -0.78351        21.02616        -1.32927
| 63>    C       -0.76594        22.29757        -1.91716
| 64>    C       -1.16229        23.39344        -1.18888
| 65>    C       -1.57536        23.24855         0.14448
| 66>    C       -1.58340        21.99697         0.74301
| 67>    C       -1.19103        20.89938         0.00269
| 68>    C       -1.91577        24.55679         0.66341
| 69>    C       -1.71687        25.50769        -0.35381
| 70>    C       -1.27820        24.83609        -1.63413
| 71>    C       -2.38205        24.88713        -2.71724
| 72>    C       -2.81292        26.27714        -3.16670
| 73>    C        0.05469        25.39487        -2.15338
| 74>    C        1.18249        25.23851        -1.13962
| 75>    C       -1.90317        26.84344        -0.09383
| 76>    C       -2.31834        27.24499         1.18265
| 77>    C       -2.55930        26.28861         2.17284
| 78>    C       -2.35009        24.94767         1.92133
| 79>    C       -2.54544        28.65350         1.43293
| 80>    S       -3.28955        29.62519         0.20098
| 81>    C       -3.31158        31.00992         1.21051
| 82>    C       -2.78386        30.75857         2.44415
| 83>    C       -2.33150        29.40737         2.56787
| 84>    N       -1.63880        28.97260         3.73558
| 85>    O       -0.83819        28.06716         3.61981
| 86>    O       -1.88039        29.56294         4.76773
| 87>    C       -2.67005        31.74997         3.44234
| 88>    N       -2.59574        32.60646         4.19854
| 89>    H        2.68651        -1.33591        -0.54620
| 90>    H        1.80429         3.55124        -0.67097
| 91>    H       -2.94805         4.41561         0.46422
| 92>    H       -2.02622         2.15491         0.65774
| 93>    H        2.23578         5.37953        -2.46841
| 94>    H        1.89996         7.08911        -2.74879
| 95>    H       -0.09446         4.81011        -3.16945
| 96>    H        0.76672         5.68280        -4.43894
| 97>    H       -0.42768         6.52011        -3.44550
| 98>    H        2.53342         7.59642        -0.42135
| 99>    H        2.87199         5.88729        -0.14248
|100>    H        0.91294         7.58605         1.47893
|101>    H        2.52283         7.08256         1.99920
|102>    H        1.25393         5.87936         1.76204
|103>    H        0.71958         9.09060        -1.60360
|104>    H       -3.41011         9.33902        -0.51937
|105>    H       -3.43783         6.94583         0.05742
|106>    H        0.48933        11.21988        -0.52842
|107>    H        2.31564        14.98465        -0.62183
|108>    H        2.68132        13.54368         1.38981
|109>    H        1.16960        12.68539         1.02300
|110>    H        1.31411        15.55646         1.51727
|111>    H        0.68349        14.42141         2.51926
|112>    H        2.45409        12.01424        -1.26960
|113>    H        3.80207        13.00195        -0.66825
|114>    H        2.34421        13.62404        -3.11757
|115>    H        3.82845        12.92581        -3.04973
|116>    H        1.44506        16.73145        -1.63568
|117>    H        0.41578        17.89005        -3.59290
|118>    H       -2.06138        17.75595        -4.00919
|119>    H       -2.91552        15.46157        -3.76977
|120>    H       -3.35130        12.96202        -3.20279
|121>    H       -3.25405        10.60837        -2.49535
|122>    H       -1.11005        18.28561        -0.97253
|123>    H        0.10118        20.14795        -3.07599
|124>    H       -0.44560        22.40312        -2.94416
|125>    H       -1.89059        21.88055         1.77144
|126>    H       -1.18820        19.92521         0.46643
|127>    H       -3.25671        24.35863        -2.32872
|128>    H       -2.01946        24.32918        -3.58338
|129>    H       -3.28272        26.82184        -2.35222
|130>    H       -3.53916        26.18424        -3.97138
|131>    H       -1.97074        26.85353        -3.54004
|132>    H       -0.06745        26.45271        -2.38972
|133>    H        0.31901        24.87339        -3.07578
|134>    H        0.94418        25.76025        -0.21535
|135>    H        2.10569        25.65156        -1.53948
|136>    H        1.34729        24.18908        -0.90600
|137>    H       -1.70369        27.59662        -0.84162
|138>    H       -2.92419        26.59635         3.14044
|139>    H       -2.52330        24.21790         2.69684
|140>    H       -3.70525        31.93899         0.84877
|141> *
|142>
|143>                          ****END OF INPUT****

CARTESIAN COORDINATES (ANGSTROEM)
---------------------------------
  C      1.937830   -0.632430   -0.239270
  S      1.931610    0.971000   -0.807590
  C      0.500440    1.368960    0.112950
  C      0.068070    0.270360    0.832720
  C      0.901320   -0.870690    0.618540
  N      0.690840   -2.144420    1.222510
  O      1.516730   -3.004470    0.987650
  O     -0.288770   -2.287550    1.919980
  C     -1.015810    0.273170    1.732710
  N     -1.887210    0.311280    2.476820
  C     -0.050040    2.701330    0.020200
  C      0.769340    3.749370   -0.428620
  C      0.249960    5.013110   -0.542810
  C     -1.095480    5.265100   -0.219650
  C     -1.912590    4.234870    0.220710
  C     -1.388720    2.962150    0.336690
  C     -1.368140    6.668180   -0.451830
  C     -0.191760    7.280610   -0.913710
  C      0.934730    6.277630   -1.003300
  C      1.452010    6.139960   -2.447440
  C      0.354560    5.764450   -3.435850
  C      2.100380    6.657030   -0.071050
  C      1.669330    6.810340    1.382570
  C     -0.177560    8.618430   -1.229800
  C     -1.350720    9.368720   -1.102070
  C     -2.513340    8.748830   -0.638360
  C     -2.531930    7.407690   -0.305670
  C     -1.359140   10.788800   -1.472360
  C     -0.324700   11.611850   -1.120560
  C     -0.332340   12.976720   -1.500170
  C      0.569040   14.006900   -1.292070
  C      1.875810   13.983860   -0.565580
  C      1.685830   13.641750    0.920010
  N      0.852190   14.653210    1.546800
  C      2.872810   13.032380   -1.246250
  N      3.193960   13.551760   -2.565810
  C      0.028460   15.174480   -1.948740
  C      0.505780   16.425740   -2.076050
  C     -0.242910   17.478660   -2.814490
  C     -1.516660   17.010880   -3.449180
  C     -1.984580   15.757080   -3.306850
  C     -1.251740   14.801220   -2.566200
  C     -1.462510   13.467770   -2.282830
  C     -2.517680   12.591070   -2.624130
  C     -2.465810   11.295810   -2.225170
  C     -0.599530   18.602690   -1.869540
  C     -0.384920   19.887900   -2.142320
  C     -0.783510   21.026160   -1.329270
  C     -0.765940   22.297570   -1.917160
  C     -1.162290   23.393440   -1.188880
  C     -1.575360   23.248550    0.144480
  C     -1.583400   21.996970    0.743010
  C     -1.191030   20.899380    0.002690
  C     -1.915770   24.556790    0.663410
  C     -1.716870   25.507690   -0.353810
  C     -1.278200   24.836090   -1.634130
  C     -2.382050   24.887130   -2.717240
  C     -2.812920   26.277140   -3.166700
  C      0.054690   25.394870   -2.153380
  C      1.182490   25.238510   -1.139620
  C     -1.903170   26.843440   -0.093830
  C     -2.318340   27.244990    1.182650
  C     -2.559300   26.288610    2.172840
  C     -2.350090   24.947670    1.921330
  C     -2.545440   28.653500    1.432930
  S     -3.289550   29.625190    0.200980
  C     -3.311580   31.009920    1.210510
  C     -2.783860   30.758570    2.444150
  C     -2.331500   29.407370    2.567870
  N     -1.638800   28.972600    3.735580
  O     -0.838190   28.067160    3.619810
  O     -1.880390   29.562940    4.767730
  C     -2.670050   31.749970    3.442340
  N     -2.595740   32.606460    4.198540
  H      2.686510   -1.335910   -0.546200
  H      1.804290    3.551240   -0.670970
  H     -2.948050    4.415610    0.464220
  H     -2.026220    2.154910    0.657740
  H      2.235780    5.379530   -2.468410
  H      1.899960    7.089110   -2.748790
  H     -0.094460    4.810110   -3.169450
  H      0.766720    5.682800   -4.438940
  H     -0.427680    6.520110   -3.445500
  H      2.533420    7.596420   -0.421350
  H      2.871990    5.887290   -0.142480
  H      0.912940    7.586050    1.478930
  H      2.522830    7.082560    1.999200
  H      1.253930    5.879360    1.762040
  H      0.719580    9.090600   -1.603600
  H     -3.410110    9.339020   -0.519370
  H     -3.437830    6.945830    0.057420
  H      0.489330   11.219880   -0.528420
  H      2.315640   14.984650   -0.621830
  H      2.681320   13.543680    1.389810
  H      1.169600   12.685390    1.023000
  H      1.314110   15.556460    1.517270
  H      0.683490   14.421410    2.519260
  H      2.454090   12.014240   -1.269600
  H      3.802070   13.001950   -0.668250
  H      2.344210   13.624040   -3.117570
  H      3.828450   12.925810   -3.049730
  H      1.445060   16.731450   -1.635680
  H      0.415780   17.890050   -3.592900
  H     -2.061380   17.755950   -4.009190
  H     -2.915520   15.461570   -3.769770
  H     -3.351300   12.962020   -3.202790
  H     -3.254050   10.608370   -2.495350
  H     -1.110050   18.285610   -0.972530
  H      0.101180   20.147950   -3.075990
  H     -0.445600   22.403120   -2.944160
  H     -1.890590   21.880550    1.771440
  H     -1.188200   19.925210    0.466430
  H     -3.256710   24.358630   -2.328720
  H     -2.019460   24.329180   -3.583380
  H     -3.282720   26.821840   -2.352220
  H     -3.539160   26.184240   -3.971380
  H     -1.970740   26.853530   -3.540040
  H     -0.067450   26.452710   -2.389720
  H      0.319010   24.873390   -3.075780
  H      0.944180   25.760250   -0.215350
  H      2.105690   25.651560   -1.539480
  H      1.347290   24.189080   -0.906000
  H     -1.703690   27.596620   -0.841620
  H     -2.924190   26.596350    3.140440
  H     -2.523300   24.217900    2.696840
  H     -3.705250   31.938990    0.848770

 Total Charge           Charge          ....    0
 Multiplicity           Mult            ....    1
 Number of Electrons    NEL             ....  530
 Basis Dimension        Dim             .... 1304

ORBITAL ENERGIES
----------------

  NO   OCC          E(Eh)            E(eV)
   0   2.0000     -88.996456     -2421.7167
   1   2.0000     -88.994965     -2421.6761
   2   2.0000     -19.247604      -523.7539
   3   2.0000     -19.246073      -523.7123
   4   2.0000     -19.245218      -523.6890
   5   2.0000     -19.242407      -523.6125
   6   2.0000     -14.656039      -398.8111
   7   2.0000     -14.654238      -398.7621
   8   2.0000     -14.405378      -391.9903
   9   2.0000     -14.403707      -391.9448
  10   2.0000     -14.375099      -391.1663
  11   2.0000     -14.372444      -391.0941
  12   2.0000     -10.346468      -281.5417
  13   2.0000     -10.345622      -281.5187
  14   2.0000     -10.345133      -281.5054
  15   2.0000     -10.343201      -281.4528
  16   2.0000     -10.336781      -281.2781
  17   2.0000     -10.334301      -281.2106
  18   2.0000     -10.333839      -281.1981
  19   2.0000     -10.331679      -281.1393
  20   2.0000     -10.308228      -280.5011
  21   2.0000     -10.307540      -280.4824
  22   2.0000     -10.299811      -280.2721
  23   2.0000     -10.299731      -280.2699
  24   2.0000     -10.295613      -280.1579
  25   2.0000     -10.290537      -280.0198
  26   2.0000     -10.286588      -279.9123
  27   2.0000     -10.286423      -279.9078
  28   2.0000     -10.286004      -279.8964
  29   2.0000     -10.285221      -279.8751
  30   2.0000     -10.283637      -279.8320
  31   2.0000     -10.282864      -279.8110
  32   2.0000     -10.282408      -279.7985
  33   2.0000     -10.281499      -279.7738
  34   2.0000     -10.281305      -279.7685
  35   2.0000     -10.281136      -279.7639
  36   2.0000     -10.280126      -279.7364
  37   2.0000     -10.280094      -279.7356
  38   2.0000     -10.279207      -279.7115
  39   2.0000     -10.279192      -279.7110
  40   2.0000     -10.279101      -279.7086
  41   2.0000     -10.278264      -279.6858
  42   2.0000     -10.277729      -279.6712
  43   2.0000     -10.276716      -279.6437
  44   2.0000     -10.275136      -279.6007
  45   2.0000     -10.274660      -279.5877
  46   2.0000     -10.274234      -279.5761
  47   2.0000     -10.273816      -279.5647
  48   2.0000     -10.273181      -279.5475
  49   2.0000     -10.272806      -279.5373
  50   2.0000     -10.272473      -279.5282
  51   2.0000     -10.272382      -279.5257
  52   2.0000     -10.271537      -279.5027
  53   2.0000     -10.271467      -279.5008
  54   2.0000     -10.269787      -279.4551
  55   2.0000     -10.269760      -279.4544
  56   2.0000     -10.269360      -279.4435
  57   2.0000     -10.268997      -279.4336
  58   2.0000     -10.268786      -279.4279
  59   2.0000     -10.268691      -279.4253
  60   2.0000     -10.267530      -279.3937
  61   2.0000     -10.267230      -279.3855
  62   2.0000     -10.266205      -279.3576
  63   2.0000     -10.262858      -279.2666
  64   2.0000     -10.262580      -279.2590
  65   2.0000     -10.261626      -279.2330
  66   2.0000     -10.260668      -279.2070
  67   2.0000     -10.259443      -279.1736
  68   2.0000     -10.257978      -279.1338
  69   2.0000     -10.257228      -279.1134
  70   2.0000     -10.252908      -278.9958
  71   2.0000     -10.251355      -278.9535
  72   2.0000     -10.251176      -278.9487
  73   2.0000     -10.250578      -278.9324
  74   2.0000      -8.092085      -220.1968
  75   2.0000      -8.090578      -220.1558
  76   2.0000      -6.061254      -164.9351
  77   2.0000      -6.059714      -164.8932
  78   2.0000      -6.056880      -164.8161
  79   2.0000      -6.055390      -164.7756
  80   2.0000      -6.054584      -164.7536
  81   2.0000      -6.053089      -164.7129
  82   2.0000      -1.328645       -36.1543
  83   2.0000      -1.326794       -36.1039
  84   2.0000      -1.147096       -31.2141
  85   2.0000      -1.145604       -31.1735
  86   2.0000      -1.032329       -28.0911
  87   2.0000      -1.031025       -28.0556
  88   2.0000      -0.995704       -27.0945
  89   2.0000      -0.994316       -27.0567
  90   2.0000      -0.986972       -26.8569
  91   2.0000      -0.985683       -26.8218
  92   2.0000      -0.979773       -26.6610
  93   2.0000      -0.960971       -26.1494
  94   2.0000      -0.955879       -26.0108
  95   2.0000      -0.954154       -25.9638
  96   2.0000      -0.948699       -25.8154
  97   2.0000      -0.941096       -25.6085
  98   2.0000      -0.929239       -25.2859
  99   2.0000      -0.923188       -25.1212
 100   2.0000      -0.916000       -24.9256
 101   2.0000      -0.912281       -24.8244
 102   2.0000      -0.903349       -24.5814
 103   2.0000      -0.897100       -24.4113
 104   2.0000      -0.888038       -24.1647
 105   2.0000      -0.878857       -23.9149
 106   2.0000      -0.869790       -23.6682
 107   2.0000      -0.863325       -23.4923
 108   2.0000      -0.849750       -23.1229
 109   2.0000      -0.844054       -22.9679
 110   2.0000      -0.843328       -22.9481
 111   2.0000      -0.842945       -22.9377
 112   2.0000      -0.842213       -22.9178
 113   2.0000      -0.837886       -22.8000
 114   2.0000      -0.835865       -22.7450
 115   2.0000      -0.832313       -22.6484
 116   2.0000      -0.827569       -22.5193
 117   2.0000      -0.822473       -22.3806
 118   2.0000      -0.810632       -22.0584
 119   2.0000      -0.791144       -21.5281
 120   2.0000      -0.777831       -21.1659
 121   2.0000      -0.772266       -21.0144
 122   2.0000      -0.769509       -20.9394
 123   2.0000      -0.765377       -20.8270
 124   2.0000      -0.754825       -20.5398
 125   2.0000      -0.746834       -20.3224
 126   2.0000      -0.732376       -19.9290
 127   2.0000      -0.725142       -19.7321
 128   2.0000      -0.721652       -19.6371
 129   2.0000      -0.716932       -19.5087
 130   2.0000      -0.711948       -19.3731
 131   2.0000      -0.710457       -19.3325
 132   2.0000      -0.702480       -19.1154
 133   2.0000      -0.698590       -19.0096
 134   2.0000      -0.691381       -18.8134
 135   2.0000      -0.686153       -18.6712
 136   2.0000      -0.679301       -18.4847
 137   2.0000      -0.678919       -18.4743
 138   2.0000      -0.675258       -18.3747
 139   2.0000      -0.668969       -18.2036
 140   2.0000      -0.666303       -18.1310
 141   2.0000      -0.664177       -18.0732
 142   2.0000      -0.660722       -17.9792
 143   2.0000      -0.651811       -17.7367
 144   2.0000      -0.648506       -17.6467
 145   2.0000      -0.645387       -17.5619
 146   2.0000      -0.643003       -17.4970
 147   2.0000      -0.636137       -17.3102
 148   2.0000      -0.634337       -17.2612
 149   2.0000      -0.634162       -17.2564
 150   2.0000      -0.623853       -16.9759
 151   2.0000      -0.616548       -16.7771
 152   2.0000      -0.599804       -16.3215
 153   2.0000      -0.599421       -16.3111
 154   2.0000      -0.597553       -16.2602
 155   2.0000      -0.593118       -16.1396
 156   2.0000      -0.590429       -16.0664
 157   2.0000      -0.587252       -15.9799
 158   2.0000      -0.585227       -15.9248
 159   2.0000      -0.577680       -15.7195
 160   2.0000      -0.577253       -15.7079
 161   2.0000      -0.573153       -15.5963
 162   2.0000      -0.568739       -15.4762
 163   2.0000      -0.563878       -15.3439
 164   2.0000      -0.556244       -15.1362
 165   2.0000      -0.553868       -15.0715
 166   2.0000      -0.548596       -14.9281
 167   2.0000      -0.547482       -14.8977
 168   2.0000      -0.545900       -14.8547
 169   2.0000      -0.543397       -14.7866
 170   2.0000      -0.540980       -14.7208
 171   2.0000      -0.539153       -14.6711
 172   2.0000      -0.538667       -14.6579
 173   2.0000      -0.535671       -14.5764
 174   2.0000      -0.534284       -14.5386
 175   2.0000      -0.531337       -14.4584
 176   2.0000      -0.527997       -14.3675
 177   2.0000      -0.527391       -14.3510
 178   2.0000      -0.526527       -14.3275
 179   2.0000      -0.524609       -14.2753
 180   2.0000      -0.523517       -14.2456
 181   2.0000      -0.518840       -14.1184
 182   2.0000      -0.518134       -14.0991
 183   2.0000      -0.517524       -14.0826
 184   2.0000      -0.514829       -14.0092
 185   2.0000      -0.510582       -13.8936
 186   2.0000      -0.509781       -13.8719
 187   2.0000      -0.505755       -13.7623
 188   2.0000      -0.505289       -13.7496
 189   2.0000      -0.498145       -13.5552
 190   2.0000      -0.497604       -13.5405
 191   2.0000      -0.494672       -13.4607
 192   2.0000      -0.493243       -13.4218
 193   2.0000      -0.488962       -13.3053
 194   2.0000      -0.485483       -13.2107
 195   2.0000      -0.481930       -13.1140
 196   2.0000      -0.476948       -12.9784
 197   2.0000      -0.476165       -12.9571
 198   2.0000      -0.474975       -12.9247
 199   2.0000      -0.472257       -12.8508
 200   2.0000      -0.471677       -12.8350
 201   2.0000      -0.471231       -12.8228
 202   2.0000      -0.467315       -12.7163
 203   2.0000      -0.465114       -12.6564
 204   2.0000      -0.463739       -12.6190
 205   2.0000      -0.461271       -12.5518
 206   2.0000      -0.456022       -12.4090
 207   2.0000      -0.455120       -12.3845
 208   2.0000      -0.452622       -12.3165
 209   2.0000      -0.449492       -12.2313
 210   2.0000      -0.446693       -12.1551
 211   2.0000      -0.445321       -12.1178
 212   2.0000      -0.441580       -12.0160
 213   2.0000      -0.439648       -11.9634
 214   2.0000      -0.438744       -11.9388
 215   2.0000      -0.435735       -11.8569
 216   2.0000      -0.435208       -11.8426
 217   2.0000      -0.434025       -11.8104
 218   2.0000      -0.433075       -11.7846
 219   2.0000      -0.431629       -11.7452
 220   2.0000      -0.430271       -11.7083
 221   2.0000      -0.429740       -11.6938
 222   2.0000      -0.427398       -11.6301
 223   2.0000      -0.422561       -11.4985
 224   2.0000      -0.420672       -11.4471
 225   2.0000      -0.419910       -11.4263
 226   2.0000      -0.418107       -11.3773
 227   2.0000      -0.417125       -11.3505
 228   2.0000      -0.412003       -11.2112
 229   2.0000      -0.411346       -11.1933
 230   2.0000      -0.406771       -11.0688
 231   2.0000      -0.405728       -11.0404
 232   2.0000      -0.403848       -10.9893
 233   2.0000      -0.397419       -10.8143
 234   2.0000      -0.394835       -10.7440
 235   2.0000      -0.393751       -10.7145
 236   2.0000      -0.393367       -10.7041
 237   2.0000      -0.389123       -10.5886
 238   2.0000      -0.388242       -10.5646
 239   2.0000      -0.386814       -10.5258
 240   2.0000      -0.384777       -10.4703
 241   2.0000      -0.384203       -10.4547
 242   2.0000      -0.383390       -10.4326
 243   2.0000      -0.381555       -10.3827
 244   2.0000      -0.379867       -10.3367
 245   2.0000      -0.379053       -10.3145
 246   2.0000      -0.375649       -10.2219
 247   2.0000      -0.367476        -9.9995
 248   2.0000      -0.363889        -9.9019
 249   2.0000      -0.353339        -9.6148
 250   2.0000      -0.350937        -9.5495
 251   2.0000      -0.347923        -9.4675
 252   2.0000      -0.336377        -9.1533
 253   2.0000      -0.328720        -8.9449
 254   2.0000      -0.328334        -8.9344
 255   2.0000      -0.326084        -8.8732
 256   2.0000      -0.319953        -8.7064
 257   2.0000      -0.317708        -8.6453
 258   2.0000      -0.314538        -8.5590
 259   2.0000      -0.302185        -8.2229
 260   2.0000      -0.297812        -8.1039
 261   2.0000      -0.296855        -8.0778
 262   2.0000      -0.268270        -7.3000
 263   2.0000      -0.268056        -7.2942
 264   2.0000      -0.218255        -5.9390
 265   0.0000      -0.064863        -1.7650
 266   0.0000      -0.061956        -1.6859
 267   0.0000      -0.053005        -1.4424
 268   0.0000      -0.046692        -1.2706
 269   0.0000      -0.027117        -0.7379

MULLIKEN ATOMIC CHARGES
-----------------------
   0 C :   -0.109781
   1 S :    0.167527
   2 C :   -0.085038
   3 C :   -0.046821
   4 C :    0.193584
   5 N :    0.258964
   6 O :   -0.245560
   7 O :   -0.212815
   8 C :   -0.251607
   9 N :    0.176084
  10 C :    0.101393
  11 C :   -0.119336
  12 C :    0.013757
  13 C :    0.115455
  14 C :   -0.055577
  15 C :   -0.017231
  16 C :    0.112702
  17 C :    0.011037
  18 C :   -0.139559
  19 C :    0.068748
  20 C :    0.024165
  21 C :    0.070780
  22 C :    0.023614
  23 C :   -0.091111
  24 C :    0.081132
  25 C :   -0.011747
  26 C :   -0.050385
  27 C :    0.079523
  28 C :   -0.093534
  29 C :    0.044373
  30 C :   -0.019563
  31 C :   -0.068821
  32 C :    0.164145
  33 N :   -0.215614
  34 C :    0.159980
  35 N :   -0.226850
  36 C :    0.111394
  37 C :   -0.141607
  38 C :    0.120157
  39 C :   -0.030752
  40 C :    0.021073
  41 C :    0.010920
  42 C :    0.032278
  43 C :   -0.005569
  44 C :   -0.012289
  45 C :   -0.037931
  46 C :    0.012986
  47 C :    0.120647
  48 C :   -0.107662
  49 C :    0.021869
  50 C :    0.099006
  51 C :   -0.039937
  52 C :   -0.018139
  53 C :    0.117782
  54 C :    0.018263
  55 C :   -0.132304
  56 C :    0.079857
  57 C :    0.026659
  58 C :    0.051690
  59 C :    0.024130
  60 C :   -0.109156
  61 C :    0.090851
  62 C :    0.036074
  63 C :   -0.068132
  64 C :   -0.192608
  65 S :    0.182839
  66 C :   -0.073405
  67 C :   -0.106432
  68 C :    0.241479
  69 N :    0.238777
  70 O :   -0.225898
  71 O :   -0.217996
  72 C :   -0.164433
  73 N :    0.150461
  74 H :    0.047831
  75 H :   -0.025657
  76 H :   -0.026105
  77 H :   -0.003123
  78 H :   -0.004548
  79 H :   -0.000258
  80 H :    0.018039
  81 H :    0.009558
  82 H :    0.026151
  83 H :   -0.002733
  84 H :   -0.003088
  85 H :    0.024444
  86 H :    0.009762
  87 H :    0.022430
  88 H :   -0.039683
  89 H :   -0.021531
  90 H :   -0.033486
  91 H :   -0.034985
  92 H :   -0.027640
  93 H :   -0.020796
  94 H :   -0.013100
  95 H :    0.082503
  96 H :    0.089559
  97 H :   -0.028247
  98 H :   -0.013803
  99 H :    0.097145
 100 H :    0.087329
 101 H :   -0.007027
 102 H :    0.025825
 103 H :   -0.014354
 104 H :   -0.039011
 105 H :   -0.039131
 106 H :   -0.027832
 107 H :    0.011692
 108 H :   -0.025529
 109 H :   -0.042956
 110 H :   -0.034237
 111 H :   -0.028019
 112 H :    0.006321
 113 H :   -0.002675
 114 H :    0.013462
 115 H :    0.016859
 116 H :    0.004866
 117 H :    0.006378
 118 H :   -0.002072
 119 H :    0.024527
 120 H :    0.010177
 121 H :    0.022675
 122 H :   -0.026920
 123 H :   -0.019003
 124 H :   -0.026381
 125 H :    0.045444
Sum of atomic charges:   -0.0000000

LOEWDIN ATOMIC CHARGES
----------------------
   0 C :   -0.151274
   1 S :    0.499965
   2 C :   -0.113630
   3 C :   -0.103610
   4 C :   -0.054981
   5 N :    0.283763
   6 O :   -0.208923
   7 O :   -0.173707
   8 C :   -0.039017
   9 N :   -0.041523
  10 C :   -0.054359
  11 C :   -0.026432
  12 C :    0.004638
  13 C :   -0.002075
  14 C :   -0.012890
  15 C :    0.000041
  16 C :   -0.026450
  17 C :    0.005049
  18 C :   -0.035830
  19 C :   -0.011779
  20 C :   -0.057539
  21 C :   -0.011589
  22 C :   -0.057538
  23 C :   -0.022810
  24 C :   -0.006321
  25 C :   -0.020279
  26 C :   -0.013001
  27 C :   -0.019146
  28 C :   -0.024433
  29 C :   -0.016495
  30 C :   -0.035723
  31 C :   -0.039685
  32 C :    0.026707
  33 N :   -0.117025
  34 C :    0.028114
  35 N :   -0.123326
  36 C :   -0.015107
  37 C :    0.064245
  38 C :   -0.028493
  39 C :   -0.031067
  40 C :   -0.018532
  41 C :   -0.034507
  42 C :   -0.030350
  43 C :   -0.006595
  44 C :   -0.032610
  45 C :    0.002325
  46 C :   -0.034255
  47 C :   -0.017958
  48 C :   -0.023947
  49 C :    0.007689
  50 C :   -0.024560
  51 C :   -0.012240
  52 C :   -0.016059
  53 C :   -0.001187
  54 C :    0.002995
  55 C :   -0.034632
  56 C :   -0.009035
  57 C :   -0.059973
  58 C :   -0.015413
  59 C :   -0.056015
  60 C :   -0.022012
  61 C :   -0.056931
  62 C :    0.004754
  63 C :   -0.015340
  64 C :   -0.123793
  65 S :    0.499305
  66 C :   -0.146094
  67 C :   -0.090723
  68 C :   -0.062339
  69 N :    0.281463
  70 O :   -0.194240
  71 O :   -0.179082
  72 C :   -0.039797
  73 N :   -0.035929
  74 H :    0.042285
  75 H :    0.016147
  76 H :    0.031653
  77 H :    0.036886
  78 H :    0.018479
  79 H :    0.021024
  80 H :    0.024034
  81 H :    0.024387
  82 H :    0.027294
  83 H :    0.020243
  84 H :    0.019033
  85 H :    0.026522
  86 H :    0.024513
  87 H :    0.025678
  88 H :    0.024306
  89 H :    0.028757
  90 H :    0.027713
  91 H :    0.018436
  92 H :    0.021804
  93 H :   -0.003772
  94 H :    0.015850
  95 H :    0.048719
  96 H :    0.054243
  97 H :   -0.003214
  98 H :    0.012514
  99 H :    0.051969
 100 H :    0.052632
 101 H :    0.029859
 102 H :    0.053510
 103 H :    0.023933
 104 H :    0.028623
 105 H :    0.026400
 106 H :    0.025211
 107 H :    0.027733
 108 H :    0.024915
 109 H :    0.022715
 110 H :    0.027784
 111 H :    0.026625
 112 H :    0.027213
 113 H :    0.020686
 114 H :    0.020907
 115 H :    0.029107
 116 H :    0.020216
 117 H :    0.019320
 118 H :    0.020365
 119 H :    0.026986
 120 H :    0.024648
 121 H :    0.025881
 122 H :    0.020286
 123 H :    0.028180
 124 H :    0.030954
 125 H :    0.038964

  Mayer bond orders larger than 0.100000
B(  0-C ,  1-S ) :   1.1796 B(  0-C ,  4-C ) :   1.5489 B(  0-C , 74-H ) :   0.9545
B(  1-S ,  2-C ) :   1.1489 B(  2-C ,  3-C ) :   1.5326 B(  2-C , 10-C ) :   1.0683
B(  3-C ,  4-C ) :   1.2281 B(  3-C ,  8-C ) :   1.1523 B(  4-C ,  5-N ) :   0.9115
B(  5-N ,  6-O ) :   1.5337 B(  5-N ,  7-O ) :   1.5443 B(  6-O ,  7-O ) :   0.2769
B(  8-C ,  9-N ) :   2.9900 B( 10-C , 11-C ) :   1.2653 B( 10-C , 15-C ) :   1.3642
B( 11-C , 12-C ) :   1.4239 B( 11-C , 75-H ) :   0.9885 B( 12-C , 13-C ) :   1.3635
B( 12-C , 18-C ) :   0.9119 B( 13-C , 14-C ) :   1.3401 B( 13-C , 16-C ) :   0.9897
B( 14-C , 15-C ) :   1.3936 B( 14-C , 76-H ) :   0.9937 B( 15-C , 77-H ) :   0.9787
B( 16-C , 17-C ) :   1.3695 B( 16-C , 26-C ) :   1.3430 B( 17-C , 18-C ) :   0.9142
B( 17-C , 23-C ) :   1.3768 B( 18-C , 19-C ) :   1.0390 B( 18-C , 21-C ) :   1.0363
B( 19-C , 20-C ) :   1.1002 B( 19-C , 78-H ) :   0.9388 B( 19-C , 79-H ) :   0.9390
B( 20-C , 80-H ) :   0.9645 B( 20-C , 81-H ) :   0.9640 B( 20-C , 82-H ) :   0.9647
B( 21-C , 22-C ) :   1.1008 B( 21-C , 83-H ) :   0.9388 B( 21-C , 84-H ) :   0.9394
B( 22-C , 85-H ) :   0.9646 B( 22-C , 86-H ) :   0.9636 B( 22-C , 87-H ) :   0.9644
B( 23-C , 24-C ) :   1.3458 B( 23-C , 88-H ) :   1.0056 B( 24-C , 25-C ) :   1.3779
B( 24-C , 27-C ) :   0.9397 B( 25-C , 26-C ) :   1.3753 B( 25-C , 89-H ) :   0.9875
B( 26-C , 90-H ) :   0.9926 B( 27-C , 28-C ) :   1.5882 B( 27-C , 44-C ) :   1.1493
B( 28-C , 29-C ) :   1.1085 B( 28-C , 91-H ) :   0.9844 B( 29-C , 30-C ) :   1.4811
B( 29-C , 42-C ) :   1.1333 B( 30-C , 31-C ) :   1.0140 B( 30-C , 36-C ) :   1.1073
B( 31-C , 32-C ) :   1.0486 B( 31-C , 34-C ) :   1.0424 B( 31-C , 92-H ) :   0.8879
B( 32-C , 33-N ) :   1.0834 B( 32-C , 93-H ) :   0.9370 B( 32-C , 94-H ) :   0.9325
B( 33-N , 95-H ) :   0.9718 B( 33-N , 96-H ) :   0.9686 B( 34-C , 35-N ) :   1.0917
B( 34-C , 97-H ) :   0.9357 B( 34-C , 98-H ) :   0.9320 B( 35-N , 99-H ) :   0.9708
B( 35-N ,100-H ) :   0.9667 B( 36-C , 37-C ) :   1.6465 B( 36-C , 41-C ) :   1.0495
B( 37-C , 38-C ) :   0.9673 B( 37-C ,101-H ) :   0.9784 B( 38-C , 39-C ) :   0.9908
B( 38-C , 45-C ) :   0.9535 B( 38-C ,102-H ) :   0.8768 B( 39-C , 40-C ) :   1.7077
B( 39-C ,103-H ) :   0.9714 B( 40-C , 41-C ) :   1.1320 B( 40-C ,104-H ) :   0.9884
B( 41-C , 42-C ) :   1.4302 B( 42-C , 43-C ) :   1.1457 B( 43-C , 44-C ) :   1.5933
B( 43-C ,105-H ) :   0.9921 B( 44-C ,106-H ) :   0.9842 B( 45-C , 46-C ) :   1.8156
B( 45-C ,107-H ) :   0.9613 B( 46-C , 47-C ) :   1.0410 B( 46-C ,108-H ) :   0.9765
B( 47-C , 48-C ) :   1.3051 B( 47-C , 52-C ) :   1.3586 B( 48-C , 49-C ) :   1.3746
B( 48-C ,109-H ) :   1.0088 B( 49-C , 50-C ) :   1.3835 B( 49-C , 55-C ) :   0.9249
B( 50-C , 51-C ) :   1.3317 B( 50-C , 53-C ) :   0.9938 B( 51-C , 52-C ) :   1.3956
B( 51-C ,110-H ) :   0.9900 B( 52-C ,111-H ) :   0.9856 B( 53-C , 54-C ) :   1.3867
B( 53-C , 63-C ) :   1.3319 B( 54-C , 55-C ) :   0.9178 B( 54-C , 60-C ) :   1.4013
B( 55-C , 56-C ) :   1.0153 B( 55-C , 58-C ) :   1.0314 B( 56-C , 57-C ) :   1.1148
B( 56-C ,112-H ) :   0.9389 B( 56-C ,113-H ) :   0.9366 B( 57-C ,114-H ) :   0.9599
B( 57-C ,115-H ) :   0.9594 B( 57-C ,116-H ) :   0.9632 B( 58-C , 59-C ) :   1.1042
B( 58-C ,117-H ) :   0.9384 B( 58-C ,118-H ) :   0.9388 B( 59-C ,119-H ) :   0.9652
B( 59-C ,120-H ) :   0.9646 B( 59-C ,121-H ) :   0.9631 B( 60-C , 61-C ) :   1.2925
B( 60-C ,122-H ) :   0.9927 B( 61-C , 62-C ) :   1.3726 B( 61-C , 64-C ) :   1.0084
B( 62-C , 63-C ) :   1.3983 B( 62-C ,123-H ) :   0.9836 B( 63-C ,124-H ) :   0.9933
B( 64-C , 65-S ) :   1.1996 B( 64-C , 68-C ) :   1.4948 B( 65-S , 66-C ) :   1.1497
B( 66-C , 67-C ) :   1.5874 B( 66-C ,125-H ) :   0.9754 B( 67-C , 68-C ) :   1.2519
B( 67-C , 72-C ) :   1.0918 B( 68-C , 69-N ) :   0.9108 B( 69-N , 70-O ) :   1.5311
B( 69-N , 71-O ) :   1.5224 B( 70-O , 71-O ) :   0.2740 B( 72-C , 73-N ) :   3.0427

-----------------------------------------------------------------------------
         ABSORPTION SPECTRUM VIA TRANSITION ELECTRIC DIPOLE MOMENTS
-----------------------------------------------------------------------------
State   Energy  Wavelength   fosc         T2         TX        TY        TZ
        (cm-1)    (nm)                  (au**2)     (au)      (au)      (au)
-----------------------------------------------------------------------------
   0   15291.4    654.0   0.054789302   1.17957  -0.88137   0.15937  -0.61430
   1   24818.1    402.9   0.410307318   5.44272  -0.40268   2.29425   0.13035
   2   25402.7    393.7   0.207130090   2.68435  -0.17819   1.57393  -0.41873
   3   27888.4    358.6   0.996304216  11.76099   0.04357  -3.35833  -0.69333
   4   28627.8    349.3   0.108638209   1.24931  -0.28654  -0.88876   0.61425
   5   28949.4    345.4   0.121625069   1.38312   0.23503   1.07507  -0.41486
   6   29925.1    334.2   0.055147762   0.60669   0.05859  -0.77584   0.03644
   7   30226.3    330.8   1.002357300  10.91725   0.42535  -3.25970   0.33273
   8   30645.8    326.3   0.032309993   0.34709  -0.25607   0.52975   0.02968
   9   30675.7    326.0   0.001929143   0.02070  -0.03157  -0.13669  -0.03197
  10   32196.1    310.6   0.085620749   0.87549   0.74142  -0.57051  -0.01755
  11   32981.2    303.2   0.255844544   2.55379  -0.39510   1.40874  -0.64275
  12   33712.4    296.6   0.000056763   0.00055   0.01593   0.01115  -0.01327
  13   34891.6    286.6   0.066049300   0.62319  -0.19218  -0.74083   0.19347
  14   35516.1    281.6   0.068832955   0.63804  -0.10514  -0.76049  -0.22053
  15   35824.0    279.1   0.058315867   0.53591  -0.15351  -0.71309  -0.06196
  16   36505.4    273.9   0.146369601   1.31999   0.39267   1.06289   0.18990
  17   37286.3    268.2   0.585464064   5.16924  -0.45797   2.20070   0.34119
  18   38138.1    262.2   0.041254878   0.35612  -0.41626  -0.38967   0.17609
  19   38730.8    258.2   0.020575337   0.17489  -0.27646  -0.23617   0.20660
  20   38865.8    257.3   0.001115315   0.00945  -0.07533  -0.06083  -0.00848
  21   39245.4    254.8   0.024024956   0.20153  -0.17860  -0.41014  -0.03770
  22   39559.0    252.8   0.411758237   3.42667   0.54958  -1.67607  -0.56163

FINAL SINGLE POINT ENERGY     -3815.372626888763

DIPOLE MOMENT
-------------
                                X             Y             Z
Electronic contribution:    -26.37608     -13.35652      39.44039
Nuclear contribution   :     27.28217      14.71719     -43.67758
                        -----------------------------------------
Total Dipole Moment    :      0.90608       1.36067      -4.23719
                        -----------------------------------------
Magnitude (a.u.)       :      4.54161
Magnitude (Debye)      :     11.54385

Rotational constants in cm-1:     0.003071     0.000147     0.000145
Rotational constants in MHz :    92.077039     4.408792     4.338546

                             ****ORCA TERMINATED NORMALLY****
TOTAL RUN TIME: 0 days 0 hours 13 minutes 55 seconds 378 msec
