                         Program Version 4.2.0 -  RELEASE  -
|  1> # ORCA input file
|  2> # SCF done       -201.562946498192          0.000916260878
|  3> ! CAM-B3LYP def2-SVP def2/J RIJCOSX Grid4 TightSCF
|  4> %maxcore 5000
|  5> %tddft
|  6>     Mode sTDDFT
|  7>     Ethresh 5.0
|  8>     maxcore 5000
|  9> end
| 10>
| 11> %pal
| 12>   nprocs 6
| 13>   end
| 14> * xyz 0 1
| 15>    C        5.76302        -7.17482        -7.81315
| 16>    N        6.08709        -8.46086        -7.56874
| 17>    C        7.22337        -9.18955        -8.06205
| 18>    C        8.48642        -8.85506        -7.27091
| 19>    N        5.24366        -9.02009        -6.70730
| 20>    C        4.35571        -8.09036        -6.39093
| 21>    C        4.63412        -6.88789        -7.07553
| 22>    C        3.91390        -5.58370        -6.98071
| 23>    C        4.50598        -4.70857        -5.87402
| 24>    C        3.21828        -8.38293        -5.47116
| 25>    C        1.98160        -8.78832        -6.27698
| 26>    C        0.75441        -9.04559        -5.47984
| 27>    C        0.67038        -9.04305        -4.14882
| 28>    C       -0.53468        -9.34805        -3.40727
| 29>    C       -0.47312       -10.16862        -2.27256
| 30>    C        0.71636       -10.78106        -1.62983
| 31>    O        1.87706       -10.67112        -1.93116
| 32>    N        0.21975       -11.53865        -0.56438
| 33>    C       -1.17336       -11.46088        -0.46235
| 34>    O       -1.83424       -12.02690         0.36789
| 35>    C       -1.60572       -10.57245        -1.56632
| 36>    C       -2.87774       -10.17346        -1.92849
| 37>    C       -2.95376        -9.30716        -3.01346
| 38>    C       -1.83119        -8.88701        -3.72916
| 39>    C       -2.13449        -7.85315        -4.73896
| 40>    O       -1.38944        -7.20490        -5.40819
| 41>    S       -3.92343        -7.60003        -4.80740
| 42>    C       -4.24263        -8.75216        -3.47710
| 43>    O       -5.33174        -9.00189        -3.05759
| 44>    C        0.94187       -12.32908         0.32697
| 45>    C        2.27568       -12.46581         0.34733
| 46>    C        2.99368       -13.30542         1.25160
| 47>    N        2.39856       -14.11014         2.19815
| 48>    C        3.37509       -14.78834         2.86023
| 49>    C        3.61458       -15.72973         3.85093
| 50>    C        5.00925       -15.88912         3.90790
| 51>    N        5.60057       -15.06462         2.96983
| 52>    C        4.62524       -14.38985         2.31580
| 53>    C        4.37983       -13.45990         1.30681
| 54>    C        5.71719       -16.75919         4.76630
| 55>    C        7.07250       -16.85950         4.79862
| 56>    C        7.88428       -17.77138         5.53225
| 57>    C        9.19169       -18.01731         5.04940
| 58>    C        9.90984       -17.38134         3.92463
| 59>    O        9.55931       -16.49885         3.17656
| 60>    N       11.16319       -18.00154         3.85512
| 61>    C       11.31269       -18.98632         4.82536
| 62>    O       12.27587       -19.68919         4.99443
| 63>    C       10.03885       -18.97809         5.59118
| 64>    C        9.66797       -19.76248         6.66667
| 65>    C        8.42162       -19.48304         7.21331
| 66>    C        7.55528       -18.51170         6.70594
| 67>    C        6.38994       -18.28327         7.57059
| 68>    O        5.55047       -17.43342         7.51941
| 69>    S        6.38730       -19.49414         8.91900
| 70>    C        7.94368       -20.20044         8.41368
| 71>    O        8.48662       -21.10101         8.98047
| 72>    C       12.10001       -17.58795         2.90319
| 73>    C       13.28781       -18.16692         2.70451
| 74>    C       14.27524       -17.72777         1.75932
| 75>    N       15.30228       -18.54272         1.38447
| 76>    C       15.57932       -19.89462         1.79318
| 77>    C       16.34846       -19.94158         3.11225
| 78>    N       16.12343       -17.94435         0.53484
| 79>    C       15.65578       -16.71887         0.34339
| 80>    C       14.48256       -16.51678         1.09205
| 81>    C       13.67104       -15.26549         1.13248
| 82>    C       12.58523       -15.26295         0.05319
| 83>    C       16.37610       -15.74716        -0.52782
| 84>    C       17.40477       -14.96263         0.29241
| 85>    C       18.17405       -13.93322        -0.47442
| 86>    C       18.06571       -13.65791        -1.76039
| 87>    H        6.33205        -6.56827        -8.48930
| 88>    H        7.36531        -8.95056        -9.12037
| 89>    H        6.98854       -10.25129        -7.96122
| 90>    H        8.72208        -7.79667        -7.35806
| 91>    H        9.32643        -9.43257        -7.64705
| 92>    H        8.33846        -9.09245        -6.22045
| 93>    H        2.85632        -5.75869        -6.77369
| 94>    H        3.99056        -5.05826        -7.93559
| 95>    H        4.44284        -5.21558        -4.91356
| 96>    H        3.96763        -3.76600        -5.80535
| 97>    H        5.55307        -4.49644        -6.07897
| 98>    H        2.99220        -7.49697        -4.87584
| 99>    H        3.50885        -9.19848        -4.80828
|100>    H        2.21382        -9.68456        -6.86147
|101>    H        1.74141        -8.00344        -7.00192
|102>    H       -0.12229        -9.27569        -6.07223
|103>    H        1.55710        -8.91925        -3.54509
|104>    H       -3.76148       -10.49169        -1.39973
|105>    H        0.28030       -12.83330         1.01865
|106>    H        2.88293       -11.92469        -0.36121
|107>    H        1.40995       -14.18130         2.36036
|108>    H        2.90979       -16.24214         4.47412
|109>    H        6.58904       -15.00937         2.79355
|110>    H        5.08628       -12.95189         0.68233
|111>    H        5.09639       -17.37546         5.39583
|112>    H        7.64021       -16.24594         4.11445
|113>    H       10.30696       -20.52444         7.08164
|114>    H       11.73865       -16.74661         2.33322
|115>    H       13.54737       -19.03263         3.29343
|116>    H       16.18592       -20.33552         0.99886
|117>    H       14.64163       -20.45046         1.87383
|118>    H       17.27165       -19.37475         3.02142
|119>    H       16.59175       -20.97124         3.35955
|120>    H       15.75991       -19.52014         3.92338
|121>    H       14.32954       -14.40936         0.96990
|122>    H       13.21654       -15.15229         2.11916
|123>    H       13.03621       -15.32669        -0.93473
|124>    H       11.99820       -14.34867         0.10812
|125>    H       11.91647       -16.11266         0.17145
|126>    H       15.66267       -15.05756        -0.98109
|127>    H       16.88970       -16.29943        -1.31534
|128>    H       18.11432       -15.67032         0.73229
|129>    H       16.90056       -14.46470         1.12789
|130>    H       18.88498       -13.38141         0.12971
|131>    H       17.38227       -14.17594        -2.41065
|132>    H       18.66810       -12.89464        -2.22365
|133> *
|134>
|135>                          ****END OF INPUT****

CARTESIAN COORDINATES (ANGSTROEM)
---------------------------------
  C      5.763020   -7.174820   -7.813150
  N      6.087090   -8.460860   -7.568740
  C      7.223370   -9.189550   -8.062050
  C      8.486420   -8.855060   -7.270910
  N      5.243660   -9.020090   -6.707300
  C      4.355710   -8.090360   -6.390930
  C      4.634120   -6.887890   -7.075530
  C      3.913900   -5.583700   -6.980710
  C      4.505980   -4.708570   -5.874020
  C      3.218280   -8.382930   -5.471160
  C      1.981600   -8.788320   -6.276980
  C      0.754410   -9.045590   -5.479840
  C      0.670380   -9.043050   -4.148820
  C     -0.534680   -9.348050   -3.407270
  C     -0.473120  -10.168620   -2.272560
  C      0.716360  -10.781060   -1.629830
  O      1.877060  -10.671120   -1.931160
  N      0.219750  -11.538650   -0.564380
  C     -1.173360  -11.460880   -0.462350
  O     -1.834240  -12.026900    0.367890
  C     -1.605720  -10.572450   -1.566320
  C     -2.877740  -10.173460   -1.928490
  C     -2.953760   -9.307160   -3.013460
  C     -1.831190   -8.887010   -3.729160
  C     -2.134490   -7.853150   -4.738960
  O     -1.389440   -7.204900   -5.408190
  S     -3.923430   -7.600030   -4.807400
  C     -4.242630   -8.752160   -3.477100
  O     -5.331740   -9.001890   -3.057590
  C      0.941870  -12.329080    0.326970
  C      2.275680  -12.465810    0.347330
  C      2.993680  -13.305420    1.251600
  N      2.398560  -14.110140    2.198150
  C      3.375090  -14.788340    2.860230
  C      3.614580  -15.729730    3.850930
  C      5.009250  -15.889120    3.907900
  N      5.600570  -15.064620    2.969830
  C      4.625240  -14.389850    2.315800
  C      4.379830  -13.459900    1.306810
  C      5.717190  -16.759190    4.766300
  C      7.072500  -16.859500    4.798620
  C      7.884280  -17.771380    5.532250
  C      9.191690  -18.017310    5.049400
  C      9.909840  -17.381340    3.924630
  O      9.559310  -16.498850    3.176560
  N     11.163190  -18.001540    3.855120
  C     11.312690  -18.986320    4.825360
  O     12.275870  -19.689190    4.994430
  C     10.038850  -18.978090    5.591180
  C      9.667970  -19.762480    6.666670
  C      8.421620  -19.483040    7.213310
  C      7.555280  -18.511700    6.705940
  C      6.389940  -18.283270    7.570590
  O      5.550470  -17.433420    7.519410
  S      6.387300  -19.494140    8.919000
  C      7.943680  -20.200440    8.413680
  O      8.486620  -21.101010    8.980470
  C     12.100010  -17.587950    2.903190
  C     13.287810  -18.166920    2.704510
  C     14.275240  -17.727770    1.759320
  N     15.302280  -18.542720    1.384470
  C     15.579320  -19.894620    1.793180
  C     16.348460  -19.941580    3.112250
  N     16.123430  -17.944350    0.534840
  C     15.655780  -16.718870    0.343390
  C     14.482560  -16.516780    1.092050
  C     13.671040  -15.265490    1.132480
  C     12.585230  -15.262950    0.053190
  C     16.376100  -15.747160   -0.527820
  C     17.404770  -14.962630    0.292410
  C     18.174050  -13.933220   -0.474420
  C     18.065710  -13.657910   -1.760390
  H      6.332050   -6.568270   -8.489300
  H      7.365310   -8.950560   -9.120370
  H      6.988540  -10.251290   -7.961220
  H      8.722080   -7.796670   -7.358060
  H      9.326430   -9.432570   -7.647050
  H      8.338460   -9.092450   -6.220450
  H      2.856320   -5.758690   -6.773690
  H      3.990560   -5.058260   -7.935590
  H      4.442840   -5.215580   -4.913560
  H      3.967630   -3.766000   -5.805350
  H      5.553070   -4.496440   -6.078970
  H      2.992200   -7.496970   -4.875840
  H      3.508850   -9.198480   -4.808280
  H      2.213820   -9.684560   -6.861470
  H      1.741410   -8.003440   -7.001920
  H     -0.122290   -9.275690   -6.072230
  H      1.557100   -8.919250   -3.545090
  H     -3.761480  -10.491690   -1.399730
  H      0.280300  -12.833300    1.018650
  H      2.882930  -11.924690   -0.361210
  H      1.409950  -14.181300    2.360360
  H      2.909790  -16.242140    4.474120
  H      6.589040  -15.009370    2.793550
  H      5.086280  -12.951890    0.682330
  H      5.096390  -17.375460    5.395830
  H      7.640210  -16.245940    4.114450
  H     10.306960  -20.524440    7.081640
  H     11.738650  -16.746610    2.333220
  H     13.547370  -19.032630    3.293430
  H     16.185920  -20.335520    0.998860
  H     14.641630  -20.450460    1.873830
  H     17.271650  -19.374750    3.021420
  H     16.591750  -20.971240    3.359550
  H     15.759910  -19.520140    3.923380
  H     14.329540  -14.409360    0.969900
  H     13.216540  -15.152290    2.119160
  H     13.036210  -15.326690   -0.934730
  H     11.998200  -14.348670    0.108120
  H     11.916470  -16.112660    0.171450
  H     15.662670  -15.057560   -0.981090
  H     16.889700  -16.299430   -1.315340
  H     18.114320  -15.670320    0.732290
  H     16.900560  -14.464700    1.127890
  H     18.884980  -13.381410    0.129710
  H     17.382270  -14.175940   -2.410650
  H     18.668100  -12.894640   -2.223650

 Total Charge           Charge          ....    0
 Multiplicity           Mult            ....    1
 Number of Electrons    NEL             ....  522
 Basis Dimension        Dim             .... 1246

ORBITAL ENERGIES
----------------

  NO   OCC          E(Eh)            E(eV)
   0   2.0000     -88.951052     -2420.4812
   1   2.0000     -88.943943     -2420.2877
   2   2.0000     -19.243755      -523.6492
   3   2.0000     -19.243291      -523.6366
   4   2.0000     -19.237984      -523.4922
   5   2.0000     -19.236733      -523.4581
   6   2.0000     -19.236514      -523.4522
   7   2.0000     -19.236032      -523.4390
   8   2.0000     -19.233391      -523.3672
   9   2.0000     -19.231000      -523.3021
  10   2.0000     -14.487315      -394.2199
  11   2.0000     -14.480490      -394.0342
  12   2.0000     -14.468970      -393.7207
  13   2.0000     -14.465212      -393.6184
  14   2.0000     -14.458450      -393.4344
  15   2.0000     -14.456888      -393.3919
  16   2.0000     -14.400039      -391.8450
  17   2.0000     -14.396975      -391.7616
  18   2.0000     -10.416772      -283.4548
  19   2.0000     -10.415684      -283.4252
  20   2.0000     -10.411709      -283.3170
  21   2.0000     -10.409796      -283.2649
  22   2.0000     -10.407862      -283.2123
  23   2.0000     -10.405013      -283.1348
  24   2.0000     -10.400651      -283.0161
  25   2.0000     -10.397014      -282.9171
  26   2.0000     -10.334553      -281.2175
  27   2.0000     -10.329234      -281.0728
  28   2.0000     -10.327163      -281.0164
  29   2.0000     -10.326553      -280.9998
  30   2.0000     -10.324988      -280.9572
  31   2.0000     -10.322444      -280.8880
  32   2.0000     -10.321121      -280.8520
  33   2.0000     -10.320835      -280.8442
  34   2.0000     -10.319121      -280.7976
  35   2.0000     -10.316610      -280.7292
  36   2.0000     -10.316252      -280.7195
  37   2.0000     -10.314140      -280.6620
  38   2.0000     -10.311428      -280.5882
  39   2.0000     -10.311191      -280.5818
  40   2.0000     -10.308409      -280.5061
  41   2.0000     -10.306192      -280.4457
  42   2.0000     -10.303011      -280.3592
  43   2.0000     -10.300170      -280.2819
  44   2.0000     -10.296773      -280.1894
  45   2.0000     -10.293598      -280.1031
  46   2.0000     -10.290421      -280.0166
  47   2.0000     -10.289757      -279.9985
  48   2.0000     -10.285789      -279.8905
  49   2.0000     -10.283534      -279.8292
  50   2.0000     -10.283184      -279.8197
  51   2.0000     -10.276193      -279.6294
  52   2.0000     -10.273684      -279.5612
  53   2.0000     -10.271241      -279.4947
  54   2.0000     -10.270618      -279.4777
  55   2.0000     -10.269029      -279.4345
  56   2.0000     -10.268441      -279.4185
  57   2.0000     -10.264803      -279.3195
  58   2.0000     -10.263895      -279.2948
  59   2.0000     -10.261983      -279.2428
  60   2.0000     -10.261613      -279.2327
  61   2.0000     -10.260382      -279.1992
  62   2.0000     -10.260364      -279.1987
  63   2.0000     -10.255294      -279.0607
  64   2.0000     -10.255272      -279.0601
  65   2.0000     -10.254328      -279.0345
  66   2.0000     -10.252046      -278.9724
  67   2.0000     -10.249508      -278.9033
  68   2.0000     -10.249332      -278.8985
  69   2.0000     -10.246614      -278.8245
  70   2.0000     -10.245273      -278.7880
  71   2.0000     -10.243259      -278.7332
  72   2.0000      -8.050325      -219.0605
  73   2.0000      -8.043240      -218.8677
  74   2.0000      -6.019130      -163.7889
  75   2.0000      -6.015937      -163.7020
  76   2.0000      -6.012049      -163.5962
  77   2.0000      -6.011417      -163.5790
  78   2.0000      -6.008878      -163.5099
  79   2.0000      -6.004311      -163.3856
  80   2.0000      -1.183734       -32.2110
  81   2.0000      -1.177980       -32.0545
  82   2.0000      -1.169038       -31.8111
  83   2.0000      -1.164905       -31.6987
  84   2.0000      -1.161687       -31.6111
  85   2.0000      -1.159982       -31.5647
  86   2.0000      -1.157173       -31.4883
  87   2.0000      -1.153793       -31.3963
  88   2.0000      -1.129971       -30.7481
  89   2.0000      -1.127041       -30.6683
  90   2.0000      -1.090763       -29.6812
  91   2.0000      -1.076242       -29.2860
  92   2.0000      -1.070247       -29.1229
  93   2.0000      -1.054189       -28.6859
  94   2.0000      -1.012559       -27.5531
  95   2.0000      -1.002919       -27.2908
  96   2.0000      -0.955150       -25.9910
  97   2.0000      -0.948252       -25.8032
  98   2.0000      -0.935905       -25.4673
  99   2.0000      -0.931297       -25.3419
 100   2.0000      -0.923627       -25.1332
 101   2.0000      -0.917799       -24.9746
 102   2.0000      -0.904013       -24.5994
 103   2.0000      -0.903634       -24.5891
 104   2.0000      -0.885721       -24.1017
 105   2.0000      -0.883442       -24.0397
 106   2.0000      -0.879787       -23.9402
 107   2.0000      -0.879612       -23.9354
 108   2.0000      -0.878936       -23.9171
 109   2.0000      -0.872521       -23.7425
 110   2.0000      -0.860840       -23.4246
 111   2.0000      -0.851183       -23.1619
 112   2.0000      -0.846913       -23.0457
 113   2.0000      -0.844401       -22.9773
 114   2.0000      -0.830530       -22.5999
 115   2.0000      -0.823191       -22.4002
 116   2.0000      -0.815497       -22.1908
 117   2.0000      -0.806753       -21.9529
 118   2.0000      -0.796911       -21.6850
 119   2.0000      -0.794771       -21.6268
 120   2.0000      -0.788639       -21.4600
 121   2.0000      -0.786691       -21.4070
 122   2.0000      -0.778573       -21.1861
 123   2.0000      -0.765620       -20.8336
 124   2.0000      -0.755549       -20.5595
 125   2.0000      -0.749066       -20.3831
 126   2.0000      -0.743092       -20.2206
 127   2.0000      -0.730107       -19.8672
 128   2.0000      -0.724591       -19.7171
 129   2.0000      -0.722486       -19.6598
 130   2.0000      -0.718718       -19.5573
 131   2.0000      -0.699040       -19.0218
 132   2.0000      -0.695582       -18.9278
 133   2.0000      -0.693581       -18.8733
 134   2.0000      -0.691388       -18.8136
 135   2.0000      -0.690856       -18.7991
 136   2.0000      -0.682598       -18.5744
 137   2.0000      -0.681199       -18.5364
 138   2.0000      -0.680329       -18.5127
 139   2.0000      -0.674229       -18.3467
 140   2.0000      -0.653114       -17.7721
 141   2.0000      -0.649501       -17.6738
 142   2.0000      -0.647463       -17.6184
 143   2.0000      -0.644291       -17.5321
 144   2.0000      -0.640902       -17.4398
 145   2.0000      -0.634249       -17.2588
 146   2.0000      -0.627122       -17.0648
 147   2.0000      -0.623702       -16.9718
 148   2.0000      -0.618504       -16.8304
 149   2.0000      -0.614451       -16.7201
 150   2.0000      -0.609134       -16.5754
 151   2.0000      -0.606226       -16.4963
 152   2.0000      -0.603434       -16.4203
 153   2.0000      -0.602884       -16.4053
 154   2.0000      -0.591890       -16.1061
 155   2.0000      -0.588630       -16.0174
 156   2.0000      -0.588099       -16.0030
 157   2.0000      -0.585365       -15.9286
 158   2.0000      -0.581869       -15.8334
 159   2.0000      -0.578574       -15.7438
 160   2.0000      -0.569799       -15.5050
 161   2.0000      -0.567641       -15.4463
 162   2.0000      -0.565848       -15.3975
 163   2.0000      -0.563537       -15.3346
 164   2.0000      -0.560416       -15.2497
 165   2.0000      -0.553180       -15.0528
 166   2.0000      -0.552782       -15.0420
 167   2.0000      -0.548329       -14.9208
 168   2.0000      -0.546820       -14.8797
 169   2.0000      -0.545951       -14.8561
 170   2.0000      -0.545283       -14.8379
 171   2.0000      -0.544712       -14.8224
 172   2.0000      -0.541607       -14.7379
 173   2.0000      -0.540167       -14.6987
 174   2.0000      -0.539794       -14.6885
 175   2.0000      -0.538699       -14.6587
 176   2.0000      -0.537183       -14.6175
 177   2.0000      -0.535664       -14.5762
 178   2.0000      -0.532035       -14.4774
 179   2.0000      -0.531900       -14.4737
 180   2.0000      -0.529036       -14.3958
 181   2.0000      -0.526368       -14.3232
 182   2.0000      -0.524693       -14.2776
 183   2.0000      -0.522161       -14.2087
 184   2.0000      -0.519924       -14.1479
 185   2.0000      -0.517500       -14.0819
 186   2.0000      -0.514421       -13.9981
 187   2.0000      -0.513926       -13.9846
 188   2.0000      -0.509471       -13.8634
 189   2.0000      -0.507396       -13.8070
 190   2.0000      -0.504525       -13.7288
 191   2.0000      -0.504310       -13.7230
 192   2.0000      -0.502746       -13.6804
 193   2.0000      -0.502411       -13.6713
 194   2.0000      -0.501295       -13.6409
 195   2.0000      -0.498180       -13.5562
 196   2.0000      -0.497977       -13.5506
 197   2.0000      -0.496170       -13.5015
 198   2.0000      -0.494605       -13.4589
 199   2.0000      -0.491094       -13.3634
 200   2.0000      -0.488794       -13.3008
 201   2.0000      -0.482273       -13.1233
 202   2.0000      -0.480092       -13.0640
 203   2.0000      -0.477207       -12.9854
 204   2.0000      -0.475830       -12.9480
 205   2.0000      -0.472794       -12.8654
 206   2.0000      -0.471929       -12.8419
 207   2.0000      -0.470423       -12.8009
 208   2.0000      -0.464938       -12.6516
 209   2.0000      -0.460844       -12.5402
 210   2.0000      -0.459188       -12.4951
 211   2.0000      -0.458711       -12.4822
 212   2.0000      -0.454532       -12.3685
 213   2.0000      -0.451385       -12.2828
 214   2.0000      -0.444302       -12.0901
 215   2.0000      -0.443052       -12.0560
 216   2.0000      -0.440007       -11.9732
 217   2.0000      -0.439762       -11.9665
 218   2.0000      -0.436225       -11.8703
 219   2.0000      -0.433737       -11.8026
 220   2.0000      -0.429739       -11.6938
 221   2.0000      -0.428018       -11.6470
 222   2.0000      -0.427440       -11.6312
 223   2.0000      -0.426686       -11.6107
 224   2.0000      -0.424355       -11.5473
 225   2.0000      -0.421690       -11.4748
 226   2.0000      -0.419942       -11.4272
 227   2.0000      -0.415465       -11.3054
 228   2.0000      -0.415380       -11.3031
 229   2.0000      -0.411033       -11.1848
 230   2.0000      -0.405515       -11.0346
 231   2.0000      -0.404638       -11.0108
 232   2.0000      -0.402412       -10.9502
 233   2.0000      -0.396628       -10.7928
 234   2.0000      -0.390048       -10.6137
 235   2.0000      -0.384873       -10.4729
 236   2.0000      -0.376263       -10.2386
 237   2.0000      -0.375660       -10.2222
 238   2.0000      -0.369382       -10.0514
 239   2.0000      -0.368670       -10.0320
 240   2.0000      -0.368174       -10.0185
 241   2.0000      -0.364764        -9.9257
 242   2.0000      -0.362792        -9.8721
 243   2.0000      -0.360516        -9.8101
 244   2.0000      -0.351135        -9.5549
 245   2.0000      -0.350460        -9.5365
 246   2.0000      -0.348585        -9.4855
 247   2.0000      -0.345029        -9.3887
 248   2.0000      -0.343284        -9.3412
 249   2.0000      -0.340077        -9.2540
 250   2.0000      -0.338598        -9.2137
 251   2.0000      -0.337078        -9.1724
 252   2.0000      -0.316898        -8.6232
 253   2.0000      -0.311333        -8.4718
 254   2.0000      -0.301733        -8.2106
 255   2.0000      -0.300178        -8.1683
 256   2.0000      -0.290556        -7.9064
 257   2.0000      -0.288809        -7.8589
 258   2.0000      -0.286944        -7.8081
 259   2.0000      -0.263150        -7.1607
 260   2.0000      -0.229282        -6.2391
 261   0.0000      -0.094704        -2.5770
 262   0.0000      -0.088437        -2.4065
 263   0.0000      -0.067704        -1.8423
 264   0.0000      -0.052305        -1.4233
 265   0.0000      -0.025675        -0.6987

MULLIKEN ATOMIC CHARGES
-----------------------
   0 C :    0.037200
   1 N :   -0.136542
   2 C :    0.125276
   3 C :   -0.002715
   4 N :   -0.095792
   5 C :   -0.155298
   6 C :   -0.125325
   7 C :    0.099747
   8 C :    0.027862
   9 C :    0.128335
  10 C :    0.045972
  11 C :   -0.022580
  12 C :   -0.062327
  13 C :    0.069107
  14 C :   -0.030884
  15 C :    0.213053
  16 O :   -0.148124
  17 N :   -0.231899
  18 C :    0.194197
  19 O :   -0.140381
  20 C :    0.015394
  21 C :   -0.072545
  22 C :    0.043897
  23 C :    0.021867
  24 C :    0.022632
  25 O :   -0.114118
  26 S :    0.005540
  27 C :    0.050185
  28 O :   -0.119904
  29 C :    0.038801
  30 C :    0.041938
  31 C :    0.079966
  32 N :   -0.035131
  33 C :    0.110936
  34 C :   -0.147977
  35 C :    0.042492
  36 N :   -0.027621
  37 C :    0.121251
  38 C :   -0.165942
  39 C :    0.103822
  40 C :   -0.103181
  41 C :    0.109272
  42 C :   -0.051654
  43 C :    0.202770
  44 O :   -0.172680
  45 N :   -0.224158
  46 C :    0.207698
  47 O :   -0.146107
  48 C :    0.016997
  49 C :   -0.094799
  50 C :    0.049807
  51 C :    0.012999
  52 C :    0.022704
  53 O :   -0.132529
  54 S :    0.003603
  55 C :    0.050807
  56 O :   -0.126356
  57 C :    0.047143
  58 C :   -0.027054
  59 C :    0.138671
  60 N :   -0.160978
  61 C :    0.115261
  62 C :    0.002524
  63 N :   -0.086820
  64 C :   -0.170683
  65 C :   -0.178323
  66 C :    0.078865
  67 C :    0.031596
  68 C :    0.140209
  69 C :    0.058825
  70 C :   -0.071441
  71 C :   -0.028944
  72 H :   -0.018069
  73 H :    0.016400
  74 H :    0.031131
  75 H :    0.015349
  76 H :    0.020132
  77 H :    0.031872
  78 H :   -0.000803
  79 H :   -0.005233
  80 H :    0.008727
  81 H :    0.010844
  82 H :    0.002704
  83 H :   -0.001277
  84 H :    0.016949
  85 H :    0.027543
  86 H :    0.023295
  87 H :    0.001446
  88 H :    0.031514
  89 H :    0.016590
  90 H :    0.006275
  91 H :    0.019083
  92 H :    0.124774
  93 H :   -0.027652
  94 H :    0.135954
  95 H :   -0.030597
  96 H :   -0.007904
  97 H :   -0.020387
  98 H :    0.013611
  99 H :    0.024002
 100 H :    0.016848
 101 H :    0.030613
 102 H :    0.024287
 103 H :    0.026617
 104 H :    0.020270
 105 H :    0.023121
 106 H :   -0.004842
 107 H :   -0.000422
 108 H :    0.007133
 109 H :    0.011550
 110 H :    0.012470
 111 H :   -0.006855
 112 H :    0.006647
 113 H :    0.019740
 114 H :    0.007653
 115 H :   -0.004087
 116 H :    0.013680
 117 H :    0.010901
Sum of atomic charges:   -0.0000000

LOEWDIN ATOMIC CHARGES
----------------------
   0 C :   -0.020473
   1 N :    0.092332
   2 C :    0.036160
   3 C :   -0.060686
   4 N :   -0.112395
   5 C :   -0.054247
   6 C :   -0.095336
   7 C :   -0.030611
   8 C :   -0.050613
   9 C :   -0.030651
  10 C :   -0.028434
  11 C :    0.039047
  12 C :   -0.065998
  13 C :    0.044498
  14 C :   -0.037903
  15 C :    0.104621
  16 O :   -0.130174
  17 N :   -0.011853
  18 C :    0.097280
  19 O :   -0.136614
  20 C :   -0.031023
  21 C :    0.032404
  22 C :   -0.050742
  23 C :   -0.064030
  24 C :   -0.041757
  25 O :   -0.106958
  26 S :    0.295219
  27 C :   -0.049989
  28 O :   -0.113106
  29 C :    0.004783
  30 C :   -0.040701
  31 C :    0.010330
  32 N :    0.066390
  33 C :   -0.025804
  34 C :   -0.065305
  35 C :   -0.014817
  36 N :    0.075844
  37 C :   -0.007801
  38 C :   -0.092940
  39 C :    0.033253
  40 C :   -0.088166
  41 C :    0.042985
  42 C :   -0.051451
  43 C :    0.107091
  44 O :   -0.153098
  45 N :   -0.010994
  46 C :    0.100081
  47 O :   -0.135974
  48 C :   -0.025792
  49 C :    0.017541
  50 C :   -0.045315
  51 C :   -0.076303
  52 C :   -0.038934
  53 O :   -0.117249
  54 S :    0.292347
  55 C :   -0.051636
  56 O :   -0.117477
  57 C :    0.021805
  58 C :   -0.049045
  59 C :   -0.020492
  60 N :    0.092006
  61 C :    0.034021
  62 C :   -0.060350
  63 N :   -0.104730
  64 C :   -0.050268
  65 C :   -0.085659
  66 C :   -0.033453
  67 C :   -0.051850
  68 C :   -0.030161
  69 C :   -0.031603
  70 C :   -0.021911
  71 C :   -0.073412
  72 H :    0.017806
  73 H :    0.025166
  74 H :    0.034299
  75 H :    0.023598
  76 H :    0.028271
  77 H :    0.031504
  78 H :    0.025544
  79 H :    0.027380
  80 H :    0.021801
  81 H :    0.020993
  82 H :    0.020970
  83 H :    0.027328
  84 H :    0.038081
  85 H :    0.042432
  86 H :    0.039138
  87 H :    0.023903
  88 H :    0.034638
  89 H :    0.050645
  90 H :    0.023632
  91 H :    0.042037
  92 H :    0.088496
  93 H :    0.028654
  94 H :    0.093856
  95 H :    0.027271
  96 H :    0.034412
  97 H :    0.021862
  98 H :    0.048438
  99 H :    0.030285
 100 H :    0.032193
 101 H :    0.035405
 102 H :    0.026068
 103 H :    0.030228
 104 H :    0.029420
 105 H :    0.025777
 106 H :    0.027078
 107 H :    0.024580
 108 H :    0.023536
 109 H :    0.022193
 110 H :    0.020988
 111 H :    0.024479
 112 H :    0.034721
 113 H :    0.035938
 114 H :    0.029354
 115 H :    0.022880
 116 H :    0.017524
 117 H :    0.021448

  Mayer bond orders larger than 0.100000
B(  0-C ,  1-N ) :   1.2297 B(  0-C ,  4-N ) :   0.1098 B(  0-C ,  6-C ) :   1.4498
B(  0-C , 72-H ) :   0.9870 B(  1-N ,  2-C ) :   0.9558 B(  1-N ,  4-N ) :   1.1536
B(  2-C ,  3-C ) :   1.1110 B(  2-C , 73-H ) :   0.9529 B(  2-C , 74-H ) :   0.9459
B(  3-C , 75-H ) :   0.9684 B(  3-C , 76-H ) :   0.9677 B(  3-C , 77-H ) :   0.9685
B(  4-N ,  5-C ) :   1.6112 B(  5-C ,  6-C ) :   1.3485 B(  5-C ,  9-C ) :   1.0603
B(  6-C ,  7-C ) :   1.0649 B(  7-C ,  8-C ) :   1.1110 B(  7-C , 78-H ) :   0.9243
B(  7-C , 79-H ) :   0.9225 B(  8-C , 80-H ) :   0.9703 B(  8-C , 81-H ) :   0.9674
B(  8-C , 82-H ) :   0.9682 B(  9-C , 10-C ) :   1.1295 B(  9-C , 83-H ) :   0.9082
B(  9-C , 84-H ) :   0.8982 B( 10-C , 11-C ) :   1.0453 B( 10-C , 85-H ) :   0.9104
B( 10-C , 86-H ) :   0.9186 B( 11-C , 12-C ) :   1.8476 B( 11-C , 87-H ) :   0.9694
B( 12-C , 13-C ) :   1.0574 B( 12-C , 88-H ) :   0.9302 B( 13-C , 14-C ) :   1.3797
B( 13-C , 23-C ) :   1.3428 B( 14-C , 15-C ) :   0.9030 B( 14-C , 20-C ) :   1.3790
B( 15-C , 16-O ) :   2.1355 B( 15-C , 17-N ) :   1.0461 B( 17-N , 18-C ) :   1.0321
B( 17-N , 29-C ) :   1.0111 B( 18-C , 19-O ) :   2.2256 B( 18-C , 20-C ) :   0.8744
B( 20-C , 21-C ) :   1.3359 B( 21-C , 22-C ) :   1.3387 B( 21-C , 89-H ) :   1.0288
B( 22-C , 23-C ) :   1.3448 B( 22-C , 27-C ) :   0.8400 B( 23-C , 24-C ) :   0.8500
B( 24-C , 25-O ) :   2.2016 B( 24-C , 26-S ) :   1.0145 B( 25-O , 26-S ) :   0.1049
B( 26-S , 27-C ) :   1.0293 B( 26-S , 28-O ) :   0.1089 B( 27-C , 28-O ) :   2.2198
B( 29-C , 30-C ) :   1.6769 B( 29-C , 90-H ) :   0.9786 B( 30-C , 31-C ) :   1.1214
B( 30-C , 91-H ) :   0.9515 B( 31-C , 32-N ) :   1.2097 B( 31-C , 38-C ) :   1.3904
B( 32-N , 33-C ) :   1.1511 B( 32-N , 92-H ) :   0.9325 B( 33-C , 34-C ) :   1.2719
B( 33-C , 37-C ) :   1.3058 B( 34-C , 35-C ) :   1.3245 B( 34-C , 93-H ) :   1.0419
B( 35-C , 36-N ) :   1.1851 B( 35-C , 39-C ) :   1.2180 B( 36-N , 37-C ) :   1.1912
B( 36-N , 94-H ) :   0.9283 B( 37-C , 38-C ) :   1.2334 B( 38-C , 95-H ) :   1.0417
B( 39-C , 40-C ) :   1.5462 B( 39-C , 96-H ) :   0.9452 B( 40-C , 41-C ) :   1.2116
B( 40-C , 97-H ) :   0.9433 B( 41-C , 42-C ) :   1.3131 B( 41-C , 51-C ) :   1.2557
B( 42-C , 43-C ) :   0.9189 B( 42-C , 48-C ) :   1.3976 B( 43-C , 44-O ) :   2.0999
B( 43-C , 45-N ) :   1.0520 B( 45-N , 46-C ) :   1.0460 B( 45-N , 57-C ) :   0.9983
B( 46-C , 47-O ) :   2.1918 B( 46-C , 48-C ) :   0.8763 B( 48-C , 49-C ) :   1.3222
B( 49-C , 50-C ) :   1.3363 B( 49-C , 98-H ) :   1.0293 B( 50-C , 51-C ) :   1.3553
B( 50-C , 55-C ) :   0.8421 B( 51-C , 52-C ) :   0.8677 B( 52-C , 53-O ) :   2.1680
B( 52-C , 54-S ) :   1.0127 B( 54-S , 55-C ) :   1.0330 B( 54-S , 56-O ) :   0.1091
B( 55-C , 56-O ) :   2.2099 B( 57-C , 58-C ) :   1.7211 B( 57-C , 99-H ) :   0.9723
B( 58-C , 59-C ) :   1.0670 B( 58-C ,100-H ) :   0.9396 B( 59-C , 60-N ) :   1.1778
B( 59-C , 65-C ) :   1.4203 B( 60-N , 61-C ) :   0.9531 B( 60-N , 63-N ) :   1.1607
B( 61-C , 62-C ) :   1.1179 B( 61-C ,101-H ) :   0.9416 B( 61-C ,102-H ) :   0.9475
B( 62-C ,103-H ) :   0.9633 B( 62-C ,104-H ) :   0.9659 B( 62-C ,105-H ) :   0.9675
B( 63-N , 64-C ) :   1.5950 B( 64-C , 65-C ) :   1.3530 B( 64-C , 68-C ) :   1.0696
B( 65-C , 66-C ) :   1.0775 B( 66-C , 67-C ) :   1.1113 B( 66-C ,106-H ) :   0.9152
B( 66-C ,107-H ) :   0.9159 B( 67-C ,108-H ) :   0.9627 B( 67-C ,109-H ) :   0.9677
B( 67-C ,110-H ) :   0.9651 B( 68-C , 69-C ) :   1.1161 B( 68-C ,111-H ) :   0.9064
B( 68-C ,112-H ) :   0.8976 B( 69-C , 70-C ) :   1.0281 B( 69-C ,113-H ) :   0.9213
B( 69-C ,114-H ) :   0.9282 B( 70-C , 71-C ) :   2.0354 B( 70-C ,115-H ) :   0.9640
B( 71-C ,116-H ) :   0.9446 B( 71-C ,117-H ) :   0.9520

-----------------------------------------------------------------------------
         ABSORPTION SPECTRUM VIA TRANSITION ELECTRIC DIPOLE MOMENTS
-----------------------------------------------------------------------------
State   Energy  Wavelength   fosc         T2         TX        TY        TZ
        (cm-1)    (nm)                  (au**2)     (au)      (au)      (au)
-----------------------------------------------------------------------------
   0   14787.3    676.3   0.057844148   1.28779  -0.06483   0.60591  -0.95732
   1   16117.8    620.4   0.002163731   0.04419   0.15009   0.07807  -0.12480
   2   19712.4    507.3   1.707549408  28.51742  -3.74792   2.84654  -2.52343
   3   21448.1    466.2   0.003158844   0.04849  -0.12555  -0.10645   0.14625
   4   24509.7    408.0   0.021708722   0.29159  -0.47332   0.22534  -0.12955
   5   25887.5    386.3   0.079256363   1.00791   0.35396  -0.51849   0.78345
   6   27944.0    357.9   0.002535364   0.02987  -0.16180   0.05018  -0.03426
   7   29023.0    344.6   0.194558480   2.20691  -1.02828  -0.31486   1.02490
   8   29651.0    337.3   0.035283338   0.39175  -0.40500  -0.21437   0.42634
   9   29705.4    336.6   0.002674049   0.02964  -0.07416   0.09885  -0.11986
  10   29964.1    333.7   0.027724472   0.30461  -0.21362   0.33350  -0.38438
  11   30186.4    331.3   0.000108747   0.00119  -0.02787  -0.00812   0.01853
  12   30310.3    329.9   0.015286817   0.16604   0.31912  -0.18365   0.17455
  13   30405.2    328.9   0.013542588   0.14663   0.31176  -0.16702   0.14676
  14   30748.9    325.2   0.000707254   0.00757  -0.05044   0.05466   0.04517
  15   31027.2    322.3   0.074259701   0.78793  -0.65185  -0.07563   0.59774
  16   31278.2    319.7   0.016964450   0.17856   0.34815  -0.15940   0.17871
  17   31606.5    316.4   0.061700963   0.64267  -0.56728  -0.30837   0.47516
  18   31927.2    313.2   0.003532112   0.03642  -0.17449   0.07373  -0.02321
  19   32279.6    309.8   0.001173726   0.01197  -0.01316  -0.03710   0.10208
  20   32976.0    303.3   0.003925592   0.03919   0.04869  -0.18554   0.04893
  21   33201.7    301.2   0.015074789   0.14947   0.32374  -0.16953  -0.12621
  22   33493.0    298.6   0.059432695   0.58418  -0.13745   0.36971  -0.65468
  23   33627.6    297.4   0.002324077   0.02275   0.14736  -0.00309  -0.03206
  24   33668.9    297.0   0.028698555   0.28061  -0.28053  -0.12430   0.43181
  25   34195.1    292.4   0.016162380   0.15560  -0.06915  -0.26633   0.28265
  26   35386.3    282.6   0.344478900   3.20482   1.16049  -0.96675   0.96097
  27   35732.4    279.9   0.199308459   1.83628   0.62145   0.44057  -1.12070
  28   36143.6    276.7   0.000135948   0.00124   0.01847  -0.02990  -0.00179
  29   36329.2    275.3   0.033913761   0.30732   0.17925  -0.34860   0.39201
  30   36428.1    274.5   0.037660728   0.34035  -0.41196   0.41248  -0.02246
  31   36538.7    273.7   0.062310409   0.56141   0.57760   0.16596  -0.44749
  32   36602.1    273.2   0.051187407   0.46040   0.57033   0.06281  -0.36218
  33   37464.5    266.9   0.020241575   0.17787   0.31192   0.00599  -0.28379
  34   37605.3    265.9   0.000148389   0.00130   0.02911  -0.00523  -0.02060
  35   38485.3    259.8   0.008716870   0.07457   0.03684   0.11645  -0.24423
  36   38695.5    258.4   0.019008386   0.16172  -0.37527  -0.01705   0.14352
  37   38833.8    257.5   0.027318479   0.23159  -0.43938   0.03216   0.19365
  38   39182.1    255.2   0.000455498   0.00383  -0.02366   0.03520   0.04504
  39   39566.3    252.7   0.002488341   0.02070   0.06856  -0.11067   0.06130
  40   39821.3    251.1   0.000614163   0.00508   0.03571  -0.04332  -0.04388
  41   39952.0    250.3   0.000103984   0.00086  -0.01446  -0.01025   0.02329

FINAL SINGLE POINT ENERGY     -3917.583697009604

DIPOLE MOMENT
-------------
                                X             Y             Z
Electronic contribution:   -122.63643     -34.50374      74.69963
Nuclear contribution   :    122.50621      35.52286     -76.48469
                        -----------------------------------------
Total Dipole Moment    :     -0.13022       1.01912      -1.78506
                        -----------------------------------------
Magnitude (a.u.)       :      2.05961
Magnitude (Debye)      :      5.23511

Rotational constants in cm-1:     0.000823     0.000274     0.000209
Rotational constants in MHz :    24.671688     8.228605     6.259944

                             ****ORCA TERMINATED NORMALLY****
TOTAL RUN TIME: 0 days 0 hours 9 minutes 21 seconds 919 msec
