                         Program Version 4.2.0 -  RELEASE  -
|  1> # ORCA input file
|  2> # SCF done       -180.717823858910          0.000734898380
|  3> ! CAM-B3LYP def2-SVP def2/J RIJCOSX Grid4 TightSCF
|  4> %maxcore 5000
|  5> %tddft
|  6>     Mode sTDDFT
|  7>     Ethresh 5.0
|  8>     maxcore 5000
|  9> end
| 10>
| 11> %pal
| 12>   nprocs 6
| 13>   end
| 14> * xyz 0 1
| 15>    C        3.48308         2.75328        -7.60401
| 16>    C        4.31041         1.65548        -7.70624
| 17>    F        5.11508         1.55182        -8.78566
| 18>    C        4.34779         0.65935        -6.74604
| 19>    C        3.51893         0.78450        -5.64371
| 20>    C        2.68110         1.87525        -5.51846
| 21>    C        2.64258         2.87643        -6.49490
| 22>    C        1.74810         4.00174        -6.30868
| 23>    C        1.50668         4.98450        -7.19122
| 24>    C        0.56055         6.04969        -6.96893
| 25>    C       -0.33929         6.46497        -7.90334
| 26>    C       -1.24922         7.41065        -7.29152
| 27>    C       -2.34627         8.02724        -7.89750
| 28>    N       -3.23946         8.58428        -8.36026
| 29>    C       -0.85625         7.62395        -5.99845
| 30>    C        0.34932         6.87258        -5.75998
| 31>    C        1.22072         7.10688        -4.72266
| 32>    C        1.05718         8.18152        -3.70874
| 33>    C        1.92592         7.91879        -2.69062
| 34>    C        2.72462         6.77249        -3.05719
| 35>    C        2.34100         6.32307        -4.29576
| 36>    C        3.74426         6.23264        -2.26320
| 37>    N        4.57175         5.79042        -1.60097
| 38>    C        0.24756         9.34274        -3.89230
| 39>    C       -0.28278        10.10187        -2.90816
| 40>    C       -1.13928        11.23856        -3.11654
| 41>    C       -1.67957        11.54933        -4.35240
| 42>    C       -2.55139        12.63729        -4.49002
| 43>    C       -3.22264        13.12792        -5.61087
| 44>    C       -3.12915        12.59505        -6.99635
| 45>    C       -4.48642        12.05732        -7.49884
| 46>    N       -4.81000        10.83510        -6.78985
| 47>    C       -2.54285        13.64775        -7.95584
| 48>    N       -1.17758        13.93648        -7.55798
| 49>    C       -3.99425        14.26486        -5.16385
| 50>    C       -4.84481        15.09138        -5.80575
| 51>    C       -5.50123        16.23504        -5.11528
| 52>    C       -5.23054        16.32221        -3.64996
| 53>    C       -4.39110        15.48219        -3.01369
| 54>    C       -3.74919        14.44234        -3.72365
| 55>    C       -2.87544        13.44543        -3.32755
| 56>    C       -2.31121        13.11579        -2.07564
| 57>    C       -1.48151        12.04417        -1.98191
| 58>    C       -5.00922        17.51205        -5.76330
| 59>    C       -5.79651        18.35753        -6.42809
| 60>    C       -5.35199        19.60178        -7.00660
| 61>    C       -4.34799        20.40088        -6.55838
| 62>    C       -4.34899        21.62721        -7.33564
| 63>    C       -3.42008        22.66064        -7.16677
| 64>    N       -2.64771        23.49594        -7.00970
| 65>    C       -5.38497        21.59120        -8.22893
| 66>    C       -6.03472        20.31487        -8.10352
| 67>    C       -6.99344        19.79404        -8.93808
| 68>    C       -7.86655        20.52703        -9.87886
| 69>    C       -8.52933        19.59996       -10.62662
| 70>    C       -8.11464        18.27904       -10.20574
| 71>    C       -7.22895        18.39712        -9.16668
| 72>    C       -8.56269        17.08344       -10.77895
| 73>    N       -8.93508        16.10128       -11.24387
| 74>    C       -8.06095        21.94849        -9.87286
| 75>    C       -8.63685        22.63350       -10.87582
| 76>    C       -8.84069        24.07295       -10.89316
| 77>    C       -7.91913        24.95995       -10.33341
| 78>    F       -6.80335        24.47459        -9.74023
| 79>    C       -8.06080        26.33124       -10.39169
| 80>    C       -9.16866        26.86130       -11.03015
| 81>    C      -10.10349        26.01718       -11.59902
| 82>    C       -9.95798        24.63444       -11.54441
| 83>    C      -10.99012        23.76239       -12.10562
| 84>    C      -11.70111        24.03883       -13.19047
| 85>    H        3.50737         3.49920        -8.38168
| 86>    H        5.01170        -0.18130        -6.86674
| 87>    H        3.53146         0.02436        -4.87766
| 88>    H        2.04185         1.96071        -4.65194
| 89>    H        1.21265         4.00851        -5.36687
| 90>    H        1.93841         4.94811        -8.18268
| 91>    H       -0.42694         6.10799        -8.91281
| 92>    H       -1.38881         8.20458        -5.27140
| 93>    H        2.08213         8.50052        -1.80191
| 94>    H        2.77985         5.50078        -4.82333
| 95>    H        0.09454         9.63656        -4.92079
| 96>    H       -0.09309         9.82973        -1.87788
| 97>    H       -1.46155        10.94853        -5.22062
| 98>    H       -2.43135        11.75329        -6.99576
| 99>    H       -4.41482        11.91933        -8.58984
|100>    H       -5.27584        12.78493        -7.29921
|101>    H       -4.23000        10.07237        -7.13055
|102>    H       -5.77505        10.57362        -6.95479
|103>    H       -3.19125        14.53858        -7.97579
|104>    H       -2.51062        13.22978        -8.96571
|105>    H       -1.15974        14.35979        -6.63577
|106>    H       -0.73733        14.57402        -8.21105
|107>    H       -5.06818        14.98973        -6.85844
|108>    H       -6.58516        16.17328        -5.28434
|109>    H       -5.72501        17.12640        -3.12679
|110>    H       -4.20770        15.58332        -1.95383
|111>    H       -2.54857        13.71232        -1.20711
|112>    H       -1.04932        11.77705        -1.02823
|113>    H       -3.95151        17.70167        -5.65333
|114>    H       -6.85016        18.13285        -6.53732
|115>    H       -3.67847        20.21012        -5.74070
|116>    H       -5.59262        22.33475        -8.97260
|117>    H       -9.27007        19.77645       -11.38348
|118>    H       -6.70126        17.58907        -8.69834
|119>    H       -7.74795        22.46689        -8.97905
|120>    H       -8.97169        22.10445       -11.75747
|121>    H       -7.30627        26.95938        -9.94568
|122>    H       -9.30049        27.93097       -11.07934
|123>    H      -10.97786        26.43241       -12.07569
|124>    H      -11.16372        22.83685       -11.57294
|125>    H      -11.54134        24.93445       -13.76669
|126>    H      -12.45855        23.36646       -13.55419
|127> *
|128>
|129>                          ****END OF INPUT****

CARTESIAN COORDINATES (ANGSTROEM)
---------------------------------
  C      3.483080    2.753280   -7.604010
  C      4.310410    1.655480   -7.706240
  F      5.115080    1.551820   -8.785660
  C      4.347790    0.659350   -6.746040
  C      3.518930    0.784500   -5.643710
  C      2.681100    1.875250   -5.518460
  C      2.642580    2.876430   -6.494900
  C      1.748100    4.001740   -6.308680
  C      1.506680    4.984500   -7.191220
  C      0.560550    6.049690   -6.968930
  C     -0.339290    6.464970   -7.903340
  C     -1.249220    7.410650   -7.291520
  C     -2.346270    8.027240   -7.897500
  N     -3.239460    8.584280   -8.360260
  C     -0.856250    7.623950   -5.998450
  C      0.349320    6.872580   -5.759980
  C      1.220720    7.106880   -4.722660
  C      1.057180    8.181520   -3.708740
  C      1.925920    7.918790   -2.690620
  C      2.724620    6.772490   -3.057190
  C      2.341000    6.323070   -4.295760
  C      3.744260    6.232640   -2.263200
  N      4.571750    5.790420   -1.600970
  C      0.247560    9.342740   -3.892300
  C     -0.282780   10.101870   -2.908160
  C     -1.139280   11.238560   -3.116540
  C     -1.679570   11.549330   -4.352400
  C     -2.551390   12.637290   -4.490020
  C     -3.222640   13.127920   -5.610870
  C     -3.129150   12.595050   -6.996350
  C     -4.486420   12.057320   -7.498840
  N     -4.810000   10.835100   -6.789850
  C     -2.542850   13.647750   -7.955840
  N     -1.177580   13.936480   -7.557980
  C     -3.994250   14.264860   -5.163850
  C     -4.844810   15.091380   -5.805750
  C     -5.501230   16.235040   -5.115280
  C     -5.230540   16.322210   -3.649960
  C     -4.391100   15.482190   -3.013690
  C     -3.749190   14.442340   -3.723650
  C     -2.875440   13.445430   -3.327550
  C     -2.311210   13.115790   -2.075640
  C     -1.481510   12.044170   -1.981910
  C     -5.009220   17.512050   -5.763300
  C     -5.796510   18.357530   -6.428090
  C     -5.351990   19.601780   -7.006600
  C     -4.347990   20.400880   -6.558380
  C     -4.348990   21.627210   -7.335640
  C     -3.420080   22.660640   -7.166770
  N     -2.647710   23.495940   -7.009700
  C     -5.384970   21.591200   -8.228930
  C     -6.034720   20.314870   -8.103520
  C     -6.993440   19.794040   -8.938080
  C     -7.866550   20.527030   -9.878860
  C     -8.529330   19.599960  -10.626620
  C     -8.114640   18.279040  -10.205740
  C     -7.228950   18.397120   -9.166680
  C     -8.562690   17.083440  -10.778950
  N     -8.935080   16.101280  -11.243870
  C     -8.060950   21.948490   -9.872860
  C     -8.636850   22.633500  -10.875820
  C     -8.840690   24.072950  -10.893160
  C     -7.919130   24.959950  -10.333410
  F     -6.803350   24.474590   -9.740230
  C     -8.060800   26.331240  -10.391690
  C     -9.168660   26.861300  -11.030150
  C    -10.103490   26.017180  -11.599020
  C     -9.957980   24.634440  -11.544410
  C    -10.990120   23.762390  -12.105620
  C    -11.701110   24.038830  -13.190470
  H      3.507370    3.499200   -8.381680
  H      5.011700   -0.181300   -6.866740
  H      3.531460    0.024360   -4.877660
  H      2.041850    1.960710   -4.651940
  H      1.212650    4.008510   -5.366870
  H      1.938410    4.948110   -8.182680
  H     -0.426940    6.107990   -8.912810
  H     -1.388810    8.204580   -5.271400
  H      2.082130    8.500520   -1.801910
  H      2.779850    5.500780   -4.823330
  H      0.094540    9.636560   -4.920790
  H     -0.093090    9.829730   -1.877880
  H     -1.461550   10.948530   -5.220620
  H     -2.431350   11.753290   -6.995760
  H     -4.414820   11.919330   -8.589840
  H     -5.275840   12.784930   -7.299210
  H     -4.230000   10.072370   -7.130550
  H     -5.775050   10.573620   -6.954790
  H     -3.191250   14.538580   -7.975790
  H     -2.510620   13.229780   -8.965710
  H     -1.159740   14.359790   -6.635770
  H     -0.737330   14.574020   -8.211050
  H     -5.068180   14.989730   -6.858440
  H     -6.585160   16.173280   -5.284340
  H     -5.725010   17.126400   -3.126790
  H     -4.207700   15.583320   -1.953830
  H     -2.548570   13.712320   -1.207110
  H     -1.049320   11.777050   -1.028230
  H     -3.951510   17.701670   -5.653330
  H     -6.850160   18.132850   -6.537320
  H     -3.678470   20.210120   -5.740700
  H     -5.592620   22.334750   -8.972600
  H     -9.270070   19.776450  -11.383480
  H     -6.701260   17.589070   -8.698340
  H     -7.747950   22.466890   -8.979050
  H     -8.971690   22.104450  -11.757470
  H     -7.306270   26.959380   -9.945680
  H     -9.300490   27.930970  -11.079340
  H    -10.977860   26.432410  -12.075690
  H    -11.163720   22.836850  -11.572940
  H    -11.541340   24.934450  -13.766690
  H    -12.458550   23.366460  -13.554190

 Total Charge           Charge          ....    0
 Multiplicity           Mult            ....    1
 Number of Electrons    NEL             ....  474
 Basis Dimension        Dim             .... 1190

ORBITAL ENERGIES
----------------

  NO   OCC          E(Eh)            E(eV)
   0   2.0000     -24.787154      -674.4928
   1   2.0000     -24.773368      -674.1176
   2   2.0000     -14.418829      -392.3563
   3   2.0000     -14.415171      -392.2568
   4   2.0000     -14.412700      -392.1895
   5   2.0000     -14.409442      -392.1009
   6   2.0000     -14.369716      -391.0199
   7   2.0000     -14.354848      -390.6153
   8   2.0000     -10.360773      -281.9310
   9   2.0000     -10.355425      -281.7854
  10   2.0000     -10.326699      -281.0038
  11   2.0000     -10.325605      -280.9740
  12   2.0000     -10.325530      -280.9720
  13   2.0000     -10.324030      -280.9311
  14   2.0000     -10.322354      -280.8855
  15   2.0000     -10.321223      -280.8548
  16   2.0000     -10.320316      -280.8301
  17   2.0000     -10.319833      -280.8169
  18   2.0000     -10.319217      -280.8002
  19   2.0000     -10.313396      -280.6418
  20   2.0000     -10.310879      -280.5733
  21   2.0000     -10.307505      -280.4815
  22   2.0000     -10.302904      -280.3563
  23   2.0000     -10.300399      -280.2881
  24   2.0000     -10.299202      -280.2555
  25   2.0000     -10.298567      -280.2382
  26   2.0000     -10.298220      -280.2288
  27   2.0000     -10.298013      -280.2232
  28   2.0000     -10.297174      -280.2004
  29   2.0000     -10.297125      -280.1990
  30   2.0000     -10.296184      -280.1734
  31   2.0000     -10.296105      -280.1713
  32   2.0000     -10.294574      -280.1296
  33   2.0000     -10.293224      -280.0929
  34   2.0000     -10.292613      -280.0762
  35   2.0000     -10.292305      -280.0679
  36   2.0000     -10.291949      -280.0582
  37   2.0000     -10.290993      -280.0322
  38   2.0000     -10.289729      -279.9977
  39   2.0000     -10.289548      -279.9928
  40   2.0000     -10.289322      -279.9867
  41   2.0000     -10.288725      -279.9704
  42   2.0000     -10.288110      -279.9537
  43   2.0000     -10.288101      -279.9535
  44   2.0000     -10.285132      -279.8727
  45   2.0000     -10.283556      -279.8298
  46   2.0000     -10.282175      -279.7922
  47   2.0000     -10.281918      -279.7852
  48   2.0000     -10.281545      -279.7751
  49   2.0000     -10.280376      -279.7432
  50   2.0000     -10.279196      -279.7111
  51   2.0000     -10.278492      -279.6920
  52   2.0000     -10.278180      -279.6835
  53   2.0000     -10.276445      -279.6363
  54   2.0000     -10.276106      -279.6271
  55   2.0000     -10.276076      -279.6262
  56   2.0000     -10.275974      -279.6235
  57   2.0000     -10.274911      -279.5946
  58   2.0000     -10.274070      -279.5717
  59   2.0000     -10.273083      -279.5448
  60   2.0000     -10.270123      -279.4642
  61   2.0000     -10.269848      -279.4568
  62   2.0000     -10.269001      -279.4337
  63   2.0000     -10.267387      -279.3898
  64   2.0000     -10.266080      -279.3542
  65   2.0000     -10.261144      -279.2199
  66   2.0000     -10.260466      -279.2015
  67   2.0000     -10.260307      -279.1971
  68   2.0000     -10.258963      -279.1606
  69   2.0000     -10.254594      -279.0417
  70   2.0000      -1.299258       -35.3546
  71   2.0000      -1.286976       -35.0204
  72   2.0000      -1.016452       -27.6591
  73   2.0000      -1.013199       -27.5705
  74   2.0000      -1.003869       -27.3167
  75   2.0000      -1.002514       -27.2798
  76   2.0000      -0.991359       -26.9762
  77   2.0000      -0.990786       -26.9607
  78   2.0000      -0.982388       -26.7321
  79   2.0000      -0.980166       -26.6717
  80   2.0000      -0.976329       -26.5673
  81   2.0000      -0.970936       -26.4205
  82   2.0000      -0.964305       -26.2401
  83   2.0000      -0.955184       -25.9919
  84   2.0000      -0.947106       -25.7721
  85   2.0000      -0.936965       -25.4961
  86   2.0000      -0.920176       -25.0393
  87   2.0000      -0.908292       -24.7159
  88   2.0000      -0.906146       -24.6575
  89   2.0000      -0.894127       -24.3304
  90   2.0000      -0.889731       -24.2108
  91   2.0000      -0.883743       -24.0479
  92   2.0000      -0.879300       -23.9270
  93   2.0000      -0.874404       -23.7937
  94   2.0000      -0.863336       -23.4926
  95   2.0000      -0.856606       -23.3094
  96   2.0000      -0.854270       -23.2459
  97   2.0000      -0.839686       -22.8490
  98   2.0000      -0.837259       -22.7830
  99   2.0000      -0.832077       -22.6420
 100   2.0000      -0.824167       -22.4267
 101   2.0000      -0.821507       -22.3544
 102   2.0000      -0.810187       -22.0463
 103   2.0000      -0.809432       -22.0258
 104   2.0000      -0.806489       -21.9457
 105   2.0000      -0.799274       -21.7493
 106   2.0000      -0.795700       -21.6521
 107   2.0000      -0.782313       -21.2878
 108   2.0000      -0.755941       -20.5702
 109   2.0000      -0.745302       -20.2807
 110   2.0000      -0.737639       -20.0722
 111   2.0000      -0.736708       -20.0468
 112   2.0000      -0.726315       -19.7640
 113   2.0000      -0.725144       -19.7322
 114   2.0000      -0.721239       -19.6259
 115   2.0000      -0.711184       -19.3523
 116   2.0000      -0.704664       -19.1749
 117   2.0000      -0.702821       -19.1247
 118   2.0000      -0.698642       -19.0110
 119   2.0000      -0.689500       -18.7622
 120   2.0000      -0.679365       -18.4864
 121   2.0000      -0.677270       -18.4295
 122   2.0000      -0.672342       -18.2954
 123   2.0000      -0.667140       -18.1538
 124   2.0000      -0.660653       -17.9773
 125   2.0000      -0.650956       -17.7134
 126   2.0000      -0.647187       -17.6108
 127   2.0000      -0.640434       -17.4271
 128   2.0000      -0.639362       -17.3979
 129   2.0000      -0.633276       -17.2323
 130   2.0000      -0.631489       -17.1837
 131   2.0000      -0.625255       -17.0141
 132   2.0000      -0.623283       -16.9604
 133   2.0000      -0.617545       -16.8043
 134   2.0000      -0.611676       -16.6445
 135   2.0000      -0.609293       -16.5797
 136   2.0000      -0.597640       -16.2626
 137   2.0000      -0.593697       -16.1553
 138   2.0000      -0.592515       -16.1232
 139   2.0000      -0.587571       -15.9886
 140   2.0000      -0.579208       -15.7610
 141   2.0000      -0.578029       -15.7290
 142   2.0000      -0.576668       -15.6919
 143   2.0000      -0.571231       -15.5440
 144   2.0000      -0.569574       -15.4989
 145   2.0000      -0.562900       -15.3173
 146   2.0000      -0.557771       -15.1777
 147   2.0000      -0.556632       -15.1467
 148   2.0000      -0.550479       -14.9793
 149   2.0000      -0.548377       -14.9221
 150   2.0000      -0.548084       -14.9141
 151   2.0000      -0.545372       -14.8403
 152   2.0000      -0.540799       -14.7159
 153   2.0000      -0.535867       -14.5817
 154   2.0000      -0.533507       -14.5175
 155   2.0000      -0.528945       -14.3933
 156   2.0000      -0.527595       -14.3566
 157   2.0000      -0.524079       -14.2609
 158   2.0000      -0.522403       -14.2153
 159   2.0000      -0.520440       -14.1619
 160   2.0000      -0.518782       -14.1168
 161   2.0000      -0.517614       -14.0850
 162   2.0000      -0.517309       -14.0767
 163   2.0000      -0.515771       -14.0348
 164   2.0000      -0.513154       -13.9636
 165   2.0000      -0.511817       -13.9273
 166   2.0000      -0.510154       -13.8820
 167   2.0000      -0.509411       -13.8618
 168   2.0000      -0.507125       -13.7996
 169   2.0000      -0.500986       -13.6325
 170   2.0000      -0.498129       -13.5548
 171   2.0000      -0.497557       -13.5392
 172   2.0000      -0.495144       -13.4736
 173   2.0000      -0.494335       -13.4515
 174   2.0000      -0.492394       -13.3987
 175   2.0000      -0.490699       -13.3526
 176   2.0000      -0.487010       -13.2522
 177   2.0000      -0.485538       -13.2122
 178   2.0000      -0.483852       -13.1663
 179   2.0000      -0.479183       -13.0392
 180   2.0000      -0.478048       -13.0084
 181   2.0000      -0.474891       -12.9224
 182   2.0000      -0.473795       -12.8926
 183   2.0000      -0.466836       -12.7033
 184   2.0000      -0.462015       -12.5721
 185   2.0000      -0.461143       -12.5483
 186   2.0000      -0.456326       -12.4173
 187   2.0000      -0.455093       -12.3837
 188   2.0000      -0.453960       -12.3529
 189   2.0000      -0.452982       -12.3263
 190   2.0000      -0.452584       -12.3154
 191   2.0000      -0.451054       -12.2738
 192   2.0000      -0.446636       -12.1536
 193   2.0000      -0.445627       -12.1261
 194   2.0000      -0.443823       -12.0770
 195   2.0000      -0.443419       -12.0660
 196   2.0000      -0.442438       -12.0394
 197   2.0000      -0.441391       -12.0109
 198   2.0000      -0.440023       -11.9736
 199   2.0000      -0.439479       -11.9588
 200   2.0000      -0.437312       -11.8999
 201   2.0000      -0.430890       -11.7251
 202   2.0000      -0.429293       -11.6817
 203   2.0000      -0.427175       -11.6240
 204   2.0000      -0.426113       -11.5951
 205   2.0000      -0.425248       -11.5716
 206   2.0000      -0.418374       -11.3845
 207   2.0000      -0.416993       -11.3470
 208   2.0000      -0.413429       -11.2500
 209   2.0000      -0.413419       -11.2497
 210   2.0000      -0.411211       -11.1896
 211   2.0000      -0.409138       -11.1332
 212   2.0000      -0.407097       -11.0777
 213   2.0000      -0.405019       -11.0211
 214   2.0000      -0.389832       -10.6079
 215   2.0000      -0.388183       -10.5630
 216   2.0000      -0.386956       -10.5296
 217   2.0000      -0.385268       -10.4837
 218   2.0000      -0.376043       -10.2327
 219   2.0000      -0.372963       -10.1488
 220   2.0000      -0.367057        -9.9881
 221   2.0000      -0.361738        -9.8434
 222   2.0000      -0.335159        -9.1201
 223   2.0000      -0.333607        -9.0779
 224   2.0000      -0.329376        -8.9628
 225   2.0000      -0.326347        -8.8804
 226   2.0000      -0.325276        -8.8512
 227   2.0000      -0.319772        -8.7014
 228   2.0000      -0.313203        -8.5227
 229   2.0000      -0.306789        -8.3482
 230   2.0000      -0.294417        -8.0115
 231   2.0000      -0.291025        -7.9192
 232   2.0000      -0.281600        -7.6627
 233   2.0000      -0.278381        -7.5751
 234   2.0000      -0.275659        -7.5011
 235   2.0000      -0.267468        -7.2782
 236   2.0000      -0.216844        -5.9006
 237   0.0000      -0.126379        -3.4389
 238   0.0000      -0.119213        -3.2440
 239   0.0000      -0.070654        -1.9226
 240   0.0000      -0.030294        -0.8243
 241   0.0000      -0.028487        -0.7752

MULLIKEN ATOMIC CHARGES
-----------------------
   0 C :   -0.079328
   1 C :    0.292310
   2 F :   -0.200624
   3 C :   -0.049527
   4 C :    0.033992
   5 C :   -0.017899
   6 C :    0.087713
   7 C :   -0.007593
   8 C :   -0.016888
   9 C :    0.072499
  10 C :    0.001334
  11 C :   -0.112694
  12 C :   -0.059787
  13 N :    0.086888
  14 C :   -0.065724
  15 C :    0.033785
  16 C :    0.073021
  17 C :    0.080014
  18 C :   -0.021654
  19 C :   -0.100542
  20 C :   -0.037463
  21 C :   -0.129986
  22 N :    0.137419
  23 C :   -0.038909
  24 C :   -0.005221
  25 C :    0.104454
  26 C :   -0.061443
  27 C :    0.059987
  28 C :   -0.019262
  29 C :   -0.049577
  30 C :    0.165990
  31 N :   -0.222911
  32 C :    0.149990
  33 N :   -0.225083
  34 C :    0.105792
  35 C :   -0.139754
  36 C :    0.125272
  37 C :   -0.048567
  38 C :    0.024906
  39 C :    0.000098
  40 C :    0.034161
  41 C :   -0.001451
  42 C :   -0.011267
  43 C :   -0.038540
  44 C :   -0.015594
  45 C :    0.080520
  46 C :   -0.023299
  47 C :   -0.104738
  48 C :   -0.127773
  49 N :    0.140714
  50 C :   -0.029007
  51 C :    0.050822
  52 C :    0.053742
  53 C :    0.079102
  54 C :   -0.028272
  55 C :   -0.096244
  56 C :   -0.041273
  57 C :   -0.133104
  58 N :    0.143751
  59 C :   -0.001972
  60 C :   -0.043088
  61 C :    0.024997
  62 C :    0.213906
  63 F :   -0.196150
  64 C :   -0.036837
  65 C :    0.034752
  66 C :   -0.027137
  67 C :    0.063715
  68 C :   -0.048089
  69 C :   -0.009670
  70 H :   -0.016614
  71 H :   -0.002074
  72 H :   -0.001941
  73 H :   -0.019661
  74 H :    0.000644
  75 H :    0.004521
  76 H :   -0.012375
  77 H :    0.030617
  78 H :   -0.011745
  79 H :    0.003731
  80 H :    0.030755
  81 H :   -0.016738
  82 H :   -0.052701
  83 H :   -0.019761
  84 H :   -0.014454
  85 H :   -0.027219
  86 H :    0.081011
  87 H :    0.086328
  88 H :   -0.034033
  89 H :   -0.006730
  90 H :    0.096668
  91 H :    0.088813
  92 H :    0.007296
  93 H :    0.024348
  94 H :   -0.012051
  95 H :   -0.034421
  96 H :   -0.038536
  97 H :   -0.031735
  98 H :    0.010362
  99 H :    0.006290
 100 H :   -0.005558
 101 H :    0.006260
 102 H :   -0.008657
 103 H :   -0.000476
 104 H :    0.009734
 105 H :    0.011765
 106 H :   -0.002687
 107 H :   -0.003675
 108 H :   -0.020925
 109 H :    0.010876
 110 H :    0.024308
 111 H :    0.028737
Sum of atomic charges:   -0.0000000

LOEWDIN ATOMIC CHARGES
----------------------
   0 C :   -0.043458
   1 C :    0.091308
   2 F :   -0.075470
   3 C :   -0.046828
   4 C :   -0.006692
   5 C :   -0.028105
   6 C :   -0.021949
   7 C :   -0.009862
   8 C :   -0.019992
   9 C :   -0.022244
  10 C :   -0.000415
  11 C :   -0.064866
  12 C :   -0.006745
  13 N :   -0.058207
  14 C :    0.005893
  15 C :    0.026577
  16 C :    0.049093
  17 C :   -0.018620
  18 C :   -0.010228
  19 C :   -0.044566
  20 C :   -0.015697
  21 C :   -0.029096
  22 N :   -0.043945
  23 C :   -0.032847
  24 C :    0.006976
  25 C :   -0.036757
  26 C :    0.011043
  27 C :   -0.015160
  28 C :   -0.015599
  29 C :   -0.039789
  30 C :    0.028890
  31 N :   -0.123403
  32 C :    0.026066
  33 N :   -0.119486
  34 C :   -0.015192
  35 C :    0.063065
  36 C :   -0.028954
  37 C :   -0.039704
  38 C :   -0.013688
  39 C :   -0.038829
  40 C :   -0.028036
  41 C :   -0.010936
  42 C :   -0.026214
  43 C :    0.015264
  44 C :   -0.044720
  45 C :   -0.029238
  46 C :    0.009265
  47 C :   -0.048720
  48 C :   -0.029620
  49 N :   -0.041091
  50 C :   -0.001558
  51 C :    0.041332
  52 C :    0.036556
  53 C :   -0.026232
  54 C :    0.004994
  55 C :   -0.050360
  56 C :   -0.006856
  57 C :   -0.031451
  58 N :   -0.042158
  59 C :   -0.019783
  60 C :   -0.005994
  61 C :   -0.054388
  62 C :    0.095712
  63 F :   -0.069906
  64 C :   -0.048834
  65 C :   -0.008944
  66 C :   -0.023752
  67 C :   -0.010952
  68 C :   -0.024340
  69 C :   -0.029437
  70 H :    0.033907
  71 H :    0.038392
  72 H :    0.034248
  73 H :    0.029006
  74 H :    0.030780
  75 H :    0.032943
  76 H :    0.032223
  77 H :    0.039926
  78 H :    0.030594
  79 H :    0.035043
  80 H :    0.032009
  81 H :    0.028227
  82 H :    0.023132
  83 H :    0.027003
  84 H :    0.000174
  85 H :    0.009211
  86 H :    0.039897
  87 H :    0.053101
  88 H :   -0.007447
  89 H :    0.016401
  90 H :    0.051311
  91 H :    0.052792
  92 H :    0.026993
  93 H :    0.052933
  94 H :    0.024487
  95 H :    0.030392
  96 H :    0.026635
  97 H :    0.024274
  98 H :    0.029566
  99 H :    0.030458
 100 H :    0.033076
 101 H :    0.035405
 102 H :    0.031316
 103 H :    0.033493
 104 H :    0.030495
 105 H :    0.031307
 106 H :    0.039537
 107 H :    0.033358
 108 H :    0.029219
 109 H :    0.030494
 110 H :    0.023900
 111 H :    0.027667

  Mayer bond orders larger than 0.100000
B(  0-C ,  1-C ) :   1.3764 B(  0-C ,  6-C ) :   1.3192 B(  0-C , 70-H ) :   0.9914
B(  1-C ,  2-F ) :   1.0840 B(  1-C ,  3-C ) :   1.3667 B(  3-C ,  4-C ) :   1.3613
B(  3-C , 71-H ) :   0.9943 B(  4-C ,  5-C ) :   1.3858 B(  4-C , 72-H ) :   0.9870
B(  5-C ,  6-C ) :   1.3534 B(  5-C , 73-H ) :   1.0004 B(  6-C ,  7-C ) :   1.0665
B(  7-C ,  8-C ) :   1.7559 B(  7-C , 74-H ) :   0.9811 B(  8-C ,  9-C ) :   1.0447
B(  8-C , 75-H ) :   0.9560 B(  9-C , 10-C ) :   1.6316 B(  9-C , 15-C ) :   1.0576
B( 10-C , 11-C ) :   1.0883 B( 10-C , 76-H ) :   1.0196 B( 11-C , 12-C ) :   1.0716
B( 11-C , 14-C ) :   1.6313 B( 12-C , 13-N ) :   2.9135 B( 14-C , 15-C ) :   1.0678
B( 14-C , 77-H ) :   1.0122 B( 15-C , 16-C ) :   1.5333 B( 16-C , 17-C ) :   1.0287
B( 16-C , 20-C ) :   1.0736 B( 17-C , 18-C ) :   1.6302 B( 17-C , 23-C ) :   1.0647
B( 18-C , 19-C ) :   1.0933 B( 18-C , 78-H ) :   1.0161 B( 19-C , 20-C ) :   1.6228
B( 19-C , 21-C ) :   1.0610 B( 20-C , 79-H ) :   1.0192 B( 21-C , 22-N ) :   3.0375
B( 23-C , 24-C ) :   1.7005 B( 23-C , 80-H ) :   0.9512 B( 24-C , 25-C ) :   1.0712
B( 24-C , 81-H ) :   0.9876 B( 25-C , 26-C ) :   1.4975 B( 25-C , 42-C ) :   1.1176
B( 26-C , 27-C ) :   1.1777 B( 26-C , 82-H ) :   0.9803 B( 27-C , 28-C ) :   1.4642
B( 27-C , 40-C ) :   1.1175 B( 28-C , 29-C ) :   1.0321 B( 28-C , 34-C ) :   1.0891
B( 29-C , 30-C ) :   1.0325 B( 29-C , 32-C ) :   1.0268 B( 29-C , 83-H ) :   0.8839
B( 30-C , 31-N ) :   1.0977 B( 30-C , 84-H ) :   0.9344 B( 30-C , 85-H ) :   0.9352
B( 31-N , 86-H ) :   0.9666 B( 31-N , 87-H ) :   0.9664 B( 32-C , 33-N ) :   1.0955
B( 32-C , 88-H ) :   0.9357 B( 32-C , 89-H ) :   0.9315 B( 33-N , 90-H ) :   0.9707
B( 33-N , 91-H ) :   0.9677 B( 34-C , 35-C ) :   1.6391 B( 34-C , 39-C ) :   1.0486
B( 35-C , 36-C ) :   0.9773 B( 35-C , 92-H ) :   0.9661 B( 36-C , 37-C ) :   0.9873
B( 36-C , 43-C ) :   0.9502 B( 36-C , 93-H ) :   0.8767 B( 37-C , 38-C ) :   1.7004
B( 37-C , 94-H ) :   0.9751 B( 38-C , 39-C ) :   1.1394 B( 38-C , 95-H ) :   0.9888
B( 39-C , 40-C ) :   1.4317 B( 40-C , 41-C ) :   1.1446 B( 41-C , 42-C ) :   1.6011
B( 41-C , 96-H ) :   0.9903 B( 42-C , 97-H ) :   0.9900 B( 43-C , 44-C ) :   1.8204
B( 43-C , 98-H ) :   0.9692 B( 44-C , 45-C ) :   1.0247 B( 44-C , 99-H ) :   0.9587
B( 45-C , 46-C ) :   1.6475 B( 45-C , 51-C ) :   1.0525 B( 46-C , 47-C ) :   1.0769
B( 46-C ,100-H ) :   1.0168 B( 47-C , 48-C ) :   1.0627 B( 47-C , 50-C ) :   1.6424
B( 48-C , 49-N ) :   3.0370 B( 50-C , 51-C ) :   1.0723 B( 50-C ,101-H ) :   1.0132
B( 51-C , 52-C ) :   1.4889 B( 52-C , 53-C ) :   1.0453 B( 52-C , 56-C ) :   1.0827
B( 53-C , 54-C ) :   1.6158 B( 53-C , 59-C ) :   1.0698 B( 54-C , 55-C ) :   1.0953
B( 54-C ,102-H ) :   1.0134 B( 55-C , 56-C ) :   1.6287 B( 55-C , 57-C ) :   1.0572
B( 56-C ,103-H ) :   1.0155 B( 57-C , 58-N ) :   3.0405 B( 59-C , 60-C ) :   1.7670
B( 59-C ,104-H ) :   0.9654 B( 60-C , 61-C ) :   1.0351 B( 60-C ,105-H ) :   0.9565
B( 61-C , 62-C ) :   1.3263 B( 61-C , 67-C ) :   1.3361 B( 62-C , 63-F ) :   1.0672
B( 62-C , 64-C ) :   1.3951 B( 64-C , 65-C ) :   1.3402 B( 64-C ,106-H ) :   0.9939
B( 65-C , 66-C ) :   1.3766 B( 65-C ,107-H ) :   0.9922 B( 66-C , 67-C ) :   1.3863
B( 66-C ,108-H ) :   0.9948 B( 67-C , 68-C ) :   1.0346 B( 68-C , 69-C ) :   1.9756
B( 68-C ,109-H ) :   0.9536 B( 69-C ,110-H ) :   0.9591 B( 69-C ,111-H ) :   0.9513

-----------------------------------------------------------------------------
         ABSORPTION SPECTRUM VIA TRANSITION ELECTRIC DIPOLE MOMENTS
-----------------------------------------------------------------------------
State   Energy  Wavelength   fosc         T2         TX        TY        TZ
        (cm-1)    (nm)                  (au**2)     (au)      (au)      (au)
-----------------------------------------------------------------------------
   0    6800.3   1470.5   0.111740502   5.40951  -1.12233   2.03460  -0.10135
   1    7577.0   1319.8   0.012388851   0.53828  -0.10988   0.26655  -0.67465
   2   12899.7    775.2   0.082629711   2.10879  -0.56307   1.10771   0.75148
   3   13086.9    764.1   0.058580126   1.47364   0.59893  -0.57640   0.88469
   4   14367.7    696.0   0.009508463   0.21787   0.07730  -0.44781  -0.10659
   5   15191.2    658.3   0.019793917   0.42896  -0.33143   0.53421   0.18364
   6   15475.3    646.2   0.014873941   0.31642  -0.24654   0.10036  -0.49555
   7   19750.7    506.3   0.000384891   0.00642  -0.02786   0.07344   0.01567
   8   21134.6    473.2   0.002395924   0.03732  -0.11588   0.14892   0.04143
   9   22467.0    445.1   0.000100945   0.00148   0.01441   0.03372  -0.01160
  10   23565.1    424.4   0.006378536   0.08911   0.12690  -0.19335   0.18874
  11   23769.0    420.7   0.026526306   0.36740  -0.26676   0.45766  -0.29460
  12   24528.0    407.7   0.006273127   0.08420  -0.19957   0.17421  -0.11840
  13   24971.6    400.5   0.202923822   2.67523   1.07648  -1.13907   0.46792
  14   25708.6    389.0   0.025642111   0.32836   0.19968  -0.53265   0.06909
  15   25982.7    384.9   0.001638265   0.02076  -0.07547   0.12212  -0.01217
  16   26187.2    381.9   0.061329337   0.77100  -0.16091  -0.85089  -0.14526
  17   26402.4    378.8   0.076378575   0.95237   0.64934  -0.60682   0.40310
  18   26474.7    377.7   0.000009318   0.00012  -0.00053   0.00903   0.00583
  19   27468.4    364.1   0.000389380   0.00467   0.02968  -0.00809   0.06100
  20   28231.1    354.2   0.558133191   6.50857   1.35240  -2.16316  -0.01802
  21   28513.2    350.7   0.070365892   0.81244  -0.73636   0.49371  -0.16270
  22   28695.8    348.5   0.068241863   0.78290   0.59870  -0.61052  -0.22744
  23   28950.2    345.4   0.542807654   6.17263   1.90364   0.30128   1.56780
  24   28967.8    345.2   0.020709748   0.23536  -0.31303   0.36658   0.05471
  25   29349.5    340.7   0.080454856   0.90246  -0.08995   0.94571   0.00017
  26   29738.0    336.3   0.469559059   5.19822  -1.03306  -1.19544  -1.64375
  27   30185.6    331.3   0.077133833   0.84124   0.48102  -0.47003   0.62365
  28   31078.0    321.8   0.034958683   0.37032   0.16698   0.49695   0.30900
  29   31639.4    316.1   0.565224301   5.88122  -1.66068   0.59022  -1.66584
  30   32045.1    312.1   0.068997850   0.70884   0.42612  -0.49035   0.53555
  31   32479.7    307.9   0.083430659   0.84565   0.40685  -0.80251   0.18997
  32   32655.7    306.2   0.027593692   0.27818  -0.03196  -0.23208  -0.47254
  33   33120.5    301.9   0.164928264   1.63936  -0.84569   0.83480  -0.47675
  34   34261.4    291.9   0.058592050   0.56300  -0.24987   0.57940  -0.40604
  35   34396.6    290.7   0.010195439   0.09758   0.09017  -0.29602   0.04270
  36   35738.7    279.8   0.000052355   0.00048   0.01713   0.00390   0.01317
  37   35857.2    278.9   0.000058213   0.00053   0.01018  -0.02076  -0.00023
  38   36153.3    276.6   0.052782461   0.48064   0.17870   0.13485   0.65614
  39   36184.8    276.4   0.436465072   3.97099  -0.70991   1.82685  -0.36002
  40   36233.5    276.0   0.436841694   3.96908   0.02340   1.99123  -0.05956
  41   36414.2    274.6   0.004062695   0.03673  -0.14160   0.12852   0.01276
  42   36995.9    270.3   0.006552576   0.05831  -0.16981   0.13215  -0.10959
  43   37071.7    269.7   0.414462799   3.68060  -1.25132   1.22447  -0.78453
  44   37631.4    265.7   0.001869912   0.01636   0.01614  -0.12188  -0.03526
  45   37875.9    264.0   0.492194368   4.27808   1.29946  -1.58090   0.30040
  46   38072.9    262.7   0.006591851   0.05700   0.14145  -0.07105  -0.17872
  47   38119.2    262.3   0.200435709   1.73104  -1.06676   0.69738  -0.32669
  48   38463.7    260.0   0.000520514   0.00446  -0.06442   0.01747   0.00052
  49   38967.8    256.6   0.005842543   0.04936   0.15899  -0.14313  -0.05998
  50   39331.3    254.3   0.139611145   1.16858  -0.64133   0.82473  -0.27764
  51   39424.9    253.6   0.042209485   0.35246   0.16257  -0.53453   0.20079
  52   40132.0    249.2   0.003741993   0.03070   0.05952   0.14274   0.08233

FINAL SINGLE POINT ENERGY     -2912.021168236140

DIPOLE MOMENT
-------------
                                X             Y             Z
Electronic contribution:     22.20823      -8.84871       0.82736
Nuclear contribution   :    -24.27228      10.04902      -1.22368
                        -----------------------------------------
Total Dipole Moment    :     -2.06405       1.20031      -0.39632
                        -----------------------------------------
Magnitude (a.u.)       :      2.42036
Magnitude (Debye)      :      6.15206

Rotational constants in cm-1:     0.002385     0.000240     0.000229
Rotational constants in MHz :    71.490511     7.208587     6.872315

                             ****ORCA TERMINATED NORMALLY****
TOTAL RUN TIME: 0 days 0 hours 10 minutes 55 seconds 337 msec
