                         Program Version 4.2.0 -  RELEASE  -
|  1> # ORCA input file
|  2> # SCF done       -193.883204904355          0.000333238581
|  3> ! CAM-B3LYP def2-SVP def2/J RIJCOSX Grid4 TightSCF
|  4> %maxcore 5000
|  5> %tddft
|  6>     Mode sTDDFT
|  7>     Ethresh 5.0
|  8>     maxcore 5000
|  9> end
| 10>
| 11> %pal
| 12>   nprocs 6
| 13>   end
| 14> * xyz 0 1
| 15>    C        2.11752         2.11366         4.17055
| 16>    C        2.32786         3.13230         5.29493
| 17>    C        3.35740         1.23950         3.96373
| 18>    C        1.62742         2.74120         2.87971
| 19>    C        0.36463         2.24950         2.63438
| 20>    C        0.03066         1.33330         3.69879
| 21>    C       -1.11965         0.61160         3.87198
| 22>    C       -2.20928         0.65925         2.98288
| 23>    N       -3.12764         0.65541         2.29612
| 24>    C       -1.26584        -0.23981         4.98710
| 25>    N       -1.38644        -0.93100         5.89373
| 26>    O        1.04264         1.25390         4.57178
| 27>    C       -0.49889         2.57475         1.57751
| 28>    N       -1.19045         2.87094         0.71194
| 29>    C        2.36719         3.65140         2.09435
| 30>    C        2.02898         4.15487         0.84122
| 31>    C        2.98626         5.03114         0.34923
| 32>    C        4.07216         5.21750         1.23303
| 33>    S        3.91327         4.29616         2.65333
| 34>    C        4.98145         6.13495         0.66437
| 35>    C        4.47462         6.53078        -0.59259
| 36>    C        3.21336         5.84736        -0.83464
| 37>    C        2.42701         5.94787        -1.94262
| 38>    C        2.77009         6.78767        -3.02516
| 39>    N        3.04419         7.46940        -3.90497
| 40>    C        1.22840         5.21673        -2.09997
| 41>    N        0.26121         4.62142        -2.25012
| 42>    C        5.29767         7.44120        -1.23807
| 43>    C        6.42549         7.75091        -0.48465
| 44>    S        6.46557         6.89570         1.04570
| 45>    C        7.46123         8.65341        -0.84409
| 46>    C        8.54187         8.92435         0.02393
| 47>    C        9.58354         9.84977        -0.30794
| 48>    N       10.57972        10.06483         0.57429
| 49>    C       10.58529         9.43495         1.70440
| 50>    C        9.55265         8.51594         2.03261
| 51>    N        8.58041         8.28629         1.21054
| 52>    F        9.55493         7.86672         3.19028
| 53>    F       11.58250         9.67191         2.54588
| 54>    C        9.61220        10.55400        -1.53166
| 55>    C        8.54166        10.27658        -2.41529
| 56>    C        7.48657         9.34783        -2.07725
| 57>    N        6.58933         9.25327        -3.06003
| 58>    S        7.01191        10.21302        -4.26912
| 59>    N        8.35225        10.80654        -3.62516
| 60>    C       10.64687        11.47917        -1.83460
| 61>    C       10.78510        12.20964        -3.01044
| 62>    C       11.89798        13.03648        -2.97888
| 63>    C       12.61720        12.94050        -1.76693
| 64>    S       11.92057        11.82214        -0.67820
| 65>    C       13.71751        13.82689        -1.83333
| 66>    C       13.69672        14.48036        -3.08555
| 67>    C       12.55346        14.00134        -3.84505
| 68>    C       12.18162        14.38165        -5.10137
| 69>    C       12.92389        15.33755        -5.82599
| 70>    N       13.54401        16.11724        -6.39407
| 71>    C       11.04547        13.84878        -5.74673
| 72>    N       10.12367        13.41944        -6.27575
| 73>    C       14.73904        15.38112        -3.24268
| 74>    C       15.56512        15.43521        -2.12455
| 75>    S       15.01923        14.32800        -0.85822
| 76>    C       16.70798        16.23990        -1.93080
| 77>    C       17.51491        16.30688        -0.81724
| 78>    C       18.55785        17.26935        -1.07756
| 79>    C       19.57865        17.65941        -0.25297
| 80>    C       19.76288        17.14360         1.04300
| 81>    N       19.95928        16.75737         2.10487
| 82>    C       20.51548        18.62399        -0.67863
| 83>    N       21.27842        19.40774        -1.02230
| 84>    O       18.41111        17.78212        -2.30459
| 85>    C       17.26656        17.21102        -2.95674
| 86>    C       16.31264        18.36545        -3.27670
| 87>    C       17.77173        16.51685        -4.22457
| 88>    C       17.37631        15.58532         0.37714
| 89>    N       17.22995        14.97759         1.33921
| 90>    H        3.22056         3.72476         5.12280
| 91>    H        2.43539         2.59234         6.23209
| 92>    H        1.46660         3.79292         5.37215
| 93>    H        4.22393         1.84920         3.72755
| 94>    H        3.18653         0.53029         3.15619
| 95>    H        3.54994         0.68440         4.87780
| 96>    H        1.12705         3.87962         0.32577
| 97>    H        5.12076         7.88040        -2.20229
| 98>    H       10.08899        12.11748        -3.82357
| 99>    H       14.89070        15.97228        -4.12505
|100>    H       15.92972        18.80269        -2.35678
|101>    H       15.47873        18.03519        -3.88597
|102>    H       16.86590        19.12833        -3.81831
|103>    H       18.42971        15.69070        -3.96257
|104>    H       18.33664        17.23661        -4.81110
|105>    H       16.95037        16.13878        -4.82319
|106> *
|107>
|108>                          ****END OF INPUT****

CARTESIAN COORDINATES (ANGSTROEM)
---------------------------------
  C      2.117520    2.113660    4.170550
  C      2.327860    3.132300    5.294930
  C      3.357400    1.239500    3.963730
  C      1.627420    2.741200    2.879710
  C      0.364630    2.249500    2.634380
  C      0.030660    1.333300    3.698790
  C     -1.119650    0.611600    3.871980
  C     -2.209280    0.659250    2.982880
  N     -3.127640    0.655410    2.296120
  C     -1.265840   -0.239810    4.987100
  N     -1.386440   -0.931000    5.893730
  O      1.042640    1.253900    4.571780
  C     -0.498890    2.574750    1.577510
  N     -1.190450    2.870940    0.711940
  C      2.367190    3.651400    2.094350
  C      2.028980    4.154870    0.841220
  C      2.986260    5.031140    0.349230
  C      4.072160    5.217500    1.233030
  S      3.913270    4.296160    2.653330
  C      4.981450    6.134950    0.664370
  C      4.474620    6.530780   -0.592590
  C      3.213360    5.847360   -0.834640
  C      2.427010    5.947870   -1.942620
  C      2.770090    6.787670   -3.025160
  N      3.044190    7.469400   -3.904970
  C      1.228400    5.216730   -2.099970
  N      0.261210    4.621420   -2.250120
  C      5.297670    7.441200   -1.238070
  C      6.425490    7.750910   -0.484650
  S      6.465570    6.895700    1.045700
  C      7.461230    8.653410   -0.844090
  C      8.541870    8.924350    0.023930
  C      9.583540    9.849770   -0.307940
  N     10.579720   10.064830    0.574290
  C     10.585290    9.434950    1.704400
  C      9.552650    8.515940    2.032610
  N      8.580410    8.286290    1.210540
  F      9.554930    7.866720    3.190280
  F     11.582500    9.671910    2.545880
  C      9.612200   10.554000   -1.531660
  C      8.541660   10.276580   -2.415290
  C      7.486570    9.347830   -2.077250
  N      6.589330    9.253270   -3.060030
  S      7.011910   10.213020   -4.269120
  N      8.352250   10.806540   -3.625160
  C     10.646870   11.479170   -1.834600
  C     10.785100   12.209640   -3.010440
  C     11.897980   13.036480   -2.978880
  C     12.617200   12.940500   -1.766930
  S     11.920570   11.822140   -0.678200
  C     13.717510   13.826890   -1.833330
  C     13.696720   14.480360   -3.085550
  C     12.553460   14.001340   -3.845050
  C     12.181620   14.381650   -5.101370
  C     12.923890   15.337550   -5.825990
  N     13.544010   16.117240   -6.394070
  C     11.045470   13.848780   -5.746730
  N     10.123670   13.419440   -6.275750
  C     14.739040   15.381120   -3.242680
  C     15.565120   15.435210   -2.124550
  S     15.019230   14.328000   -0.858220
  C     16.707980   16.239900   -1.930800
  C     17.514910   16.306880   -0.817240
  C     18.557850   17.269350   -1.077560
  C     19.578650   17.659410   -0.252970
  C     19.762880   17.143600    1.043000
  N     19.959280   16.757370    2.104870
  C     20.515480   18.623990   -0.678630
  N     21.278420   19.407740   -1.022300
  O     18.411110   17.782120   -2.304590
  C     17.266560   17.211020   -2.956740
  C     16.312640   18.365450   -3.276700
  C     17.771730   16.516850   -4.224570
  C     17.376310   15.585320    0.377140
  N     17.229950   14.977590    1.339210
  H      3.220560    3.724760    5.122800
  H      2.435390    2.592340    6.232090
  H      1.466600    3.792920    5.372150
  H      4.223930    1.849200    3.727550
  H      3.186530    0.530290    3.156190
  H      3.549940    0.684400    4.877800
  H      1.127050    3.879620    0.325770
  H      5.120760    7.880400   -2.202290
  H     10.088990   12.117480   -3.823570
  H     14.890700   15.972280   -4.125050
  H     15.929720   18.802690   -2.356780
  H     15.478730   18.035190   -3.885970
  H     16.865900   19.128330   -3.818310
  H     18.429710   15.690700   -3.962570
  H     18.336640   17.236610   -4.811100
  H     16.950370   16.138780   -4.823190

 Total Charge           Charge          ....    0
 Multiplicity           Mult            ....    1
 Number of Electrons    NEL             ....  540
 Basis Dimension        Dim             .... 1150

ORBITAL ENERGIES
----------------

  NO   OCC          E(Eh)            E(eV)
   0   2.0000     -89.069315     -2423.6993
   1   2.0000     -89.021014     -2422.3849
   2   2.0000     -89.016883     -2422.2725
   3   2.0000     -89.008605     -2422.0473
   4   2.0000     -89.007797     -2422.0253
   5   2.0000     -24.849543      -676.1904
   6   2.0000     -24.848718      -676.1680
   7   2.0000     -19.299628      -525.1696
   8   2.0000     -19.299511      -525.1664
   9   2.0000     -14.492291      -394.3553
  10   2.0000     -14.491811      -394.3422
  11   2.0000     -14.477265      -393.9464
  12   2.0000     -14.477103      -393.9420
  13   2.0000     -14.453376      -393.2963
  14   2.0000     -14.449299      -393.1854
  15   2.0000     -14.446239      -393.1021
  16   2.0000     -14.442129      -392.9903
  17   2.0000     -14.433799      -392.7636
  18   2.0000     -14.428015      -392.6062
  19   2.0000     -14.401925      -391.8963
  20   2.0000     -14.400439      -391.8559
  21   2.0000     -14.399491      -391.8301
  22   2.0000     -14.399408      -391.8278
  23   2.0000     -10.467677      -284.8400
  24   2.0000     -10.467391      -284.8322
  25   2.0000     -10.401510      -283.0395
  26   2.0000     -10.400035      -282.9993
  27   2.0000     -10.388241      -282.6784
  28   2.0000     -10.387483      -282.6578
  29   2.0000     -10.386559      -282.6326
  30   2.0000     -10.384090      -282.5655
  31   2.0000     -10.377960      -282.3987
  32   2.0000     -10.377650      -282.3902
  33   2.0000     -10.374350      -282.3004
  34   2.0000     -10.369702      -282.1739
  35   2.0000     -10.369458      -282.1673
  36   2.0000     -10.369419      -282.1662
  37   2.0000     -10.364745      -282.0390
  38   2.0000     -10.364211      -282.0245
  39   2.0000     -10.361342      -281.9464
  40   2.0000     -10.359762      -281.9035
  41   2.0000     -10.356305      -281.8094
  42   2.0000     -10.355734      -281.7939
  43   2.0000     -10.353755      -281.7400
  44   2.0000     -10.350400      -281.6487
  45   2.0000     -10.349847      -281.6337
  46   2.0000     -10.349150      -281.6147
  47   2.0000     -10.348849      -281.6065
  48   2.0000     -10.348660      -281.6013
  49   2.0000     -10.348261      -281.5905
  50   2.0000     -10.347765      -281.5770
  51   2.0000     -10.347484      -281.5694
  52   2.0000     -10.346822      -281.5513
  53   2.0000     -10.345741      -281.5219
  54   2.0000     -10.340193      -281.3710
  55   2.0000     -10.338790      -281.3328
  56   2.0000     -10.333799      -281.1970
  57   2.0000     -10.333379      -281.1855
  58   2.0000     -10.332380      -281.1584
  59   2.0000     -10.332222      -281.1540
  60   2.0000     -10.330480      -281.1067
  61   2.0000     -10.330284      -281.1013
  62   2.0000     -10.326537      -280.9994
  63   2.0000     -10.325807      -280.9795
  64   2.0000     -10.324710      -280.9496
  65   2.0000     -10.318865      -280.7906
  66   2.0000     -10.317740      -280.7600
  67   2.0000     -10.306054      -280.4420
  68   2.0000     -10.304969      -280.4125
  69   2.0000     -10.303966      -280.3852
  70   2.0000     -10.303383      -280.3693
  71   2.0000     -10.301551      -280.3194
  72   2.0000     -10.300526      -280.2916
  73   2.0000     -10.298051      -280.2242
  74   2.0000     -10.298047      -280.2241
  75   2.0000      -8.160266      -222.0521
  76   2.0000      -8.115113      -220.8235
  77   2.0000      -8.110807      -220.7063
  78   2.0000      -8.101318      -220.4481
  79   2.0000      -8.100591      -220.4283
  80   2.0000      -6.131337      -166.8422
  81   2.0000      -6.123362      -166.6251
  82   2.0000      -6.123236      -166.6217
  83   2.0000      -6.084326      -165.5629
  84   2.0000      -6.080124      -165.4486
  85   2.0000      -6.080045      -165.4464
  86   2.0000      -6.077609      -165.3802
  87   2.0000      -6.075607      -165.3257
  88   2.0000      -6.073332      -165.2638
  89   2.0000      -6.070782      -165.1944
  90   2.0000      -6.070081      -165.1753
  91   2.0000      -6.066032      -165.0651
  92   2.0000      -6.065372      -165.0472
  93   2.0000      -6.063855      -165.0059
  94   2.0000      -6.063037      -164.9836
  95   2.0000      -1.378462       -37.5098
  96   2.0000      -1.364398       -37.1272
  97   2.0000      -1.223123       -33.2829
  98   2.0000      -1.223064       -33.2813
  99   2.0000      -1.167424       -31.7672
 100   2.0000      -1.150752       -31.3136
 101   2.0000      -1.078683       -29.3524
 102   2.0000      -1.068757       -29.0824
 103   2.0000      -1.067260       -29.0416
 104   2.0000      -1.043776       -28.4026
 105   2.0000      -1.037595       -28.2344
 106   2.0000      -1.030556       -28.0428
 107   2.0000      -1.028807       -27.9953
 108   2.0000      -1.027896       -27.9705
 109   2.0000      -1.021137       -27.7865
 110   2.0000      -1.020652       -27.7734
 111   2.0000      -1.017026       -27.6747
 112   2.0000      -1.013330       -27.5741
 113   2.0000      -1.003961       -27.3192
 114   2.0000      -0.998129       -27.1605
 115   2.0000      -0.996398       -27.1134
 116   2.0000      -0.985192       -26.8084
 117   2.0000      -0.979871       -26.6636
 118   2.0000      -0.978960       -26.6389
 119   2.0000      -0.977770       -26.6065
 120   2.0000      -0.965466       -26.2717
 121   2.0000      -0.963340       -26.2138
 122   2.0000      -0.949634       -25.8408
 123   2.0000      -0.949065       -25.8254
 124   2.0000      -0.938006       -25.5244
 125   2.0000      -0.925910       -25.1953
 126   2.0000      -0.917296       -24.9609
 127   2.0000      -0.906856       -24.6768
 128   2.0000      -0.897132       -24.4122
 129   2.0000      -0.894769       -24.3479
 130   2.0000      -0.888926       -24.1889
 131   2.0000      -0.886122       -24.1126
 132   2.0000      -0.877342       -23.8737
 133   2.0000      -0.876155       -23.8414
 134   2.0000      -0.854711       -23.2579
 135   2.0000      -0.842578       -22.9277
 136   2.0000      -0.836540       -22.7634
 137   2.0000      -0.821056       -22.3421
 138   2.0000      -0.818173       -22.2636
 139   2.0000      -0.814390       -22.1607
 140   2.0000      -0.805844       -21.9281
 141   2.0000      -0.799342       -21.7512
 142   2.0000      -0.796680       -21.6788
 143   2.0000      -0.780766       -21.2457
 144   2.0000      -0.780098       -21.2276
 145   2.0000      -0.766691       -20.8627
 146   2.0000      -0.762079       -20.7372
 147   2.0000      -0.758701       -20.6453
 148   2.0000      -0.746594       -20.3159
 149   2.0000      -0.734671       -19.9914
 150   2.0000      -0.725834       -19.7510
 151   2.0000      -0.714802       -19.4507
 152   2.0000      -0.713369       -19.4118
 153   2.0000      -0.712320       -19.3832
 154   2.0000      -0.706868       -19.2349
 155   2.0000      -0.702216       -19.1083
 156   2.0000      -0.699687       -19.0394
 157   2.0000      -0.694372       -18.8948
 158   2.0000      -0.684629       -18.6297
 159   2.0000      -0.679227       -18.4827
 160   2.0000      -0.664616       -18.0851
 161   2.0000      -0.662145       -18.0179
 162   2.0000      -0.660639       -17.9769
 163   2.0000      -0.657482       -17.8910
 164   2.0000      -0.653367       -17.7790
 165   2.0000      -0.652567       -17.7572
 166   2.0000      -0.650562       -17.7027
 167   2.0000      -0.644305       -17.5324
 168   2.0000      -0.641115       -17.4456
 169   2.0000      -0.633446       -17.2369
 170   2.0000      -0.629755       -17.1365
 171   2.0000      -0.621881       -16.9222
 172   2.0000      -0.618550       -16.8316
 173   2.0000      -0.608593       -16.5607
 174   2.0000      -0.604656       -16.4535
 175   2.0000      -0.598890       -16.2966
 176   2.0000      -0.598452       -16.2847
 177   2.0000      -0.594868       -16.1872
 178   2.0000      -0.591921       -16.1070
 179   2.0000      -0.584699       -15.9105
 180   2.0000      -0.582698       -15.8560
 181   2.0000      -0.570876       -15.5343
 182   2.0000      -0.570009       -15.5107
 183   2.0000      -0.569092       -15.4858
 184   2.0000      -0.566770       -15.4226
 185   2.0000      -0.564182       -15.3522
 186   2.0000      -0.562437       -15.3047
 187   2.0000      -0.554057       -15.0767
 188   2.0000      -0.553559       -15.0631
 189   2.0000      -0.549799       -14.9608
 190   2.0000      -0.547180       -14.8895
 191   2.0000      -0.545310       -14.8386
 192   2.0000      -0.530066       -14.4238
 193   2.0000      -0.529678       -14.4133
 194   2.0000      -0.527833       -14.3631
 195   2.0000      -0.525429       -14.2976
 196   2.0000      -0.522192       -14.2096
 197   2.0000      -0.521692       -14.1960
 198   2.0000      -0.517992       -14.0953
 199   2.0000      -0.517122       -14.0716
 200   2.0000      -0.516668       -14.0592
 201   2.0000      -0.515209       -14.0196
 202   2.0000      -0.514932       -14.0120
 203   2.0000      -0.512364       -13.9421
 204   2.0000      -0.508376       -13.8336
 205   2.0000      -0.507114       -13.7993
 206   2.0000      -0.505361       -13.7516
 207   2.0000      -0.501304       -13.6412
 208   2.0000      -0.498992       -13.5783
 209   2.0000      -0.495891       -13.4939
 210   2.0000      -0.490422       -13.3451
 211   2.0000      -0.487580       -13.2677
 212   2.0000      -0.486259       -13.2318
 213   2.0000      -0.485692       -13.2164
 214   2.0000      -0.483720       -13.1627
 215   2.0000      -0.482076       -13.1180
 216   2.0000      -0.479602       -13.0506
 217   2.0000      -0.477807       -13.0018
 218   2.0000      -0.476181       -12.9575
 219   2.0000      -0.475203       -12.9309
 220   2.0000      -0.474930       -12.9235
 221   2.0000      -0.472825       -12.8662
 222   2.0000      -0.472751       -12.8642
 223   2.0000      -0.467511       -12.7216
 224   2.0000      -0.467043       -12.7089
 225   2.0000      -0.462962       -12.5978
 226   2.0000      -0.461835       -12.5672
 227   2.0000      -0.460249       -12.5240
 228   2.0000      -0.459842       -12.5129
 229   2.0000      -0.456911       -12.4332
 230   2.0000      -0.454043       -12.3551
 231   2.0000      -0.453139       -12.3305
 232   2.0000      -0.452034       -12.3005
 233   2.0000      -0.449706       -12.2371
 234   2.0000      -0.449066       -12.2197
 235   2.0000      -0.444617       -12.0986
 236   2.0000      -0.444405       -12.0929
 237   2.0000      -0.441065       -12.0020
 238   2.0000      -0.437011       -11.8917
 239   2.0000      -0.436122       -11.8675
 240   2.0000      -0.434146       -11.8137
 241   2.0000      -0.432352       -11.7649
 242   2.0000      -0.431804       -11.7500
 243   2.0000      -0.431146       -11.7321
 244   2.0000      -0.430397       -11.7117
 245   2.0000      -0.429961       -11.6998
 246   2.0000      -0.428492       -11.6599
 247   2.0000      -0.418069       -11.3762
 248   2.0000      -0.415844       -11.3157
 249   2.0000      -0.414362       -11.2754
 250   2.0000      -0.413924       -11.2635
 251   2.0000      -0.412137       -11.2148
 252   2.0000      -0.410432       -11.1684
 253   2.0000      -0.409483       -11.1426
 254   2.0000      -0.402540       -10.9537
 255   2.0000      -0.396783       -10.7970
 256   2.0000      -0.394609       -10.7379
 257   2.0000      -0.393343       -10.7034
 258   2.0000      -0.387499       -10.5444
 259   2.0000      -0.375706       -10.2235
 260   2.0000      -0.373257       -10.1568
 261   2.0000      -0.371542       -10.1102
 262   2.0000      -0.370801       -10.0900
 263   2.0000      -0.347771        -9.4633
 264   2.0000      -0.343064        -9.3352
 265   2.0000      -0.340638        -9.2692
 266   2.0000      -0.324240        -8.8230
 267   2.0000      -0.305777        -8.3206
 268   2.0000      -0.290594        -7.9075
 269   2.0000      -0.265007        -7.2112
 270   0.0000      -0.152492        -4.1495
 271   0.0000      -0.126426        -3.4402
 272   0.0000      -0.118220        -3.2169
 273   0.0000      -0.093039        -2.5317
 274   0.0000      -0.090808        -2.4710

MULLIKEN ATOMIC CHARGES
-----------------------
   0 C :   -0.125999
   1 C :    0.104033
   2 C :    0.116164
   3 C :    0.137815
   4 C :   -0.163156
   5 C :    0.333891
   6 C :   -0.416179
   7 C :   -0.199174
   8 N :    0.190863
   9 C :   -0.167120
  10 N :    0.159662
  11 O :   -0.243949
  12 C :   -0.254349
  13 N :    0.236093
  14 C :   -0.151792
  15 C :   -0.027279
  16 C :    0.026751
  17 C :   -0.087017
  18 S :    0.186809
  19 C :   -0.067844
  20 C :    0.045633
  21 C :    0.310666
  22 C :   -0.291086
  23 C :   -0.183625
  24 N :    0.174787
  25 C :   -0.200933
  26 N :    0.210774
  27 C :   -0.062825
  28 C :   -0.175686
  29 S :    0.211043
  30 C :    0.183907
  31 C :   -0.054526
  32 C :   -0.058864
  33 N :   -0.047261
  34 C :    0.156626
  35 C :    0.155133
  36 N :   -0.049310
  37 F :   -0.128995
  38 F :   -0.126331
  39 C :    0.182769
  40 C :   -0.005678
  41 C :   -0.011804
  42 N :   -0.285623
  43 S :    0.594343
  44 N :   -0.289339
  45 C :   -0.176899
  46 C :   -0.062117
  47 C :    0.045163
  48 C :   -0.070429
  49 S :    0.223169
  50 C :   -0.073688
  51 C :    0.014610
  52 C :    0.303630
  53 C :   -0.291003
  54 C :   -0.186141
  55 N :    0.165350
  56 C :   -0.185679
  57 N :    0.183914
  58 C :   -0.028470
  59 C :   -0.165228
  60 S :    0.231602
  61 C :    0.137338
  62 C :   -0.149997
  63 C :    0.334666
  64 C :   -0.412988
  65 C :   -0.200239
  66 N :    0.186295
  67 C :   -0.166189
  68 N :    0.159746
  69 O :   -0.244827
  70 C :   -0.100494
  71 C :    0.116431
  72 C :    0.117709
  73 C :   -0.293526
  74 N :    0.233190
  75 H :    0.026592
  76 H :    0.048831
  77 H :    0.034962
  78 H :    0.020535
  79 H :    0.034279
  80 H :    0.045503
  81 H :    0.032581
  82 H :    0.025171
  83 H :    0.025639
  84 H :    0.014901
  85 H :    0.029650
  86 H :    0.024746
  87 H :    0.047940
  88 H :    0.030444
  89 H :    0.048023
  90 H :    0.023284
Sum of atomic charges:   -0.0000000

LOEWDIN ATOMIC CHARGES
----------------------
   0 C :    0.053527
   1 C :   -0.041918
   2 C :   -0.039611
   3 C :    0.030030
   4 C :   -0.100725
   5 C :    0.131160
   6 C :   -0.182187
   7 C :   -0.036371
   8 N :   -0.038202
   9 C :   -0.024128
  10 N :   -0.052131
  11 O :   -0.043010
  12 C :   -0.041055
  13 N :   -0.004375
  14 C :   -0.184134
  15 C :    0.015726
  16 C :   -0.065237
  17 C :   -0.159614
  18 S :    0.499314
  19 C :   -0.193044
  20 C :   -0.058494
  21 C :    0.071295
  22 C :   -0.085948
  23 C :   -0.014721
  24 N :   -0.024534
  25 C :   -0.027920
  26 N :   -0.001332
  27 C :   -0.010864
  28 C :   -0.157826
  29 S :    0.512543
  30 C :   -0.039132
  31 C :   -0.015451
  32 C :   -0.014683
  33 N :   -0.055901
  34 C :    0.068322
  35 C :    0.067254
  36 N :   -0.056018
  37 F :   -0.019037
  38 F :   -0.016105
  39 C :   -0.041041
  40 C :   -0.036812
  41 C :   -0.037435
  42 N :   -0.271800
  43 S :    0.711261
  44 N :   -0.273928
  45 C :   -0.157434
  46 C :   -0.011383
  47 C :   -0.061794
  48 C :   -0.190729
  49 S :    0.523129
  50 C :   -0.155081
  51 C :   -0.072243
  52 C :    0.079255
  53 C :   -0.099098
  54 C :   -0.013400
  55 N :   -0.034902
  56 C :   -0.018173
  57 N :   -0.023943
  58 C :   -0.001734
  59 C :   -0.183155
  60 S :    0.533767
  61 C :    0.033335
  62 C :   -0.112441
  63 C :    0.131901
  64 C :   -0.183706
  65 C :   -0.035786
  66 N :   -0.041776
  67 C :   -0.024551
  68 N :   -0.051137
  69 O :   -0.042040
  70 C :    0.062699
  71 C :   -0.034927
  72 C :   -0.034984
  73 C :   -0.057406
  74 N :   -0.013434
  75 H :    0.020196
  76 H :    0.044379
  77 H :    0.037045
  78 H :    0.020940
  79 H :    0.037291
  80 H :    0.042622
  81 H :    0.051083
  82 H :    0.039127
  83 H :    0.039102
  84 H :    0.037662
  85 H :    0.035937
  86 H :    0.032891
  87 H :    0.044180
  88 H :    0.036277
  89 H :    0.043915
  90 H :    0.032812

  Mayer bond orders larger than 0.100000
B(  0-C ,  1-C ) :   1.0408 B(  0-C ,  2-C ) :   1.0452 B(  0-C ,  3-C ) :   0.9541
B(  0-C , 11-O ) :   0.9204 B(  1-C , 75-H ) :   0.9523 B(  1-C , 76-H ) :   0.9530
B(  1-C , 77-H ) :   0.9539 B(  2-C , 78-H ) :   0.9509 B(  2-C , 79-H ) :   0.9523
B(  2-C , 80-H ) :   0.9553 B(  3-C ,  4-C ) :   1.6575 B(  3-C , 14-C ) :   1.2010
B(  4-C ,  5-C ) :   1.0557 B(  4-C , 12-C ) :   1.1596 B(  5-C ,  6-C ) :   1.6171
B(  5-C , 11-O ) :   1.2430 B(  6-C ,  7-C ) :   1.1779 B(  6-C ,  9-C ) :   1.1106
B(  7-C ,  8-N ) :   3.0285 B(  9-C , 10-N ) :   3.0557 B( 12-C , 13-N ) :   2.9525
B( 14-C , 15-C ) :   1.4111 B( 14-C , 18-S ) :   1.0676 B( 15-C , 16-C ) :   1.3244
B( 15-C , 81-H ) :   0.9802 B( 16-C , 17-C ) :   1.3878 B( 16-C , 21-C ) :   0.9806
B( 17-C , 18-S ) :   1.1481 B( 17-C , 19-C ) :   1.2098 B( 19-C , 20-C ) :   1.3982
B( 19-C , 29-S ) :   1.0791 B( 20-C , 21-C ) :   0.9928 B( 20-C , 27-C ) :   1.2791
B( 21-C , 22-C ) :   1.7229 B( 22-C , 23-C ) :   1.1409 B( 22-C , 25-C ) :   1.1329
B( 23-C , 24-N ) :   2.9799 B( 25-C , 26-N ) :   2.9953 B( 27-C , 28-C ) :   1.4153
B( 27-C , 82-H ) :   0.9801 B( 28-C , 29-S ) :   1.0987 B( 28-C , 30-C ) :   1.1882
B( 30-C , 31-C ) :   1.2957 B( 30-C , 39-C ) :   0.1309 B( 30-C , 41-C ) :   1.1975
B( 31-C , 32-C ) :   1.1251 B( 31-C , 36-N ) :   1.3758 B( 32-C , 33-N ) :   1.3793
B( 32-C , 39-C ) :   1.2983 B( 33-N , 34-C ) :   1.6518 B( 34-C , 35-C ) :   1.1052
B( 34-C , 38-F ) :   1.1958 B( 35-C , 36-N ) :   1.6529 B( 35-C , 37-F ) :   1.1938
B( 39-C , 40-C ) :   1.1991 B( 39-C , 45-C ) :   1.1843 B( 40-C , 41-C ) :   1.1031
B( 40-C , 44-N ) :   1.5054 B( 41-C , 42-N ) :   1.5093 B( 42-N , 43-S ) :   1.2886
B( 42-N , 44-N ) :   0.1483 B( 43-S , 44-N ) :   1.2875 B( 45-C , 46-C ) :   1.4185
B( 45-C , 49-S ) :   1.1021 B( 46-C , 47-C ) :   1.2797 B( 46-C , 83-H ) :   0.9799
B( 47-C , 48-C ) :   1.3958 B( 47-C , 52-C ) :   0.9929 B( 48-C , 49-S ) :   1.0870
B( 48-C , 50-C ) :   1.2028 B( 50-C , 51-C ) :   1.3822 B( 50-C , 60-S ) :   1.1585
B( 51-C , 52-C ) :   0.9875 B( 51-C , 58-C ) :   1.3548 B( 52-C , 53-C ) :   1.7156
B( 53-C , 54-C ) :   1.1325 B( 53-C , 56-C ) :   1.1384 B( 54-C , 55-N ) :   2.9882
B( 56-C , 57-N ) :   2.9871 B( 58-C , 59-C ) :   1.3966 B( 58-C , 84-H ) :   0.9764
B( 59-C , 60-S ) :   1.0832 B( 59-C , 61-C ) :   1.2088 B( 61-C , 62-C ) :   1.6230
B( 61-C , 70-C ) :   0.9601 B( 62-C , 63-C ) :   1.0575 B( 62-C , 73-C ) :   1.1397
B( 63-C , 64-C ) :   1.6192 B( 63-C , 69-O ) :   1.2479 B( 64-C , 65-C ) :   1.1800
B( 64-C , 67-C ) :   1.1075 B( 65-C , 66-N ) :   3.0247 B( 67-C , 68-N ) :   3.0548
B( 69-O , 70-C ) :   0.9133 B( 70-C , 71-C ) :   1.0441 B( 70-C , 72-C ) :   1.0450
B( 71-C , 85-H ) :   0.9515 B( 71-C , 86-H ) :   0.9577 B( 71-C , 87-H ) :   0.9538
B( 72-C , 88-H ) :   0.9508 B( 72-C , 89-H ) :   0.9544 B( 72-C , 90-H ) :   0.9574
B( 73-C , 74-N ) :   2.9843

-----------------------------------------------------------------------------
         ABSORPTION SPECTRUM VIA TRANSITION ELECTRIC DIPOLE MOMENTS
-----------------------------------------------------------------------------
State   Energy  Wavelength   fosc         T2         TX        TY        TZ
        (cm-1)    (nm)                  (au**2)     (au)      (au)      (au)
-----------------------------------------------------------------------------
   0    9951.2   1004.9   1.122167565  37.12410  -4.58281  -3.85680   1.11671
   1   13903.3    719.3   0.017056133   0.40387   0.15413   0.27651  -0.55105
   2   15160.2    659.6   0.002723976   0.05915  -0.18624  -0.15623  -0.00774
   3   17919.4    558.1   0.011336139   0.20827  -0.01236   0.06779  -0.45113
   4   21508.8    464.9   0.006070907   0.09292  -0.19728   0.00842  -0.23223
   5   22948.4    435.8   1.636184613  23.47233  -3.85767  -2.91459   0.30966
   6   23419.9    427.0   0.074231466   1.04347  -0.14156  -0.37800   0.93837
   7   24170.7    413.7   0.157916384   2.15086   0.27311  -0.30252   1.40881
   8   24675.7    405.3   0.195753033   2.61164  -1.26790  -0.98979   0.15615
   9   25438.3    393.1   0.066691574   0.86309  -0.45643   0.06482  -0.80657
  10   26185.3    381.9   0.071029092   0.89300   0.68312   0.56466  -0.32790
  11   26590.2    376.1   0.019044502   0.23579  -0.22479   0.13022  -0.41025
  12   27016.1    370.2   0.007375328   0.08987  -0.25186  -0.08422  -0.13909
  13   27856.3    359.0   0.009126473   0.10786  -0.27249  -0.18277  -0.01438
  14   28832.5    346.8   0.027558013   0.31466   0.24219  -0.10383   0.49520
  15   29730.0    336.4   0.015974039   0.17689  -0.00666   0.16029  -0.38878
  16   29893.2    334.5   0.066366521   0.73089   0.37173  -0.20894   0.74098
  17   30544.8    327.4   0.169328489   1.82502   0.58537  -0.11595   1.21199
  18   30699.6    325.7   0.004823855   0.05173   0.13588   0.00798   0.18222
  19   30829.9    324.4   0.024949291   0.26642   0.44367   0.20769   0.16260
  20   31483.4    317.6   0.137701574   1.43990  -1.04807  -0.41420  -0.41218
  21   31669.6    315.8   0.011638561   0.12099  -0.26689  -0.21077   0.07301
  22   31767.4    314.8   0.124506519   1.29029  -0.19656   0.40996  -1.04095
  23   31822.5    314.2   0.748521798   7.74366  -0.95579   0.66440  -2.52759
  24   32377.5    308.9   0.342081688   3.47826  -1.53808  -1.05043  -0.09572
  25   32723.3    305.6   0.154019124   1.54951   0.82000   0.80665  -0.47583
  26   33171.4    301.5   0.097784771   0.97047   0.64197  -0.03178   0.74655
  27   34042.7    293.7   0.021593395   0.20882   0.06230  -0.04546   0.45041
  28   34199.5    292.4   0.107270472   1.03261   0.81532   0.60036   0.08621
  29   34642.8    288.7   0.248492823   2.36143  -1.27684  -0.85505   0.00351
  30   34877.4    286.7   0.057467404   0.54244  -0.21986  -0.48008   0.51344
  31   35962.6    278.1   0.089222048   0.81676   0.24829  -0.25143   0.83180
  32   36251.3    275.9   0.528646570   4.80085   1.11528  -0.20991   1.87428
  33   36325.5    275.3   0.026886179   0.24367  -0.31043  -0.34718   0.16360
  34   36691.8    272.5   0.001518807   0.01363   0.05198   0.08230  -0.06443
  35   36897.2    271.0   0.135359916   1.20774   0.16038   0.62982  -0.88619
  36   37063.3    269.8   0.048776649   0.43325   0.32553  -0.10255   0.56282
  37   37242.3    268.5   0.000564188   0.00499   0.02356   0.05031   0.04360
  38   37258.6    268.4   0.050566194   0.44680  -0.38870   0.00709  -0.54374
  39   37514.2    266.6   0.011019481   0.09670  -0.02415  -0.15851   0.26645
  40   37920.1    263.7   0.113740574   0.98746   0.47043  -0.16735   0.85916
  41   38305.6    261.1   0.037948239   0.32614  -0.21555  -0.37932   0.36851
  42   38580.3    259.2   0.001481616   0.01264  -0.00356  -0.05971   0.09521
  43   38846.3    257.4   0.024011991   0.20350  -0.29098  -0.02253  -0.34397
  44   39556.2    252.8   0.025422265   0.21158  -0.36773  -0.27525  -0.02438
  45   39934.9    250.4   0.046863193   0.38633  -0.52653  -0.16032  -0.28878
  46   40167.9    249.0   0.155847599   1.27731   0.35820  -0.27634   1.03568

FINAL SINGLE POINT ENERGY     -5094.062607134285

DIPOLE MOMENT
-------------
                                X             Y             Z
Electronic contribution:     -5.79329      -5.78479       3.77952
Nuclear contribution   :      7.51349       6.40942      -4.80687
                        -----------------------------------------
Total Dipole Moment    :      1.72021       0.62463      -1.02735
                        -----------------------------------------
Magnitude (a.u.)       :      2.09874
Magnitude (Debye)      :      5.33458

Rotational constants in cm-1:     0.002282     0.000218     0.000200
Rotational constants in MHz :    68.423844     6.527267     5.981900

                             ****ORCA TERMINATED NORMALLY****
TOTAL RUN TIME: 0 days 0 hours 9 minutes 16 seconds 844 msec
