                         Program Version 4.2.0 -  RELEASE  -
|  1> # ORCA input file
|  2> # SCF done       -118.911272181569          0.000718463538
|  3> ! CAM-B3LYP def2-SVP def2/J RIJCOSX Grid4 TightSCF
|  4> %maxcore 5000
|  5> %tddft
|  6>     Mode sTDDFT
|  7>     Ethresh 5.0
|  8>     maxcore 5000
|  9> end
| 10>
| 11> %pal
| 12>   nprocs 6
| 13>   end
| 14> * xyz 0 1
| 15>    C       -0.19735         4.35457        -1.95853
| 16>    S       -1.40608         3.25837        -1.39567
| 17>    C       -0.28967         1.93076        -1.49180
| 18>    O       -0.63693         0.68571        -1.11322
| 19>    C        0.93948         2.32803        -1.95212
| 20>    C        0.97375         3.72992        -2.20492
| 21>    C        2.09593         1.45095        -2.11656
| 22>    C        3.33509         1.75887        -1.65377
| 23>    F        3.68495         2.87031        -1.00467
| 24>    S        4.54068         0.54448        -1.94086
| 25>    C        3.32349        -0.40836        -2.71685
| 26>    F        3.67417        -1.58746        -3.23621
| 27>    C        2.08162         0.16343        -2.76474
| 28>    C        0.90682        -0.35912        -3.39988
| 29>    C        0.72863        -1.59295        -3.91129
| 30>    C       -0.51202        -1.99267        -4.48112
| 31>    S       -1.93125        -0.98335        -4.35167
| 32>    C       -2.94780        -2.04946        -5.27205
| 33>    C       -2.21585        -3.17064        -5.65139
| 34>    C       -0.85267        -3.12151        -5.19811
| 35>    N       -0.21534        -4.23584        -5.64628
| 36>    C       -1.12385        -4.97453        -6.36709
| 37>    N       -0.71630        -6.18550        -6.95488
| 38>    O        0.44713        -6.51183        -6.77311
| 39>    O       -1.53024        -6.81664        -7.59699
| 40>    C       -2.35613        -4.36266        -6.40200
| 41>    C       -4.33347        -1.73196        -5.47252
| 42>    C       -5.32857        -2.65744        -5.63709
| 43>    F       -5.18288        -3.98126        -5.66326
| 44>    S       -6.92493        -2.00438        -5.74767
| 45>    C       -6.23879        -0.42450        -5.55707
| 46>    F       -7.05287         0.63097        -5.58977
| 47>    C       -4.88151        -0.39344        -5.43316
| 48>    C       -4.07666         0.80109        -5.33507
| 49>    C       -4.45273         1.96090        -4.77047
| 50>    C       -3.60781         3.10496        -4.67670
| 51>    S       -1.94224         3.06829        -5.22241
| 52>    C       -1.72383         4.73217        -4.77125
| 53>    O       -0.55779         5.37379        -4.95327
| 54>    C       -2.85635         5.26697        -4.22968
| 55>    C       -3.91382         4.34306        -4.17565
| 56>    H       -0.44409         5.38999        -2.07292
| 57>    H       -1.54331         0.66712        -0.78658
| 58>    H        1.85363         4.23456        -2.55988
| 59>    H        0.08341         0.33787        -3.46205
| 60>    H        1.51674        -2.33115        -3.90539
| 61>    H        0.74330        -4.51453        -5.51049
| 62>    H       -3.22462        -4.74224        -6.89811
| 63>    H       -3.08561         0.73209        -5.76263
| 64>    H       -5.43551         2.07492        -4.33454
| 65>    H        0.10166         4.79171        -5.34781
| 66>    H       -2.91685         6.28440        -3.89163
| 67>    H       -4.88578         4.58306        -3.78332
| 68> *
| 69>
| 70>                          ****END OF INPUT****

CARTESIAN COORDINATES (ANGSTROEM)
---------------------------------
  C     -0.197350    4.354570   -1.958530
  S     -1.406080    3.258370   -1.395670
  C     -0.289670    1.930760   -1.491800
  O     -0.636930    0.685710   -1.113220
  C      0.939480    2.328030   -1.952120
  C      0.973750    3.729920   -2.204920
  C      2.095930    1.450950   -2.116560
  C      3.335090    1.758870   -1.653770
  F      3.684950    2.870310   -1.004670
  S      4.540680    0.544480   -1.940860
  C      3.323490   -0.408360   -2.716850
  F      3.674170   -1.587460   -3.236210
  C      2.081620    0.163430   -2.764740
  C      0.906820   -0.359120   -3.399880
  C      0.728630   -1.592950   -3.911290
  C     -0.512020   -1.992670   -4.481120
  S     -1.931250   -0.983350   -4.351670
  C     -2.947800   -2.049460   -5.272050
  C     -2.215850   -3.170640   -5.651390
  C     -0.852670   -3.121510   -5.198110
  N     -0.215340   -4.235840   -5.646280
  C     -1.123850   -4.974530   -6.367090
  N     -0.716300   -6.185500   -6.954880
  O      0.447130   -6.511830   -6.773110
  O     -1.530240   -6.816640   -7.596990
  C     -2.356130   -4.362660   -6.402000
  C     -4.333470   -1.731960   -5.472520
  C     -5.328570   -2.657440   -5.637090
  F     -5.182880   -3.981260   -5.663260
  S     -6.924930   -2.004380   -5.747670
  C     -6.238790   -0.424500   -5.557070
  F     -7.052870    0.630970   -5.589770
  C     -4.881510   -0.393440   -5.433160
  C     -4.076660    0.801090   -5.335070
  C     -4.452730    1.960900   -4.770470
  C     -3.607810    3.104960   -4.676700
  S     -1.942240    3.068290   -5.222410
  C     -1.723830    4.732170   -4.771250
  O     -0.557790    5.373790   -4.953270
  C     -2.856350    5.266970   -4.229680
  C     -3.913820    4.343060   -4.175650
  H     -0.444090    5.389990   -2.072920
  H     -1.543310    0.667120   -0.786580
  H      1.853630    4.234560   -2.559880
  H      0.083410    0.337870   -3.462050
  H      1.516740   -2.331150   -3.905390
  H      0.743300   -4.514530   -5.510490
  H     -3.224620   -4.742240   -6.898110
  H     -3.085610    0.732090   -5.762630
  H     -5.435510    2.074920   -4.334540
  H      0.101660    4.791710   -5.347810
  H     -2.916850    6.284400   -3.891630
  H     -4.885780    4.583060   -3.783320

 Total Charge           Charge          ....    0
 Multiplicity           Mult            ....    1
 Number of Electrons    NEL             ....  330
 Basis Dimension        Dim             ....  654

ORBITAL ENERGIES
----------------

  NO   OCC          E(Eh)            E(eV)
   0   2.0000     -88.978533     -2421.2290
   1   2.0000     -88.971149     -2421.0280
   2   2.0000     -88.965166     -2420.8653
   3   2.0000     -88.956109     -2420.6188
   4   2.0000     -88.955988     -2420.6155
   5   2.0000     -24.810331      -675.1234
   6   2.0000     -24.805719      -674.9979
   7   2.0000     -24.803445      -674.9360
   8   2.0000     -24.798335      -674.7970
   9   2.0000     -19.266403      -524.2655
  10   2.0000     -19.266171      -524.2592
  11   2.0000     -19.239778      -523.5410
  12   2.0000     -19.239662      -523.5378
  13   2.0000     -14.649609      -398.6361
  14   2.0000     -14.469196      -393.7268
  15   2.0000     -10.384862      -282.5865
  16   2.0000     -10.380867      -282.4777
  17   2.0000     -10.375013      -282.3184
  18   2.0000     -10.373639      -282.2811
  19   2.0000     -10.358525      -281.8698
  20   2.0000     -10.355845      -281.7969
  21   2.0000     -10.354724      -281.7664
  22   2.0000     -10.319474      -280.8072
  23   2.0000     -10.316475      -280.7256
  24   2.0000     -10.302948      -280.3575
  25   2.0000     -10.301225      -280.3106
  26   2.0000     -10.295581      -280.1570
  27   2.0000     -10.294094      -280.1165
  28   2.0000     -10.289931      -280.0033
  29   2.0000     -10.288262      -279.9579
  30   2.0000     -10.287040      -279.9246
  31   2.0000     -10.287010      -279.9238
  32   2.0000     -10.286438      -279.9082
  33   2.0000     -10.284587      -279.8578
  34   2.0000     -10.281695      -279.7791
  35   2.0000     -10.277112      -279.6544
  36   2.0000     -10.276180      -279.6291
  37   2.0000     -10.275584      -279.6129
  38   2.0000     -10.275336      -279.6061
  39   2.0000     -10.272291      -279.5232
  40   2.0000     -10.262672      -279.2615
  41   2.0000      -8.075727      -219.7517
  42   2.0000      -8.068293      -219.5494
  43   2.0000      -8.059115      -219.2997
  44   2.0000      -8.052629      -219.1232
  45   2.0000      -8.052329      -219.1150
  46   2.0000      -6.044938      -164.4911
  47   2.0000      -6.041329      -164.3929
  48   2.0000      -6.037506      -164.2889
  49   2.0000      -6.037037      -164.2761
  50   2.0000      -6.033887      -164.1904
  51   2.0000      -6.029649      -164.0751
  52   2.0000      -6.028375      -164.0404
  53   2.0000      -6.024220      -163.9274
  54   2.0000      -6.022009      -163.8672
  55   2.0000      -6.021607      -163.8563
  56   2.0000      -6.021569      -163.8552
  57   2.0000      -6.017845      -163.7539
  58   2.0000      -6.017811      -163.7530
  59   2.0000      -6.014424      -163.6608
  60   2.0000      -6.014033      -163.6502
  61   2.0000      -1.325628       -36.0722
  62   2.0000      -1.320661       -35.9370
  63   2.0000      -1.320070       -35.9209
  64   2.0000      -1.317398       -35.8482
  65   2.0000      -1.313215       -35.7344
  66   2.0000      -1.162552       -31.6346
  67   2.0000      -1.162411       -31.6308
  68   2.0000      -1.139698       -31.0128
  69   2.0000      -1.095177       -29.8013
  70   2.0000      -1.003931       -27.3184
  71   2.0000      -0.993721       -27.0405
  72   2.0000      -0.978089       -26.6152
  73   2.0000      -0.975398       -26.5419
  74   2.0000      -0.970439       -26.4070
  75   2.0000      -0.915059       -24.9000
  76   2.0000      -0.902571       -24.5602
  77   2.0000      -0.899876       -24.4869
  78   2.0000      -0.878252       -23.8985
  79   2.0000      -0.872214       -23.7341
  80   2.0000      -0.861103       -23.4318
  81   2.0000      -0.839075       -22.8324
  82   2.0000      -0.827558       -22.5190
  83   2.0000      -0.823560       -22.4102
  84   2.0000      -0.807624       -21.9766
  85   2.0000      -0.797093       -21.6900
  86   2.0000      -0.789634       -21.4870
  87   2.0000      -0.785982       -21.3877
  88   2.0000      -0.764665       -20.8076
  89   2.0000      -0.727126       -19.7861
  90   2.0000      -0.721181       -19.6243
  91   2.0000      -0.702252       -19.1093
  92   2.0000      -0.696115       -18.9423
  93   2.0000      -0.690849       -18.7990
  94   2.0000      -0.684558       -18.6278
  95   2.0000      -0.681316       -18.5396
  96   2.0000      -0.673394       -18.3240
  97   2.0000      -0.670128       -18.2351
  98   2.0000      -0.654442       -17.8083
  99   2.0000      -0.644325       -17.5330
 100   2.0000      -0.639274       -17.3955
 101   2.0000      -0.638622       -17.3778
 102   2.0000      -0.632306       -17.2059
 103   2.0000      -0.622979       -16.9521
 104   2.0000      -0.613491       -16.6939
 105   2.0000      -0.608851       -16.5677
 106   2.0000      -0.601761       -16.3747
 107   2.0000      -0.597819       -16.2675
 108   2.0000      -0.594262       -16.1707
 109   2.0000      -0.593024       -16.1370
 110   2.0000      -0.584818       -15.9137
 111   2.0000      -0.582948       -15.8628
 112   2.0000      -0.581162       -15.8142
 113   2.0000      -0.574240       -15.6259
 114   2.0000      -0.568564       -15.4714
 115   2.0000      -0.562960       -15.3189
 116   2.0000      -0.560176       -15.2432
 117   2.0000      -0.554785       -15.0965
 118   2.0000      -0.550082       -14.9685
 119   2.0000      -0.548063       -14.9136
 120   2.0000      -0.540747       -14.7145
 121   2.0000      -0.530674       -14.4404
 122   2.0000      -0.529245       -14.4015
 123   2.0000      -0.524554       -14.2738
 124   2.0000      -0.517330       -14.0773
 125   2.0000      -0.514904       -14.0113
 126   2.0000      -0.512498       -13.9458
 127   2.0000      -0.508252       -13.8302
 128   2.0000      -0.503346       -13.6967
 129   2.0000      -0.497992       -13.5511
 130   2.0000      -0.491135       -13.3645
 131   2.0000      -0.480483       -13.0746
 132   2.0000      -0.477570       -12.9953
 133   2.0000      -0.471296       -12.8246
 134   2.0000      -0.464520       -12.6402
 135   2.0000      -0.457504       -12.4493
 136   2.0000      -0.453727       -12.3465
 137   2.0000      -0.452093       -12.3021
 138   2.0000      -0.446748       -12.1566
 139   2.0000      -0.444999       -12.1090
 140   2.0000      -0.443486       -12.0679
 141   2.0000      -0.439744       -11.9660
 142   2.0000      -0.436570       -11.8797
 143   2.0000      -0.433533       -11.7970
 144   2.0000      -0.429905       -11.6983
 145   2.0000      -0.424763       -11.5584
 146   2.0000      -0.417948       -11.3729
 147   2.0000      -0.413856       -11.2616
 148   2.0000      -0.409919       -11.1545
 149   2.0000      -0.403276       -10.9737
 150   2.0000      -0.387013       -10.5312
 151   2.0000      -0.378722       -10.3056
 152   2.0000      -0.377341       -10.2680
 153   2.0000      -0.369546       -10.0559
 154   2.0000      -0.365281        -9.9398
 155   2.0000      -0.341964        -9.3053
 156   2.0000      -0.335658        -9.1337
 157   2.0000      -0.325356        -8.8534
 158   2.0000      -0.316253        -8.6057
 159   2.0000      -0.307189        -8.3590
 160   2.0000      -0.304304        -8.2805
 161   2.0000      -0.293280        -7.9806
 162   2.0000      -0.269928        -7.3451
 163   2.0000      -0.250536        -6.8174
 164   2.0000      -0.233632        -6.3575
 165   0.0000      -0.065089        -1.7712
 166   0.0000      -0.023737        -0.6459
 167   0.0000      -0.020390        -0.5548
 168   0.0000       0.016785         0.4568
 169   0.0000       0.028648         0.7795

MULLIKEN ATOMIC CHARGES
-----------------------
   0 C :   -0.062202
   1 S :    0.068365
   2 C :   -0.045019
   3 O :   -0.169065
   4 C :   -0.012345
   5 C :    0.024911
   6 C :    0.067656
   7 C :    0.045569
   8 F :   -0.162467
   9 S :    0.090823
  10 C :    0.020410
  11 F :   -0.166848
  12 C :    0.135422
  13 C :   -0.037199
  14 C :    0.001726
  15 C :   -0.154340
  16 S :    0.106121
  17 C :   -0.178657
  18 C :    0.132281
  19 C :    0.117978
  20 N :   -0.039875
  21 C :    0.135496
  22 N :    0.287977
  23 O :   -0.273944
  24 O :   -0.238763
  25 C :   -0.095109
  26 C :    0.115565
  27 C :    0.033472
  28 F :   -0.156178
  29 S :    0.101985
  30 C :    0.039402
  31 F :   -0.162378
  32 C :    0.074630
  33 C :   -0.070465
  34 C :    0.054338
  35 C :   -0.085443
  36 S :    0.058270
  37 C :    0.060184
  38 O :   -0.175071
  39 C :   -0.016106
  40 C :    0.024388
  41 H :    0.030302
  42 H :    0.195048
  43 H :   -0.015925
  44 H :    0.003110
  45 H :   -0.016186
  46 H :    0.140007
  47 H :   -0.003939
  48 H :    0.020707
  49 H :   -0.008684
  50 H :    0.194100
  51 H :   -0.017783
  52 H :   -0.016252
Sum of atomic charges:   -0.0000000

LOEWDIN ATOMIC CHARGES
----------------------
   0 C :   -0.189562
   1 S :    0.398117
   2 C :   -0.104359
   3 O :   -0.042484
   4 C :   -0.120944
   5 C :   -0.052235
   6 C :   -0.079928
   7 C :   -0.087525
   8 F :   -0.054481
   9 S :    0.410914
  10 C :   -0.087191
  11 F :   -0.054590
  12 C :   -0.085148
  13 C :   -0.028595
  14 C :   -0.042096
  15 C :   -0.209725
  16 S :    0.492049
  17 C :   -0.172657
  18 C :   -0.066591
  19 C :   -0.004589
  20 N :    0.059188
  21 C :   -0.004680
  22 N :    0.279709
  23 O :   -0.229094
  24 O :   -0.200384
  25 C :   -0.026828
  26 C :   -0.103233
  27 C :   -0.086831
  28 F :   -0.044098
  29 S :    0.420845
  30 C :   -0.086501
  31 F :   -0.051230
  32 C :   -0.089371
  33 C :   -0.072198
  34 C :   -0.018732
  35 C :   -0.188385
  36 S :    0.382123
  37 C :   -0.088286
  38 O :   -0.041849
  39 C :   -0.123135
  40 C :   -0.038700
  41 H :    0.023870
  42 H :    0.098285
  43 H :    0.029254
  44 H :    0.020958
  45 H :    0.026803
  46 H :    0.093503
  47 H :    0.037082
  48 H :    0.011290
  49 H :    0.034155
  50 H :    0.097249
  51 H :    0.030149
  52 H :    0.030693

  Mayer bond orders larger than 0.100000
B(  0-C ,  1-S ) :   1.1184 B(  0-C ,  5-C ) :   1.6116 B(  0-C , 41-H ) :   0.9654
B(  1-S ,  2-C ) :   1.1221 B(  2-C ,  3-O ) :   1.2113 B(  2-C ,  4-C ) :   1.5274
B(  3-O , 42-H ) :   0.9509 B(  4-C ,  5-C ) :   1.2444 B(  4-C ,  6-C ) :   0.9340
B(  5-C , 43-H ) :   1.0037 B(  6-C ,  7-C ) :   1.5299 B(  6-C , 12-C ) :   1.1927
B(  7-C ,  8-F ) :   1.1293 B(  7-C ,  9-S ) :   1.1001 B(  9-S , 10-C ) :   1.1174
B( 10-C , 11-F ) :   1.1001 B( 10-C , 12-C ) :   1.4294 B( 12-C , 13-C ) :   1.1003
B( 13-C , 14-C ) :   1.6988 B( 13-C , 44-H ) :   0.9534 B( 14-C , 15-C ) :   1.1346
B( 14-C , 45-H ) :   0.9825 B( 15-C , 16-S ) :   1.0857 B( 15-C , 17-C ) :   0.1262
B( 15-C , 19-C ) :   1.3995 B( 16-S , 17-C ) :   1.1620 B( 17-C , 18-C ) :   1.3899
B( 17-C , 26-C ) :   1.0605 B( 18-C , 19-C ) :   1.2039 B( 18-C , 25-C ) :   1.1308
B( 19-C , 20-N ) :   1.1791 B( 20-N , 21-C ) :   1.1608 B( 20-N , 46-H ) :   0.9123
B( 21-C , 22-N ) :   0.9269 B( 21-C , 25-C ) :   1.5240 B( 22-N , 23-O ) :   1.4692
B( 22-N , 24-O ) :   1.5449 B( 23-O , 24-O ) :   0.2681 B( 25-C , 47-H ) :   1.0210
B( 26-C , 27-C ) :   1.4582 B( 26-C , 32-C ) :   1.1598 B( 27-C , 28-F ) :   1.1211
B( 27-C , 29-S ) :   1.1157 B( 29-S , 30-C ) :   1.1060 B( 30-C , 31-F ) :   1.1176
B( 30-C , 32-C ) :   1.4840 B( 32-C , 33-C ) :   1.0591 B( 33-C , 34-C ) :   1.7314
B( 33-C , 48-H ) :   0.9334 B( 34-C , 35-C ) :   1.1532 B( 34-C , 49-H ) :   0.9811
B( 35-C , 36-S ) :   1.0661 B( 35-C , 40-C ) :   1.5287 B( 36-S , 37-C ) :   1.1213
B( 37-C , 38-O ) :   1.1858 B( 37-C , 39-C ) :   1.5261 B( 38-O , 50-H ) :   0.9522
B( 39-C , 40-C ) :   1.2171 B( 39-C , 51-H ) :   1.0031 B( 40-C , 52-H ) :   1.0000

-----------------------------------------------------------------------------
         ABSORPTION SPECTRUM VIA TRANSITION ELECTRIC DIPOLE MOMENTS
-----------------------------------------------------------------------------
State   Energy  Wavelength   fosc         T2         TX        TY        TZ
        (cm-1)    (nm)                  (au**2)     (au)      (au)      (au)
-----------------------------------------------------------------------------
   0   19500.4    512.8   0.254174242   4.29106   2.00846  -0.26281   0.43370
   1   25066.9    398.9   0.001206651   0.01585  -0.10158   0.05107  -0.05404
   2   28705.7    348.4   0.210215871   2.41086   1.08900   0.91399   0.62416
   3   29148.0    343.1   0.376448092   4.25180   1.80193   0.33740   0.94393
   4   29953.3    333.9   0.005121410   0.05629   0.06647   0.18883   0.12734
   5   32661.0    306.2   0.592428248   5.97148   0.02502   2.23252   0.99332
   6   33626.1    297.4   0.461258799   4.51589  -1.37230  -1.57854  -0.37536
   7   33640.9    297.3   0.454117683   4.44402  -1.37968  -1.54996  -0.37167
   8   34850.0    286.9   0.297564867   2.81096   0.49837  -1.40869  -0.76038
   9   35458.8    282.0   0.146553511   1.36065   0.29288   1.04241   0.43388
  10   36236.6    276.0   0.013229471   0.12019   0.30531  -0.06354  -0.15146
  11   37491.0    266.7   0.003681860   0.03233  -0.12177   0.11842  -0.05897
  12   37665.0    265.5   0.045645348   0.39896   0.26972   0.57101  -0.01287
  13   38370.0    260.6   0.011081434   0.09508   0.22875   0.19408   0.07131
  14   38509.1    259.7   0.000604185   0.00517  -0.06214  -0.02726  -0.02368
  15   39387.1    253.9   0.002251292   0.01882   0.09773  -0.02765   0.09220
  16   39807.0    251.2   0.084625196   0.69987   0.34057  -0.65998  -0.38511

FINAL SINGLE POINT ENERGY     -3795.764088979991

DIPOLE MOMENT
-------------
                                X             Y             Z
Electronic contribution:      1.22652     -16.85668       0.28579
Nuclear contribution   :     -1.66424      18.69446       0.55316
                        -----------------------------------------
Total Dipole Moment    :     -0.43773       1.83778       0.83894
                        -----------------------------------------
Magnitude (a.u.)       :      2.06709
Magnitude (Debye)      :      5.25413

Rotational constants in cm-1:     0.002623     0.001774     0.001144
Rotational constants in MHz :    78.636153    53.170724    34.303398

                             ****ORCA TERMINATED NORMALLY****
TOTAL RUN TIME: 0 days 0 hours 3 minutes 8 seconds 430 msec
