                         Program Version 4.2.0 -  RELEASE  -
|  1> # ORCA input file
|  2> # SCF done       -187.670024773014          0.000670683666
|  3> ! CAM-B3LYP def2-SVP def2/J RIJCOSX Grid4 TightSCF
|  4> %maxcore 5000
|  5> %tddft
|  6>     Mode sTDDFT
|  7>     Ethresh 5.0
|  8>     maxcore 5000
|  9> end
| 10>
| 11> %pal
| 12>   nprocs 6
| 13>   end
| 14> * xyz 0 1
| 15>    C        3.10352       -15.08752        -6.22280
| 16>    S        1.54905       -14.66566        -5.60009
| 17>    C        1.99999       -12.99714        -5.51494
| 18>    O        1.14053       -12.03700        -5.14303
| 19>    C        3.27681       -12.78994        -5.97646
| 20>    C        3.89432       -14.00723        -6.38561
| 21>    C        3.91422       -11.48380        -5.99055
| 22>    C        3.95342       -10.67539        -4.85113
| 23>    C        3.45346       -10.93637        -3.48432
| 24>    O        2.90061       -11.90258        -3.02676
| 25>    N        3.77608        -9.79262        -2.73300
| 26>    C        4.45838        -8.83896        -3.48700
| 27>    O        4.86148        -7.77300        -3.09954
| 28>    C        4.57805        -9.42504        -4.84470
| 29>    C        5.20460        -8.90727        -5.96172
| 30>    C        5.16758        -9.69815        -7.10407
| 31>    C        4.53860       -10.94552        -7.13119
| 32>    C        4.52274       -11.57776        -8.46081
| 33>    O        3.99110       -12.58918        -8.80755
| 34>    S        5.43704       -10.53143        -9.61608
| 35>    C        5.76904        -9.27427        -8.38264
| 36>    O        6.37791        -8.27088        -8.60392
| 37>    C        3.41329        -9.71074        -1.39084
| 38>    C        3.71262        -8.69991        -0.56878
| 39>    C        3.31793        -8.61637         0.82256
| 40>    C        2.32386        -9.39584         1.37233
| 41>    C        1.98312        -9.24914         2.72925
| 42>    C        1.02601        -9.89959         3.50693
| 43>    C        0.09622       -10.96364         3.05223
| 44>    C        0.37145       -12.29692         3.77346
| 45>    N        1.64859       -12.81798         3.31678
| 46>    C       -1.38900       -10.53091         3.21086
| 47>    N       -2.32631       -11.28003         2.41166
| 48>    C        1.12549        -9.34625         4.83942
| 49>    C        0.43213        -9.58986         5.96818
| 50>    C        0.76757        -8.90736         7.25203
| 51>    C        1.87221        -7.91004         7.16633
| 52>    C        2.52769        -7.64702         6.01894
| 53>    C        2.19413        -8.33996         4.83317
| 54>    C        2.70009        -8.28356         3.54315
| 55>    C        3.70951        -7.49273         2.95623
| 56>    C        3.99411        -7.65357         1.63589
| 57>    C        1.04917       -10.03169         8.22214
| 58>    C        2.26750       -10.38097         8.61452
| 59>    C        2.53396       -11.49602         9.51341
| 60>    C        3.36104       -11.32063        10.62163
| 61>    C        4.08208       -10.10484        11.05867
| 62>    O        4.10172        -9.01718        10.53308
| 63>    N        4.75346       -10.46669        12.22610
| 64>    C        4.51559       -11.80194        12.58614
| 65>    O        4.97577       -12.34356        13.55764
| 66>    C        3.61957       -12.34245        11.54380
| 67>    C        3.07560       -13.60350        11.40211
| 68>    C        2.28256       -13.80880        10.27767
| 69>    C        2.01372       -12.79403         9.34576
| 70>    C        1.24357       -13.25136         8.18294
| 71>    O        0.92038       -12.64427         7.19781
| 72>    S        0.83211       -14.98886         8.39093
| 73>    C        1.68713       -15.11443         9.96846
| 74>    O        1.73673       -16.12065        10.61121
| 75>    C        5.58745        -9.67188        13.00967
| 76>    C        5.91605        -8.39910        12.75347
| 77>    C        6.78521        -7.62076        13.58107
| 78>    S        7.15253        -5.97827        13.10519
| 79>    C        8.17112        -5.76218        14.49497
| 80>    O        8.81737        -4.60899        14.73980
| 81>    C        8.21727        -6.88649        15.26702
| 82>    C        7.43445        -7.93188        14.74707
| 83>    H        3.32150       -16.11554        -6.42816
| 84>    H        0.35604       -12.42054        -4.73395
| 85>    H        4.90216       -14.05721        -6.75377
| 86>    H        5.69261        -7.94591        -5.95763
| 87>    H        2.86353       -10.58794        -1.07708
| 88>    H        4.30588        -7.87722        -0.93924
| 89>    H        1.79222       -10.11162         0.76558
| 90>    H        0.27824       -11.14018         1.98621
| 91>    H       -0.39415       -13.02735         3.49306
| 92>    H        0.32526       -12.15073         4.86102
| 93>    H        2.39766       -12.19615         3.60501
| 94>    H        1.82437       -13.72807         3.72731
| 95>    H       -1.47904        -9.47917         2.92560
| 96>    H       -1.69251       -10.62907         4.25466
| 97>    H       -2.30993       -12.26464         2.65108
| 98>    H       -2.11731       -11.18946         1.42383
| 99>    H       -0.36397       -10.31712         6.01328
|100>    H       -0.13776        -8.39308         7.61078
|101>    H        2.12600        -7.40565         8.08600
|102>    H        3.31780        -6.91107         5.99132
|103>    H        4.23828        -6.76611         3.55491
|104>    H        4.75925        -7.05021         1.16983
|105>    H        0.18170       -10.58894         8.54675
|106>    H        3.12772        -9.78725         8.33799
|107>    H        3.26047       -14.39738        12.10780
|108>    H        5.95941       -10.21056        13.86955
|109>    H        5.52220        -7.90542        11.87796
|110>    H        8.63695        -3.95711        14.05294
|111>    H        8.79518        -6.94829        16.16973
|112>    H        7.35307        -8.89089        15.22445
|113> *
|114>
|115>                          ****END OF INPUT****

CARTESIAN COORDINATES (ANGSTROEM)
---------------------------------
  C      3.103520  -15.087520   -6.222800
  S      1.549050  -14.665660   -5.600090
  C      1.999990  -12.997140   -5.514940
  O      1.140530  -12.037000   -5.143030
  C      3.276810  -12.789940   -5.976460
  C      3.894320  -14.007230   -6.385610
  C      3.914220  -11.483800   -5.990550
  C      3.953420  -10.675390   -4.851130
  C      3.453460  -10.936370   -3.484320
  O      2.900610  -11.902580   -3.026760
  N      3.776080   -9.792620   -2.733000
  C      4.458380   -8.838960   -3.487000
  O      4.861480   -7.773000   -3.099540
  C      4.578050   -9.425040   -4.844700
  C      5.204600   -8.907270   -5.961720
  C      5.167580   -9.698150   -7.104070
  C      4.538600  -10.945520   -7.131190
  C      4.522740  -11.577760   -8.460810
  O      3.991100  -12.589180   -8.807550
  S      5.437040  -10.531430   -9.616080
  C      5.769040   -9.274270   -8.382640
  O      6.377910   -8.270880   -8.603920
  C      3.413290   -9.710740   -1.390840
  C      3.712620   -8.699910   -0.568780
  C      3.317930   -8.616370    0.822560
  C      2.323860   -9.395840    1.372330
  C      1.983120   -9.249140    2.729250
  C      1.026010   -9.899590    3.506930
  C      0.096220  -10.963640    3.052230
  C      0.371450  -12.296920    3.773460
  N      1.648590  -12.817980    3.316780
  C     -1.389000  -10.530910    3.210860
  N     -2.326310  -11.280030    2.411660
  C      1.125490   -9.346250    4.839420
  C      0.432130   -9.589860    5.968180
  C      0.767570   -8.907360    7.252030
  C      1.872210   -7.910040    7.166330
  C      2.527690   -7.647020    6.018940
  C      2.194130   -8.339960    4.833170
  C      2.700090   -8.283560    3.543150
  C      3.709510   -7.492730    2.956230
  C      3.994110   -7.653570    1.635890
  C      1.049170  -10.031690    8.222140
  C      2.267500  -10.380970    8.614520
  C      2.533960  -11.496020    9.513410
  C      3.361040  -11.320630   10.621630
  C      4.082080  -10.104840   11.058670
  O      4.101720   -9.017180   10.533080
  N      4.753460  -10.466690   12.226100
  C      4.515590  -11.801940   12.586140
  O      4.975770  -12.343560   13.557640
  C      3.619570  -12.342450   11.543800
  C      3.075600  -13.603500   11.402110
  C      2.282560  -13.808800   10.277670
  C      2.013720  -12.794030    9.345760
  C      1.243570  -13.251360    8.182940
  O      0.920380  -12.644270    7.197810
  S      0.832110  -14.988860    8.390930
  C      1.687130  -15.114430    9.968460
  O      1.736730  -16.120650   10.611210
  C      5.587450   -9.671880   13.009670
  C      5.916050   -8.399100   12.753470
  C      6.785210   -7.620760   13.581070
  S      7.152530   -5.978270   13.105190
  C      8.171120   -5.762180   14.494970
  O      8.817370   -4.608990   14.739800
  C      8.217270   -6.886490   15.267020
  C      7.434450   -7.931880   14.747070
  H      3.321500  -16.115540   -6.428160
  H      0.356040  -12.420540   -4.733950
  H      4.902160  -14.057210   -6.753770
  H      5.692610   -7.945910   -5.957630
  H      2.863530  -10.587940   -1.077080
  H      4.305880   -7.877220   -0.939240
  H      1.792220  -10.111620    0.765580
  H      0.278240  -11.140180    1.986210
  H     -0.394150  -13.027350    3.493060
  H      0.325260  -12.150730    4.861020
  H      2.397660  -12.196150    3.605010
  H      1.824370  -13.728070    3.727310
  H     -1.479040   -9.479170    2.925600
  H     -1.692510  -10.629070    4.254660
  H     -2.309930  -12.264640    2.651080
  H     -2.117310  -11.189460    1.423830
  H     -0.363970  -10.317120    6.013280
  H     -0.137760   -8.393080    7.610780
  H      2.126000   -7.405650    8.086000
  H      3.317800   -6.911070    5.991320
  H      4.238280   -6.766110    3.554910
  H      4.759250   -7.050210    1.169830
  H      0.181700  -10.588940    8.546750
  H      3.127720   -9.787250    8.337990
  H      3.260470  -14.397380   12.107800
  H      5.959410  -10.210560   13.869550
  H      5.522200   -7.905420   11.877960
  H      8.636950   -3.957110   14.052940
  H      8.795180   -6.948290   16.169730
  H      7.353070   -8.890890   15.224450

 Total Charge           Charge          ....    0
 Multiplicity           Mult            ....    1
 Number of Electrons    NEL             ....  502
 Basis Dimension        Dim             .... 1118

ORBITAL ENERGIES
----------------

  NO   OCC          E(Eh)            E(eV)
   0   2.0000     -88.958948     -2420.6960
   1   2.0000     -88.955599     -2420.6049
   2   2.0000     -88.953781     -2420.5554
   3   2.0000     -88.945882     -2420.3405
   4   2.0000     -19.268405      -524.3200
   5   2.0000     -19.261544      -524.1332
   6   2.0000     -19.251755      -523.8669
   7   2.0000     -19.251672      -523.8646
   8   2.0000     -19.239062      -523.5215
   9   2.0000     -19.238876      -523.5164
  10   2.0000     -19.238452      -523.5049
  11   2.0000     -19.237303      -523.4736
  12   2.0000     -19.226452      -523.1784
  13   2.0000     -19.226005      -523.1662
  14   2.0000     -14.487443      -394.2234
  15   2.0000     -14.475477      -393.8978
  16   2.0000     -14.369965      -391.0266
  17   2.0000     -14.364154      -390.8685
  18   2.0000     -10.417583      -283.4768
  19   2.0000     -10.417012      -283.4613
  20   2.0000     -10.416349      -283.4433
  21   2.0000     -10.412653      -283.3427
  22   2.0000     -10.405900      -283.1589
  23   2.0000     -10.405368      -283.1445
  24   2.0000     -10.401607      -283.0421
  25   2.0000     -10.400328      -283.0073
  26   2.0000     -10.360577      -281.9256
  27   2.0000     -10.353528      -281.7338
  28   2.0000     -10.340005      -281.3659
  29   2.0000     -10.334645      -281.2200
  30   2.0000     -10.334306      -281.2108
  31   2.0000     -10.330752      -281.1141
  32   2.0000     -10.330518      -281.1077
  33   2.0000     -10.328668      -281.0573
  34   2.0000     -10.326689      -281.0035
  35   2.0000     -10.321650      -280.8664
  36   2.0000     -10.320149      -280.8255
  37   2.0000     -10.317733      -280.7598
  38   2.0000     -10.315542      -280.7002
  39   2.0000     -10.315432      -280.6972
  40   2.0000     -10.313625      -280.6480
  41   2.0000     -10.305952      -280.4392
  42   2.0000     -10.298066      -280.2246
  43   2.0000     -10.297517      -280.2097
  44   2.0000     -10.295007      -280.1414
  45   2.0000     -10.293006      -280.0869
  46   2.0000     -10.285076      -279.8711
  47   2.0000     -10.284308      -279.8503
  48   2.0000     -10.281938      -279.7858
  49   2.0000     -10.275383      -279.6074
  50   2.0000     -10.274174      -279.5745
  51   2.0000     -10.272903      -279.5399
  52   2.0000     -10.271056      -279.4896
  53   2.0000     -10.268766      -279.4273
  54   2.0000     -10.267740      -279.3994
  55   2.0000     -10.267404      -279.3903
  56   2.0000     -10.267081      -279.3815
  57   2.0000     -10.263106      -279.2733
  58   2.0000     -10.263067      -279.2723
  59   2.0000     -10.260176      -279.1936
  60   2.0000     -10.259817      -279.1838
  61   2.0000     -10.257993      -279.1342
  62   2.0000     -10.256610      -279.0965
  63   2.0000     -10.254660      -279.0435
  64   2.0000     -10.254356      -279.0352
  65   2.0000     -10.253882      -279.0223
  66   2.0000     -10.250435      -278.9285
  67   2.0000     -10.250171      -278.9213
  68   2.0000      -8.058188      -219.2744
  69   2.0000      -8.052698      -219.1250
  70   2.0000      -8.050598      -219.0679
  71   2.0000      -8.045073      -218.9176
  72   2.0000      -6.027050      -164.0044
  73   2.0000      -6.023792      -163.9157
  74   2.0000      -6.022142      -163.8708
  75   2.0000      -6.019840      -163.8082
  76   2.0000      -6.019233      -163.7917
  77   2.0000      -6.017877      -163.7547
  78   2.0000      -6.016054      -163.7051
  79   2.0000      -6.014409      -163.6604
  80   2.0000      -6.013912      -163.6469
  81   2.0000      -6.012295      -163.6029
  82   2.0000      -6.010691      -163.5592
  83   2.0000      -6.006153      -163.4357
  84   2.0000      -1.183257       -32.1981
  85   2.0000      -1.174697       -31.9651
  86   2.0000      -1.173156       -31.9232
  87   2.0000      -1.170575       -31.8530
  88   2.0000      -1.165533       -31.7158
  89   2.0000      -1.163339       -31.6561
  90   2.0000      -1.159355       -31.5477
  91   2.0000      -1.159168       -31.5426
  92   2.0000      -1.158169       -31.5154
  93   2.0000      -1.148296       -31.2467
  94   2.0000      -1.076427       -29.2911
  95   2.0000      -1.064798       -28.9746
  96   2.0000      -1.019193       -27.7337
  97   2.0000      -1.007644       -27.4194
  98   2.0000      -0.976309       -26.5667
  99   2.0000      -0.974243       -26.5105
 100   2.0000      -0.973188       -26.4818
 101   2.0000      -0.960439       -26.1349
 102   2.0000      -0.957157       -26.0456
 103   2.0000      -0.948602       -25.8128
 104   2.0000      -0.943568       -25.6758
 105   2.0000      -0.940242       -25.5853
 106   2.0000      -0.923798       -25.1378
 107   2.0000      -0.906642       -24.6710
 108   2.0000      -0.903507       -24.5857
 109   2.0000      -0.901662       -24.5355
 110   2.0000      -0.886396       -24.1201
 111   2.0000      -0.867332       -23.6013
 112   2.0000      -0.865453       -23.5502
 113   2.0000      -0.855843       -23.2887
 114   2.0000      -0.835518       -22.7356
 115   2.0000      -0.828503       -22.5447
 116   2.0000      -0.828299       -22.5392
 117   2.0000      -0.825954       -22.4754
 118   2.0000      -0.816350       -22.2140
 119   2.0000      -0.811917       -22.0934
 120   2.0000      -0.807943       -21.9852
 121   2.0000      -0.802483       -21.8367
 122   2.0000      -0.797512       -21.7014
 123   2.0000      -0.787605       -21.4318
 124   2.0000      -0.772728       -21.0270
 125   2.0000      -0.763778       -20.7834
 126   2.0000      -0.755419       -20.5560
 127   2.0000      -0.747463       -20.3395
 128   2.0000      -0.742200       -20.1963
 129   2.0000      -0.731627       -19.9086
 130   2.0000      -0.715135       -19.4598
 131   2.0000      -0.713187       -19.4068
 132   2.0000      -0.703174       -19.1343
 133   2.0000      -0.700005       -19.0481
 134   2.0000      -0.694492       -18.8981
 135   2.0000      -0.690777       -18.7970
 136   2.0000      -0.682095       -18.5608
 137   2.0000      -0.679494       -18.4900
 138   2.0000      -0.672057       -18.2876
 139   2.0000      -0.667372       -18.1601
 140   2.0000      -0.661573       -18.0023
 141   2.0000      -0.648577       -17.6487
 142   2.0000      -0.646405       -17.5896
 143   2.0000      -0.642857       -17.4930
 144   2.0000      -0.638181       -17.3658
 145   2.0000      -0.631447       -17.1825
 146   2.0000      -0.624882       -17.0039
 147   2.0000      -0.619004       -16.8439
 148   2.0000      -0.612384       -16.6638
 149   2.0000      -0.609795       -16.5934
 150   2.0000      -0.607425       -16.5289
 151   2.0000      -0.599439       -16.3116
 152   2.0000      -0.598840       -16.2953
 153   2.0000      -0.597299       -16.2533
 154   2.0000      -0.593352       -16.1459
 155   2.0000      -0.584884       -15.9155
 156   2.0000      -0.581275       -15.8173
 157   2.0000      -0.580440       -15.7946
 158   2.0000      -0.577555       -15.7161
 159   2.0000      -0.573665       -15.6102
 160   2.0000      -0.572105       -15.5678
 161   2.0000      -0.565883       -15.3985
 162   2.0000      -0.562993       -15.3198
 163   2.0000      -0.560869       -15.2620
 164   2.0000      -0.559090       -15.2136
 165   2.0000      -0.558066       -15.1857
 166   2.0000      -0.555448       -15.1145
 167   2.0000      -0.552347       -15.0301
 168   2.0000      -0.551753       -15.0140
 169   2.0000      -0.548746       -14.9321
 170   2.0000      -0.548228       -14.9180
 171   2.0000      -0.546691       -14.8762
 172   2.0000      -0.541101       -14.7241
 173   2.0000      -0.538594       -14.6559
 174   2.0000      -0.535955       -14.5841
 175   2.0000      -0.533987       -14.5305
 176   2.0000      -0.531865       -14.4728
 177   2.0000      -0.528447       -14.3798
 178   2.0000      -0.523694       -14.2504
 179   2.0000      -0.521558       -14.1923
 180   2.0000      -0.519449       -14.1349
 181   2.0000      -0.515866       -14.0374
 182   2.0000      -0.514837       -14.0094
 183   2.0000      -0.510500       -13.8914
 184   2.0000      -0.509901       -13.8751
 185   2.0000      -0.509600       -13.8669
 186   2.0000      -0.508760       -13.8441
 187   2.0000      -0.507857       -13.8195
 188   2.0000      -0.504860       -13.7379
 189   2.0000      -0.503285       -13.6951
 190   2.0000      -0.502701       -13.6792
 191   2.0000      -0.502269       -13.6674
 192   2.0000      -0.497897       -13.5485
 193   2.0000      -0.493542       -13.4300
 194   2.0000      -0.490098       -13.3362
 195   2.0000      -0.488314       -13.2877
 196   2.0000      -0.485098       -13.2002
 197   2.0000      -0.483617       -13.1599
 198   2.0000      -0.481489       -13.1020
 199   2.0000      -0.479166       -13.0388
 200   2.0000      -0.473765       -12.8918
 201   2.0000      -0.471536       -12.8311
 202   2.0000      -0.470214       -12.7952
 203   2.0000      -0.466900       -12.7050
 204   2.0000      -0.462973       -12.5981
 205   2.0000      -0.461009       -12.5447
 206   2.0000      -0.451053       -12.2738
 207   2.0000      -0.449749       -12.2383
 208   2.0000      -0.447153       -12.1677
 209   2.0000      -0.441228       -12.0064
 210   2.0000      -0.439341       -11.9551
 211   2.0000      -0.432675       -11.7737
 212   2.0000      -0.431640       -11.7455
 213   2.0000      -0.429362       -11.6835
 214   2.0000      -0.425313       -11.5734
 215   2.0000      -0.424399       -11.5485
 216   2.0000      -0.417842       -11.3701
 217   2.0000      -0.417594       -11.3633
 218   2.0000      -0.417077       -11.3492
 219   2.0000      -0.417028       -11.3479
 220   2.0000      -0.399784       -10.8787
 221   2.0000      -0.397898       -10.8273
 222   2.0000      -0.396981       -10.8024
 223   2.0000      -0.386124       -10.5070
 224   2.0000      -0.383012       -10.4223
 225   2.0000      -0.380526       -10.3546
 226   2.0000      -0.379009       -10.3134
 227   2.0000      -0.376384       -10.2419
 228   2.0000      -0.373483       -10.1630
 229   2.0000      -0.370104       -10.0711
 230   2.0000      -0.367834       -10.0093
 231   2.0000      -0.367341        -9.9959
 232   2.0000      -0.362026        -9.8512
 233   2.0000      -0.360326        -9.8050
 234   2.0000      -0.358304        -9.7499
 235   2.0000      -0.356877        -9.7111
 236   2.0000      -0.355706        -9.6792
 237   2.0000      -0.344853        -9.3839
 238   2.0000      -0.343710        -9.3528
 239   2.0000      -0.340084        -9.2542
 240   2.0000      -0.335397        -9.1266
 241   2.0000      -0.326524        -8.8852
 242   2.0000      -0.322390        -8.7727
 243   2.0000      -0.313474        -8.5301
 244   2.0000      -0.309320        -8.4170
 245   2.0000      -0.292775        -7.9668
 246   2.0000      -0.288718        -7.8564
 247   2.0000      -0.278640        -7.5822
 248   2.0000      -0.270796        -7.3687
 249   2.0000      -0.250590        -6.8189
 250   2.0000      -0.211398        -5.7524
 251   0.0000      -0.103176        -2.8076
 252   0.0000      -0.088318        -2.4032
 253   0.0000      -0.069556        -1.8927
 254   0.0000      -0.055789        -1.5181
 255   0.0000      -0.043794        -1.1917

MULLIKEN ATOMIC CHARGES
-----------------------
   0 C :   -0.098720
   1 S :    0.065314
   2 C :    0.004165
   3 O :   -0.170869
   4 C :   -0.067855
   5 C :    0.108562
   6 C :    0.080392
   7 C :   -0.018128
   8 C :    0.186406
   9 O :   -0.141576
  10 N :   -0.228377
  11 C :    0.206886
  12 O :   -0.140968
  13 C :    0.010906
  14 C :   -0.076198
  15 C :    0.046465
  16 C :    0.034427
  17 C :    0.024569
  18 O :   -0.111099
  19 S :    0.002015
  20 C :    0.047212
  21 O :   -0.121526
  22 C :    0.085389
  23 C :   -0.027084
  24 C :    0.105735
  25 C :   -0.080086
  26 C :    0.054418
  27 C :   -0.069524
  28 C :   -0.027346
  29 C :    0.138411
  30 N :   -0.225538
  31 C :    0.135957
  32 N :   -0.205993
  33 C :    0.095679
  34 C :   -0.109643
  35 C :    0.146648
  36 C :   -0.058584
  37 C :    0.011160
  38 C :    0.001193
  39 C :    0.038392
  40 C :   -0.007320
  41 C :   -0.014119
  42 C :   -0.040781
  43 C :   -0.003285
  44 C :    0.022662
  45 C :   -0.016323
  46 C :    0.211240
  47 O :   -0.153918
  48 N :   -0.228404
  49 C :    0.194298
  50 O :   -0.133827
  51 C :    0.019119
  52 C :   -0.070062
  53 C :    0.051188
  54 C :    0.042070
  55 C :    0.026658
  56 O :   -0.118386
  57 S :    0.011268
  58 C :    0.045259
  59 O :   -0.116988
  60 C :    0.047881
  61 C :    0.074320
  62 C :   -0.120019
  63 S :    0.064062
  64 C :    0.041357
  65 O :   -0.170840
  66 C :   -0.007876
  67 C :    0.026693
  68 H :    0.027571
  69 H :    0.198400
  70 H :   -0.015682
  71 H :    0.015818
  72 H :    0.029917
  73 H :    0.014206
  74 H :   -0.045026
  75 H :   -0.040027
  76 H :   -0.035272
  77 H :   -0.012175
  78 H :    0.096273
  79 H :    0.086251
  80 H :    0.006488
  81 H :   -0.017362
  82 H :    0.085156
  83 H :    0.087538
  84 H :    0.003375
  85 H :    0.036502
  86 H :   -0.003493
  87 H :   -0.036085
  88 H :   -0.040660
  89 H :   -0.028388
  90 H :    0.004114
  91 H :    0.038389
  92 H :    0.020294
  93 H :    0.024392
  94 H :    0.011844
  95 H :    0.191519
  96 H :   -0.015271
  97 H :   -0.015724
Sum of atomic charges:   -0.0000000

LOEWDIN ATOMIC CHARGES
----------------------
   0 C :   -0.195628
   1 S :    0.396723
   2 C :   -0.082170
   3 O :   -0.039650
   4 C :   -0.130043
   5 C :   -0.028629
   6 C :    0.047173
   7 C :   -0.033076
   8 C :    0.102831
   9 O :   -0.130861
  10 N :   -0.011563
  11 C :    0.097479
  12 O :   -0.132776
  13 C :   -0.025508
  14 C :    0.034345
  15 C :   -0.051621
  16 C :   -0.061613
  17 C :   -0.042128
  18 O :   -0.100611
  19 S :    0.291604
  20 C :   -0.048138
  21 O :   -0.114187
  22 C :    0.023922
  23 C :   -0.036310
  24 C :   -0.028200
  25 C :   -0.013069
  26 C :   -0.020239
  27 C :   -0.041964
  28 C :   -0.052840
  29 C :    0.021534
  30 N :   -0.120809
  31 C :    0.022082
  32 N :   -0.106556
  33 C :   -0.017628
  34 C :    0.073389
  35 C :   -0.028781
  36 C :   -0.041167
  37 C :   -0.014164
  38 C :   -0.041776
  39 C :   -0.028552
  40 C :   -0.013710
  41 C :   -0.024402
  42 C :    0.034470
  43 C :   -0.038079
  44 C :    0.038454
  45 C :   -0.030606
  46 C :    0.101776
  47 O :   -0.135254
  48 N :   -0.009114
  49 C :    0.097472
  50 O :   -0.131194
  51 C :   -0.027702
  52 C :    0.038347
  53 C :   -0.052010
  54 C :   -0.061218
  55 C :   -0.037736
  56 O :   -0.116282
  57 S :    0.299717
  58 C :   -0.044313
  59 O :   -0.108880
  60 C :    0.008679
  61 C :   -0.050966
  62 C :   -0.192168
  63 S :    0.379778
  64 C :   -0.098033
  65 O :   -0.047915
  66 C :   -0.110692
  67 C :   -0.041652
  68 H :    0.024387
  69 H :    0.101529
  70 H :    0.029836
  71 H :    0.050572
  72 H :    0.030804
  73 H :    0.031759
  74 H :    0.022589
  75 H :    0.020548
  76 H :    0.004337
  77 H :   -0.001472
  78 H :    0.052623
  79 H :    0.051852
  80 H :    0.020630
  81 H :    0.012301
  82 H :    0.046871
  83 H :    0.051169
  84 H :    0.027026
  85 H :    0.058838
  86 H :    0.026785
  87 H :    0.029841
  88 H :    0.025478
  89 H :    0.025842
  90 H :    0.023129
  91 H :    0.040637
  92 H :    0.052357
  93 H :    0.031001
  94 H :    0.032090
  95 H :    0.097024
  96 H :    0.032329
  97 H :    0.029693

  Mayer bond orders larger than 0.100000
B(  0-C ,  1-S ) :   1.1060 B(  0-C ,  5-C ) :   1.6309 B(  0-C , 68-H ) :   0.9706
B(  1-S ,  2-C ) :   1.1272 B(  2-C ,  3-O ) :   1.2211 B(  2-C ,  4-C ) :   1.5171
B(  3-O , 69-H ) :   0.9506 B(  4-C ,  5-C ) :   1.2314 B(  4-C ,  6-C ) :   0.9735
B(  5-C , 70-H ) :   0.9939 B(  6-C ,  7-C ) :   1.4126 B(  6-C , 16-C ) :   1.3867
B(  7-C ,  8-C ) :   0.8906 B(  7-C , 13-C ) :   1.3770 B(  8-C ,  9-O ) :   2.1779
B(  8-C , 10-N ) :   1.0360 B( 10-N , 11-C ) :   1.0425 B( 10-N , 22-C ) :   1.0030
B( 11-C , 12-O ) :   2.2002 B( 11-C , 13-C ) :   0.8763 B( 13-C , 14-C ) :   1.3335
B( 14-C , 15-C ) :   1.3320 B( 14-C , 71-H ) :   1.0283 B( 15-C , 16-C ) :   1.3356
B( 15-C , 20-C ) :   0.8407 B( 16-C , 17-C ) :   0.8496 B( 17-C , 18-O ) :   2.1976
B( 17-C , 19-S ) :   1.0131 B( 18-O , 19-S ) :   0.1061 B( 19-S , 20-C ) :   1.0278
B( 19-S , 21-O ) :   0.1090 B( 20-C , 21-O ) :   2.2203 B( 22-C , 23-C ) :   1.7398
B( 22-C , 72-H ) :   0.9638 B( 23-C , 24-C ) :   1.0367 B( 23-C , 73-H ) :   0.9684
B( 24-C , 25-C ) :   1.5401 B( 24-C , 41-C ) :   1.1291 B( 25-C , 26-C ) :   1.1539
B( 25-C , 74-H ) :   0.9869 B( 26-C , 27-C ) :   1.4764 B( 26-C , 39-C ) :   1.1202
B( 27-C , 28-C ) :   1.0236 B( 27-C , 33-C ) :   1.0835 B( 28-C , 29-C ) :   1.0188
B( 28-C , 31-C ) :   1.0062 B( 28-C , 75-H ) :   0.8731 B( 29-C , 30-N ) :   1.0891
B( 29-C , 76-H ) :   0.9262 B( 29-C , 77-H ) :   0.9330 B( 30-N , 78-H ) :   0.9716
B( 30-N , 79-H ) :   0.9674 B( 31-C , 32-N ) :   1.1215 B( 31-C , 80-H ) :   0.9523
B( 31-C , 81-H ) :   0.9377 B( 32-N , 82-H ) :   0.9824 B( 32-N , 83-H ) :   0.9793
B( 33-C , 34-C ) :   1.6856 B( 33-C , 38-C ) :   1.0535 B( 34-C , 35-C ) :   0.9647
B( 34-C , 84-H ) :   0.9517 B( 35-C , 36-C ) :   1.0087 B( 35-C , 42-C ) :   0.9790
B( 35-C , 85-H ) :   0.8590 B( 36-C , 37-C ) :   1.7062 B( 36-C , 86-H ) :   0.9714
B( 37-C , 38-C ) :   1.1304 B( 37-C , 87-H ) :   0.9950 B( 38-C , 39-C ) :   1.4244
B( 39-C , 40-C ) :   1.1474 B( 40-C , 41-C ) :   1.5921 B( 40-C , 88-H ) :   0.9924
B( 41-C , 89-H ) :   0.9908 B( 42-C , 43-C ) :   1.8870 B( 42-C , 90-H ) :   0.9684
B( 43-C , 44-C ) :   1.0497 B( 43-C , 91-H ) :   0.9200 B( 44-C , 45-C ) :   1.4002
B( 44-C , 54-C ) :   1.3611 B( 45-C , 46-C ) :   0.8991 B( 45-C , 51-C ) :   1.3724
B( 46-C , 47-O ) :   2.1326 B( 46-C , 48-N ) :   1.0572 B( 48-N , 49-C ) :   1.0293
B( 48-N , 60-C ) :   1.0004 B( 49-C , 50-O ) :   2.2343 B( 49-C , 51-C ) :   0.8700
B( 51-C , 52-C ) :   1.3382 B( 52-C , 53-C ) :   1.3384 B( 52-C , 92-H ) :   1.0276
B( 53-C , 54-C ) :   1.3316 B( 53-C , 58-C ) :   0.8443 B( 54-C , 55-C ) :   0.8540
B( 55-C , 56-O ) :   2.1368 B( 55-C , 57-S ) :   1.0335 B( 56-O , 57-S ) :   0.1050
B( 57-S , 58-C ) :   1.0194 B( 57-S , 59-O ) :   0.1065 B( 58-C , 59-O ) :   2.2248
B( 60-C , 61-C ) :   1.7559 B( 60-C , 93-H ) :   0.9717 B( 61-C , 62-C ) :   1.0934
B( 61-C , 94-H ) :   0.9498 B( 62-C , 63-S ) :   1.0846 B( 62-C , 67-C ) :   1.5601
B( 63-S , 64-C ) :   1.1165 B( 64-C , 65-O ) :   1.1931 B( 64-C , 66-C ) :   1.5223
B( 65-O , 95-H ) :   0.9565 B( 66-C , 67-C ) :   1.2389 B( 66-C , 96-H ) :   1.0025
B( 67-C , 97-H ) :   0.9911

-----------------------------------------------------------------------------
         ABSORPTION SPECTRUM VIA TRANSITION ELECTRIC DIPOLE MOMENTS
-----------------------------------------------------------------------------
State   Energy  Wavelength   fosc         T2         TX        TY        TZ
        (cm-1)    (nm)                  (au**2)     (au)      (au)      (au)
-----------------------------------------------------------------------------
   0    9926.3   1007.4   0.000785205   0.02604   0.04914   0.13455  -0.07432
   1   13169.1    759.4   0.030777375   0.76940   0.53684   0.61646   0.31808
   2   14911.8    670.6   0.000721052   0.01592  -0.04874  -0.11107   0.03475
   3   16394.1    610.0   0.003044209   0.06113  -0.08312   0.11341  -0.20337
   4   18873.7    529.8   0.012357635   0.21555   0.33853   0.24145   0.20653
   5   20416.7    489.8   0.018266648   0.29454  -0.16025   0.00263   0.51851
   6   23986.3    416.9   0.191313787   2.62579  -0.15738   0.42654   1.55534
   7   24414.9    409.6   0.015498802   0.20899   0.13234   0.16288  -0.40613
   8   24442.8    409.1   0.010857291   0.14623   0.12787   0.14784  -0.32867
   9   24478.8    408.5   0.004503860   0.06057   0.02381   0.24180  -0.03919
  10   25537.1    391.6   0.001187298   0.01531  -0.12345   0.00737   0.00354
  11   26069.0    383.6   0.497316430   6.28036   1.05625   1.31638   1.85252
  12   26517.3    377.1   0.044085238   0.54732  -0.49006  -0.28941   0.47265
  13   26616.3    375.7   0.000772732   0.00956  -0.02854  -0.01141   0.09281
  14   26741.9    373.9   0.301687911   3.71400   0.93142   0.44677  -1.62691
  15   28565.3    350.1   0.034168486   0.39379  -0.00087   0.38488   0.49564
  16   29031.1    344.5   0.012754759   0.14464   0.29087   0.24175  -0.03992
  17   29073.8    344.0   0.136130350   1.54145  -0.81044  -0.88304   0.32383
  18   29929.7    334.1   0.000070196   0.00077  -0.00404  -0.00909  -0.02595
  19   30186.9    331.3   0.040528286   0.44199  -0.37248  -0.48847  -0.25425
  20   30316.5    329.9   0.038552764   0.41865  -0.27724  -0.21071   0.54533
  21   30919.5    323.4   0.020819889   0.22168  -0.45909  -0.07387  -0.07390
  22   31003.2    322.5   0.042728691   0.45372   0.06071  -0.03811  -0.66976
  23   31026.4    322.3   0.100348641   1.06477  -0.53428  -0.84823  -0.24457
  24   31321.8    319.3   0.001577454   0.01658   0.07169   0.10172   0.03305
  25   32032.7    312.2   0.027816692   0.28588   0.07314   0.49874  -0.17830
  26   32229.6    310.3   0.006252749   0.06387  -0.13017  -0.13562  -0.16892
  27   32565.9    307.1   0.030749512   0.31085  -0.03596  -0.32171   0.45394
  28   32762.7    305.2   0.121441365   1.22029   0.18916   0.15015  -1.07794
  29   32836.8    304.5   0.001548592   0.01553   0.08940   0.01964   0.08454
  30   32901.4    303.9   0.130572909   1.30652   0.02326   0.06342  -1.14103
  31   32908.5    303.9   0.051044968   0.51065  -0.06673   0.01495   0.71132
  32   33451.9    298.9   0.004143043   0.04077  -0.16176  -0.08075   0.08992
  33   33715.7    296.6   0.121979770   1.19105  -0.21344  -0.04673  -1.06926
  34   33798.7    295.9   0.097999996   0.95456   0.72311  -0.00258  -0.65701
  35   33836.5    295.5   0.247542966   2.40846  -0.53617   0.14657   1.44897
  36   34166.4    292.7   0.425703618   4.10188  -0.13706   0.47519   1.96400
  37   34262.5    291.9   0.019328899   0.18572  -0.03632   0.10339   0.41679
  38   34572.2    289.2   0.068225418   0.64967   0.06332  -0.80091   0.06489
  39   35016.5    285.6   0.000732009   0.00688  -0.03613  -0.06534  -0.03617
  40   35152.7    284.5   0.024161282   0.22628  -0.18247  -0.37221   0.23332
  41   35392.3    282.5   0.002906274   0.02703   0.14009   0.06132  -0.06041
  42   35738.3    279.8   0.008303172   0.07649  -0.03902  -0.10005   0.25486
  43   35926.0    278.3   0.053102838   0.48661  -0.06168   0.05057  -0.69300
  44   36117.5    276.9   0.020703967   0.18872   0.17684   0.31139  -0.24594
  45   36218.1    276.1   0.053269479   0.48420  -0.25851  -0.42632   0.48542
  46   36363.4    275.0   0.091017972   0.82402  -0.09671   0.11480  -0.89526
  47   37056.6    269.9   0.030269566   0.26892  -0.29334  -0.37395   0.20742
  48   37302.6    268.1   0.154908937   1.36714   0.28176  -0.34408  -1.08137
  49   37518.1    266.5   0.021978323   0.19285  -0.16372  -0.15428   0.37716
  50   37952.5    263.5   0.001418142   0.01230   0.06184   0.08970  -0.02078
  51   38063.8    262.7   0.000626813   0.00542  -0.04474   0.03619   0.04594
  52   38324.0    260.9   0.000507017   0.00436  -0.05657  -0.03357   0.00530
  53   38644.2    258.8   0.013651871   0.11630   0.03027   0.22549   0.25404
  54   38863.8    257.3   0.015217134   0.12890   0.12709  -0.22115  -0.25267
  55   38970.0    256.6   0.056312693   0.47572  -0.16214   0.10733   0.66175
  56   39154.9    255.4   0.044958296   0.37801  -0.40980  -0.42925  -0.16069
  57   39228.3    254.9   0.005309261   0.04456   0.18851   0.07809   0.05405
  58   39748.0    251.6   0.002941748   0.02436   0.09670   0.03193  -0.11830
  59   40033.3    249.8   0.268161905   2.20522  -0.90216  -1.00253  -0.62150
  60   40211.7    248.7   0.309583783   2.53455  -0.68684  -1.20072  -0.78807

FINAL SINGLE POINT ENERGY     -4483.362523197703

DIPOLE MOMENT
-------------
                                X             Y             Z
Electronic contribution:     22.62002     -11.66769     -34.32360
Nuclear contribution   :    -23.05125      11.55289      36.13486
                        -----------------------------------------
Total Dipole Moment    :     -0.43123      -0.11480       1.81126
                        -----------------------------------------
Magnitude (a.u.)       :      1.86542
Magnitude (Debye)      :      4.74152

Rotational constants in cm-1:     0.001500     0.000274     0.000248
Rotational constants in MHz :    44.979182     8.219085     7.439842

                             ****ORCA TERMINATED NORMALLY****
TOTAL RUN TIME: 0 days 0 hours 8 minutes 38 seconds 204 msec
