                         Program Version 4.2.0 -  RELEASE  -
|  1> # ORCA input file
|  2> # SCF done       -149.947524983071          0.000915727204
|  3> ! CAM-B3LYP def2-SVP def2/J RIJCOSX Grid4 TightSCF
|  4> %maxcore 5000
|  5> %tddft
|  6>     Mode sTDDFT
|  7>     Ethresh 5.0
|  8>     maxcore 5000
|  9> end
| 10>
| 11> %pal
| 12>   nprocs 6
| 13>   end
| 14> * xyz 0 1
| 15>    C       -0.20784        -6.76483        -0.83432
| 16>    S       -0.80431        -5.22768        -1.35124
| 17>    C        0.58505        -4.43353        -0.68672
| 18>    O        0.80177        -3.11713        -0.82106
| 19>    C        1.45031        -5.32029        -0.08453
| 20>    C        0.97988        -6.66275        -0.20302
| 21>    C        2.70832        -4.96221         0.52556
| 22>    S        4.03516        -6.05146         0.29334
| 23>    C        5.17091        -4.97152         1.02691
| 24>    C        4.52552        -3.79795         1.45116
| 25>    C        3.10884        -3.81128         1.20664
| 26>    C        2.32029        -2.71289         1.66468
| 27>    C        0.84007        -2.69191         1.73994
| 28>    O        0.17588        -1.69717         1.61400
| 29>    O        0.24623        -3.86014         2.07387
| 30>    C        2.96057        -1.60916         2.17602
| 31>    C        4.34606        -1.56869         2.34906
| 32>    C        5.12929        -2.65427         2.03506
| 33>    O        6.46726        -2.64830         2.26892
| 34>    C        6.53952        -5.28036         1.12290
| 35>    C        7.12937        -6.42241         0.67153
| 36>    C        8.51189        -6.67228         0.75137
| 37>    S        9.18441        -8.16828         0.12247
| 38>    C       10.84023        -7.74127         0.47673
| 39>    C       10.85624        -6.48360         1.10530
| 40>    C        9.55869        -5.89986         1.24045
| 41>    N        9.70511        -4.68363         1.82814
| 42>    C       11.04472        -4.48424         2.06187
| 43>    N       11.46381        -3.29406         2.66371
| 44>    O       10.58517        -2.48559         2.94551
| 45>    O       12.65260        -3.13305         2.87169
| 46>    C       11.78706        -5.56736         1.63069
| 47>    C       11.92609        -8.60431         0.27436
| 48>    S       13.35531        -8.35471         1.24279
| 49>    C       14.06333        -9.86396         0.77259
| 50>    C       13.22101       -10.53220        -0.13621
| 51>    C       12.04939        -9.78673        -0.48072
| 52>    C       11.19714       -10.27624        -1.50268
| 53>    C       10.21638        -9.46347        -2.24975
| 54>    O        9.20427        -9.88531        -2.74827
| 55>    O       10.62962        -8.19597        -2.43396
| 56>    C       11.40316       -11.55091        -1.98618
| 57>    C       12.47894       -12.32943        -1.56268
| 58>    C       13.41722       -11.82280        -0.69056
| 59>    O       14.51743       -12.53395        -0.35003
| 60>    C       15.31592       -10.27241         1.27004
| 61>    C       16.07280        -9.54608         2.13469
| 62>    C       17.34101        -9.93716         2.61938
| 63>    S       18.10012       -11.44152         2.13208
| 64>    C       19.48833       -11.09839         3.11950
| 65>    O       20.53491       -11.93514         3.19607
| 66>    C       19.36771        -9.90614         3.77802
| 67>    C       18.15866        -9.25678         3.49343
| 68>    H       -0.78777        -7.64239        -1.03488
| 69>    H       -0.00457        -2.63641        -1.04488
| 70>    H        1.52134        -7.50147         0.19640
| 71>    H        0.88736        -4.57475         2.18545
| 72>    H        2.35948        -0.76897         2.48756
| 73>    H        4.80395        -0.68486         2.77098
| 74>    H        6.72739        -1.80049         2.65454
| 75>    H        7.14308        -4.52239         1.58893
| 76>    H        6.52348        -7.19139         0.21098
| 77>    H        9.00384        -4.00077         2.07036
| 78>    H       12.85173        -5.65673         1.69310
| 79>    H        9.98337        -7.72111        -2.97996
| 80>    H       10.73320       -11.92746        -2.74352
| 81>    H       12.60972       -13.32328        -1.96813
| 82>    H       14.50219       -13.39035        -0.79734
| 83>    H       15.68543       -11.22589         0.92241
| 84>    H       15.70912        -8.59088         2.49285
| 85>    H       20.40301       -12.71131         2.63883
| 86>    H       20.12745        -9.52709         4.43519
| 87>    H       17.88356        -8.30700         3.91536
| 88> *
| 89>
| 90>                          ****END OF INPUT****

CARTESIAN COORDINATES (ANGSTROEM)
---------------------------------
  C     -0.207840   -6.764830   -0.834320
  S     -0.804310   -5.227680   -1.351240
  C      0.585050   -4.433530   -0.686720
  O      0.801770   -3.117130   -0.821060
  C      1.450310   -5.320290   -0.084530
  C      0.979880   -6.662750   -0.203020
  C      2.708320   -4.962210    0.525560
  S      4.035160   -6.051460    0.293340
  C      5.170910   -4.971520    1.026910
  C      4.525520   -3.797950    1.451160
  C      3.108840   -3.811280    1.206640
  C      2.320290   -2.712890    1.664680
  C      0.840070   -2.691910    1.739940
  O      0.175880   -1.697170    1.614000
  O      0.246230   -3.860140    2.073870
  C      2.960570   -1.609160    2.176020
  C      4.346060   -1.568690    2.349060
  C      5.129290   -2.654270    2.035060
  O      6.467260   -2.648300    2.268920
  C      6.539520   -5.280360    1.122900
  C      7.129370   -6.422410    0.671530
  C      8.511890   -6.672280    0.751370
  S      9.184410   -8.168280    0.122470
  C     10.840230   -7.741270    0.476730
  C     10.856240   -6.483600    1.105300
  C      9.558690   -5.899860    1.240450
  N      9.705110   -4.683630    1.828140
  C     11.044720   -4.484240    2.061870
  N     11.463810   -3.294060    2.663710
  O     10.585170   -2.485590    2.945510
  O     12.652600   -3.133050    2.871690
  C     11.787060   -5.567360    1.630690
  C     11.926090   -8.604310    0.274360
  S     13.355310   -8.354710    1.242790
  C     14.063330   -9.863960    0.772590
  C     13.221010  -10.532200   -0.136210
  C     12.049390   -9.786730   -0.480720
  C     11.197140  -10.276240   -1.502680
  C     10.216380   -9.463470   -2.249750
  O      9.204270   -9.885310   -2.748270
  O     10.629620   -8.195970   -2.433960
  C     11.403160  -11.550910   -1.986180
  C     12.478940  -12.329430   -1.562680
  C     13.417220  -11.822800   -0.690560
  O     14.517430  -12.533950   -0.350030
  C     15.315920  -10.272410    1.270040
  C     16.072800   -9.546080    2.134690
  C     17.341010   -9.937160    2.619380
  S     18.100120  -11.441520    2.132080
  C     19.488330  -11.098390    3.119500
  O     20.534910  -11.935140    3.196070
  C     19.367710   -9.906140    3.778020
  C     18.158660   -9.256780    3.493430
  H     -0.787770   -7.642390   -1.034880
  H     -0.004570   -2.636410   -1.044880
  H      1.521340   -7.501470    0.196400
  H      0.887360   -4.574750    2.185450
  H      2.359480   -0.768970    2.487560
  H      4.803950   -0.684860    2.770980
  H      6.727390   -1.800490    2.654540
  H      7.143080   -4.522390    1.588930
  H      6.523480   -7.191390    0.210980
  H      9.003840   -4.000770    2.070360
  H     12.851730   -5.656730    1.693100
  H      9.983370   -7.721110   -2.979960
  H     10.733200  -11.927460   -2.743520
  H     12.609720  -13.323280   -1.968130
  H     14.502190  -13.390350   -0.797340
  H     15.685430  -11.225890    0.922410
  H     15.709120   -8.590880    2.492850
  H     20.403010  -12.711310    2.638830
  H     20.127450   -9.527090    4.435190
  H     17.883560   -8.307000    3.915360

 Total Charge           Charge          ....    0
 Multiplicity           Mult            ....    1
 Number of Electrons    NEL             ....  410
 Basis Dimension        Dim             ....  862

ORBITAL ENERGIES
----------------

  NO   OCC          E(Eh)            E(eV)
   0   2.0000     -88.965916     -2420.8856
   1   2.0000     -88.961484     -2420.7650
   2   2.0000     -88.959115     -2420.7006
   3   2.0000     -88.958002     -2420.6703
   4   2.0000     -88.952373     -2420.5171
   5   2.0000     -19.270796      -524.3850
   6   2.0000     -19.270452      -524.3757
   7   2.0000     -19.263476      -524.1858
   8   2.0000     -19.259866      -524.0876
   9   2.0000     -19.251259      -523.8534
  10   2.0000     -19.238757      -523.5132
  11   2.0000     -19.238708      -523.5119
  12   2.0000     -19.236177      -523.4430
  13   2.0000     -19.193398      -522.2789
  14   2.0000     -19.171509      -521.6833
  15   2.0000     -14.648547      -398.6072
  16   2.0000     -14.471500      -393.7895
  17   2.0000     -10.395439      -282.8743
  18   2.0000     -10.379762      -282.4477
  19   2.0000     -10.362891      -281.9886
  20   2.0000     -10.357430      -281.8400
  21   2.0000     -10.353137      -281.7232
  22   2.0000     -10.351830      -281.6876
  23   2.0000     -10.346336      -281.5381
  24   2.0000     -10.319130      -280.7978
  25   2.0000     -10.317339      -280.7491
  26   2.0000     -10.315269      -280.6927
  27   2.0000     -10.309786      -280.5435
  28   2.0000     -10.303351      -280.3684
  29   2.0000     -10.301041      -280.3056
  30   2.0000     -10.300598      -280.2935
  31   2.0000     -10.298395      -280.2336
  32   2.0000     -10.295154      -280.1454
  33   2.0000     -10.293293      -280.0947
  34   2.0000     -10.290570      -280.0206
  35   2.0000     -10.288208      -279.9564
  36   2.0000     -10.287979      -279.9501
  37   2.0000     -10.285232      -279.8754
  38   2.0000     -10.284537      -279.8565
  39   2.0000     -10.284332      -279.8509
  40   2.0000     -10.283222      -279.8207
  41   2.0000     -10.281307      -279.7686
  42   2.0000     -10.280936      -279.7585
  43   2.0000     -10.279682      -279.7244
  44   2.0000     -10.276520      -279.6383
  45   2.0000     -10.276175      -279.6289
  46   2.0000     -10.274342      -279.5791
  47   2.0000     -10.272958      -279.5414
  48   2.0000     -10.272025      -279.5160
  49   2.0000     -10.271411      -279.4993
  50   2.0000     -10.268865      -279.4300
  51   2.0000     -10.266127      -279.3555
  52   2.0000     -10.265674      -279.3432
  53   2.0000      -8.060956      -219.3498
  54   2.0000      -8.055698      -219.2067
  55   2.0000      -8.055696      -219.2066
  56   2.0000      -8.053345      -219.1426
  57   2.0000      -8.049194      -219.0297
  58   2.0000      -6.030063      -164.0864
  59   2.0000      -6.026027      -163.9765
  60   2.0000      -6.025142      -163.9525
  61   2.0000      -6.024955      -163.9474
  62   2.0000      -6.023408      -163.9053
  63   2.0000      -6.022312      -163.8754
  64   2.0000      -6.021199      -163.8452
  65   2.0000      -6.020961      -163.8387
  66   2.0000      -6.018591      -163.7742
  67   2.0000      -6.018275      -163.7656
  68   2.0000      -6.017715      -163.7503
  69   2.0000      -6.017340      -163.7401
  70   2.0000      -6.016052      -163.7051
  71   2.0000      -6.014394      -163.6600
  72   2.0000      -6.010982      -163.5671
  73   2.0000      -1.316626       -35.8272
  74   2.0000      -1.179479       -32.0953
  75   2.0000      -1.167170       -31.7603
  76   2.0000      -1.166637       -31.7458
  77   2.0000      -1.162828       -31.6422
  78   2.0000      -1.156980       -31.4830
  79   2.0000      -1.152516       -31.3615
  80   2.0000      -1.136152       -30.9163
  81   2.0000      -1.095698       -29.8155
  82   2.0000      -1.083044       -29.4711
  83   2.0000      -1.070819       -29.1385
  84   2.0000      -1.003342       -27.3023
  85   2.0000      -0.992960       -27.0198
  86   2.0000      -0.978782       -26.6340
  87   2.0000      -0.974443       -26.5160
  88   2.0000      -0.967964       -26.3396
  89   2.0000      -0.939348       -25.5610
  90   2.0000      -0.928368       -25.2622
  91   2.0000      -0.915704       -24.9176
  92   2.0000      -0.898150       -24.4399
  93   2.0000      -0.895699       -24.3732
  94   2.0000      -0.879013       -23.9192
  95   2.0000      -0.872298       -23.7364
  96   2.0000      -0.856811       -23.3150
  97   2.0000      -0.841395       -22.8955
  98   2.0000      -0.836126       -22.7522
  99   2.0000      -0.835923       -22.7466
 100   2.0000      -0.830857       -22.6088
 101   2.0000      -0.826851       -22.4997
 102   2.0000      -0.813577       -22.1385
 103   2.0000      -0.804707       -21.8972
 104   2.0000      -0.784607       -21.3502
 105   2.0000      -0.777999       -21.1704
 106   2.0000      -0.765228       -20.8229
 107   2.0000      -0.748029       -20.3549
 108   2.0000      -0.731107       -19.8944
 109   2.0000      -0.726509       -19.7693
 110   2.0000      -0.722057       -19.6482
 111   2.0000      -0.703309       -19.1380
 112   2.0000      -0.701193       -19.0804
 113   2.0000      -0.697365       -18.9763
 114   2.0000      -0.691088       -18.8055
 115   2.0000      -0.682670       -18.5764
 116   2.0000      -0.675861       -18.3911
 117   2.0000      -0.669702       -18.2235
 118   2.0000      -0.662343       -18.0233
 119   2.0000      -0.655048       -17.8248
 120   2.0000      -0.648221       -17.6390
 121   2.0000      -0.641650       -17.4602
 122   2.0000      -0.640351       -17.4248
 123   2.0000      -0.637562       -17.3489
 124   2.0000      -0.631665       -17.1885
 125   2.0000      -0.630662       -17.1612
 126   2.0000      -0.622903       -16.9500
 127   2.0000      -0.618028       -16.8174
 128   2.0000      -0.611098       -16.6288
 129   2.0000      -0.603290       -16.4164
 130   2.0000      -0.589116       -16.0307
 131   2.0000      -0.582879       -15.8610
 132   2.0000      -0.577671       -15.7192
 133   2.0000      -0.574608       -15.6359
 134   2.0000      -0.572554       -15.5800
 135   2.0000      -0.567277       -15.4364
 136   2.0000      -0.562980       -15.3195
 137   2.0000      -0.550928       -14.9915
 138   2.0000      -0.547948       -14.9104
 139   2.0000      -0.541682       -14.7399
 140   2.0000      -0.540078       -14.6963
 141   2.0000      -0.536905       -14.6099
 142   2.0000      -0.535415       -14.5694
 143   2.0000      -0.530303       -14.4303
 144   2.0000      -0.524957       -14.2848
 145   2.0000      -0.524222       -14.2648
 146   2.0000      -0.521517       -14.1912
 147   2.0000      -0.520701       -14.1690
 148   2.0000      -0.518975       -14.1220
 149   2.0000      -0.517454       -14.0806
 150   2.0000      -0.516962       -14.0672
 151   2.0000      -0.515113       -14.0169
 152   2.0000      -0.507566       -13.8116
 153   2.0000      -0.505252       -13.7486
 154   2.0000      -0.501340       -13.6422
 155   2.0000      -0.495777       -13.4908
 156   2.0000      -0.492475       -13.4009
 157   2.0000      -0.484773       -13.1913
 158   2.0000      -0.481145       -13.0926
 159   2.0000      -0.477384       -12.9903
 160   2.0000      -0.475826       -12.9479
 161   2.0000      -0.474571       -12.9137
 162   2.0000      -0.469716       -12.7816
 163   2.0000      -0.468832       -12.7576
 164   2.0000      -0.462725       -12.5914
 165   2.0000      -0.459422       -12.5015
 166   2.0000      -0.457001       -12.4356
 167   2.0000      -0.452712       -12.3189
 168   2.0000      -0.448709       -12.2100
 169   2.0000      -0.441933       -12.0256
 170   2.0000      -0.438477       -11.9316
 171   2.0000      -0.438115       -11.9217
 172   2.0000      -0.434297       -11.8178
 173   2.0000      -0.431938       -11.7536
 174   2.0000      -0.425684       -11.5834
 175   2.0000      -0.424245       -11.5443
 176   2.0000      -0.422976       -11.5098
 177   2.0000      -0.419207       -11.4072
 178   2.0000      -0.417167       -11.3517
 179   2.0000      -0.413559       -11.2535
 180   2.0000      -0.409686       -11.1481
 181   2.0000      -0.407553       -11.0901
 182   2.0000      -0.405644       -11.0381
 183   2.0000      -0.398706       -10.8493
 184   2.0000      -0.387431       -10.5425
 185   2.0000      -0.384981       -10.4759
 186   2.0000      -0.378199       -10.2913
 187   2.0000      -0.374616       -10.1938
 188   2.0000      -0.370359       -10.0780
 189   2.0000      -0.368603       -10.0302
 190   2.0000      -0.361864        -9.8468
 191   2.0000      -0.349011        -9.4971
 192   2.0000      -0.334879        -9.1125
 193   2.0000      -0.331636        -9.0243
 194   2.0000      -0.328716        -8.9448
 195   2.0000      -0.325445        -8.8558
 196   2.0000      -0.324043        -8.8176
 197   2.0000      -0.316070        -8.6007
 198   2.0000      -0.310696        -8.4545
 199   2.0000      -0.305221        -8.3055
 200   2.0000      -0.290864        -7.9148
 201   2.0000      -0.280851        -7.6423
 202   2.0000      -0.269481        -7.3329
 203   2.0000      -0.236425        -6.4334
 204   2.0000      -0.199043        -5.4162
 205   0.0000      -0.085063        -2.3147
 206   0.0000      -0.047645        -1.2965
 207   0.0000      -0.044158        -1.2016
 208   0.0000      -0.001931        -0.0525
 209   0.0000       0.002280         0.0621

MULLIKEN ATOMIC CHARGES
-----------------------
   0 C :   -0.081222
   1 S :    0.076233
   2 C :   -0.005170
   3 O :   -0.163701
   4 C :   -0.035225
   5 C :    0.041807
   6 C :   -0.206109
   7 S :    0.145534
   8 C :   -0.115163
   9 C :    0.072281
  10 C :    0.160614
  11 C :   -0.065011
  12 C :    0.113636
  13 O :   -0.205537
  14 O :   -0.164436
  15 C :    0.001315
  16 C :   -0.079192
  17 C :    0.133732
  18 O :   -0.189817
  19 C :   -0.018181
  20 C :    0.057025
  21 C :   -0.191754
  22 S :    0.148248
  23 C :   -0.091592
  24 C :    0.065702
  25 C :    0.132717
  26 N :   -0.041791
  27 C :    0.137065
  28 N :    0.287671
  29 O :   -0.277923
  30 O :   -0.245394
  31 C :   -0.101426
  32 C :   -0.150115
  33 S :    0.116536
  34 C :   -0.098917
  35 C :    0.081209
  36 C :    0.157649
  37 C :   -0.047218
  38 C :    0.085249
  39 O :   -0.197145
  40 O :   -0.173671
  41 C :    0.005545
  42 C :   -0.076006
  43 C :    0.128272
  44 O :   -0.167060
  45 C :   -0.032012
  46 C :    0.040331
  47 C :   -0.080958
  48 S :    0.052833
  49 C :    0.047305
  50 O :   -0.162783
  51 C :   -0.002118
  52 C :    0.029762
  53 H :    0.026245
  54 H :    0.203471
  55 H :   -0.011391
  56 H :    0.187726
  57 H :   -0.000579
  58 H :   -0.038993
  59 H :    0.195120
  60 H :   -0.044155
  61 H :   -0.022289
  62 H :    0.143734
  63 H :   -0.001165
  64 H :    0.187649
  65 H :    0.003641
  66 H :   -0.038263
  67 H :    0.189469
  68 H :    0.003503
  69 H :   -0.006562
  70 H :    0.193639
  71 H :   -0.011329
  72 H :   -0.011095
Sum of atomic charges:   -0.0000000

LOEWDIN ATOMIC CHARGES
----------------------
   0 C :   -0.193469
   1 S :    0.401222
   2 C :   -0.098702
   3 O :   -0.021256
   4 C :   -0.156099
   5 C :   -0.057700
   6 C :   -0.193056
   7 S :    0.476677
   8 C :   -0.159815
   9 C :   -0.069008
  10 C :   -0.044176
  11 C :   -0.098419
  12 C :    0.073451
  13 O :   -0.187091
  14 O :   -0.032135
  15 C :    0.024920
  16 C :   -0.103113
  17 C :    0.078674
  18 O :   -0.044542
  19 C :   -0.067105
  20 C :   -0.043620
  21 C :   -0.213017
  22 S :    0.485493
  23 C :   -0.175420
  24 C :   -0.080352
  25 C :    0.001643
  26 N :    0.071920
  27 C :   -0.011504
  28 N :    0.282061
  29 O :   -0.241825
  30 O :   -0.207677
  31 C :   -0.031955
  32 C :   -0.195726
  33 S :    0.479206
  34 C :   -0.144221
  35 C :   -0.070529
  36 C :   -0.025484
  37 C :   -0.096150
  38 C :    0.054626
  39 O :   -0.184975
  40 O :   -0.041835
  41 C :    0.032075
  42 C :   -0.103555
  43 C :    0.084500
  44 O :   -0.032178
  45 C :   -0.072643
  46 C :   -0.025327
  47 C :   -0.185546
  48 S :    0.376704
  49 C :   -0.088254
  50 O :   -0.040904
  51 C :   -0.112805
  52 C :   -0.031641
  53 H :    0.023754
  54 H :    0.105501
  55 H :    0.026611
  56 H :    0.088714
  57 H :    0.039172
  58 H :    0.025873
  59 H :    0.103907
  60 H :    0.021218
  61 H :    0.022968
  62 H :    0.087569
  63 H :    0.031742
  64 H :    0.096113
  65 H :    0.040203
  66 H :    0.026191
  67 H :    0.102048
  68 H :    0.024354
  69 H :    0.028116
  70 H :    0.098871
  71 H :    0.033899
  72 H :    0.032832

  Mayer bond orders larger than 0.100000
B(  0-C ,  1-S ) :   1.1199 B(  0-C ,  5-C ) :   1.6148 B(  0-C , 53-H ) :   0.9707
B(  1-S ,  2-C ) :   1.1232 B(  2-C ,  3-O ) :   1.2103 B(  2-C ,  4-C ) :   1.4965
B(  3-O , 54-H ) :   0.9386 B(  4-C ,  5-C ) :   1.2227 B(  4-C ,  6-C ) :   1.0175
B(  5-C , 55-H ) :   0.9957 B(  6-C ,  7-S ) :   1.1497 B(  6-C ,  8-C ) :   0.1112
B(  6-C , 10-C ) :   1.4338 B(  7-S ,  8-C ) :   1.1377 B(  8-C ,  9-C ) :   1.3363
B(  8-C , 19-C ) :   1.2360 B(  9-C , 10-C ) :   1.1991 B(  9-C , 17-C ) :   1.1803
B( 10-C , 11-C ) :   1.1415 B( 11-C , 12-C ) :   0.9076 B( 11-C , 15-C ) :   1.5814
B( 12-C , 13-O ) :   2.1741 B( 12-C , 14-O ) :   1.2085 B( 14-O , 56-H ) :   0.9467
B( 15-C , 16-C ) :   1.1879 B( 15-C , 57-H ) :   0.9863 B( 16-C , 17-C ) :   1.4593
B( 16-C , 58-H ) :   0.9836 B( 17-C , 18-O ) :   1.2112 B( 18-O , 59-H ) :   0.9447
B( 19-C , 20-C ) :   1.5683 B( 19-C , 60-H ) :   0.9549 B( 20-C , 21-C ) :   1.1946
B( 20-C , 61-H ) :   0.9505 B( 21-C , 22-S ) :   1.0907 B( 21-C , 23-C ) :   0.1055
B( 21-C , 25-C ) :   1.3491 B( 22-S , 23-C ) :   1.1468 B( 23-C , 24-C ) :   1.3029
B( 23-C , 32-C ) :   1.2491 B( 24-C , 25-C ) :   1.2491 B( 24-C , 31-C ) :   1.1563
B( 25-C , 26-N ) :   1.1953 B( 26-N , 27-C ) :   1.1738 B( 26-N , 62-H ) :   0.8930
B( 27-C , 28-N ) :   0.9445 B( 27-C , 31-C ) :   1.4989 B( 28-N , 29-O ) :   1.4728
B( 28-N , 30-O ) :   1.5325 B( 29-O , 30-O ) :   0.2589 B( 31-C , 63-H ) :   1.0133
B( 32-C , 33-S ) :   1.1140 B( 32-C , 36-C ) :   1.3522 B( 33-S , 34-C ) :   1.1461
B( 34-C , 35-C ) :   1.3117 B( 34-C , 45-C ) :   1.2219 B( 35-C , 36-C ) :   1.2300
B( 35-C , 43-C ) :   1.1841 B( 36-C , 37-C ) :   1.1663 B( 37-C , 38-C ) :   0.9231
B( 37-C , 41-C ) :   1.5448 B( 38-C , 39-O ) :   2.1562 B( 38-C , 40-O ) :   1.2422
B( 40-O , 64-H ) :   0.9449 B( 41-C , 42-C ) :   1.2216 B( 41-C , 65-H ) :   0.9859
B( 42-C , 43-C ) :   1.4348 B( 42-C , 66-H ) :   0.9843 B( 43-C , 44-O ) :   1.2379
B( 44-O , 67-H ) :   0.9499 B( 45-C , 46-C ) :   1.5732 B( 45-C , 68-H ) :   0.9547
B( 46-C , 47-C ) :   1.1988 B( 46-C , 69-H ) :   0.9746 B( 47-C , 48-S ) :   1.0628
B( 47-C , 52-C ) :   1.4914 B( 48-S , 49-C ) :   1.1137 B( 49-C , 50-O ) :   1.2065
B( 49-C , 51-C ) :   1.5093 B( 50-O , 70-H ) :   0.9544 B( 51-C , 52-C ) :   1.2342
B( 51-C , 71-H ) :   1.0039 B( 52-C , 72-H ) :   1.0005

-----------------------------------------------------------------------------
         ABSORPTION SPECTRUM VIA TRANSITION ELECTRIC DIPOLE MOMENTS
-----------------------------------------------------------------------------
State   Energy  Wavelength   fosc         T2         TX        TY        TZ
        (cm-1)    (nm)                  (au**2)     (au)      (au)      (au)
-----------------------------------------------------------------------------
   0   11010.8    908.2   1.079741813  32.28326   4.91227  -2.85268   0.12273
   1   17327.2    577.1   0.550565533  10.46057   3.12109  -0.51761   0.67188
   2   18615.6    537.2   0.033822512   0.59814   0.46212  -0.55682  -0.27302
   3   19553.1    511.4   0.032442186   0.54622   0.48107   0.18398  -0.53005
   4   25313.1    395.1   0.143329102   1.86408   1.06304   0.29960   0.80266
   5   26429.6    378.4   0.065434555   0.81506  -0.21811   0.73038   0.48378
   6   26897.3    371.8   0.009692389   0.11863   0.17456   0.27441   0.11340
   7   28242.5    354.1   0.070311877   0.81960   0.31418   0.40689   0.74520
   8   28511.0    350.7   0.373840608   4.31668  -1.50272  -0.67737  -1.26478
   9   29393.4    340.2   0.043866045   0.49131  -0.69726   0.06722  -0.02496
  10   29765.9    336.0   0.016184964   0.17901  -0.04648  -0.32467  -0.26727
  11   31316.2    319.3   0.192404925   2.02266  -0.63625  -1.14757  -0.54856
  12   33250.2    300.7   0.044802367   0.44359   0.42957   0.30002   0.41115
  13   33645.3    297.2   0.006733169   0.06588  -0.11586   0.15357   0.16992
  14   34349.0    291.1   0.111397953   1.06767   0.86167   0.07760   0.56496
  15   34787.6    287.5   0.004442057   0.04204  -0.13766   0.09490   0.11866
  16   35234.1    283.8   0.137899393   1.28847   0.87249   0.32488   0.64937
  17   35400.0    282.5   0.110532346   1.02793  -0.60512  -0.46885  -0.66478
  18   35833.3    279.1   0.020987521   0.19282  -0.05601   0.26553   0.34522
  19   35852.4    278.9   0.018465958   0.16956   0.35099  -0.20089   0.07755
  20   36308.4    275.4   0.007830615   0.07100   0.24063  -0.11320   0.01685
  21   36717.9    272.3   0.131342667   1.17762  -0.26930  -0.85218  -0.61554
  22   37060.3    269.8   0.010316365   0.09164   0.19194   0.21823   0.08470
  23   37554.2    266.3   0.042924644   0.37629  -0.30110  -0.47540  -0.24419
  24   37761.4    264.8   0.009432275   0.08223  -0.09575  -0.25470  -0.09051
  25   37781.1    264.7   0.037590895   0.32755  -0.14603   0.52507   0.17472
  26   38078.8    262.6   0.168563238   1.45732  -0.19523  -1.10776  -0.43827
  27   38343.8    260.8   0.072075960   0.61883  -0.24217  -0.59912  -0.44860
  28   38552.9    259.4   0.026328739   0.22483   0.13655   0.31106   0.33079
  29   38820.1    257.6   0.011783927   0.09993  -0.14707  -0.16294  -0.22750
  30   39194.1    255.1   0.018042617   0.15155   0.04981   0.30914   0.23131
  31   39272.6    254.6   0.032417719   0.27175  -0.09093  -0.45073  -0.24560
  32   39440.3    253.5   0.026212842   0.21880  -0.08439   0.40139   0.22487
  33   39682.7    252.0   0.014354940   0.11909  -0.12005  -0.30133  -0.11780
  34   40025.5    249.8   0.030418966   0.25020  -0.25381  -0.36996  -0.22116

FINAL SINGLE POINT ENERGY     -4233.138935997731

DIPOLE MOMENT
-------------
                                X             Y             Z
Electronic contribution:     -6.35901       2.13569      -3.76429
Nuclear contribution   :      8.75636      -5.02956       3.02379
                        -----------------------------------------
Total Dipole Moment    :      2.39736      -2.89387      -0.74049
                        -----------------------------------------
Magnitude (a.u.)       :      3.83016
Magnitude (Debye)      :      9.73549

Rotational constants in cm-1:     0.003196     0.000492     0.000438
Rotational constants in MHz :    95.805910    14.750287    13.129645

                             ****ORCA TERMINATED NORMALLY****
TOTAL RUN TIME: 0 days 0 hours 6 minutes 16 seconds 72 msec
