                         Program Version 4.2.0 -  RELEASE  -
|  1> # ORCA input file
|  2> # SCF done       -175.165298016701          0.000635954493
|  3> ! CAM-B3LYP def2-SVP def2/J RIJCOSX Grid4 TightSCF
|  4> %maxcore 5000
|  5> %tddft
|  6>     Mode sTDDFT
|  7>     Ethresh 5.0
|  8>     maxcore 5000
|  9> end
| 10>
| 11> %pal
| 12>   nprocs 6
| 13>   end
| 14> * xyz 0 1
| 15>    C        4.82881         1.53723        -0.00631
| 16>    C        4.73873         1.20546        -1.28925
| 17>    C        5.47642         0.15272        -1.97341
| 18>    C        5.20359        -0.09936        -3.32048
| 19>    C        5.87442        -1.08104        -4.01681
| 20>    C        6.85238        -1.85289        -3.39007
| 21>    C        7.56189        -2.92007        -4.10848
| 22>    C        8.04817        -2.75481        -5.36125
| 23>    C        8.08992        -1.43764        -6.01962
| 24>    C        8.56004        -0.31200        -5.34578
| 25>    C        8.61287         0.91379        -5.98099
| 26>    C        8.20013         1.03609        -7.29785
| 27>    C        7.74371        -0.07915        -7.98052
| 28>    C        7.69499        -1.30808        -7.34989
| 29>    C        8.57462        -3.86849        -6.16014
| 30>    C        7.91544        -5.09780        -6.22177
| 31>    C        8.40922        -6.12075        -6.99903
| 32>    C        9.57372        -5.95946        -7.76062
| 33>    C       10.03006        -7.05913        -8.57674
| 34>    C       10.98583        -7.01152        -9.52572
| 35>    C       11.33586        -8.14819       -10.30044
| 36>    C       12.20711        -8.25955       -11.32262
| 37>    C       12.28929        -9.57459       -11.89252
| 38>    C       12.95304       -10.20002       -12.92351
| 39>    N       12.54290       -11.49862       -12.94612
| 40>    C       11.63040       -11.74231       -11.94908
| 41>    C       11.00377       -13.02354       -11.70671
| 42>    C       11.00774       -14.04647       -12.65635
| 43>    C       10.37747       -15.24512       -12.39614
| 44>    C        9.74488       -15.46903       -11.17391
| 45>    C        9.05281       -16.74150       -10.92378
| 46>    C        9.17269       -17.41839        -9.75840
| 47>    C       10.16777       -17.05462        -8.73693
| 48>    C        9.81508       -17.03921        -7.38884
| 49>    C       10.74789       -16.71246        -6.42278
| 50>    C       12.04978       -16.41015        -6.78559
| 51>    C       12.41530       -16.44227        -8.12132
| 52>    C       11.48400       -16.76252        -9.09009
| 53>    C        8.32262       -18.57244        -9.43341
| 54>    C        6.94436       -18.53497        -9.64662
| 55>    C        6.15028       -19.61489        -9.32957
| 56>    C        6.70056       -20.77860        -8.78741
| 57>    C        5.90780       -21.95293        -8.45099
| 58>    C        4.61049       -22.12783        -8.67558
| 59>    C        8.07771       -20.80210        -8.55577
| 60>    C        8.87381       -19.71978        -8.86477
| 61>    C        8.21641       -17.22559       -12.03509
| 62>    C        7.38605       -16.34101       -12.72108
| 63>    C        6.60604       -16.78330       -13.77286
| 64>    C        6.65405       -18.11056       -14.16571
| 65>    C        7.49152       -18.99307       -13.50300
| 66>    C        8.26759       -18.55606       -12.44677
| 67>    C        9.73648       -14.44218       -10.22809
| 68>    C       10.35022       -13.23726       -10.48914
| 69>    C       11.46402       -10.55221       -11.28138
| 70>    S       10.55469        -9.76065        -9.97860
| 71>    O       10.93444       -10.27189        -8.68590
| 72>    O        9.14542        -9.73447       -10.27389
| 73>    C       10.22756        -4.72358        -7.69844
| 74>    C        9.73460        -3.70064        -6.91953
| 75>    C        7.71361        -4.18346        -3.36782
| 76>    C        8.93726        -4.84944        -3.32783
| 77>    C        9.07069        -6.02781        -2.61918
| 78>    C        7.98756        -6.55857        -1.93758
| 79>    C        6.77154        -5.89601        -1.95778
| 80>    C        6.63607        -4.71373        -2.66082
| 81>    C        7.11564        -1.61836        -2.03995
| 82>    C        6.44800        -0.63119        -1.34786
| 83>    H        4.23793         2.33642         0.40738
| 84>    H        5.48749         1.03599         0.68190
| 85>    H        4.05150         1.75400        -1.92280
| 86>    H        4.44614         0.48515        -3.82416
| 87>    H        5.63382        -1.26616        -5.05339
| 88>    H        8.89398        -0.40582        -4.32279
| 89>    H        8.98057         1.77814        -5.44729
| 90>    H        8.23937         1.99590        -7.79161
| 91>    H        7.42600         0.00881        -9.00945
| 92>    H        7.33656        -2.17745        -7.88309
| 93>    H        7.00218        -5.23876        -5.66288
| 94>    H        7.88507        -7.06434        -7.04078
| 95>    H        9.52388        -8.00261        -8.42194
| 96>    H       11.51259        -6.09243        -9.75221
| 97>    H       12.79606        -7.43944       -11.70401
| 98>    H       13.66849        -9.82574       -13.62807
| 99>    H       12.88073       -12.19663       -13.58854
|100>    H       11.48361       -13.90239       -13.61644
|101>    H       10.37961       -16.02732       -13.14236
|102>    H        8.79840       -17.27173        -7.10465
|103>    H       10.45865       -16.69414        -5.38211
|104>    H       12.77826       -16.15527        -6.03029
|105>    H       13.43258       -16.21934        -8.40870
|106>    H       11.77629       -16.80177       -10.12937
|107>    H        6.49633       -17.64010       -10.05300
|108>    H        5.08673       -19.55132        -9.50034
|109>    H        6.46736       -22.75023        -7.97571
|110>    H        3.99429       -21.38219        -9.14776
|111>    H        4.11116       -23.03798        -8.39035
|112>    H        8.52659       -21.68797        -8.12816
|113>    H        9.93837       -19.76111        -8.68070
|114>    H        7.34471       -15.30586       -12.41254
|115>    H        5.95827       -16.08951       -14.28891
|116>    H        6.04529       -18.45503       -14.98875
|117>    H        7.54187       -20.02683       -13.81277
|118>    H        8.92817       -19.24424       -11.94011
|119>    H        9.22914       -14.59254        -9.28734
|120>    H       10.33413       -12.44621        -9.75533
|121>    H       11.13715        -4.56695        -8.25797
|122>    H       10.25730        -2.75499        -6.87973
|123>    H        9.78669        -4.43189        -3.84846
|124>    H       10.02435        -6.53458        -2.59730
|125>    H        8.09248        -7.48281        -1.38888
|126>    H        5.92512        -6.30212        -1.42300
|127>    H        5.68551        -4.19901        -2.67912
|128>    H        7.86649        -2.21305        -1.53842
|129>    H        6.68539        -0.46668        -0.30812
|130> *
|131>
|132>                          ****END OF INPUT****

CARTESIAN COORDINATES (ANGSTROEM)
---------------------------------
  C      4.828810    1.537230   -0.006310
  C      4.738730    1.205460   -1.289250
  C      5.476420    0.152720   -1.973410
  C      5.203590   -0.099360   -3.320480
  C      5.874420   -1.081040   -4.016810
  C      6.852380   -1.852890   -3.390070
  C      7.561890   -2.920070   -4.108480
  C      8.048170   -2.754810   -5.361250
  C      8.089920   -1.437640   -6.019620
  C      8.560040   -0.312000   -5.345780
  C      8.612870    0.913790   -5.980990
  C      8.200130    1.036090   -7.297850
  C      7.743710   -0.079150   -7.980520
  C      7.694990   -1.308080   -7.349890
  C      8.574620   -3.868490   -6.160140
  C      7.915440   -5.097800   -6.221770
  C      8.409220   -6.120750   -6.999030
  C      9.573720   -5.959460   -7.760620
  C     10.030060   -7.059130   -8.576740
  C     10.985830   -7.011520   -9.525720
  C     11.335860   -8.148190  -10.300440
  C     12.207110   -8.259550  -11.322620
  C     12.289290   -9.574590  -11.892520
  C     12.953040  -10.200020  -12.923510
  N     12.542900  -11.498620  -12.946120
  C     11.630400  -11.742310  -11.949080
  C     11.003770  -13.023540  -11.706710
  C     11.007740  -14.046470  -12.656350
  C     10.377470  -15.245120  -12.396140
  C      9.744880  -15.469030  -11.173910
  C      9.052810  -16.741500  -10.923780
  C      9.172690  -17.418390   -9.758400
  C     10.167770  -17.054620   -8.736930
  C      9.815080  -17.039210   -7.388840
  C     10.747890  -16.712460   -6.422780
  C     12.049780  -16.410150   -6.785590
  C     12.415300  -16.442270   -8.121320
  C     11.484000  -16.762520   -9.090090
  C      8.322620  -18.572440   -9.433410
  C      6.944360  -18.534970   -9.646620
  C      6.150280  -19.614890   -9.329570
  C      6.700560  -20.778600   -8.787410
  C      5.907800  -21.952930   -8.450990
  C      4.610490  -22.127830   -8.675580
  C      8.077710  -20.802100   -8.555770
  C      8.873810  -19.719780   -8.864770
  C      8.216410  -17.225590  -12.035090
  C      7.386050  -16.341010  -12.721080
  C      6.606040  -16.783300  -13.772860
  C      6.654050  -18.110560  -14.165710
  C      7.491520  -18.993070  -13.503000
  C      8.267590  -18.556060  -12.446770
  C      9.736480  -14.442180  -10.228090
  C     10.350220  -13.237260  -10.489140
  C     11.464020  -10.552210  -11.281380
  S     10.554690   -9.760650   -9.978600
  O     10.934440  -10.271890   -8.685900
  O      9.145420   -9.734470  -10.273890
  C     10.227560   -4.723580   -7.698440
  C      9.734600   -3.700640   -6.919530
  C      7.713610   -4.183460   -3.367820
  C      8.937260   -4.849440   -3.327830
  C      9.070690   -6.027810   -2.619180
  C      7.987560   -6.558570   -1.937580
  C      6.771540   -5.896010   -1.957780
  C      6.636070   -4.713730   -2.660820
  C      7.115640   -1.618360   -2.039950
  C      6.448000   -0.631190   -1.347860
  H      4.237930    2.336420    0.407380
  H      5.487490    1.035990    0.681900
  H      4.051500    1.754000   -1.922800
  H      4.446140    0.485150   -3.824160
  H      5.633820   -1.266160   -5.053390
  H      8.893980   -0.405820   -4.322790
  H      8.980570    1.778140   -5.447290
  H      8.239370    1.995900   -7.791610
  H      7.426000    0.008810   -9.009450
  H      7.336560   -2.177450   -7.883090
  H      7.002180   -5.238760   -5.662880
  H      7.885070   -7.064340   -7.040780
  H      9.523880   -8.002610   -8.421940
  H     11.512590   -6.092430   -9.752210
  H     12.796060   -7.439440  -11.704010
  H     13.668490   -9.825740  -13.628070
  H     12.880730  -12.196630  -13.588540
  H     11.483610  -13.902390  -13.616440
  H     10.379610  -16.027320  -13.142360
  H      8.798400  -17.271730   -7.104650
  H     10.458650  -16.694140   -5.382110
  H     12.778260  -16.155270   -6.030290
  H     13.432580  -16.219340   -8.408700
  H     11.776290  -16.801770  -10.129370
  H      6.496330  -17.640100  -10.053000
  H      5.086730  -19.551320   -9.500340
  H      6.467360  -22.750230   -7.975710
  H      3.994290  -21.382190   -9.147760
  H      4.111160  -23.037980   -8.390350
  H      8.526590  -21.687970   -8.128160
  H      9.938370  -19.761110   -8.680700
  H      7.344710  -15.305860  -12.412540
  H      5.958270  -16.089510  -14.288910
  H      6.045290  -18.455030  -14.988750
  H      7.541870  -20.026830  -13.812770
  H      8.928170  -19.244240  -11.940110
  H      9.229140  -14.592540   -9.287340
  H     10.334130  -12.446210   -9.755330
  H     11.137150   -4.566950   -8.257970
  H     10.257300   -2.754990   -6.879730
  H      9.786690   -4.431890   -3.848460
  H     10.024350   -6.534580   -2.597300
  H      8.092480   -7.482810   -1.388880
  H      5.925120   -6.302120   -1.423000
  H      5.685510   -4.199010   -2.679120
  H      7.866490   -2.213050   -1.538420
  H      6.685390   -0.466680   -0.308120

 Total Charge           Charge          ....    0
 Multiplicity           Mult            ....    1
 Number of Electrons    NEL             ....  470
 Basis Dimension        Dim             .... 1191

ORBITAL ENERGIES
----------------

  NO   OCC          E(Eh)            E(eV)
   0   2.0000     -89.129721     -2425.3430
   1   2.0000     -19.179728      -521.9069
   2   2.0000     -19.177341      -521.8420
   3   2.0000     -14.473850      -393.8535
   4   2.0000     -10.318700      -280.7861
   5   2.0000     -10.308087      -280.4973
   6   2.0000     -10.291777      -280.0535
   7   2.0000     -10.289304      -279.9862
   8   2.0000     -10.280651      -279.7507
   9   2.0000     -10.273356      -279.5522
  10   2.0000     -10.272566      -279.5307
  11   2.0000     -10.272477      -279.5283
  12   2.0000     -10.270769      -279.4818
  13   2.0000     -10.269723      -279.4534
  14   2.0000     -10.268937      -279.4320
  15   2.0000     -10.268914      -279.4314
  16   2.0000     -10.268032      -279.4073
  17   2.0000     -10.267994      -279.4063
  18   2.0000     -10.267265      -279.3865
  19   2.0000     -10.266648      -279.3697
  20   2.0000     -10.266415      -279.3633
  21   2.0000     -10.266285      -279.3598
  22   2.0000     -10.265790      -279.3463
  23   2.0000     -10.265649      -279.3425
  24   2.0000     -10.265646      -279.3424
  25   2.0000     -10.264730      -279.3175
  26   2.0000     -10.264694      -279.3165
  27   2.0000     -10.264651      -279.3154
  28   2.0000     -10.264637      -279.3150
  29   2.0000     -10.263468      -279.2832
  30   2.0000     -10.263147      -279.2744
  31   2.0000     -10.262514      -279.2572
  32   2.0000     -10.262027      -279.2440
  33   2.0000     -10.261111      -279.2190
  34   2.0000     -10.260593      -279.2049
  35   2.0000     -10.259591      -279.1777
  36   2.0000     -10.259248      -279.1683
  37   2.0000     -10.259197      -279.1669
  38   2.0000     -10.258632      -279.1516
  39   2.0000     -10.258514      -279.1483
  40   2.0000     -10.258386      -279.1449
  41   2.0000     -10.258262      -279.1415
  42   2.0000     -10.258120      -279.1376
  43   2.0000     -10.258022      -279.1350
  44   2.0000     -10.257989      -279.1341
  45   2.0000     -10.257862      -279.1306
  46   2.0000     -10.257728      -279.1270
  47   2.0000     -10.257654      -279.1250
  48   2.0000     -10.257508      -279.1210
  49   2.0000     -10.257441      -279.1192
  50   2.0000     -10.257404      -279.1182
  51   2.0000     -10.257313      -279.1157
  52   2.0000     -10.257253      -279.1140
  53   2.0000     -10.257146      -279.1111
  54   2.0000     -10.256875      -279.1038
  55   2.0000     -10.256755      -279.1005
  56   2.0000     -10.256672      -279.0982
  57   2.0000     -10.256495      -279.0934
  58   2.0000     -10.256469      -279.0927
  59   2.0000     -10.256412      -279.0911
  60   2.0000     -10.256385      -279.0904
  61   2.0000     -10.256284      -279.0877
  62   2.0000     -10.256188      -279.0851
  63   2.0000     -10.255501      -279.0664
  64   2.0000     -10.255448      -279.0649
  65   2.0000     -10.254862      -279.0490
  66   2.0000     -10.254296      -279.0336
  67   2.0000     -10.253662      -279.0163
  68   2.0000      -8.193649      -222.9605
  69   2.0000      -6.162665      -167.6946
  70   2.0000      -6.162476      -167.6895
  71   2.0000      -6.161955      -167.6753
  72   2.0000      -1.182909       -32.1886
  73   2.0000      -1.087875       -29.6026
  74   2.0000      -1.059652       -28.8346
  75   2.0000      -0.965650       -26.2767
  76   2.0000      -0.963082       -26.2068
  77   2.0000      -0.951120       -25.8813
  78   2.0000      -0.947939       -25.7947
  79   2.0000      -0.944034       -25.6885
  80   2.0000      -0.938723       -25.5439
  81   2.0000      -0.936916       -25.4948
  82   2.0000      -0.936076       -25.4719
  83   2.0000      -0.934298       -25.4235
  84   2.0000      -0.902670       -24.5629
  85   2.0000      -0.902316       -24.5533
  86   2.0000      -0.888569       -24.1792
  87   2.0000      -0.876830       -23.8598
  88   2.0000      -0.867552       -23.6073
  89   2.0000      -0.855172       -23.2704
  90   2.0000      -0.846466       -23.0335
  91   2.0000      -0.840608       -22.8741
  92   2.0000      -0.838729       -22.8230
  93   2.0000      -0.828892       -22.5553
  94   2.0000      -0.824035       -22.4231
  95   2.0000      -0.823789       -22.4164
  96   2.0000      -0.820835       -22.3361
  97   2.0000      -0.820671       -22.3316
  98   2.0000      -0.820328       -22.3223
  99   2.0000      -0.819610       -22.3027
 100   2.0000      -0.818703       -22.2780
 101   2.0000      -0.810811       -22.0633
 102   2.0000      -0.806834       -21.9551
 103   2.0000      -0.802875       -21.8474
 104   2.0000      -0.801987       -21.8232
 105   2.0000      -0.779136       -21.2014
 106   2.0000      -0.775261       -21.0959
 107   2.0000      -0.760910       -20.7054
 108   2.0000      -0.735326       -20.0093
 109   2.0000      -0.722835       -19.6694
 110   2.0000      -0.710014       -19.3205
 111   2.0000      -0.697812       -18.9884
 112   2.0000      -0.694992       -18.9117
 113   2.0000      -0.693993       -18.8845
 114   2.0000      -0.686342       -18.6763
 115   2.0000      -0.685168       -18.6444
 116   2.0000      -0.680580       -18.5195
 117   2.0000      -0.679427       -18.4882
 118   2.0000      -0.677065       -18.4239
 119   2.0000      -0.675009       -18.3679
 120   2.0000      -0.672062       -18.2877
 121   2.0000      -0.670406       -18.2427
 122   2.0000      -0.669217       -18.2103
 123   2.0000      -0.658741       -17.9253
 124   2.0000      -0.654655       -17.8141
 125   2.0000      -0.651793       -17.7362
 126   2.0000      -0.634319       -17.2607
 127   2.0000      -0.630520       -17.1573
 128   2.0000      -0.630501       -17.1568
 129   2.0000      -0.628721       -17.1084
 130   2.0000      -0.623222       -16.9587
 131   2.0000      -0.621882       -16.9223
 132   2.0000      -0.605407       -16.4740
 133   2.0000      -0.599547       -16.3145
 134   2.0000      -0.599014       -16.3000
 135   2.0000      -0.589009       -16.0277
 136   2.0000      -0.588657       -16.0182
 137   2.0000      -0.582468       -15.8497
 138   2.0000      -0.574490       -15.6327
 139   2.0000      -0.567380       -15.4392
 140   2.0000      -0.560608       -15.2549
 141   2.0000      -0.557365       -15.1667
 142   2.0000      -0.551399       -15.0043
 143   2.0000      -0.546869       -14.8811
 144   2.0000      -0.544975       -14.8295
 145   2.0000      -0.538879       -14.6636
 146   2.0000      -0.536482       -14.5984
 147   2.0000      -0.534086       -14.5332
 148   2.0000      -0.532746       -14.4967
 149   2.0000      -0.531206       -14.4549
 150   2.0000      -0.526028       -14.3139
 151   2.0000      -0.524701       -14.2778
 152   2.0000      -0.522634       -14.2216
 153   2.0000      -0.520454       -14.1623
 154   2.0000      -0.518923       -14.1206
 155   2.0000      -0.517813       -14.0904
 156   2.0000      -0.514807       -14.0086
 157   2.0000      -0.513609       -13.9760
 158   2.0000      -0.512732       -13.9521
 159   2.0000      -0.510164       -13.8823
 160   2.0000      -0.509708       -13.8699
 161   2.0000      -0.503965       -13.7136
 162   2.0000      -0.503435       -13.6992
 163   2.0000      -0.501231       -13.6392
 164   2.0000      -0.500347       -13.6151
 165   2.0000      -0.496031       -13.4977
 166   2.0000      -0.494622       -13.4594
 167   2.0000      -0.491178       -13.3656
 168   2.0000      -0.490036       -13.3345
 169   2.0000      -0.489357       -13.3161
 170   2.0000      -0.488798       -13.3009
 171   2.0000      -0.487613       -13.2686
 172   2.0000      -0.487521       -13.2661
 173   2.0000      -0.486392       -13.2354
 174   2.0000      -0.485912       -13.2223
 175   2.0000      -0.484830       -13.1929
 176   2.0000      -0.476501       -12.9662
 177   2.0000      -0.475100       -12.9281
 178   2.0000      -0.472459       -12.8563
 179   2.0000      -0.463570       -12.6144
 180   2.0000      -0.456822       -12.4308
 181   2.0000      -0.453441       -12.3387
 182   2.0000      -0.452744       -12.3198
 183   2.0000      -0.451382       -12.2827
 184   2.0000      -0.447950       -12.1893
 185   2.0000      -0.444144       -12.0858
 186   2.0000      -0.441800       -12.0220
 187   2.0000      -0.440567       -11.9884
 188   2.0000      -0.439419       -11.9572
 189   2.0000      -0.438950       -11.9444
 190   2.0000      -0.435230       -11.8432
 191   2.0000      -0.429850       -11.6968
 192   2.0000      -0.427298       -11.6274
 193   2.0000      -0.422771       -11.5042
 194   2.0000      -0.419477       -11.4146
 195   2.0000      -0.416941       -11.3455
 196   2.0000      -0.416529       -11.3343
 197   2.0000      -0.413405       -11.2493
 198   2.0000      -0.411872       -11.2076
 199   2.0000      -0.407046       -11.0763
 200   2.0000      -0.406360       -11.0576
 201   2.0000      -0.405010       -11.0209
 202   2.0000      -0.404624       -11.0104
 203   2.0000      -0.400618       -10.9014
 204   2.0000      -0.399482       -10.8705
 205   2.0000      -0.398817       -10.8524
 206   2.0000      -0.392484       -10.6800
 207   2.0000      -0.391189       -10.6448
 208   2.0000      -0.388515       -10.5720
 209   2.0000      -0.384336       -10.4583
 210   2.0000      -0.373771       -10.1708
 211   2.0000      -0.373315       -10.1584
 212   2.0000      -0.368861       -10.0372
 213   2.0000      -0.361586        -9.8392
 214   2.0000      -0.350248        -9.5307
 215   2.0000      -0.345948        -9.4137
 216   2.0000      -0.341354        -9.2887
 217   2.0000      -0.336424        -9.1546
 218   2.0000      -0.325807        -8.8657
 219   2.0000      -0.323422        -8.8008
 220   2.0000      -0.322222        -8.7681
 221   2.0000      -0.320758        -8.7283
 222   2.0000      -0.318064        -8.6550
 223   2.0000      -0.310571        -8.4511
 224   2.0000      -0.308285        -8.3889
 225   2.0000      -0.305706        -8.3187
 226   2.0000      -0.303489        -8.2584
 227   2.0000      -0.302780        -8.2391
 228   2.0000      -0.301981        -8.2173
 229   2.0000      -0.293074        -7.9750
 230   2.0000      -0.289115        -7.8672
 231   2.0000      -0.279220        -7.5980
 232   2.0000      -0.260232        -7.0813
 233   2.0000      -0.241912        -6.5828
 234   2.0000      -0.233662        -6.3583
 235   0.0000      -0.038586        -1.0500
 236   0.0000      -0.024449        -0.6653
 237   0.0000      -0.010019        -0.2726
 238   0.0000       0.005671         0.1543
 239   0.0000       0.015139         0.4120

MULLIKEN ATOMIC CHARGES
-----------------------
   0 C :   -0.018861
   1 C :    0.002452
   2 C :    0.109736
   3 C :   -0.040363
   4 C :    0.055085
   5 C :   -0.038102
   6 C :    0.056729
   7 C :    0.055082
   8 C :   -0.048226
   9 C :    0.045947
  10 C :    0.013265
  11 C :    0.023804
  12 C :    0.016039
  13 C :    0.012986
  14 C :   -0.034699
  15 C :    0.054641
  16 C :   -0.031548
  17 C :    0.115077
  18 C :    0.014273
  19 C :    0.016581
  20 C :   -0.012279
  21 C :    0.017148
  22 C :    0.076175
  23 C :   -0.015988
  24 N :   -0.038382
  25 C :    0.005744
  26 C :    0.128291
  27 C :   -0.070357
  28 C :    0.013827
  29 C :   -0.036715
  30 C :    0.047663
  31 C :    0.060617
  32 C :   -0.043774
  33 C :    0.012706
  34 C :    0.018030
  35 C :    0.027620
  36 C :    0.018251
  37 C :    0.041806
  38 C :   -0.042100
  39 C :    0.059274
  40 C :   -0.034550
  41 C :    0.112048
  42 C :    0.000631
  43 C :   -0.017258
  44 C :   -0.034642
  45 C :    0.017355
  46 C :   -0.047877
  47 C :    0.011464
  48 C :    0.015112
  49 C :    0.024738
  50 C :    0.012591
  51 C :    0.048292
  52 C :    0.057852
  53 C :   -0.037353
  54 C :   -0.078295
  55 S :    0.801256
  56 O :   -0.457972
  57 O :   -0.461994
  58 C :   -0.026592
  59 C :    0.019970
  60 C :   -0.053345
  61 C :    0.048346
  62 C :    0.013094
  63 C :    0.025597
  64 C :    0.017412
  65 C :    0.013068
  66 C :    0.017127
  67 C :   -0.027534
  68 H :    0.019459
  69 H :    0.011532
  70 H :   -0.019085
  71 H :   -0.029899
  72 H :   -0.018267
  73 H :   -0.017648
  74 H :   -0.019822
  75 H :   -0.019051
  76 H :   -0.019628
  77 H :   -0.014549
  78 H :   -0.016942
  79 H :   -0.017894
  80 H :    0.003330
  81 H :   -0.023261
  82 H :   -0.017803
  83 H :   -0.004670
  84 H :    0.129303
  85 H :   -0.051065
  86 H :   -0.014531
  87 H :   -0.014543
  88 H :   -0.017802
  89 H :   -0.016073
  90 H :   -0.021228
  91 H :   -0.022383
  92 H :   -0.018690
  93 H :   -0.033509
  94 H :   -0.019459
  95 H :    0.012509
  96 H :    0.019409
  97 H :   -0.030796
  98 H :   -0.016310
  99 H :   -0.012136
 100 H :   -0.017719
 101 H :   -0.018407
 102 H :   -0.019263
 103 H :   -0.018131
 104 H :   -0.011015
 105 H :   -0.021584
 106 H :   -0.033261
 107 H :   -0.017411
 108 H :   -0.017524
 109 H :   -0.017206
 110 H :   -0.017219
 111 H :   -0.019426
 112 H :   -0.015085
 113 H :   -0.016523
 114 H :   -0.034722
Sum of atomic charges:   -0.0000000

LOEWDIN ATOMIC CHARGES
----------------------
   0 C :   -0.047445
   1 C :   -0.019267
   2 C :   -0.028905
   3 C :   -0.020018
   4 C :   -0.007477
   5 C :   -0.024847
   6 C :   -0.010463
   7 C :   -0.014054
   8 C :   -0.024924
   9 C :   -0.009612
  10 C :   -0.025283
  11 C :   -0.027139
  12 C :   -0.026963
  13 C :   -0.017797
  14 C :   -0.021145
  15 C :   -0.006478
  16 C :   -0.009854
  17 C :   -0.029824
  18 C :    0.002652
  19 C :   -0.045514
  20 C :   -0.147881
  21 C :   -0.016240
  22 C :   -0.084910
  23 C :   -0.006078
  24 N :    0.100354
  25 C :    0.010701
  26 C :   -0.035654
  27 C :   -0.032966
  28 C :   -0.013112
  29 C :   -0.019677
  30 C :   -0.015465
  31 C :   -0.009184
  32 C :   -0.026610
  33 C :   -0.015830
  34 C :   -0.024381
  35 C :   -0.023174
  36 C :   -0.024341
  37 C :   -0.011526
  38 C :   -0.025026
  39 C :   -0.005055
  40 C :   -0.013281
  41 C :   -0.028305
  42 C :   -0.019908
  43 C :   -0.046244
  44 C :   -0.021405
  45 C :   -0.016093
  46 C :   -0.025440
  47 C :   -0.017898
  48 C :   -0.026357
  49 C :   -0.026840
  50 C :   -0.025283
  51 C :   -0.010172
  52 C :    0.002853
  53 C :   -0.002734
  54 C :   -0.223478
  55 S :    1.179819
  56 O :   -0.503106
  57 O :   -0.504175
  58 C :   -0.014692
  59 C :   -0.014908
  60 C :   -0.026488
  61 C :   -0.009632
  62 C :   -0.023907
  63 C :   -0.025062
  64 C :   -0.026187
  65 C :   -0.017900
  66 C :   -0.013835
  67 C :   -0.015013
  68 H :    0.024590
  69 H :    0.018891
  70 H :    0.027240
  71 H :    0.025664
  72 H :    0.031278
  73 H :    0.030097
  74 H :    0.027055
  75 H :    0.025590
  76 H :    0.026598
  77 H :    0.029447
  78 H :    0.032285
  79 H :    0.031532
  80 H :    0.024974
  81 H :    0.030743
  82 H :    0.033666
  83 H :    0.023196
  84 H :    0.091257
  85 H :    0.017051
  86 H :    0.031008
  87 H :    0.029544
  88 H :    0.027467
  89 H :    0.026969
  90 H :    0.026683
  91 H :    0.028318
  92 H :    0.031473
  93 H :    0.025872
  94 H :    0.027027
  95 H :    0.019370
  96 H :    0.024647
  97 H :    0.025008
  98 H :    0.030007
  99 H :    0.030306
 100 H :    0.027231
 101 H :    0.025860
 102 H :    0.027230
 103 H :    0.029956
 104 H :    0.035633
 105 H :    0.025639
 106 H :    0.023904
 107 H :    0.030181
 108 H :    0.029803
 109 H :    0.028135
 110 H :    0.026463
 111 H :    0.026761
 112 H :    0.029219
 113 H :    0.030222
 114 H :    0.024993

  Mayer bond orders larger than 0.100000
B(  0-C ,  1-C ) :   1.9527 B(  0-C , 68-H ) :   0.9494 B(  0-C , 69-H ) :   0.9487
B(  1-C ,  2-C ) :   1.0687 B(  1-C , 70-H ) :   0.9690 B(  2-C ,  3-C ) :   1.3358
B(  2-C , 67-C ) :   1.3439 B(  3-C ,  4-C ) :   1.3796 B(  3-C , 71-H ) :   0.9997
B(  4-C ,  5-C ) :   1.3771 B(  4-C , 72-H ) :   0.9890 B(  5-C ,  6-C ) :   0.9820
B(  5-C , 66-C ) :   1.3615 B(  6-C ,  7-C ) :   1.7917 B(  6-C , 60-C ) :   0.9737
B(  7-C ,  8-C ) :   0.9727 B(  7-C , 14-C ) :   0.9848 B(  8-C ,  9-C ) :   1.3863
B(  8-C , 13-C ) :   1.3864 B(  9-C , 10-C ) :   1.3898 B(  9-C , 73-H ) :   0.9902
B( 10-C , 11-C ) :   1.3774 B( 10-C , 74-H ) :   0.9914 B( 11-C , 12-C ) :   1.3836
B( 11-C , 75-H ) :   0.9933 B( 12-C , 13-C ) :   1.3816 B( 12-C , 76-H ) :   0.9903
B( 13-C , 77-H ) :   0.9929 B( 14-C , 15-C ) :   1.3683 B( 14-C , 59-C ) :   1.3595
B( 15-C , 16-C ) :   1.3814 B( 15-C , 78-H ) :   0.9899 B( 16-C , 17-C ) :   1.3248
B( 16-C , 79-H ) :   1.0028 B( 17-C , 18-C ) :   1.0729 B( 17-C , 58-C ) :   1.3333
B( 18-C , 19-C ) :   1.6737 B( 18-C , 80-H ) :   0.9608 B( 19-C , 20-C ) :   1.1746
B( 19-C , 81-H ) :   0.9764 B( 20-C , 21-C ) :   1.6730 B( 20-C , 55-S ) :   0.8006
B( 21-C , 22-C ) :   1.0378 B( 21-C , 82-H ) :   0.9979 B( 22-C , 23-C ) :   1.4468
B( 22-C , 54-C ) :   1.3273 B( 23-C , 24-N ) :   1.2047 B( 23-C , 83-H ) :   0.9879
B( 24-N , 25-C ) :   1.2681 B( 24-N , 84-H ) :   0.9284 B( 25-C , 26-C ) :   1.0325
B( 25-C , 54-C ) :   1.5172 B( 26-C , 27-C ) :   1.3061 B( 26-C , 53-C ) :   1.3522
B( 27-C , 28-C ) :   1.3854 B( 27-C , 85-H ) :   0.9977 B( 28-C , 29-C ) :   1.3817
B( 28-C , 86-H ) :   0.9900 B( 29-C , 30-C ) :   0.9762 B( 29-C , 52-C ) :   1.3604
B( 30-C , 31-C ) :   1.7955 B( 30-C , 46-C ) :   0.9771 B( 31-C , 32-C ) :   0.9770
B( 31-C , 38-C ) :   0.9787 B( 32-C , 33-C ) :   1.3881 B( 32-C , 37-C ) :   1.3843
B( 33-C , 34-C ) :   1.3824 B( 33-C , 87-H ) :   0.9920 B( 34-C , 35-C ) :   1.3835
B( 34-C , 88-H ) :   0.9909 B( 35-C , 36-C ) :   1.3801 B( 35-C , 89-H ) :   0.9926
B( 36-C , 37-C ) :   1.3891 B( 36-C , 90-H ) :   0.9906 B( 37-C , 91-H ) :   0.9893
B( 38-C , 39-C ) :   1.3604 B( 38-C , 45-C ) :   1.3814 B( 39-C , 40-C ) :   1.4087
B( 39-C , 92-H ) :   0.9877 B( 40-C , 41-C ) :   1.3362 B( 40-C , 93-H ) :   0.9943
B( 41-C , 42-C ) :   1.0678 B( 41-C , 44-C ) :   1.3449 B( 42-C , 43-C ) :   1.9534
B( 42-C , 94-H ) :   0.9685 B( 43-C , 95-H ) :   0.9486 B( 43-C , 96-H ) :   0.9490
B( 44-C , 45-C ) :   1.3697 B( 44-C , 97-H ) :   0.9978 B( 45-C , 98-H ) :   0.9928
B( 46-C , 47-C ) :   1.3869 B( 46-C , 51-C ) :   1.3841 B( 47-C , 48-C ) :   1.3807
B( 47-C , 99-H ) :   0.9933 B( 48-C , 49-C ) :   1.3823 B( 48-C ,100-H ) :   0.9916
B( 49-C , 50-C ) :   1.3765 B( 49-C ,101-H ) :   0.9941 B( 50-C , 51-C ) :   1.3889
B( 50-C ,102-H ) :   0.9918 B( 51-C ,103-H ) :   0.9908 B( 52-C , 53-C ) :   1.3974
B( 52-C ,104-H ) :   0.9925 B( 53-C ,105-H ) :   0.9791 B( 54-C , 55-S ) :   0.8091
B( 55-S , 56-O ) :   1.6558 B( 55-S , 57-O ) :   1.6926 B( 58-C , 59-C ) :   1.3989
B( 58-C ,106-H ) :   0.9914 B( 59-C ,107-H ) :   0.9890 B( 60-C , 61-C ) :   1.3855
B( 60-C , 65-C ) :   1.3873 B( 61-C , 62-C ) :   1.3894 B( 61-C ,108-H ) :   0.9909
B( 62-C , 63-C ) :   1.3769 B( 62-C ,109-H ) :   0.9920 B( 63-C , 64-C ) :   1.3838
B( 63-C ,110-H ) :   0.9936 B( 64-C , 65-C ) :   1.3800 B( 64-C ,111-H ) :   0.9911
B( 65-C ,112-H ) :   0.9927 B( 66-C , 67-C ) :   1.4009 B( 66-C ,113-H ) :   0.9911
B( 67-C ,114-H ) :   0.9916

-----------------------------------------------------------------------------
         ABSORPTION SPECTRUM VIA TRANSITION ELECTRIC DIPOLE MOMENTS
-----------------------------------------------------------------------------
State   Energy  Wavelength   fosc         T2         TX        TY        TZ
        (cm-1)    (nm)                  (au**2)     (au)      (au)      (au)
-----------------------------------------------------------------------------
   0   26872.5    372.1   1.517802673  18.59444  -1.51603   2.97361   2.73015
   1   29781.1    335.8   0.978306223  10.81459  -1.15893  -1.91437   2.40970
   2   31826.2    314.2   0.120737489   1.24892  -0.36761  -0.06969   1.05305
   3   33277.4    300.5   0.091565002   0.90585  -0.24985  -0.66518   0.63321
   4   34244.1    292.0   0.103659036   0.99654  -0.31231   0.60704   0.72836
   5   35510.1    281.6   0.147926079   1.37142   0.55831  -0.92766  -0.44627
   6   36677.0    272.7   0.032392310   0.29075   0.34350   0.18210   0.37363
   7   38328.6    260.9   0.168408958   1.44650  -0.54734   1.00641  -0.36613
   8   38772.1    257.9   0.038579892   0.32758   0.12825  -0.36914  -0.41817
   9   39878.4    250.8   0.129232672   1.06687  -0.75190   0.58586   0.39784
  10   40113.7    249.3   0.119260722   0.97877  -0.83672   0.52227  -0.07678
  11   40249.0    248.5   0.258858767   2.11731  -0.23074  -1.19371  -0.79945

FINAL SINGLE POINT ENERGY     -3066.797410238315

DIPOLE MOMENT
-------------
                                X             Y             Z
Electronic contribution:     19.37924      -0.92632     -20.98475
Nuclear contribution   :    -18.07398       0.75789      19.47275
                        -----------------------------------------
Total Dipole Moment    :      1.30525      -0.16842      -1.51200
                        -----------------------------------------
Magnitude (a.u.)       :      2.00455
Magnitude (Debye)      :      5.09515

Rotational constants in cm-1:     0.001790     0.000317     0.000290
Rotational constants in MHz :    53.673327     9.491923     8.700156

                             ****ORCA TERMINATED NORMALLY****
TOTAL RUN TIME: 0 days 0 hours 9 minutes 15 seconds 776 msec
