                         Program Version 4.2.0 -  RELEASE  -
|  1> # ORCA input file
|  2> # SCF done       -224.943123207320          0.000465479911
|  3> ! CAM-B3LYP def2-SVP def2/J RIJCOSX Grid4 TightSCF
|  4> %maxcore 5000
|  5> %tddft
|  6>     Mode sTDDFT
|  7>     Ethresh 5.0
|  8>     maxcore 5000
|  9> end
| 10>
| 11> %pal
| 12>   nprocs 6
| 13>   end
| 14> * xyz 0 1
| 15>    C       -6.78890        -4.81864         5.55882
| 16>    S       -5.20239        -5.39626         5.34987
| 17>    C       -5.26936        -5.15103         3.63133
| 18>    C       -6.51549        -4.66927         3.25940
| 19>    C       -7.37297        -4.46853         4.37369
| 20>    C       -8.76868        -3.91665         4.33240
| 21>    F       -9.18701        -3.58707         5.56559
| 22>    F       -8.86378        -2.80386         3.59517
| 23>    F       -9.66544        -4.79213         3.85939
| 24>    C       -6.93397        -4.47093         1.83483
| 25>    F       -6.48740        -5.45655         1.03545
| 26>    F       -8.25436        -4.43845         1.66801
| 27>    F       -6.45778        -3.32336         1.30596
| 28>    C       -4.08813        -5.44951         2.88383
| 29>    C       -3.73521        -4.94764         1.68016
| 30>    C       -2.51816        -5.33537         1.04609
| 31>    N       -1.65401        -6.15175         1.63065
| 32>    C       -0.64533        -6.31080         0.75012
| 33>    C       -0.88190        -5.54887        -0.48158
| 34>    C        0.22645        -5.74783        -1.42545
| 35>    O        0.36743        -5.28917        -2.54153
| 36>    C        1.12769        -6.65191        -0.68562
| 37>    C        0.55623        -6.97212         0.63683
| 38>    N        1.37449        -7.80489         1.32449
| 39>    C        2.39532        -8.01504         0.52857
| 40>    C        2.30540        -7.32539        -0.74344
| 41>    C       -2.08716        -4.90712        -0.30476
| 42>    C       -2.81804        -4.03893        -1.16146
| 43>    C       -2.39175        -3.71322        -2.40451
| 44>    C       -3.05896        -2.85937        -3.34607
| 45>    C       -2.51975        -2.74989        -4.61545
| 46>    C       -3.13521        -1.94443        -5.58788
| 47>    C       -2.81707        -1.68708        -6.92088
| 48>    C       -1.68393        -2.21231        -7.72635
| 49>    C       -0.31971        -1.69416        -7.19940
| 50>    N       -0.11990        -0.27012        -7.35468
| 51>    C       -1.65813        -3.75220        -7.79064
| 52>    N       -0.68729        -4.16930        -8.78560
| 53>    C       -3.80630        -0.75564        -7.41244
| 54>    C       -3.96075        -0.17223        -8.61624
| 55>    C       -5.08210         0.76273        -8.89414
| 56>    C       -6.01954         0.98048        -7.74310
| 57>    C       -5.83425         0.40784        -6.53742
| 58>    C       -4.75008        -0.47172        -6.32159
| 59>    C       -4.33413        -1.20095        -5.22351
| 60>    C       -4.86188        -1.32077        -3.91806
| 61>    C       -4.24780        -2.12911        -3.01715
| 62>    C       -4.61544         2.14063        -9.27369
| 63>    C       -3.42557         2.66778        -8.94889
| 64>    C       -3.08255         4.00427        -9.32407
| 65>    N       -3.94606         4.79199        -9.94637
| 66>    C       -3.29898         5.95319       -10.16494
| 67>    C       -1.92132         5.90189        -9.65191
| 68>    C       -1.22129         7.17010        -9.92335
| 69>    O       -0.07423         7.46476        -9.67099
| 70>    C       -2.26027         7.97252       -10.59351
| 71>    C       -3.50908         7.19053       -10.72401
| 72>    N       -4.46785         7.92039       -11.34325
| 73>    C       -3.90594         9.07814       -11.59642
| 74>    C       -2.52913         9.17844       -11.15590
| 75>    C       -1.76806         4.65355        -9.10262
| 76>    C       -0.64618         4.05178        -8.46764
| 77>    C        0.53233         4.68122        -8.25600
| 78>    C        1.64702         4.02389        -7.65733
| 79>    S        1.58315         2.31783        -7.32787
| 80>    C        3.21580         2.27856        -6.76336
| 81>    C        3.78739         3.53577        -6.84855
| 82>    C        2.88816         4.53109        -7.30964
| 83>    C        3.20643         5.99906        -7.34392
| 84>    F        2.11800         6.75514        -7.13745
| 85>    F        4.06640         6.35623        -6.37967
| 86>    F        3.73377         6.39350        -8.51168
| 87>    C        5.23035         3.81105        -6.53796
| 88>    F        6.01454         2.73607        -6.73953
| 89>    F        5.74990         4.76836        -7.31241
| 90>    F        5.43023         4.17392        -5.25972
| 91>    C        3.76627         1.04685        -6.26020
| 92>    C        3.08680        -0.09871        -6.24300
| 93>    H       -7.22789        -4.75335         6.53475
| 94>    H       -3.38106        -6.11313         3.36477
| 95>    H       -4.34802        -4.22996         1.16124
| 96>    H        3.20424        -8.65313         0.83938
| 97>    H        3.03483        -7.36732        -1.52806
| 98>    H       -3.75145        -3.65138        -0.78004
| 99>    H       -1.45929        -4.14206        -2.74881
|100>    H       -1.61993        -3.29815        -4.84848
|101>    H       -1.78990        -1.85246        -8.75747
|102>    H        0.46402        -2.21646        -7.75224
|103>    H       -0.22179        -1.93041        -6.13881
|104>    H       -0.19219        -0.00287        -8.33054
|105>    H       -0.81556         0.24663        -6.82702
|106>    H       -2.68052        -4.11333        -7.99288
|107>    H       -1.34215        -4.15810        -6.82936
|108>    H       -1.02312        -3.97291        -9.72254
|109>    H       -0.50870        -5.16387        -8.71999
|110>    H       -3.27874        -0.35086        -9.43723
|111>    H       -5.65143         0.36090        -9.74637
|112>    H       -6.84398         1.65127        -7.92520
|113>    H       -6.52430         0.59870        -5.72880
|114>    H       -5.75124        -0.76919        -3.65200
|115>    H       -4.65467        -2.21861        -2.02258
|116>    H       -5.32229         2.76489        -9.80122
|117>    H       -2.68979         2.08969        -8.40768
|118>    H       -4.46289         9.85441       -12.09193
|119>    H       -1.89839        10.03757       -11.26995
|120>    H       -0.75464         3.02532        -8.13912
|121>    H        0.65413         5.70918        -8.56890
|122>    H        4.77168         1.09061        -5.87043
|123>    H        2.07623        -0.16877        -6.61734
|124>    H        3.52768        -0.99515        -5.84489
|125> *
|126>
|127>                          ****END OF INPUT****

CARTESIAN COORDINATES (ANGSTROEM)
---------------------------------
  C     -6.788900   -4.818640    5.558820
  S     -5.202390   -5.396260    5.349870
  C     -5.269360   -5.151030    3.631330
  C     -6.515490   -4.669270    3.259400
  C     -7.372970   -4.468530    4.373690
  C     -8.768680   -3.916650    4.332400
  F     -9.187010   -3.587070    5.565590
  F     -8.863780   -2.803860    3.595170
  F     -9.665440   -4.792130    3.859390
  C     -6.933970   -4.470930    1.834830
  F     -6.487400   -5.456550    1.035450
  F     -8.254360   -4.438450    1.668010
  F     -6.457780   -3.323360    1.305960
  C     -4.088130   -5.449510    2.883830
  C     -3.735210   -4.947640    1.680160
  C     -2.518160   -5.335370    1.046090
  N     -1.654010   -6.151750    1.630650
  C     -0.645330   -6.310800    0.750120
  C     -0.881900   -5.548870   -0.481580
  C      0.226450   -5.747830   -1.425450
  O      0.367430   -5.289170   -2.541530
  C      1.127690   -6.651910   -0.685620
  C      0.556230   -6.972120    0.636830
  N      1.374490   -7.804890    1.324490
  C      2.395320   -8.015040    0.528570
  C      2.305400   -7.325390   -0.743440
  C     -2.087160   -4.907120   -0.304760
  C     -2.818040   -4.038930   -1.161460
  C     -2.391750   -3.713220   -2.404510
  C     -3.058960   -2.859370   -3.346070
  C     -2.519750   -2.749890   -4.615450
  C     -3.135210   -1.944430   -5.587880
  C     -2.817070   -1.687080   -6.920880
  C     -1.683930   -2.212310   -7.726350
  C     -0.319710   -1.694160   -7.199400
  N     -0.119900   -0.270120   -7.354680
  C     -1.658130   -3.752200   -7.790640
  N     -0.687290   -4.169300   -8.785600
  C     -3.806300   -0.755640   -7.412440
  C     -3.960750   -0.172230   -8.616240
  C     -5.082100    0.762730   -8.894140
  C     -6.019540    0.980480   -7.743100
  C     -5.834250    0.407840   -6.537420
  C     -4.750080   -0.471720   -6.321590
  C     -4.334130   -1.200950   -5.223510
  C     -4.861880   -1.320770   -3.918060
  C     -4.247800   -2.129110   -3.017150
  C     -4.615440    2.140630   -9.273690
  C     -3.425570    2.667780   -8.948890
  C     -3.082550    4.004270   -9.324070
  N     -3.946060    4.791990   -9.946370
  C     -3.298980    5.953190  -10.164940
  C     -1.921320    5.901890   -9.651910
  C     -1.221290    7.170100   -9.923350
  O     -0.074230    7.464760   -9.670990
  C     -2.260270    7.972520  -10.593510
  C     -3.509080    7.190530  -10.724010
  N     -4.467850    7.920390  -11.343250
  C     -3.905940    9.078140  -11.596420
  C     -2.529130    9.178440  -11.155900
  C     -1.768060    4.653550   -9.102620
  C     -0.646180    4.051780   -8.467640
  C      0.532330    4.681220   -8.256000
  C      1.647020    4.023890   -7.657330
  S      1.583150    2.317830   -7.327870
  C      3.215800    2.278560   -6.763360
  C      3.787390    3.535770   -6.848550
  C      2.888160    4.531090   -7.309640
  C      3.206430    5.999060   -7.343920
  F      2.118000    6.755140   -7.137450
  F      4.066400    6.356230   -6.379670
  F      3.733770    6.393500   -8.511680
  C      5.230350    3.811050   -6.537960
  F      6.014540    2.736070   -6.739530
  F      5.749900    4.768360   -7.312410
  F      5.430230    4.173920   -5.259720
  C      3.766270    1.046850   -6.260200
  C      3.086800   -0.098710   -6.243000
  H     -7.227890   -4.753350    6.534750
  H     -3.381060   -6.113130    3.364770
  H     -4.348020   -4.229960    1.161240
  H      3.204240   -8.653130    0.839380
  H      3.034830   -7.367320   -1.528060
  H     -3.751450   -3.651380   -0.780040
  H     -1.459290   -4.142060   -2.748810
  H     -1.619930   -3.298150   -4.848480
  H     -1.789900   -1.852460   -8.757470
  H      0.464020   -2.216460   -7.752240
  H     -0.221790   -1.930410   -6.138810
  H     -0.192190   -0.002870   -8.330540
  H     -0.815560    0.246630   -6.827020
  H     -2.680520   -4.113330   -7.992880
  H     -1.342150   -4.158100   -6.829360
  H     -1.023120   -3.972910   -9.722540
  H     -0.508700   -5.163870   -8.719990
  H     -3.278740   -0.350860   -9.437230
  H     -5.651430    0.360900   -9.746370
  H     -6.843980    1.651270   -7.925200
  H     -6.524300    0.598700   -5.728800
  H     -5.751240   -0.769190   -3.652000
  H     -4.654670   -2.218610   -2.022580
  H     -5.322290    2.764890   -9.801220
  H     -2.689790    2.089690   -8.407680
  H     -4.462890    9.854410  -12.091930
  H     -1.898390   10.037570  -11.269950
  H     -0.754640    3.025320   -8.139120
  H      0.654130    5.709180   -8.568900
  H      4.771680    1.090610   -5.870430
  H      2.076230   -0.168770   -6.617340
  H      3.527680   -0.995150   -5.844890

 Total Charge           Charge          ....    0
 Multiplicity           Mult            ....    1
 Number of Electrons    NEL             ....  566
 Basis Dimension        Dim             .... 1260

ORBITAL ENERGIES
----------------

  NO   OCC          E(Eh)            E(eV)
   0   2.0000     -88.998423     -2421.7702
   1   2.0000     -88.964291     -2420.8414
   2   2.0000     -24.816027      -675.2784
   3   2.0000     -24.814339      -675.2325
   4   2.0000     -24.811625      -675.1587
   5   2.0000     -24.808151      -675.0641
   6   2.0000     -24.806650      -675.0233
   7   2.0000     -24.802910      -674.9215
   8   2.0000     -24.789951      -674.5689
   9   2.0000     -24.788397      -674.5266
  10   2.0000     -24.786230      -674.4676
  11   2.0000     -24.784996      -674.4340
  12   2.0000     -24.783738      -674.3998
  13   2.0000     -24.782220      -674.3585
  14   2.0000     -19.210526      -522.7450
  15   2.0000     -19.208889      -522.7004
  16   2.0000     -14.411189      -392.1484
  17   2.0000     -14.407719      -392.0540
  18   2.0000     -14.403520      -391.9397
  19   2.0000     -14.402251      -391.9052
  20   2.0000     -14.392823      -391.6486
  21   2.0000     -14.388112      -391.5204
  22   2.0000     -10.538877      -286.7774
  23   2.0000     -10.531510      -286.5769
  24   2.0000     -10.512041      -286.0472
  25   2.0000     -10.509723      -285.9841
  26   2.0000     -10.370325      -282.1909
  27   2.0000     -10.368418      -282.1390
  28   2.0000     -10.347614      -281.5729
  29   2.0000     -10.344011      -281.4748
  30   2.0000     -10.343862      -281.4708
  31   2.0000     -10.337449      -281.2963
  32   2.0000     -10.331731      -281.1407
  33   2.0000     -10.331275      -281.1283
  34   2.0000     -10.330638      -281.1110
  35   2.0000     -10.327822      -281.0343
  36   2.0000     -10.322162      -280.8803
  37   2.0000     -10.321483      -280.8618
  38   2.0000     -10.320950      -280.8473
  39   2.0000     -10.320208      -280.8272
  40   2.0000     -10.319866      -280.8178
  41   2.0000     -10.319327      -280.8032
  42   2.0000     -10.317677      -280.7583
  43   2.0000     -10.315624      -280.7024
  44   2.0000     -10.315058      -280.6870
  45   2.0000     -10.312408      -280.6149
  46   2.0000     -10.304867      -280.4097
  47   2.0000     -10.304600      -280.4024
  48   2.0000     -10.304340      -280.3953
  49   2.0000     -10.302581      -280.3475
  50   2.0000     -10.301916      -280.3294
  51   2.0000     -10.294345      -280.1234
  52   2.0000     -10.291669      -280.0506
  53   2.0000     -10.290958      -280.0312
  54   2.0000     -10.290873      -280.0289
  55   2.0000     -10.288717      -279.9702
  56   2.0000     -10.288250      -279.9575
  57   2.0000     -10.287156      -279.9278
  58   2.0000     -10.286086      -279.8986
  59   2.0000     -10.285838      -279.8919
  60   2.0000     -10.285766      -279.8899
  61   2.0000     -10.285653      -279.8868
  62   2.0000     -10.284770      -279.8628
  63   2.0000     -10.284725      -279.8616
  64   2.0000     -10.283963      -279.8409
  65   2.0000     -10.282665      -279.8055
  66   2.0000     -10.282349      -279.7969
  67   2.0000     -10.281465      -279.7729
  68   2.0000     -10.279526      -279.7201
  69   2.0000     -10.278562      -279.6939
  70   2.0000     -10.278490      -279.6919
  71   2.0000     -10.276974      -279.6507
  72   2.0000     -10.275565      -279.6124
  73   2.0000     -10.274723      -279.5894
  74   2.0000     -10.273905      -279.5672
  75   2.0000     -10.273413      -279.5538
  76   2.0000     -10.273210      -279.5483
  77   2.0000     -10.265078      -279.3270
  78   2.0000      -8.094578      -220.2647
  79   2.0000      -8.059709      -219.3158
  80   2.0000      -6.063668      -165.0008
  81   2.0000      -6.059299      -164.8819
  82   2.0000      -6.057121      -164.8227
  83   2.0000      -6.028820      -164.0525
  84   2.0000      -6.024806      -163.9433
  85   2.0000      -6.021852      -163.8629
  86   2.0000      -1.406951       -38.2851
  87   2.0000      -1.397502       -38.0280
  88   2.0000      -1.381333       -37.5880
  89   2.0000      -1.375681       -37.4342
  90   2.0000      -1.309614       -35.6364
  91   2.0000      -1.303735       -35.4764
  92   2.0000      -1.300002       -35.3748
  93   2.0000      -1.297497       -35.3067
  94   2.0000      -1.283518       -34.9263
  95   2.0000      -1.278731       -34.7960
  96   2.0000      -1.276921       -34.7468
  97   2.0000      -1.276191       -34.7269
  98   2.0000      -1.124045       -30.5868
  99   2.0000      -1.123955       -30.5844
 100   2.0000      -1.077719       -29.3262
 101   2.0000      -1.076270       -29.2868
 102   2.0000      -1.057667       -28.7806
 103   2.0000      -1.056183       -28.7402
 104   2.0000      -1.031381       -28.0653
 105   2.0000      -1.005111       -27.3505
 106   2.0000      -0.996274       -27.1100
 107   2.0000      -0.977398       -26.5964
 108   2.0000      -0.962497       -26.1909
 109   2.0000      -0.960692       -26.1418
 110   2.0000      -0.941845       -25.6289
 111   2.0000      -0.937723       -25.5167
 112   2.0000      -0.929565       -25.2947
 113   2.0000      -0.924371       -25.1534
 114   2.0000      -0.921670       -25.0799
 115   2.0000      -0.906560       -24.6688
 116   2.0000      -0.904196       -24.6044
 117   2.0000      -0.896867       -24.4050
 118   2.0000      -0.891666       -24.2635
 119   2.0000      -0.880269       -23.9533
 120   2.0000      -0.877360       -23.8742
 121   2.0000      -0.873058       -23.7571
 122   2.0000      -0.855884       -23.2898
 123   2.0000      -0.853432       -23.2231
 124   2.0000      -0.849707       -23.1217
 125   2.0000      -0.844722       -22.9860
 126   2.0000      -0.841677       -22.9032
 127   2.0000      -0.834954       -22.7202
 128   2.0000      -0.827693       -22.5227
 129   2.0000      -0.812465       -22.1083
 130   2.0000      -0.810356       -22.0509
 131   2.0000      -0.786103       -21.3910
 132   2.0000      -0.778078       -21.1726
 133   2.0000      -0.773756       -21.0550
 134   2.0000      -0.768265       -20.9056
 135   2.0000      -0.764817       -20.8117
 136   2.0000      -0.760962       -20.7068
 137   2.0000      -0.755396       -20.5554
 138   2.0000      -0.749223       -20.3874
 139   2.0000      -0.739241       -20.1158
 140   2.0000      -0.733421       -19.9574
 141   2.0000      -0.727799       -19.8044
 142   2.0000      -0.722756       -19.6672
 143   2.0000      -0.716552       -19.4984
 144   2.0000      -0.712821       -19.3968
 145   2.0000      -0.709420       -19.3043
 146   2.0000      -0.705785       -19.2054
 147   2.0000      -0.697980       -18.9930
 148   2.0000      -0.692977       -18.8569
 149   2.0000      -0.688808       -18.7434
 150   2.0000      -0.688064       -18.7232
 151   2.0000      -0.685496       -18.6533
 152   2.0000      -0.682460       -18.5707
 153   2.0000      -0.679730       -18.4964
 154   2.0000      -0.678358       -18.4591
 155   2.0000      -0.672317       -18.2947
 156   2.0000      -0.666226       -18.1289
 157   2.0000      -0.665286       -18.1033
 158   2.0000      -0.662249       -18.0207
 159   2.0000      -0.660634       -17.9768
 160   2.0000      -0.659026       -17.9330
 161   2.0000      -0.655892       -17.8477
 162   2.0000      -0.655491       -17.8368
 163   2.0000      -0.651331       -17.7236
 164   2.0000      -0.642249       -17.4765
 165   2.0000      -0.640909       -17.4400
 166   2.0000      -0.633605       -17.2413
 167   2.0000      -0.623152       -16.9568
 168   2.0000      -0.619156       -16.8481
 169   2.0000      -0.614579       -16.7235
 170   2.0000      -0.609321       -16.5805
 171   2.0000      -0.606547       -16.5050
 172   2.0000      -0.604027       -16.4364
 173   2.0000      -0.596431       -16.2297
 174   2.0000      -0.589510       -16.0414
 175   2.0000      -0.587583       -15.9889
 176   2.0000      -0.583741       -15.8844
 177   2.0000      -0.579193       -15.7607
 178   2.0000      -0.576529       -15.6882
 179   2.0000      -0.574076       -15.6214
 180   2.0000      -0.573655       -15.6100
 181   2.0000      -0.569154       -15.4875
 182   2.0000      -0.566851       -15.4248
 183   2.0000      -0.563270       -15.3274
 184   2.0000      -0.560228       -15.2446
 185   2.0000      -0.558077       -15.1860
 186   2.0000      -0.556713       -15.1489
 187   2.0000      -0.552947       -15.0465
 188   2.0000      -0.550346       -14.9757
 189   2.0000      -0.545897       -14.8546
 190   2.0000      -0.544695       -14.8219
 191   2.0000      -0.544041       -14.8041
 192   2.0000      -0.543581       -14.7916
 193   2.0000      -0.541577       -14.7370
 194   2.0000      -0.539631       -14.6841
 195   2.0000      -0.537540       -14.6272
 196   2.0000      -0.536312       -14.5938
 197   2.0000      -0.534916       -14.5558
 198   2.0000      -0.532169       -14.4811
 199   2.0000      -0.531404       -14.4602
 200   2.0000      -0.530881       -14.4460
 201   2.0000      -0.530269       -14.4294
 202   2.0000      -0.525647       -14.3036
 203   2.0000      -0.524898       -14.2832
 204   2.0000      -0.524160       -14.2631
 205   2.0000      -0.519624       -14.1397
 206   2.0000      -0.516657       -14.0589
 207   2.0000      -0.515821       -14.0362
 208   2.0000      -0.514812       -14.0088
 209   2.0000      -0.513080       -13.9616
 210   2.0000      -0.510479       -13.8908
 211   2.0000      -0.508949       -13.8492
 212   2.0000      -0.507075       -13.7982
 213   2.0000      -0.504504       -13.7283
 214   2.0000      -0.502432       -13.6719
 215   2.0000      -0.501364       -13.6428
 216   2.0000      -0.500803       -13.6275
 217   2.0000      -0.499427       -13.5901
 218   2.0000      -0.498844       -13.5742
 219   2.0000      -0.497880       -13.5480
 220   2.0000      -0.494632       -13.4596
 221   2.0000      -0.492261       -13.3951
 222   2.0000      -0.491084       -13.3631
 223   2.0000      -0.490359       -13.3433
 224   2.0000      -0.489295       -13.3144
 225   2.0000      -0.488444       -13.2912
 226   2.0000      -0.484924       -13.1955
 227   2.0000      -0.484175       -13.1751
 228   2.0000      -0.483198       -13.1485
 229   2.0000      -0.482018       -13.1164
 230   2.0000      -0.477395       -12.9906
 231   2.0000      -0.475433       -12.9372
 232   2.0000      -0.475126       -12.9288
 233   2.0000      -0.474246       -12.9049
 234   2.0000      -0.472573       -12.8594
 235   2.0000      -0.471712       -12.8359
 236   2.0000      -0.470528       -12.8037
 237   2.0000      -0.468667       -12.7531
 238   2.0000      -0.467252       -12.7146
 239   2.0000      -0.465991       -12.6803
 240   2.0000      -0.462771       -12.5927
 241   2.0000      -0.459773       -12.5111
 242   2.0000      -0.458413       -12.4740
 243   2.0000      -0.457610       -12.4522
 244   2.0000      -0.452963       -12.3257
 245   2.0000      -0.451975       -12.2989
 246   2.0000      -0.449805       -12.2398
 247   2.0000      -0.444076       -12.0839
 248   2.0000      -0.441290       -12.0081
 249   2.0000      -0.438866       -11.9421
 250   2.0000      -0.434478       -11.8227
 251   2.0000      -0.432489       -11.7686
 252   2.0000      -0.420442       -11.4408
 253   2.0000      -0.419120       -11.4048
 254   2.0000      -0.413469       -11.2511
 255   2.0000      -0.407091       -11.0775
 256   2.0000      -0.402091       -10.9414
 257   2.0000      -0.396932       -10.8011
 258   2.0000      -0.392468       -10.6796
 259   2.0000      -0.391083       -10.6419
 260   2.0000      -0.377898       -10.2831
 261   2.0000      -0.376078       -10.2336
 262   2.0000      -0.365782        -9.9534
 263   2.0000      -0.361842        -9.8462
 264   2.0000      -0.359288        -9.7767
 265   2.0000      -0.352565        -9.5938
 266   2.0000      -0.351995        -9.5783
 267   2.0000      -0.350810        -9.5460
 268   2.0000      -0.344532        -9.3752
 269   2.0000      -0.339507        -9.2385
 270   2.0000      -0.335462        -9.1284
 271   2.0000      -0.331549        -9.0219
 272   2.0000      -0.330396        -8.9905
 273   2.0000      -0.328875        -8.9491
 274   2.0000      -0.327201        -8.9036
 275   2.0000      -0.322355        -8.7717
 276   2.0000      -0.318503        -8.6669
 277   2.0000      -0.305637        -8.3168
 278   2.0000      -0.300310        -8.1718
 279   2.0000      -0.298333        -8.1180
 280   2.0000      -0.276501        -7.5240
 281   2.0000      -0.264222        -7.1899
 282   2.0000      -0.231761        -6.3065
 283   0.0000      -0.119875        -3.2620
 284   0.0000      -0.111980        -3.0471
 285   0.0000      -0.084219        -2.2917
 286   0.0000      -0.059605        -1.6219
 287   0.0000      -0.049449        -1.3456

MULLIKEN ATOMIC CHARGES
-----------------------
   0 C :   -0.087813
   1 S :    0.196726
   2 C :   -0.147978
   3 C :   -0.029849
   4 C :   -0.112195
   5 C :    0.535853
   6 F :   -0.160137
   7 F :   -0.156970
   8 F :   -0.154193
   9 C :    0.520069
  10 F :   -0.159595
  11 F :   -0.137587
  12 F :   -0.164656
  13 C :    0.091310
  14 C :   -0.033845
  15 C :    0.009484
  16 N :   -0.039141
  17 C :    0.074255
  18 C :   -0.170473
  19 C :    0.218722
  20 O :   -0.151665
  21 C :   -0.006456
  22 C :   -0.045385
  23 N :   -0.055094
  24 C :    0.087343
  25 C :   -0.102255
  26 C :    0.072918
  27 C :   -0.029648
  28 C :    0.001851
  29 C :    0.128177
  30 C :   -0.114368
  31 C :    0.063358
  32 C :   -0.032122
  33 C :   -0.053099
  34 C :    0.138399
  35 N :   -0.224667
  36 C :    0.138751
  37 N :   -0.217016
  38 C :    0.111474
  39 C :   -0.162150
  40 C :    0.170295
  41 C :   -0.043018
  42 C :    0.025933
  43 C :    0.012616
  44 C :    0.035361
  45 C :   -0.000693
  46 C :   -0.006323
  47 C :   -0.036884
  48 C :   -0.019956
  49 C :    0.041071
  50 N :   -0.040590
  51 C :    0.069204
  52 C :   -0.166451
  53 C :    0.219624
  54 O :   -0.132081
  55 C :   -0.012638
  56 C :   -0.040246
  57 N :   -0.054755
  58 C :    0.087222
  59 C :   -0.096864
  60 C :    0.067153
  61 C :   -0.056380
  62 C :    0.039758
  63 C :   -0.102753
  64 S :    0.118708
  65 C :   -0.098978
  66 C :   -0.071105
  67 C :   -0.067280
  68 C :    0.524229
  69 F :   -0.155825
  70 F :   -0.159023
  71 F :   -0.154221
  72 C :    0.514345
  73 F :   -0.165378
  74 F :   -0.153867
  75 F :   -0.159127
  76 C :    0.004369
  77 C :   -0.025088
  78 H :    0.053960
  79 H :    0.030137
  80 H :    0.004523
  81 H :    0.007307
  82 H :   -0.006225
  83 H :   -0.032968
  84 H :   -0.003816
  85 H :   -0.012797
  86 H :   -0.050384
  87 H :    0.016446
  88 H :    0.000257
  89 H :    0.095000
  90 H :    0.107847
  91 H :   -0.002742
  92 H :   -0.006940
  93 H :    0.090196
  94 H :    0.096974
  95 H :   -0.003820
  96 H :    0.045315
  97 H :   -0.000582
  98 H :   -0.028609
  99 H :   -0.033914
 100 H :   -0.026946
 101 H :    0.039789
 102 H :   -0.013526
 103 H :    0.007766
 104 H :   -0.004890
 105 H :   -0.033261
 106 H :    0.028922
 107 H :    0.007833
 108 H :    0.051095
 109 H :    0.027355
Sum of atomic charges:   -0.0000000

LOEWDIN ATOMIC CHARGES
----------------------
   0 C :   -0.153834
   1 S :    0.510249
   2 C :   -0.151078
   3 C :   -0.101848
   4 C :   -0.107972
   5 C :    0.158738
   6 F :   -0.058305
   7 F :   -0.053731
   8 F :   -0.055252
   9 C :    0.167922
  10 F :   -0.056073
  11 F :   -0.035047
  12 F :   -0.065278
  13 C :    0.018138
  14 C :   -0.029969
  15 C :    0.068874
  16 N :   -0.103432
  17 C :    0.048969
  18 C :   -0.060852
  19 C :    0.070243
  20 O :   -0.149977
  21 C :   -0.040692
  22 C :    0.018054
  23 N :   -0.097485
  24 C :    0.070313
  25 C :   -0.036622
  26 C :   -0.016416
  27 C :   -0.051458
  28 C :    0.030761
  29 C :   -0.025681
  30 C :   -0.001676
  31 C :   -0.018759
  32 C :   -0.037389
  33 C :   -0.052748
  34 C :    0.024625
  35 N :   -0.095540
  36 C :    0.028897
  37 N :   -0.113067
  38 C :   -0.016765
  39 C :    0.055919
  40 C :   -0.032605
  41 C :   -0.024693
  42 C :   -0.012912
  43 C :   -0.036111
  44 C :   -0.025362
  45 C :   -0.004989
  46 C :   -0.020819
  47 C :    0.080857
  48 C :   -0.065441
  49 C :    0.075858
  50 N :   -0.108582
  51 C :    0.047689
  52 C :   -0.046989
  53 C :    0.067592
  54 O :   -0.134042
  55 C :   -0.039546
  56 C :    0.018236
  57 N :   -0.098099
  58 C :    0.071461
  59 C :   -0.035892
  60 C :   -0.027900
  61 C :   -0.046646
  62 C :    0.003334
  63 C :   -0.154065
  64 S :    0.497156
  65 C :   -0.132601
  66 C :   -0.115441
  67 C :   -0.098743
  68 C :    0.161168
  69 F :   -0.048954
  70 F :   -0.054339
  71 F :   -0.056406
  72 C :    0.162447
  73 F :   -0.058697
  74 F :   -0.048993
  75 F :   -0.062604
  76 C :   -0.054526
  77 C :   -0.017954
  78 H :    0.037823
  79 H :    0.044224
  80 H :    0.025054
  81 H :    0.022694
  82 H :    0.033462
  83 H :    0.023217
  84 H :    0.033167
  85 H :    0.028764
  86 H :    0.014309
  87 H :    0.018722
  88 H :    0.018833
  89 H :    0.046654
  90 H :    0.049434
  91 H :    0.003924
  92 H :    0.019505
  93 H :    0.052184
  94 H :    0.057903
  95 H :    0.028493
  96 H :    0.063960
  97 H :    0.029027
  98 H :    0.033308
  99 H :    0.029117
 100 H :    0.026648
 101 H :    0.041047
 102 H :    0.025520
 103 H :    0.022820
 104 H :    0.034482
 105 H :    0.013406
 106 H :    0.036963
 107 H :    0.032555
 108 H :    0.016958
 109 H :    0.029221

  Mayer bond orders larger than 0.100000
B(  0-C ,  1-S ) :   1.1965 B(  0-C ,  4-C ) :   1.5677 B(  0-C , 78-H ) :   0.9694
B(  1-S ,  2-C ) :   1.1779 B(  2-C ,  3-C ) :   1.5126 B(  2-C , 13-C ) :   1.0750
B(  3-C ,  4-C ) :   1.3055 B(  3-C ,  9-C ) :   0.9412 B(  4-C ,  5-C ) :   0.9460
B(  5-C ,  6-F ) :   1.1605 B(  5-C ,  7-F ) :   1.1601 B(  5-C ,  8-F ) :   1.1809
B(  9-C , 10-F ) :   1.1613 B(  9-C , 11-F ) :   1.1686 B(  9-C , 12-F ) :   1.1162
B( 13-C , 14-C ) :   1.7041 B( 13-C , 79-H ) :   0.9515 B( 14-C , 15-C ) :   1.1472
B( 14-C , 80-H ) :   0.9428 B( 15-C , 16-N ) :   1.6058 B( 15-C , 17-C ) :   0.1086
B( 15-C , 26-C ) :   0.9948 B( 16-N , 17-C ) :   1.3453 B( 17-C , 18-C ) :   1.0622
B( 17-C , 22-C ) :   1.4157 B( 18-C , 19-C ) :   0.9046 B( 18-C , 26-C ) :   1.5360
B( 19-C , 20-O ) :   2.1686 B( 19-C , 21-C ) :   0.9352 B( 20-O , 84-H ) :   0.1107
B( 21-C , 22-C ) :   1.0716 B( 21-C , 25-C ) :   1.6015 B( 22-C , 23-N ) :   1.3154
B( 23-N , 24-C ) :   1.6572 B( 24-C , 25-C ) :   1.0699 B( 24-C , 81-H ) :   0.9894
B( 25-C , 82-H ) :   1.0116 B( 26-C , 27-C ) :   1.1349 B( 27-C , 28-C ) :   1.6260
B( 27-C , 83-H ) :   0.9598 B( 28-C , 29-C ) :   1.0776 B( 28-C , 84-H ) :   0.9726
B( 29-C , 30-C ) :   1.4931 B( 29-C , 46-C ) :   1.1154 B( 30-C , 31-C ) :   1.1039
B( 30-C , 85-H ) :   1.0053 B( 31-C , 32-C ) :   1.4606 B( 31-C , 44-C ) :   1.1227
B( 32-C , 33-C ) :   1.0017 B( 32-C , 38-C ) :   1.1057 B( 33-C , 34-C ) :   1.0220
B( 33-C , 36-C ) :   1.0276 B( 33-C , 86-H ) :   0.8888 B( 34-C , 35-N ) :   1.0722
B( 34-C , 87-H ) :   0.9336 B( 34-C , 88-H ) :   0.9466 B( 35-N , 89-H ) :   0.9663
B( 35-N , 90-H ) :   0.9696 B( 35-N ,108-H ) :   0.1035 B( 36-C , 37-N ) :   1.0883
B( 36-C , 91-H ) :   0.9478 B( 36-C , 92-H ) :   0.9329 B( 37-N , 93-H ) :   0.9721
B( 37-N , 94-H ) :   0.9675 B( 38-C , 39-C ) :   1.6499 B( 38-C , 43-C ) :   1.0483
B( 39-C , 40-C ) :   0.9667 B( 39-C , 95-H ) :   0.9765 B( 40-C , 41-C ) :   0.9790
B( 40-C , 47-C ) :   0.9458 B( 40-C , 96-H ) :   0.8578 B( 41-C , 42-C ) :   1.7273
B( 41-C , 97-H ) :   0.9653 B( 42-C , 43-C ) :   1.1345 B( 42-C , 98-H ) :   0.9875
B( 43-C , 44-C ) :   1.4422 B( 44-C , 45-C ) :   1.1373 B( 45-C , 46-C ) :   1.6230
B( 45-C , 99-H ) :   0.9912 B( 46-C ,100-H ) :   0.9851 B( 47-C , 48-C ) :   1.7946
B( 47-C ,101-H ) :   0.9622 B( 48-C , 49-C ) :   1.1049 B( 48-C ,102-H ) :   0.9426
B( 49-C , 50-N ) :   1.6139 B( 49-C , 51-C ) :   0.1103 B( 49-C , 60-C ) :   1.0012
B( 50-N , 51-C ) :   1.3484 B( 51-C , 52-C ) :   1.0545 B( 51-C , 56-C ) :   1.4180
B( 52-C , 53-C ) :   0.8937 B( 52-C , 60-C ) :   1.5539 B( 53-C , 54-O ) :   2.1937
B( 53-C , 55-C ) :   0.9266 B( 54-O ,106-H ) :   0.1006 B( 55-C , 56-C ) :   1.0707
B( 55-C , 59-C ) :   1.6035 B( 56-C , 57-N ) :   1.3139 B( 57-N , 58-C ) :   1.6544
B( 58-C , 59-C ) :   1.0728 B( 58-C ,103-H ) :   0.9890 B( 59-C ,104-H ) :   1.0107
B( 60-C , 61-C ) :   1.1266 B( 61-C , 62-C ) :   1.6600 B( 61-C ,105-H ) :   0.9556
B( 62-C , 63-C ) :   1.1342 B( 62-C ,106-H ) :   0.9453 B( 63-C , 64-S ) :   1.1123
B( 63-C , 67-C ) :   1.5263 B( 64-S , 65-C ) :   1.1519 B( 65-C , 66-C ) :   1.5306
B( 65-C , 76-C ) :   1.1119 B( 66-C , 67-C ) :   1.2942 B( 66-C , 72-C ) :   0.9410
B( 67-C , 68-C ) :   0.9393 B( 68-C , 69-F ) :   1.1410 B( 68-C , 70-F ) :   1.1428
B( 68-C , 71-F ) :   1.1848 B( 72-C , 73-F ) :   1.1304 B( 72-C , 74-F ) :   1.1522
B( 72-C , 75-F ) :   1.1842 B( 76-C , 77-C ) :   1.9162 B( 76-C ,107-H ) :   0.9598
B( 77-C ,108-H ) :   0.9239 B( 77-C ,109-H ) :   0.9488

-----------------------------------------------------------------------------
         ABSORPTION SPECTRUM VIA TRANSITION ELECTRIC DIPOLE MOMENTS
-----------------------------------------------------------------------------
State   Energy  Wavelength   fosc         T2         TX        TY        TZ
        (cm-1)    (nm)                  (au**2)     (au)      (au)      (au)
-----------------------------------------------------------------------------
   0   11341.6    881.7   0.110477607   3.20682  -0.45661   1.07501  -1.35745
   1   13138.0    761.2   0.083758849   2.09884   0.28489   1.24069  -0.69163
   2   14025.9    713.0   0.065558576   1.53877  -0.95658   0.78096   0.11758
   3   16557.5    604.0   0.163736191   3.25555   1.08614  -1.18013   0.82653
   4   18009.8    555.3   0.010660105   0.19486  -0.28215   0.25352  -0.22580
   5   21523.8    464.6   0.001366429   0.02090  -0.06708   0.07496   0.10383
   6   22004.9    454.4   0.000273515   0.00409   0.02047  -0.05434  -0.02683
   7   22712.5    440.3   0.699967424  10.14585   2.53215  -0.42052  -1.88606
   8   23063.8    433.6   0.000039082   0.00056  -0.02241  -0.00523  -0.00533
   9   24036.4    416.0   0.241392774   3.30621  -1.11964   1.37646  -0.39743
  10   24588.1    406.7   0.612526667   8.20117   0.12793  -2.10818   1.93400
  11   24673.7    405.3   0.508005606   6.77812   1.70621  -1.62407   1.10877
  12   25013.8    399.8   0.078129278   1.02827  -0.68808   0.03130   0.74420
  13   25158.3    397.5   0.296489852   3.87976   0.29742  -1.06783   1.62820
  14   25302.8    395.2   0.010451446   0.13598  -0.31113   0.14124   0.13869
  15   25671.4    389.5   0.004607951   0.05909   0.19055  -0.15006  -0.01634
  16   26120.3    382.8   0.037032138   0.46674  -0.30474   0.54477  -0.27767
  17   26256.3    380.9   0.621292455   7.79001   1.52469  -2.04176   1.13866
  18   26348.8    379.5   0.017055833   0.21310  -0.19678  -0.36299   0.20644
  19   26786.4    373.3   0.082323107   1.01177   0.85320  -0.14478   0.51269
  20   26860.9    372.3   0.239752935   2.93846   1.55913  -0.01804   0.71222
  21   27159.9    368.2   0.014232795   0.17252   0.40951  -0.00072   0.06945
  22   27802.8    359.7   0.005696895   0.06746   0.06433  -0.12076   0.22076
  23   27945.7    357.8   0.001586081   0.01868   0.04832  -0.02574   0.12525
  24   28548.4    350.3   0.074017257   0.85355  -0.14206   0.42740  -0.80665
  25   29510.9    338.9   0.293408034   3.27314  -0.67729   1.47233  -0.80415
  26   29733.0    336.3   0.004324657   0.04788  -0.13458   0.05480  -0.16362
  27   30802.9    324.6   0.057293244   0.61233  -0.28033  -0.21654   0.69775
  28   31084.8    321.7   0.000072479   0.00077  -0.02594  -0.00501  -0.00834
  29   31226.9    320.2   0.002246385   0.02368   0.11378  -0.06994   0.07645
  30   31499.5    317.5   0.015272002   0.15961   0.29655  -0.20923   0.16702
  31   31708.4    315.4   0.008781796   0.09118  -0.03146   0.03634  -0.29811
  32   32358.7    309.0   0.042239493   0.42974  -0.12783  -0.20600   0.60907
  33   32822.1    304.7   0.053013804   0.53174  -0.23030  -0.24441   0.64727
  34   33546.3    298.1   0.303559504   2.97903  -1.35142   0.11380   1.06758
  35   33674.8    297.0   0.008193914   0.08011  -0.12721   0.25208  -0.01943
  36   33839.1    295.5   0.021251470   0.20675   0.32000  -0.22613  -0.23069
  37   33873.6    295.2   0.017689605   0.17192  -0.34317   0.18820   0.13688
  38   34086.4    293.4   0.061359714   0.59262  -0.15284   0.65636  -0.37209
  39   34127.5    293.0   0.261941024   2.52682  -1.04496   0.99613  -0.66528
  40   34360.9    291.0   0.148772888   1.42539   0.88510  -0.72584   0.33935
  41   34571.1    289.3   0.017137298   0.16319   0.00590   0.24836  -0.31855
  42   34830.7    287.1   0.057748695   0.54583   0.51961   0.01286  -0.52504
  43   35045.6    285.3   0.014378973   0.13507   0.26136   0.13496  -0.22034
  44   35301.3    283.3   0.041839662   0.39019   0.39741  -0.30373   0.37417
  45   35463.4    282.0   0.054233721   0.50346  -0.68697  -0.06142  -0.16659
  46   35653.9    280.5   0.018525612   0.17106  -0.24817   0.33082  -0.00497
  47   36162.5    276.5   0.047278966   0.43041   0.43530   0.47851  -0.10935
  48   36542.1    273.7   0.125376036   1.12953  -0.56408  -0.85049   0.29666
  49   36936.5    270.7   0.248670870   2.21638  -0.46399  -1.20770   0.73658
  50   37252.0    268.4   0.006163896   0.05447   0.05954   0.20305  -0.09849
  51   37325.5    267.9   0.008835998   0.07793  -0.24984  -0.11482  -0.04829
  52   37416.5    267.3   0.034855530   0.30668  -0.28903   0.43304   0.18871
  53   38066.1    262.7   0.164358524   1.42144  -0.42531  -0.00155   1.11380
  54   38297.8    261.1   0.017039778   0.14648  -0.27149   0.11730  -0.24291
  55   38359.6    260.7   0.008393471   0.07203   0.18555  -0.10547  -0.16274
  56   38560.6    259.3   0.002366247   0.02020  -0.10751   0.07292   0.05767
  57   38697.5    258.4   0.031083144   0.26443   0.35384   0.09361  -0.36121
  58   38870.5    257.3   0.030992273   0.26249   0.37909  -0.00481  -0.34460
  59   39001.5    256.4   0.012196940   0.10295  -0.09709   0.24226  -0.18666
  60   39187.2    255.2   0.000054271   0.00046  -0.00601   0.01887  -0.00799
  61   39711.2    251.8   0.000183761   0.00152  -0.01480   0.02675  -0.02426
  62   39819.2    251.1   0.000786533   0.00650  -0.01238   0.04663  -0.06461
  63   40173.4    248.9   0.000094752   0.00078  -0.01336  -0.01268   0.02091

FINAL SINGLE POINT ENERGY     -4621.707758637607

DIPOLE MOMENT
-------------
                                X             Y             Z
Electronic contribution:     -1.84546      28.60508      74.19521
Nuclear contribution   :     -0.34394     -31.26368     -74.00778
                        -----------------------------------------
Total Dipole Moment    :     -2.18939      -2.65860       0.18742
                        -----------------------------------------
Magnitude (a.u.)       :      3.44916
Magnitude (Debye)      :      8.76707

Rotational constants in cm-1:     0.000928     0.000284     0.000249
Rotational constants in MHz :    27.807914     8.521921     7.464546

                             ****ORCA TERMINATED NORMALLY****
TOTAL RUN TIME: 0 days 0 hours 11 minutes 21 seconds 431 msec
