                         Program Version 4.2.0 -  RELEASE  -
|  1> # ORCA input file
|  2> # SCF done       -165.987278789766          0.000226339966
|  3> ! CAM-B3LYP def2-SVP def2/J RIJCOSX Grid4 TightSCF
|  4> %maxcore 5000
|  5> %tddft
|  6>     Mode sTDDFT
|  7>     Ethresh 5.0
|  8>     maxcore 5000
|  9> end
| 10>
| 11> %pal
| 12>   nprocs 6
| 13>   end
| 14> * xyz 0 1
| 15>    C       11.23617         0.17058       -10.20220
| 16>    C       11.37267         1.44338        -9.87451
| 17>    C       12.66381         2.18922       -10.01048
| 18>    C       10.24236         2.28798        -9.32147
| 19>    N        8.97249         1.61746        -9.20881
| 20>    C        8.64651         0.77158        -8.21252
| 21>    C        9.42831         0.46389        -7.14278
| 22>    C        9.06849        -0.41088        -6.09500
| 23>    N       10.03144        -0.97997        -5.36934
| 24>    C        9.42037        -1.85462        -4.56062
| 25>    C        7.95978        -1.84691        -4.76302
| 26>    C        7.31291        -2.81966        -3.86849
| 27>    O        6.13605        -3.11707        -3.79918
| 28>    C        8.44669        -3.36075        -3.10656
| 29>    C        9.71067        -2.75961        -3.56256
| 30>    N       10.75518        -3.24149        -2.85044
| 31>    C       10.22275        -4.08186        -1.98920
| 32>    C        8.79098        -4.19768        -2.08769
| 33>    C        7.71233        -0.87709        -5.70008
| 34>    C        6.47055        -0.32348        -6.13352
| 35>    C        5.28054        -0.93513        -5.95015
| 36>    C        3.99825        -0.41424        -6.35108
| 37>    C        3.78825         0.91190        -6.66056
| 38>    C        2.51495         1.35319        -7.06558
| 39>    C        2.05732         2.61524        -7.42103
| 40>    C        2.85291         3.87715        -7.42714
| 41>    C        3.03189         4.41670        -8.85586
| 42>    N        3.77948         3.45687        -9.65061
| 43>    C        2.24602         4.93475        -6.48326
| 44>    N        3.28002         5.86013        -6.05203
| 45>    C        0.66432         2.47200        -7.76549
| 46>    C       -0.25250         3.35776        -8.19836
| 47>    C       -1.66761         2.95783        -8.45972
| 48>    C       -1.94555         1.49994        -8.30540
| 49>    C       -1.01428         0.61999        -7.89263
| 50>    C        0.29895         1.05457        -7.59665
| 51>    C        1.42777         0.38907        -7.16534
| 52>    C        1.66309        -0.96284        -6.81989
| 53>    C        2.90223        -1.33974        -6.41872
| 54>    C       -2.48452         3.81047        -7.52162
| 55>    C       -3.00418         3.36825        -6.37010
| 56>    C       -3.74509         4.22647        -5.49460
| 57>    N       -3.64090         5.54474        -5.57753
| 58>    C       -4.35960         6.03902        -4.54817
| 59>    C       -4.95852         4.95734        -3.75502
| 60>    C       -5.73873         5.50193        -2.63474
| 61>    O       -6.36241         4.90466        -1.78422
| 62>    C       -5.56901         6.95907        -2.80999
| 63>    C       -4.72137         7.23999        -3.98578
| 64>    N       -4.57632         8.57641        -4.16385
| 65>    C       -5.27166         9.12628        -3.19623
| 66>    C       -5.92219         8.17635        -2.32063
| 67>    C       -4.60864         3.78534        -4.37491
| 68>    C       -5.02202         2.46451        -4.02533
| 69>    C       -5.07737         1.40777        -4.86273
| 70>    C       -5.52984         0.11220        -4.45565
| 71>    C       -5.57639        -0.97154        -5.24911
| 72>    C       -5.12839        -0.97732        -6.67920
| 73>    C       -6.10591        -2.28301        -4.73502
| 74>    N       -5.16373        -3.34748        -4.99474
| 75>    C       -5.57933        -4.65183        -5.12785
| 76>    C       -4.81286        -5.71986        -4.93849
| 77>    H       12.06318        -0.39902       -10.58750
| 78>    H       10.30921        -0.36489       -10.08927
| 79>    H       13.43564         1.54985       -10.42774
| 80>    H       12.99716         2.54712        -9.03715
| 81>    H       12.53885         3.05661       -10.65787
| 82>    H       10.10420         3.15946        -9.97043
| 83>    H       10.52707         2.65906        -8.33176
| 84>    H        8.42220         1.57209       -10.05209
| 85>    H        7.67220         0.31572        -8.32373
| 86>    H       10.45612         0.79178        -7.10978
| 87>    H       10.85002        -4.61312        -1.29416
| 88>    H        8.16851        -4.81994        -1.47511
| 89>    H        6.51684         0.64892        -6.60444
| 90>    H        5.27227        -1.91612        -5.49379
| 91>    H        4.59187         1.62731        -6.57359
| 92>    H        3.84916         3.65634        -7.03105
| 93>    H        3.52116         5.40526        -8.80501
| 94>    H        2.05738         4.54487        -9.33298
| 95>    H        4.70322         3.32193        -9.25305
| 96>    H        3.89260         3.79369       -10.60021
| 97>    H        1.86979         4.42590        -5.59199
| 98>    H        1.39322         5.43150        -6.97158
| 99>    H        3.56695         6.46101        -6.81737
|100>    H        2.93565         6.45524        -5.30759
|101>    H       -0.02811         4.40507        -8.33606
|102>    H       -1.92841         3.26031        -9.48513
|103>    H       -2.95291         1.18698        -8.53712
|104>    H       -1.25165        -0.42964        -7.79182
|105>    H        0.85394        -1.67648        -6.87310
|106>    H        3.09930        -2.36522        -6.14299
|107>    H       -2.62967         4.84547        -7.79601
|108>    H       -2.86702         2.34267        -6.06055
|109>    H       -5.31992        10.19775        -3.10455
|110>    H       -6.53730         8.42383        -1.47807
|111>    H       -5.37864         2.35523        -3.00845
|112>    H       -4.80917         1.52955        -5.90128
|113>    H       -5.85798         0.02604        -3.42752
|114>    H       -4.13486        -0.54458        -6.78183
|115>    H       -5.81586        -0.39766        -7.29585
|116>    H       -5.10154        -1.99721        -7.05364
|117>    H       -7.03075        -2.52444        -5.27281
|118>    H       -6.35291        -2.19600        -3.66558
|119>    H       -4.27128        -3.23519        -4.53363
|120>    H       -6.60049        -4.75325        -5.47260
|121>    H       -3.79557        -5.63430        -4.59688
|122>    H       -5.17902        -6.70911        -5.13482
|123> *
|124>
|125>                          ****END OF INPUT****

CARTESIAN COORDINATES (ANGSTROEM)
---------------------------------
  C     11.236170    0.170580  -10.202200
  C     11.372670    1.443380   -9.874510
  C     12.663810    2.189220  -10.010480
  C     10.242360    2.287980   -9.321470
  N      8.972490    1.617460   -9.208810
  C      8.646510    0.771580   -8.212520
  C      9.428310    0.463890   -7.142780
  C      9.068490   -0.410880   -6.095000
  N     10.031440   -0.979970   -5.369340
  C      9.420370   -1.854620   -4.560620
  C      7.959780   -1.846910   -4.763020
  C      7.312910   -2.819660   -3.868490
  O      6.136050   -3.117070   -3.799180
  C      8.446690   -3.360750   -3.106560
  C      9.710670   -2.759610   -3.562560
  N     10.755180   -3.241490   -2.850440
  C     10.222750   -4.081860   -1.989200
  C      8.790980   -4.197680   -2.087690
  C      7.712330   -0.877090   -5.700080
  C      6.470550   -0.323480   -6.133520
  C      5.280540   -0.935130   -5.950150
  C      3.998250   -0.414240   -6.351080
  C      3.788250    0.911900   -6.660560
  C      2.514950    1.353190   -7.065580
  C      2.057320    2.615240   -7.421030
  C      2.852910    3.877150   -7.427140
  C      3.031890    4.416700   -8.855860
  N      3.779480    3.456870   -9.650610
  C      2.246020    4.934750   -6.483260
  N      3.280020    5.860130   -6.052030
  C      0.664320    2.472000   -7.765490
  C     -0.252500    3.357760   -8.198360
  C     -1.667610    2.957830   -8.459720
  C     -1.945550    1.499940   -8.305400
  C     -1.014280    0.619990   -7.892630
  C      0.298950    1.054570   -7.596650
  C      1.427770    0.389070   -7.165340
  C      1.663090   -0.962840   -6.819890
  C      2.902230   -1.339740   -6.418720
  C     -2.484520    3.810470   -7.521620
  C     -3.004180    3.368250   -6.370100
  C     -3.745090    4.226470   -5.494600
  N     -3.640900    5.544740   -5.577530
  C     -4.359600    6.039020   -4.548170
  C     -4.958520    4.957340   -3.755020
  C     -5.738730    5.501930   -2.634740
  O     -6.362410    4.904660   -1.784220
  C     -5.569010    6.959070   -2.809990
  C     -4.721370    7.239990   -3.985780
  N     -4.576320    8.576410   -4.163850
  C     -5.271660    9.126280   -3.196230
  C     -5.922190    8.176350   -2.320630
  C     -4.608640    3.785340   -4.374910
  C     -5.022020    2.464510   -4.025330
  C     -5.077370    1.407770   -4.862730
  C     -5.529840    0.112200   -4.455650
  C     -5.576390   -0.971540   -5.249110
  C     -5.128390   -0.977320   -6.679200
  C     -6.105910   -2.283010   -4.735020
  N     -5.163730   -3.347480   -4.994740
  C     -5.579330   -4.651830   -5.127850
  C     -4.812860   -5.719860   -4.938490
  H     12.063180   -0.399020  -10.587500
  H     10.309210   -0.364890  -10.089270
  H     13.435640    1.549850  -10.427740
  H     12.997160    2.547120   -9.037150
  H     12.538850    3.056610  -10.657870
  H     10.104200    3.159460   -9.970430
  H     10.527070    2.659060   -8.331760
  H      8.422200    1.572090  -10.052090
  H      7.672200    0.315720   -8.323730
  H     10.456120    0.791780   -7.109780
  H     10.850020   -4.613120   -1.294160
  H      8.168510   -4.819940   -1.475110
  H      6.516840    0.648920   -6.604440
  H      5.272270   -1.916120   -5.493790
  H      4.591870    1.627310   -6.573590
  H      3.849160    3.656340   -7.031050
  H      3.521160    5.405260   -8.805010
  H      2.057380    4.544870   -9.332980
  H      4.703220    3.321930   -9.253050
  H      3.892600    3.793690  -10.600210
  H      1.869790    4.425900   -5.591990
  H      1.393220    5.431500   -6.971580
  H      3.566950    6.461010   -6.817370
  H      2.935650    6.455240   -5.307590
  H     -0.028110    4.405070   -8.336060
  H     -1.928410    3.260310   -9.485130
  H     -2.952910    1.186980   -8.537120
  H     -1.251650   -0.429640   -7.791820
  H      0.853940   -1.676480   -6.873100
  H      3.099300   -2.365220   -6.142990
  H     -2.629670    4.845470   -7.796010
  H     -2.867020    2.342670   -6.060550
  H     -5.319920   10.197750   -3.104550
  H     -6.537300    8.423830   -1.478070
  H     -5.378640    2.355230   -3.008450
  H     -4.809170    1.529550   -5.901280
  H     -5.857980    0.026040   -3.427520
  H     -4.134860   -0.544580   -6.781830
  H     -5.815860   -0.397660   -7.295850
  H     -5.101540   -1.997210   -7.053640
  H     -7.030750   -2.524440   -5.272810
  H     -6.352910   -2.196000   -3.665580
  H     -4.271280   -3.235190   -4.533630
  H     -6.600490   -4.753250   -5.472600
  H     -3.795570   -5.634300   -4.596880
  H     -5.179020   -6.709110   -5.134820

 Total Charge           Charge          ....    0
 Multiplicity           Mult            ....    1
 Number of Electrons    NEL             ....  430
 Basis Dimension        Dim             .... 1098

ORBITAL ENERGIES
----------------

  NO   OCC          E(Eh)            E(eV)
   0   2.0000     -19.201191      -522.4910
   1   2.0000     -19.187356      -522.1145
   2   2.0000     -14.462526      -393.5454
   3   2.0000     -14.409772      -392.1098
   4   2.0000     -14.404032      -391.9536
   5   2.0000     -14.398896      -391.8139
   6   2.0000     -14.384088      -391.4109
   7   2.0000     -14.379984      -391.2992
   8   2.0000     -14.377842      -391.2410
   9   2.0000     -14.376010      -391.1911
  10   2.0000     -10.362256      -281.9713
  11   2.0000     -10.347322      -281.5649
  12   2.0000     -10.340563      -281.3810
  13   2.0000     -10.339232      -281.3448
  14   2.0000     -10.326642      -281.0022
  15   2.0000     -10.326203      -280.9903
  16   2.0000     -10.323050      -280.9045
  17   2.0000     -10.317722      -280.7595
  18   2.0000     -10.315725      -280.7052
  19   2.0000     -10.307265      -280.4749
  20   2.0000     -10.305354      -280.4229
  21   2.0000     -10.304889      -280.4103
  22   2.0000     -10.302703      -280.3508
  23   2.0000     -10.301394      -280.3152
  24   2.0000     -10.298286      -280.2306
  25   2.0000     -10.291467      -280.0451
  26   2.0000     -10.289177      -279.9827
  27   2.0000     -10.289163      -279.9824
  28   2.0000     -10.288272      -279.9581
  29   2.0000     -10.286470      -279.9091
  30   2.0000     -10.284928      -279.8671
  31   2.0000     -10.283988      -279.8415
  32   2.0000     -10.283891      -279.8389
  33   2.0000     -10.282140      -279.7912
  34   2.0000     -10.281678      -279.7787
  35   2.0000     -10.281586      -279.7762
  36   2.0000     -10.281177      -279.7650
  37   2.0000     -10.280892      -279.7573
  38   2.0000     -10.279550      -279.7208
  39   2.0000     -10.274480      -279.5828
  40   2.0000     -10.274406      -279.5808
  41   2.0000     -10.272277      -279.5229
  42   2.0000     -10.270457      -279.4733
  43   2.0000     -10.270073      -279.4629
  44   2.0000     -10.268935      -279.4319
  45   2.0000     -10.266318      -279.3607
  46   2.0000     -10.266285      -279.3598
  47   2.0000     -10.265977      -279.3514
  48   2.0000     -10.265224      -279.3310
  49   2.0000     -10.264839      -279.3205
  50   2.0000     -10.264658      -279.3155
  51   2.0000     -10.263184      -279.2754
  52   2.0000     -10.263039      -279.2715
  53   2.0000     -10.262580      -279.2590
  54   2.0000     -10.261285      -279.2238
  55   2.0000     -10.260200      -279.1942
  56   2.0000     -10.259832      -279.1842
  57   2.0000     -10.259534      -279.1761
  58   2.0000     -10.258927      -279.1596
  59   2.0000     -10.258766      -279.1552
  60   2.0000     -10.258236      -279.1408
  61   2.0000     -10.228241      -278.3246
  62   2.0000      -1.115174       -30.3454
  63   2.0000      -1.100674       -29.9509
  64   2.0000      -1.071664       -29.1615
  65   2.0000      -1.059697       -28.8358
  66   2.0000      -1.052307       -28.6347
  67   2.0000      -1.049954       -28.5707
  68   2.0000      -1.028846       -27.9963
  69   2.0000      -1.013070       -27.5670
  70   2.0000      -0.983566       -26.7642
  71   2.0000      -0.968982       -26.3673
  72   2.0000      -0.954865       -25.9832
  73   2.0000      -0.948505       -25.8101
  74   2.0000      -0.930567       -25.3220
  75   2.0000      -0.922868       -25.1125
  76   2.0000      -0.916629       -24.9427
  77   2.0000      -0.913333       -24.8531
  78   2.0000      -0.906901       -24.6780
  79   2.0000      -0.895621       -24.3711
  80   2.0000      -0.890743       -24.2384
  81   2.0000      -0.879686       -23.9375
  82   2.0000      -0.869322       -23.6555
  83   2.0000      -0.861172       -23.4337
  84   2.0000      -0.848959       -23.1013
  85   2.0000      -0.845028       -22.9944
  86   2.0000      -0.838395       -22.8139
  87   2.0000      -0.831123       -22.6160
  88   2.0000      -0.828443       -22.5431
  89   2.0000      -0.822302       -22.3760
  90   2.0000      -0.814961       -22.1762
  91   2.0000      -0.802965       -21.8498
  92   2.0000      -0.793869       -21.6023
  93   2.0000      -0.780490       -21.2382
  94   2.0000      -0.778252       -21.1773
  95   2.0000      -0.760957       -20.7067
  96   2.0000      -0.755325       -20.5534
  97   2.0000      -0.755262       -20.5517
  98   2.0000      -0.745257       -20.2795
  99   2.0000      -0.739025       -20.1099
 100   2.0000      -0.737884       -20.0788
 101   2.0000      -0.727388       -19.7932
 102   2.0000      -0.723123       -19.6772
 103   2.0000      -0.706657       -19.2291
 104   2.0000      -0.693379       -18.8678
 105   2.0000      -0.685747       -18.6601
 106   2.0000      -0.679816       -18.4987
 107   2.0000      -0.676725       -18.4146
 108   2.0000      -0.667780       -18.1712
 109   2.0000      -0.666955       -18.1488
 110   2.0000      -0.660279       -17.9671
 111   2.0000      -0.649984       -17.6870
 112   2.0000      -0.646292       -17.5865
 113   2.0000      -0.643308       -17.5053
 114   2.0000      -0.633963       -17.2510
 115   2.0000      -0.631729       -17.1902
 116   2.0000      -0.624526       -16.9942
 117   2.0000      -0.616935       -16.7876
 118   2.0000      -0.611635       -16.6434
 119   2.0000      -0.609176       -16.5765
 120   2.0000      -0.597001       -16.2452
 121   2.0000      -0.596810       -16.2400
 122   2.0000      -0.592101       -16.1119
 123   2.0000      -0.587252       -15.9799
 124   2.0000      -0.579922       -15.7805
 125   2.0000      -0.574654       -15.6371
 126   2.0000      -0.573439       -15.6041
 127   2.0000      -0.572540       -15.5796
 128   2.0000      -0.568308       -15.4645
 129   2.0000      -0.566728       -15.4214
 130   2.0000      -0.564879       -15.3711
 131   2.0000      -0.561239       -15.2721
 132   2.0000      -0.555412       -15.1135
 133   2.0000      -0.553841       -15.0708
 134   2.0000      -0.549409       -14.9502
 135   2.0000      -0.545455       -14.8426
 136   2.0000      -0.540488       -14.7074
 137   2.0000      -0.537783       -14.6338
 138   2.0000      -0.533418       -14.5150
 139   2.0000      -0.531217       -14.4552
 140   2.0000      -0.527428       -14.3521
 141   2.0000      -0.525879       -14.3099
 142   2.0000      -0.521742       -14.1973
 143   2.0000      -0.520630       -14.1671
 144   2.0000      -0.519306       -14.1310
 145   2.0000      -0.517425       -14.0798
 146   2.0000      -0.514823       -14.0091
 147   2.0000      -0.511411       -13.9162
 148   2.0000      -0.509701       -13.8697
 149   2.0000      -0.504536       -13.7291
 150   2.0000      -0.499830       -13.6011
 151   2.0000      -0.498676       -13.5697
 152   2.0000      -0.497989       -13.5510
 153   2.0000      -0.495876       -13.4935
 154   2.0000      -0.493126       -13.4186
 155   2.0000      -0.490989       -13.3605
 156   2.0000      -0.487195       -13.2573
 157   2.0000      -0.481849       -13.1118
 158   2.0000      -0.480066       -13.0633
 159   2.0000      -0.479544       -13.0491
 160   2.0000      -0.477551       -12.9948
 161   2.0000      -0.475413       -12.9366
 162   2.0000      -0.475180       -12.9303
 163   2.0000      -0.471814       -12.8387
 164   2.0000      -0.470358       -12.7991
 165   2.0000      -0.466752       -12.7010
 166   2.0000      -0.466222       -12.6865
 167   2.0000      -0.464453       -12.6384
 168   2.0000      -0.462869       -12.5953
 169   2.0000      -0.459228       -12.4962
 170   2.0000      -0.455844       -12.4042
 171   2.0000      -0.453183       -12.3317
 172   2.0000      -0.449379       -12.2282
 173   2.0000      -0.447805       -12.1854
 174   2.0000      -0.444725       -12.1016
 175   2.0000      -0.442900       -12.0519
 176   2.0000      -0.441130       -12.0037
 177   2.0000      -0.438566       -11.9340
 178   2.0000      -0.436819       -11.8864
 179   2.0000      -0.433521       -11.7967
 180   2.0000      -0.432509       -11.7692
 181   2.0000      -0.425333       -11.5739
 182   2.0000      -0.421908       -11.4807
 183   2.0000      -0.420670       -11.4470
 184   2.0000      -0.415342       -11.3020
 185   2.0000      -0.414036       -11.2665
 186   2.0000      -0.409962       -11.1556
 187   2.0000      -0.408287       -11.1101
 188   2.0000      -0.392665       -10.6850
 189   2.0000      -0.390989       -10.6394
 190   2.0000      -0.390000       -10.6125
 191   2.0000      -0.379473       -10.3260
 192   2.0000      -0.374814       -10.1992
 193   2.0000      -0.362861        -9.8739
 194   2.0000      -0.355012        -9.6604
 195   2.0000      -0.347443        -9.4544
 196   2.0000      -0.343740        -9.3536
 197   2.0000      -0.341158        -9.2834
 198   2.0000      -0.334566        -9.1040
 199   2.0000      -0.330434        -8.9916
 200   2.0000      -0.328847        -8.9484
 201   2.0000      -0.326137        -8.8746
 202   2.0000      -0.325665        -8.8618
 203   2.0000      -0.321212        -8.7406
 204   2.0000      -0.318990        -8.6802
 205   2.0000      -0.307713        -8.3733
 206   2.0000      -0.304765        -8.2931
 207   2.0000      -0.304624        -8.2893
 208   2.0000      -0.302801        -8.2396
 209   2.0000      -0.299901        -8.1607
 210   2.0000      -0.270377        -7.3573
 211   2.0000      -0.269197        -7.3252
 212   2.0000      -0.259981        -7.0744
 213   2.0000      -0.256473        -6.9790
 214   2.0000      -0.217313        -5.9134
 215   0.0000      -0.106461        -2.8970
 216   0.0000      -0.086162        -2.3446
 217   0.0000      -0.065974        -1.7952
 218   0.0000      -0.043653        -1.1878
 219   0.0000      -0.024422        -0.6646

MULLIKEN ATOMIC CHARGES
-----------------------
   0 C :   -0.004386
   1 C :   -0.222928
   2 C :    0.083153
   3 C :    0.193256
   4 N :   -0.141990
   5 C :    0.069571
   6 C :   -0.066174
   7 C :    0.049758
   8 N :   -0.052020
   9 C :    0.069209
  10 C :   -0.166298
  11 C :    0.206580
  12 O :   -0.157553
  13 C :   -0.023694
  14 C :   -0.053718
  15 N :   -0.063144
  16 C :    0.074915
  17 C :   -0.101813
  18 C :    0.040354
  19 C :   -0.050152
  20 C :    0.002794
  21 C :    0.102493
  22 C :   -0.091543
  23 C :    0.058765
  24 C :    0.024082
  25 C :   -0.061985
  26 C :    0.155553
  27 N :   -0.213779
  28 C :    0.124537
  29 N :   -0.213973
  30 C :    0.102342
  31 C :   -0.134914
  32 C :    0.170449
  33 C :   -0.077159
  34 C :    0.023060
  35 C :   -0.007292
  36 C :    0.042053
  37 C :   -0.007730
  38 C :   -0.004236
  39 C :   -0.046542
  40 C :   -0.019246
  41 C :    0.032735
  42 N :   -0.050859
  43 C :    0.064391
  44 C :   -0.125940
  45 C :    0.199952
  46 O :   -0.133855
  47 C :   -0.038668
  48 C :   -0.026470
  49 N :   -0.059037
  50 C :    0.084630
  51 C :   -0.094058
  52 C :    0.040745
  53 C :   -0.032120
  54 C :    0.005421
  55 C :    0.000852
  56 C :   -0.216188
  57 C :    0.093442
  58 C :    0.233349
  59 N :   -0.208108
  60 C :    0.046301
  61 C :   -0.082674
  62 H :    0.015162
  63 H :    0.005032
  64 H :    0.017687
  65 H :    0.028513
  66 H :    0.020104
  67 H :    0.024519
  68 H :    0.034867
  69 H :    0.134424
  70 H :    0.029896
  71 H :    0.000215
  72 H :   -0.006336
  73 H :   -0.019009
  74 H :   -0.028314
  75 H :    0.005982
  76 H :   -0.043305
  77 H :   -0.023748
  78 H :   -0.028624
  79 H :   -0.018983
  80 H :    0.080851
  81 H :    0.088021
  82 H :    0.010586
  83 H :   -0.020625
  84 H :    0.083375
  85 H :    0.095434
  86 H :   -0.000318
  87 H :    0.035029
  88 H :   -0.009783
  89 H :   -0.033063
  90 H :   -0.037662
  91 H :   -0.016163
  92 H :    0.028746
  93 H :    0.021582
  94 H :    0.006459
  95 H :   -0.008591
  96 H :    0.007000
  97 H :   -0.007152
  98 H :   -0.023384
  99 H :    0.024503
 100 H :    0.029577
 101 H :    0.023754
 102 H :    0.016394
 103 H :    0.001380
 104 H :    0.108930
 105 H :   -0.002051
 106 H :   -0.005387
 107 H :    0.009979
Sum of atomic charges:   -0.0000000

LOEWDIN ATOMIC CHARGES
----------------------
   0 C :   -0.063705
   1 C :   -0.043518
   2 C :   -0.044273
   3 C :    0.037551
   4 N :    0.023957
   5 C :    0.074270
   6 C :   -0.123371
   7 C :    0.079415
   8 N :   -0.126690
   9 C :    0.051527
  10 C :   -0.049264
  11 C :    0.065838
  12 O :   -0.158430
  13 C :   -0.048615
  14 C :   -0.005330
  15 N :   -0.103203
  16 C :    0.048361
  17 C :   -0.051536
  18 C :   -0.029761
  19 C :   -0.048447
  20 C :    0.021316
  21 C :   -0.032564
  22 C :   -0.004001
  23 C :   -0.015349
  24 C :   -0.018323
  25 C :   -0.040721
  26 C :    0.024814
  27 N :   -0.116137
  28 C :    0.027835
  29 N :   -0.118617
  30 C :   -0.009224
  31 C :    0.061029
  32 C :   -0.030947
  33 C :   -0.047565
  34 C :   -0.012574
  35 C :   -0.045389
  36 C :   -0.020134
  37 C :   -0.015480
  38 C :   -0.014711
  39 C :    0.067622
  40 C :   -0.054589
  41 C :    0.079773
  42 N :   -0.109877
  43 C :    0.047512
  44 C :   -0.048664
  45 C :    0.063686
  46 O :   -0.145161
  47 C :   -0.040074
  48 C :    0.016279
  49 N :   -0.101547
  50 C :    0.068574
  51 C :   -0.041223
  52 C :   -0.026275
  53 C :   -0.024238
  54 C :   -0.007813
  55 C :   -0.053788
  56 C :   -0.020842
  57 C :   -0.058142
  58 C :    0.043426
  59 N :   -0.044286
  60 C :    0.019555
  61 C :   -0.152967
  62 H :    0.025648
  63 H :    0.017697
  64 H :    0.034391
  65 H :    0.035731
  66 H :    0.031309
  67 H :    0.034578
  68 H :    0.037699
  69 H :    0.085990
  70 H :    0.036052
  71 H :    0.038319
  72 H :    0.016850
  73 H :    0.028409
  74 H :    0.019242
  75 H :    0.033017
  76 H :    0.021102
  77 H :    0.024276
  78 H :   -0.006917
  79 H :    0.012711
  80 H :    0.047876
  81 H :    0.053191
  82 H :    0.025223
  83 H :   -0.002123
  84 H :    0.046225
  85 H :    0.057214
  86 H :    0.024980
  87 H :    0.057921
  88 H :    0.021449
  89 H :    0.029760
  90 H :    0.026391
  91 H :    0.031112
  92 H :    0.035914
  93 H :    0.035755
  94 H :    0.021970
  95 H :    0.032986
  96 H :    0.039814
  97 H :    0.025459
  98 H :    0.026858
  99 H :    0.033384
 100 H :    0.037172
 101 H :    0.032086
 102 H :    0.032329
 103 H :    0.015268
 104 H :    0.072758
 105 H :    0.022277
 106 H :    0.014061
 107 H :    0.021613

  Mayer bond orders larger than 0.100000
B(  0-C ,  1-C ) :   2.0321 B(  0-C , 62-H ) :   0.9439 B(  0-C , 63-H ) :   0.9406
B(  1-C ,  2-C ) :   1.0631 B(  1-C ,  3-C ) :   0.9927 B(  2-C , 64-H ) :   0.9572
B(  2-C , 65-H ) :   0.9558 B(  2-C , 66-H ) :   0.9585 B(  3-C ,  4-N ) :   1.0216
B(  3-C , 67-H ) :   0.9387 B(  3-C , 68-H ) :   0.9243 B(  4-N ,  5-C ) :   1.2797
B(  4-N , 69-H ) :   0.9371 B(  5-C ,  6-C ) :   1.5302 B(  5-C , 70-H ) :   0.9610
B(  6-C ,  7-C ) :   1.2191 B(  6-C , 71-H ) :   0.9409 B(  7-C ,  8-N ) :   1.5311
B(  7-C ,  9-C ) :   0.1110 B(  7-C , 18-C ) :   0.9946 B(  8-N ,  9-C ) :   1.3930
B(  9-C , 10-C ) :   1.0484 B(  9-C , 14-C ) :   1.3781 B( 10-C , 11-C ) :   0.8954
B( 10-C , 18-C ) :   1.5782 B( 11-C , 12-O ) :   2.1843 B( 11-C , 13-C ) :   0.9403
B( 13-C , 14-C ) :   1.0889 B( 13-C , 17-C ) :   1.5586 B( 14-C , 15-N ) :   1.3394
B( 15-N , 16-C ) :   1.6287 B( 16-C , 17-C ) :   1.1124 B( 16-C , 72-H ) :   0.9897
B( 17-C , 73-H ) :   1.0106 B( 18-C , 19-C ) :   1.0906 B( 19-C , 20-C ) :   1.6872
B( 19-C , 74-H ) :   0.9532 B( 20-C , 21-C ) :   1.0522 B( 20-C , 75-H ) :   0.9665
B( 21-C , 22-C ) :   1.5262 B( 21-C , 38-C ) :   1.1140 B( 22-C , 23-C ) :   1.1446
B( 22-C , 76-H ) :   0.9893 B( 23-C , 24-C ) :   1.4957 B( 23-C , 36-C ) :   1.1154
B( 24-C , 25-C ) :   1.0123 B( 24-C , 30-C ) :   1.0908 B( 25-C , 26-C ) :   1.0456
B( 25-C , 28-C ) :   1.0340 B( 25-C , 77-H ) :   0.8840 B( 26-C , 27-N ) :   1.0805
B( 26-C , 78-H ) :   0.9369 B( 26-C , 79-H ) :   0.9318 B( 27-N , 80-H ) :   0.9725
B( 27-N , 81-H ) :   0.9687 B( 28-C , 29-N ) :   1.1021 B( 28-C , 82-H ) :   0.9454
B( 28-C , 83-H ) :   0.9322 B( 29-N , 84-H ) :   0.9713 B( 29-N , 85-H ) :   0.9674
B( 30-C , 31-C ) :   1.6862 B( 30-C , 35-C ) :   1.0462 B( 31-C , 32-C ) :   0.9677
B( 31-C , 86-H ) :   0.9521 B( 32-C , 33-C ) :   0.9989 B( 32-C , 39-C ) :   0.9435
B( 32-C , 87-H ) :   0.8633 B( 33-C , 34-C ) :   1.7034 B( 33-C , 88-H ) :   0.9731
B( 34-C , 35-C ) :   1.1327 B( 34-C , 89-H ) :   0.9911 B( 35-C , 36-C ) :   1.4459
B( 36-C , 37-C ) :   1.1337 B( 37-C , 38-C ) :   1.6052 B( 37-C , 90-H ) :   0.9932
B( 38-C , 91-H ) :   0.9921 B( 39-C , 40-C ) :   1.8090 B( 39-C , 92-H ) :   0.9677
B( 40-C , 41-C ) :   1.0879 B( 40-C , 93-H ) :   0.9431 B( 41-C , 42-N ) :   1.6158
B( 41-C , 43-C ) :   0.1053 B( 41-C , 52-C ) :   1.0070 B( 42-N , 43-C ) :   1.3394
B( 43-C , 44-C ) :   1.0440 B( 43-C , 48-C ) :   1.4232 B( 44-C , 45-C ) :   0.8965
B( 44-C , 52-C ) :   1.5675 B( 45-C , 46-O ) :   2.2850 B( 45-C , 47-C ) :   0.8994
B( 47-C , 48-C ) :   1.0596 B( 47-C , 51-C ) :   1.6094 B( 48-C , 49-N ) :   1.3123
B( 49-N , 50-C ) :   1.6542 B( 50-C , 51-C ) :   1.0788 B( 50-C , 94-H ) :   0.9894
B( 51-C , 95-H ) :   1.0101 B( 52-C , 53-C ) :   1.0918 B( 53-C , 54-C ) :   1.6724
B( 53-C , 96-H ) :   0.9759 B( 54-C , 55-C ) :   1.1096 B( 54-C , 97-H ) :   0.9667
B( 55-C , 56-C ) :   1.7566 B( 55-C , 98-H ) :   0.9793 B( 56-C , 57-C ) :   1.0683
B( 56-C , 58-C ) :   1.0521 B( 57-C , 99-H ) :   0.9465 B( 57-C ,100-H ) :   0.9433
B( 57-C ,101-H ) :   0.9436 B( 58-C , 59-N ) :   0.9896 B( 58-C ,102-H ) :   0.9214
B( 58-C ,103-H ) :   0.9348 B( 59-N , 60-C ) :   1.1418 B( 59-N ,104-H ) :   0.9463
B( 60-C , 61-C ) :   1.9135 B( 60-C ,105-H ) :   0.9599 B( 61-C ,106-H ) :   0.9604
B( 61-C ,107-H ) :   0.9529

-----------------------------------------------------------------------------
         ABSORPTION SPECTRUM VIA TRANSITION ELECTRIC DIPOLE MOMENTS
-----------------------------------------------------------------------------
State   Energy  Wavelength   fosc         T2         TX        TY        TZ
        (cm-1)    (nm)                  (au**2)     (au)      (au)      (au)
-----------------------------------------------------------------------------
   0   10201.2    980.3   0.028216348   0.91059   0.49578  -0.79267  -0.19094
   1   14005.6    714.0   0.036197871   0.85086  -0.14764   0.80421  -0.42697
   2   15921.8    628.1   0.143963448   2.97670  -1.59683   0.45007  -0.47358
   3   17587.4    568.6   0.101687700   1.90346   0.10684  -1.30982  -0.42002
   4   21362.3    468.1   0.040457878   0.62349   0.64586  -0.13304  -0.43435
   5   21923.6    456.1   0.004041970   0.06070   0.04154  -0.12930  -0.20555
   6   22083.2    452.8   0.735687674  10.96750  -1.23885   2.29985  -2.03555
   7   22539.7    443.7   0.002557901   0.03736  -0.02031  -0.19044   0.02606
   8   22942.4    435.9   0.050048419   0.71817   0.60509  -0.54819   0.22701
   9   23169.5    431.6   0.180405416   2.56335  -1.01167   0.01449   1.24083
  10   25049.0    399.2   0.233856345   3.07351  -0.90432   1.38687   0.57645
  11   25352.8    394.4   0.022681741   0.29453   0.11771  -0.48967   0.20223
  12   25788.1    387.8   0.492133889   6.28261   2.24018  -1.05054   0.40074
  13   26015.6    384.4   0.079721202   1.00882   0.32900  -0.76772  -0.55785
  14   26329.5    379.8   0.118091972   1.47657   1.11700  -0.46746  -0.10182
  15   26581.3    376.2   0.116226852   1.43948  -0.68466   0.97015  -0.17183
  16   26721.4    374.2   0.051716922   0.63716  -0.58811  -0.50495   0.19055
  17   26826.2    372.8   0.031232190   0.38328   0.47242  -0.34312  -0.20585
  18   27124.2    368.7   0.130574783   1.58481  -0.44987  -0.04099  -1.17505
  19   27851.0    359.1   0.107957812   1.27611  -0.47784   0.56598   0.85291
  20   28444.3    351.6   0.003486773   0.04036  -0.02703  -0.19542  -0.03790
  21   28763.2    347.7   0.002632539   0.03013   0.17255  -0.01514   0.01126
  22   28850.6    346.6   0.036147040   0.41247   0.03975  -0.56601  -0.30088
  23   29655.6    337.2   0.125080311   1.38854   0.34126  -0.58393   0.96494
  24   29771.7    335.9   0.306463670   3.38884  -0.51527   1.29372  -1.20400
  25   29987.7    333.5   0.033284207   0.36540  -0.13453   0.52412  -0.26946
  26   30638.1    326.4   0.502081508   5.39496  -0.01350   2.30500   0.28592
  27   30951.2    323.1   0.040361052   0.42930   0.09148   0.63844   0.11545
  28   31080.4    321.7   0.004249734   0.04501   0.14390  -0.15163   0.03628
  29   31564.5    316.8   0.095952018   1.00076  -0.91833  -0.12133  -0.37777
  30   31979.6    312.7   0.001418460   0.01460   0.01734  -0.00252  -0.11956
  31   32122.8    311.3   0.017449283   0.17883   0.08567   0.08984   0.40425
  32   32365.6    309.0   0.006901209   0.07020   0.09672   0.05558   0.24032
  33   32856.8    304.4   0.096441871   0.96631   0.49379  -0.82909  -0.18731
  34   33285.7    300.4   0.007924952   0.07838  -0.15282   0.20224   0.11885
  35   33388.0    299.5   0.031211267   0.30775   0.45450  -0.29831  -0.11041
  36   33635.4    297.3   0.008511035   0.08330   0.03171   0.27669   0.07576
  37   33937.2    294.7   0.102676378   0.99602   0.92700  -0.36368  -0.06664
  38   33962.1    294.4   0.099000853   0.95967   0.24992  -0.87846  -0.35427
  39   34386.9    290.8   0.108307021   1.03691  -0.82462  -0.39955  -0.44415
  40   34498.6    289.9   0.110020871   1.04990   0.93135   0.04411   0.42491
  41   35546.2    281.3   0.052233495   0.48376   0.42203   0.11097  -0.54161
  42   35620.1    280.7   0.030715451   0.28388  -0.34961  -0.04243   0.39982
  43   36037.4    277.5   0.142752981   1.30409  -0.80564   0.56286  -0.58157
  44   36193.7    276.3   0.005526559   0.05027  -0.11742   0.18977  -0.02163
  45   36729.0    272.3   0.114646657   1.02761   0.75538   0.12930  -0.66354
  46   36964.1    270.5   0.103017885   0.91751  -0.12196  -0.58967   0.74493
  47   37567.7    266.2   0.061989238   0.54322   0.14749  -0.28942  -0.66159
  48   37625.5    265.8   0.027204827   0.23803   0.13854  -0.46514   0.04989
  49   37833.3    264.3   0.081309656   0.70753  -0.02071  -0.51818   0.66226
  50   38453.7    260.1   0.081568701   0.69833  -0.09922  -0.80611   0.19667
  51   38764.1    258.0   0.513455764   4.36063  -1.13627   1.47425   0.94662
  52   38864.2    257.3   0.232573062   1.97009   0.39695  -0.96171  -0.94214
  53   39155.8    255.4   0.030982964   0.26050  -0.21398  -0.12437  -0.44636
  54   39311.7    254.4   0.140279329   1.17475  -0.59500  -0.45996  -0.78049
  55   39443.8    253.5   0.091287301   0.76192  -0.33315  -0.80522   0.05049
  56   39745.2    251.6   0.130678302   1.08242   0.37730   0.93199  -0.26729
  57   39779.6    251.4   0.107268715   0.88775   0.32328   0.85973  -0.21001
  58   40236.1    248.5   0.004375459   0.03580  -0.05522   0.16385  -0.07684

FINAL SINGLE POINT ENERGY     -2594.065514639834

DIPOLE MOMENT
-------------
                                X             Y             Z
Electronic contribution:     -7.88464       8.54468      37.13411
Nuclear contribution   :      7.50999      -6.24052     -40.81186
                        -----------------------------------------
Total Dipole Moment    :     -0.37466       2.30415      -3.67776
                        -----------------------------------------
Magnitude (a.u.)       :      4.35608
Magnitude (Debye)      :     11.07226

Rotational constants in cm-1:     0.001473     0.000466     0.000409
Rotational constants in MHz :    44.154324    13.980822    12.256762

                             ****ORCA TERMINATED NORMALLY****
TOTAL RUN TIME: 0 days 0 hours 9 minutes 4 seconds 396 msec
