                         Program Version 4.2.0 -  RELEASE  -
|  1> # ORCA input file
|  2> # SCF done       -165.573445701466          0.000539539118
|  3> ! CAM-B3LYP def2-SVP def2/J RIJCOSX Grid4 TightSCF
|  4> %maxcore 5000
|  5> %tddft
|  6>     Mode sTDDFT
|  7>     Ethresh 5.0
|  8>     maxcore 5000
|  9> end
| 10>
| 11> %pal
| 12>   nprocs 6
| 13>   end
| 14> * xyz 0 1
| 15>    O       -4.55890         4.43060         1.01681
| 16>    C       -3.60963         4.79696         0.10822
| 17>    N       -4.06923         5.63154        -0.77846
| 18>    C       -5.37469         5.83723        -0.45898
| 19>    C       -5.66265         5.08400         0.65968
| 20>    C       -6.24587         6.72329        -1.22736
| 21>    O       -7.40238         6.93057        -0.96946
| 22>    C       -2.26849         4.29258         0.16367
| 23>    N       -1.39097         4.70179        -0.72774
| 24>    C       -0.23710         4.06110        -0.42479
| 25>    C       -0.40304         3.18664         0.73812
| 26>    C        0.86126         2.50316         1.04783
| 27>    O        1.10255         1.70945         1.93309
| 28>    C        1.77508         3.02256         0.00990
| 29>    C        1.06058         3.97233        -0.86889
| 30>    N        1.89142         4.45623        -1.82536
| 31>    C        3.04537         3.88036        -1.60026
| 32>    C        3.04367         2.97160        -0.46636
| 33>    C       -1.71585         3.32294         1.13759
| 34>    C       -2.42841         2.71568         2.20711
| 35>    C       -1.85774         1.82483         3.05473
| 36>    C       -2.49470         1.16627         4.15854
| 37>    C       -1.74971         0.26422         4.89898
| 38>    C       -2.32695        -0.40406         5.98953
| 39>    C       -1.79638        -1.34526         6.87001
| 40>    C       -0.41223        -1.88923         6.85109
| 41>    C        0.31133        -1.69841         8.20070
| 42>    N        1.71604        -1.44866         7.95474
| 43>    C       -0.41207        -3.36873         6.41668
| 44>    N       -0.80983        -3.45554         5.02693
| 45>    C       -2.85426        -1.69980         7.78644
| 46>    C       -2.88894        -2.55170         8.82889
| 47>    C       -4.13732        -2.76540         9.62089
| 48>    C       -5.29341        -1.91633         9.21149
| 49>    C       -5.23809        -1.05466         8.17801
| 50>    C       -4.04913        -0.91939         7.42431
| 51>    C       -3.71655        -0.14119         6.33239
| 52>    C       -4.45674         0.78593         5.56354
| 53>    C       -3.86184         1.41300         4.51713
| 54>    C       -4.43162        -4.24006         9.54344
| 55>    C       -5.40494        -4.77958         8.79663
| 56>    C       -5.62270        -6.19273         8.76355
| 57>    N       -4.86456        -7.02732         9.46048
| 58>    C       -5.35158        -8.25866         9.21922
| 59>    C       -6.50507        -8.20862         8.30617
| 60>    C       -7.02693        -9.56556         8.06168
| 61>    O       -7.96484        -9.89983         7.37135
| 62>    C       -6.12550       -10.40704         8.86766
| 63>    C       -5.11891        -9.57103         9.55573
| 64>    N       -4.28720       -10.33811        10.29965
| 65>    C       -4.70622       -11.56897        10.12100
| 66>    C       -5.84902       -11.68384         9.23941
| 67>    C       -6.68722        -6.88319         8.00053
| 68>    C       -7.65253        -6.24841         7.16301
| 69>    C       -8.63504        -6.91256         6.52026
| 70>    C       -9.59371        -6.25498         5.68999
| 71>    N      -10.58569        -6.81795         5.06467
| 72>    C      -11.23199        -5.81252         4.40486
| 73>    C      -10.56979        -4.63532         4.67298
| 74>    O       -9.54184        -4.90454         5.47926
| 75>    C      -12.41358        -6.04210         3.58293
| 76>    O      -13.01062        -5.18265         2.98749
| 77>    H       -6.55728         4.95424         1.23439
| 78>    H       -5.73095         7.19019        -2.08323
| 79>    H        3.89242         4.09502        -2.22843
| 80>    H        3.88597         2.40588        -0.12006
| 81>    H       -3.46358         2.99864         2.31609
| 82>    H       -0.81759         1.56775         2.90179
| 83>    H       -0.72190         0.07332         4.62950
| 84>    H        0.16433        -1.33772         6.10429
| 85>    H        0.12828        -2.57380         8.84730
| 86>    H       -0.09395        -0.81662         8.70566
| 87>    H        2.15749        -2.25078         7.51944
| 88>    H        2.20891        -1.23943         8.81449
| 89>    H       -1.05890        -3.94896         7.09809
| 90>    H        0.60407        -3.76557         6.49209
| 91>    H       -1.76458        -3.13470         4.90732
| 92>    H       -0.74506        -4.40701         4.68580
| 93>    H       -2.03218        -3.13869         9.12456
| 94>    H       -3.90398        -2.54781        10.67523
| 95>    H       -6.19384        -2.03556         9.79479
| 96>    H       -6.09606        -0.45368         7.91395
| 97>    H       -5.48742         0.98614         5.81737
| 98>    H       -4.42844         2.12195         3.93445
| 99>    H       -3.79116        -4.90071        10.11040
|100>    H       -6.05781        -4.15207         8.20713
|101>    H       -4.20884       -12.38743        10.61196
|102>    H       -6.33811       -12.59812         8.96755
|103>    H       -7.58025        -5.17476         7.04834
|104>    H       -8.75167        -7.98389         6.60260
|105>    H      -10.73838        -3.62500         4.36059
|106>    H      -12.71758        -7.10254         3.55827
|107> *
|108>
|109>                          ****END OF INPUT****

CARTESIAN COORDINATES (ANGSTROEM)
---------------------------------
  O     -4.558900    4.430600    1.016810
  C     -3.609630    4.796960    0.108220
  N     -4.069230    5.631540   -0.778460
  C     -5.374690    5.837230   -0.458980
  C     -5.662650    5.084000    0.659680
  C     -6.245870    6.723290   -1.227360
  O     -7.402380    6.930570   -0.969460
  C     -2.268490    4.292580    0.163670
  N     -1.390970    4.701790   -0.727740
  C     -0.237100    4.061100   -0.424790
  C     -0.403040    3.186640    0.738120
  C      0.861260    2.503160    1.047830
  O      1.102550    1.709450    1.933090
  C      1.775080    3.022560    0.009900
  C      1.060580    3.972330   -0.868890
  N      1.891420    4.456230   -1.825360
  C      3.045370    3.880360   -1.600260
  C      3.043670    2.971600   -0.466360
  C     -1.715850    3.322940    1.137590
  C     -2.428410    2.715680    2.207110
  C     -1.857740    1.824830    3.054730
  C     -2.494700    1.166270    4.158540
  C     -1.749710    0.264220    4.898980
  C     -2.326950   -0.404060    5.989530
  C     -1.796380   -1.345260    6.870010
  C     -0.412230   -1.889230    6.851090
  C      0.311330   -1.698410    8.200700
  N      1.716040   -1.448660    7.954740
  C     -0.412070   -3.368730    6.416680
  N     -0.809830   -3.455540    5.026930
  C     -2.854260   -1.699800    7.786440
  C     -2.888940   -2.551700    8.828890
  C     -4.137320   -2.765400    9.620890
  C     -5.293410   -1.916330    9.211490
  C     -5.238090   -1.054660    8.178010
  C     -4.049130   -0.919390    7.424310
  C     -3.716550   -0.141190    6.332390
  C     -4.456740    0.785930    5.563540
  C     -3.861840    1.413000    4.517130
  C     -4.431620   -4.240060    9.543440
  C     -5.404940   -4.779580    8.796630
  C     -5.622700   -6.192730    8.763550
  N     -4.864560   -7.027320    9.460480
  C     -5.351580   -8.258660    9.219220
  C     -6.505070   -8.208620    8.306170
  C     -7.026930   -9.565560    8.061680
  O     -7.964840   -9.899830    7.371350
  C     -6.125500  -10.407040    8.867660
  C     -5.118910   -9.571030    9.555730
  N     -4.287200  -10.338110   10.299650
  C     -4.706220  -11.568970   10.121000
  C     -5.849020  -11.683840    9.239410
  C     -6.687220   -6.883190    8.000530
  C     -7.652530   -6.248410    7.163010
  C     -8.635040   -6.912560    6.520260
  C     -9.593710   -6.254980    5.689990
  N    -10.585690   -6.817950    5.064670
  C    -11.231990   -5.812520    4.404860
  C    -10.569790   -4.635320    4.672980
  O     -9.541840   -4.904540    5.479260
  C    -12.413580   -6.042100    3.582930
  O    -13.010620   -5.182650    2.987490
  H     -6.557280    4.954240    1.234390
  H     -5.730950    7.190190   -2.083230
  H      3.892420    4.095020   -2.228430
  H      3.885970    2.405880   -0.120060
  H     -3.463580    2.998640    2.316090
  H     -0.817590    1.567750    2.901790
  H     -0.721900    0.073320    4.629500
  H      0.164330   -1.337720    6.104290
  H      0.128280   -2.573800    8.847300
  H     -0.093950   -0.816620    8.705660
  H      2.157490   -2.250780    7.519440
  H      2.208910   -1.239430    8.814490
  H     -1.058900   -3.948960    7.098090
  H      0.604070   -3.765570    6.492090
  H     -1.764580   -3.134700    4.907320
  H     -0.745060   -4.407010    4.685800
  H     -2.032180   -3.138690    9.124560
  H     -3.903980   -2.547810   10.675230
  H     -6.193840   -2.035560    9.794790
  H     -6.096060   -0.453680    7.913950
  H     -5.487420    0.986140    5.817370
  H     -4.428440    2.121950    3.934450
  H     -3.791160   -4.900710   10.110400
  H     -6.057810   -4.152070    8.207130
  H     -4.208840  -12.387430   10.611960
  H     -6.338110  -12.598120    8.967550
  H     -7.580250   -5.174760    7.048340
  H     -8.751670   -7.983890    6.602600
  H    -10.738380   -3.625000    4.360590
  H    -12.717580   -7.102540    3.558270

 Total Charge           Charge          ....    0
 Multiplicity           Mult            ....    1
 Number of Electrons    NEL             ....  422
 Basis Dimension        Dim             .... 1018

ORBITAL ENERGIES
----------------

  NO   OCC          E(Eh)            E(eV)
   0   2.0000     -19.338178      -526.2186
   1   2.0000     -19.320618      -525.7407
   2   2.0000     -19.221698      -523.0490
   3   2.0000     -19.217406      -522.9322
   4   2.0000     -19.213095      -522.8149
   5   2.0000     -19.209140      -522.7073
   6   2.0000     -14.434216      -392.7750
   7   2.0000     -14.420232      -392.3945
   8   2.0000     -14.415130      -392.2556
   9   2.0000     -14.413902      -392.2222
  10   2.0000     -14.409574      -392.1044
  11   2.0000     -14.404817      -391.9750
  12   2.0000     -14.379649      -391.2901
  13   2.0000     -14.376885      -391.2149
  14   2.0000     -10.385476      -282.6032
  15   2.0000     -10.377254      -282.3794
  16   2.0000     -10.372607      -282.2530
  17   2.0000     -10.368958      -282.1537
  18   2.0000     -10.368127      -282.1311
  19   2.0000     -10.365607      -282.0625
  20   2.0000     -10.357736      -281.8483
  21   2.0000     -10.354606      -281.7632
  22   2.0000     -10.351722      -281.6847
  23   2.0000     -10.349732      -281.6305
  24   2.0000     -10.338088      -281.3137
  25   2.0000     -10.330842      -281.1165
  26   2.0000     -10.328746      -281.0595
  27   2.0000     -10.327678      -281.0304
  28   2.0000     -10.325030      -280.9583
  29   2.0000     -10.323688      -280.9218
  30   2.0000     -10.319860      -280.8177
  31   2.0000     -10.316609      -280.7292
  32   2.0000     -10.315389      -280.6960
  33   2.0000     -10.311830      -280.5992
  34   2.0000     -10.311363      -280.5865
  35   2.0000     -10.307963      -280.4939
  36   2.0000     -10.306740      -280.4606
  37   2.0000     -10.301355      -280.3141
  38   2.0000     -10.297503      -280.2093
  39   2.0000     -10.297256      -280.2026
  40   2.0000     -10.296272      -280.1758
  41   2.0000     -10.293577      -280.1025
  42   2.0000     -10.292668      -280.0777
  43   2.0000     -10.290336      -280.0143
  44   2.0000     -10.287120      -279.9268
  45   2.0000     -10.287109      -279.9265
  46   2.0000     -10.286734      -279.9163
  47   2.0000     -10.285228      -279.8753
  48   2.0000     -10.283881      -279.8386
  49   2.0000     -10.281919      -279.7852
  50   2.0000     -10.280019      -279.7335
  51   2.0000     -10.279511      -279.7197
  52   2.0000     -10.277219      -279.6574
  53   2.0000     -10.275374      -279.6071
  54   2.0000     -10.274871      -279.5934
  55   2.0000     -10.274802      -279.5916
  56   2.0000     -10.273709      -279.5618
  57   2.0000     -10.271125      -279.4915
  58   2.0000     -10.270851      -279.4841
  59   2.0000     -10.270356      -279.4706
  60   2.0000     -10.270058      -279.4625
  61   2.0000     -10.264154      -279.3018
  62   2.0000      -1.265081       -34.4246
  63   2.0000      -1.247606       -33.9491
  64   2.0000      -1.135164       -30.8894
  65   2.0000      -1.132100       -30.8060
  66   2.0000      -1.126444       -30.6521
  67   2.0000      -1.123324       -30.5672
  68   2.0000      -1.083436       -29.4818
  69   2.0000      -1.080961       -29.4144
  70   2.0000      -1.063654       -28.9435
  71   2.0000      -1.060755       -28.8646
  72   2.0000      -1.040466       -28.3125
  73   2.0000      -1.028241       -27.9798
  74   2.0000      -0.992714       -27.0131
  75   2.0000      -0.969360       -26.3776
  76   2.0000      -0.958712       -26.0879
  77   2.0000      -0.953184       -25.9375
  78   2.0000      -0.942696       -25.6521
  79   2.0000      -0.937347       -25.5065
  80   2.0000      -0.934351       -25.4250
  81   2.0000      -0.927229       -25.2312
  82   2.0000      -0.910128       -24.7658
  83   2.0000      -0.897249       -24.4154
  84   2.0000      -0.891918       -24.2703
  85   2.0000      -0.886426       -24.1209
  86   2.0000      -0.875159       -23.8143
  87   2.0000      -0.860650       -23.4195
  88   2.0000      -0.857497       -23.3337
  89   2.0000      -0.848619       -23.0921
  90   2.0000      -0.839140       -22.8342
  91   2.0000      -0.834538       -22.7089
  92   2.0000      -0.832375       -22.6501
  93   2.0000      -0.808487       -22.0001
  94   2.0000      -0.796036       -21.6612
  95   2.0000      -0.779227       -21.2039
  96   2.0000      -0.778212       -21.1762
  97   2.0000      -0.769869       -20.9492
  98   2.0000      -0.765915       -20.8416
  99   2.0000      -0.762570       -20.7506
 100   2.0000      -0.753921       -20.5152
 101   2.0000      -0.737086       -20.0571
 102   2.0000      -0.730036       -19.8653
 103   2.0000      -0.725460       -19.7408
 104   2.0000      -0.724732       -19.7210
 105   2.0000      -0.715306       -19.4645
 106   2.0000      -0.708190       -19.2708
 107   2.0000      -0.700593       -19.0641
 108   2.0000      -0.698408       -19.0047
 109   2.0000      -0.693385       -18.8680
 110   2.0000      -0.673260       -18.3203
 111   2.0000      -0.665766       -18.1164
 112   2.0000      -0.662622       -18.0309
 113   2.0000      -0.657480       -17.8909
 114   2.0000      -0.647181       -17.6107
 115   2.0000      -0.641705       -17.4617
 116   2.0000      -0.635740       -17.2994
 117   2.0000      -0.632125       -17.2010
 118   2.0000      -0.626932       -17.0597
 119   2.0000      -0.621912       -16.9231
 120   2.0000      -0.620170       -16.8757
 121   2.0000      -0.618328       -16.8256
 122   2.0000      -0.604966       -16.4620
 123   2.0000      -0.603439       -16.4204
 124   2.0000      -0.601070       -16.3559
 125   2.0000      -0.600505       -16.3406
 126   2.0000      -0.588535       -16.0149
 127   2.0000      -0.587469       -15.9859
 128   2.0000      -0.584692       -15.9103
 129   2.0000      -0.582794       -15.8586
 130   2.0000      -0.578036       -15.7292
 131   2.0000      -0.574555       -15.6344
 132   2.0000      -0.571353       -15.5473
 133   2.0000      -0.568884       -15.4801
 134   2.0000      -0.567506       -15.4426
 135   2.0000      -0.562282       -15.3005
 136   2.0000      -0.556226       -15.1357
 137   2.0000      -0.553350       -15.0574
 138   2.0000      -0.550847       -14.9893
 139   2.0000      -0.546649       -14.8751
 140   2.0000      -0.542767       -14.7694
 141   2.0000      -0.539757       -14.6875
 142   2.0000      -0.535219       -14.5641
 143   2.0000      -0.534997       -14.5580
 144   2.0000      -0.531097       -14.4519
 145   2.0000      -0.523736       -14.2516
 146   2.0000      -0.523014       -14.2319
 147   2.0000      -0.519991       -14.1497
 148   2.0000      -0.518176       -14.1003
 149   2.0000      -0.516037       -14.0421
 150   2.0000      -0.514235       -13.9930
 151   2.0000      -0.512898       -13.9567
 152   2.0000      -0.509302       -13.8588
 153   2.0000      -0.506080       -13.7711
 154   2.0000      -0.504119       -13.7178
 155   2.0000      -0.501986       -13.6597
 156   2.0000      -0.500022       -13.6063
 157   2.0000      -0.496539       -13.5115
 158   2.0000      -0.494544       -13.4572
 159   2.0000      -0.492232       -13.3943
 160   2.0000      -0.492020       -13.3886
 161   2.0000      -0.487395       -13.2627
 162   2.0000      -0.485379       -13.2078
 163   2.0000      -0.481676       -13.1071
 164   2.0000      -0.480873       -13.0852
 165   2.0000      -0.479281       -13.0419
 166   2.0000      -0.478601       -13.0234
 167   2.0000      -0.471627       -12.8336
 168   2.0000      -0.470555       -12.8044
 169   2.0000      -0.469724       -12.7818
 170   2.0000      -0.465779       -12.6745
 171   2.0000      -0.462615       -12.5884
 172   2.0000      -0.460458       -12.5297
 173   2.0000      -0.455518       -12.3953
 174   2.0000      -0.444259       -12.0889
 175   2.0000      -0.439438       -11.9577
 176   2.0000      -0.433976       -11.8091
 177   2.0000      -0.433193       -11.7878
 178   2.0000      -0.431089       -11.7305
 179   2.0000      -0.424644       -11.5551
 180   2.0000      -0.418300       -11.3825
 181   2.0000      -0.412989       -11.2380
 182   2.0000      -0.404411       -11.0046
 183   2.0000      -0.400450       -10.8968
 184   2.0000      -0.396727       -10.7955
 185   2.0000      -0.391356       -10.6493
 186   2.0000      -0.389810       -10.6073
 187   2.0000      -0.389251       -10.5921
 188   2.0000      -0.381028       -10.3683
 189   2.0000      -0.374321       -10.1858
 190   2.0000      -0.367621       -10.0035
 191   2.0000      -0.365806        -9.9541
 192   2.0000      -0.359302        -9.7771
 193   2.0000      -0.358205        -9.7473
 194   2.0000      -0.352325        -9.5873
 195   2.0000      -0.351195        -9.5565
 196   2.0000      -0.342589        -9.3223
 197   2.0000      -0.341790        -9.3006
 198   2.0000      -0.337655        -9.1880
 199   2.0000      -0.335398        -9.1266
 200   2.0000      -0.334577        -9.1043
 201   2.0000      -0.334097        -9.0912
 202   2.0000      -0.329220        -8.9585
 203   2.0000      -0.327259        -8.9052
 204   2.0000      -0.311859        -8.4861
 205   2.0000      -0.310072        -8.4375
 206   2.0000      -0.305681        -8.3180
 207   2.0000      -0.298467        -8.1217
 208   2.0000      -0.285472        -7.7681
 209   2.0000      -0.274301        -7.4641
 210   2.0000      -0.227980        -6.2037
 211   0.0000      -0.119757        -3.2588
 212   0.0000      -0.115636        -3.1466
 213   0.0000      -0.079196        -2.1550
 214   0.0000      -0.060045        -1.6339
 215   0.0000      -0.044872        -1.2210

MULLIKEN ATOMIC CHARGES
-----------------------
   0 O :   -0.165630
   1 C :    0.025337
   2 N :   -0.004395
   3 C :   -0.058903
   4 C :    0.155826
   5 C :    0.175031
   6 O :   -0.171031
   7 C :    0.013778
   8 N :   -0.009689
   9 C :    0.089893
  10 C :   -0.185838
  11 C :    0.221744
  12 O :   -0.142589
  13 C :   -0.005971
  14 C :   -0.034456
  15 N :   -0.052810
  16 C :    0.091168
  17 C :   -0.097025
  18 C :    0.066014
  19 C :   -0.036563
  20 C :    0.008539
  21 C :    0.108912
  22 C :   -0.088848
  23 C :    0.060647
  24 C :   -0.074507
  25 C :   -0.026882
  26 C :    0.131699
  27 N :   -0.210917
  28 C :    0.156058
  29 N :   -0.225255
  30 C :    0.098754
  31 C :   -0.121681
  32 C :    0.175037
  33 C :   -0.060496
  34 C :    0.019307
  35 C :    0.001385
  36 C :    0.042597
  37 C :   -0.003771
  38 C :   -0.003883
  39 C :   -0.047666
  40 C :   -0.016210
  41 C :    0.048667
  42 N :   -0.042176
  43 C :    0.062717
  44 C :   -0.155352
  45 C :    0.218647
  46 O :   -0.135301
  47 C :   -0.015218
  48 C :   -0.030625
  49 N :   -0.053549
  50 C :    0.091059
  51 C :   -0.094364
  52 C :    0.052799
  53 C :   -0.036940
  54 C :    0.022124
  55 C :    0.074006
  56 N :   -0.048455
  57 C :   -0.066256
  58 C :    0.140917
  59 O :   -0.179393
  60 C :    0.173715
  61 O :   -0.177936
  62 H :    0.040787
  63 H :    0.001523
  64 H :    0.011055
  65 H :   -0.004149
  66 H :   -0.024560
  67 H :   -0.000283
  68 H :   -0.006084
  69 H :   -0.004017
  70 H :   -0.021985
  71 H :    0.002799
  72 H :    0.089322
  73 H :    0.091431
  74 H :   -0.025870
  75 H :   -0.016802
  76 H :    0.098472
  77 H :    0.092684
  78 H :   -0.001083
  79 H :    0.044215
  80 H :   -0.006395
  81 H :   -0.034339
  82 H :   -0.040771
  83 H :   -0.033584
  84 H :    0.035030
  85 H :    0.004766
  86 H :    0.010202
  87 H :   -0.003760
  88 H :   -0.007836
  89 H :    0.035146
  90 H :    0.034931
  91 H :   -0.006642
Sum of atomic charges:   -0.0000000

LOEWDIN ATOMIC CHARGES
----------------------
   0 O :    0.040795
   1 C :    0.030106
   2 N :   -0.039733
   3 C :   -0.104350
   4 C :    0.086555
   5 C :    0.108259
   6 O :   -0.125272
   7 C :    0.040852
   8 N :   -0.064356
   9 C :    0.046019
  10 C :   -0.067623
  11 C :    0.070747
  12 O :   -0.140907
  13 C :   -0.037308
  14 C :    0.029605
  15 N :   -0.093672
  16 C :    0.076604
  17 C :   -0.031415
  18 C :   -0.013664
  19 C :   -0.063083
  20 C :    0.034796
  21 C :   -0.034620
  22 C :    0.016663
  23 C :   -0.024090
  24 C :   -0.022991
  25 C :   -0.039488
  26 C :    0.026401
  27 N :   -0.112788
  28 C :    0.027469
  29 N :   -0.116112
  30 C :   -0.015484
  31 C :    0.065801
  32 C :   -0.031525
  33 C :   -0.042711
  34 C :   -0.012666
  35 C :   -0.043746
  36 C :   -0.024906
  37 C :   -0.013712
  38 C :   -0.018239
  39 C :    0.077802
  40 C :   -0.058289
  41 C :    0.077131
  42 N :   -0.108282
  43 C :    0.046716
  44 C :   -0.038520
  45 C :    0.068093
  46 O :   -0.135283
  47 C :   -0.039473
  48 C :    0.021513
  49 N :   -0.097249
  50 C :    0.075112
  51 C :   -0.034908
  52 C :   -0.030443
  53 C :   -0.020713
  54 C :   -0.001290
  55 C :    0.040005
  56 N :   -0.080376
  57 C :   -0.109750
  58 C :    0.077421
  59 O :    0.021719
  60 C :    0.105071
  61 O :   -0.132866
  62 H :    0.039257
  63 H :    0.007563
  64 H :    0.024130
  65 H :    0.034729
  66 H :    0.018034
  67 H :    0.033514
  68 H :    0.037266
  69 H :    0.034502
  70 H :   -0.005933
  71 H :    0.020388
  72 H :    0.050359
  73 H :    0.054865
  74 H :   -0.005481
  75 H :    0.012176
  76 H :    0.052804
  77 H :    0.055129
  78 H :    0.027605
  79 H :    0.064146
  80 H :    0.025433
  81 H :    0.030840
  82 H :    0.025936
  83 H :    0.024793
  84 H :    0.038560
  85 H :    0.032484
  86 H :    0.024027
  87 H :    0.035099
  88 H :    0.029965
  89 H :    0.048894
  90 H :    0.035696
  91 H :    0.003867

  Mayer bond orders larger than 0.100000
B(  0-O ,  1-C ) :   1.1734 B(  0-O ,  4-C ) :   1.1805 B(  1-C ,  2-N ) :   1.7686
B(  1-C ,  7-C ) :   0.9972 B(  2-N ,  3-C ) :   1.3291 B(  3-C ,  4-C ) :   1.4725
B(  3-C ,  5-C ) :   0.9585 B(  4-C , 62-H ) :   0.9898 B(  5-C ,  6-O ) :   2.2093
B(  5-C , 63-H ) :   0.9534 B(  7-C ,  8-N ) :   1.6922 B(  7-C ,  9-C ) :   0.1335
B(  7-C , 18-C ) :   1.0270 B(  8-N ,  9-C ) :   1.2995 B(  9-C , 10-C ) :   1.0641
B(  9-C , 14-C ) :   1.4333 B( 10-C , 11-C ) :   0.9035 B( 10-C , 18-C ) :   1.5265
B( 11-C , 12-O ) :   2.1766 B( 11-C , 13-C ) :   0.9280 B( 12-O , 67-H ) :   0.1082
B( 13-C , 14-C ) :   1.0639 B( 13-C , 17-C ) :   1.6230 B( 14-C , 15-N ) :   1.2999
B( 15-N , 16-C ) :   1.6729 B( 16-C , 17-C ) :   1.0511 B( 16-C , 64-H ) :   0.9888
B( 17-C , 65-H ) :   1.0105 B( 18-C , 19-C ) :   1.1416 B( 19-C , 20-C ) :   1.6048
B( 19-C , 66-H ) :   0.9498 B( 20-C , 21-C ) :   1.0900 B( 20-C , 67-H ) :   0.9720
B( 21-C , 22-C ) :   1.4814 B( 21-C , 38-C ) :   1.1101 B( 22-C , 23-C ) :   1.1265
B( 22-C , 68-H ) :   1.0091 B( 23-C , 24-C ) :   1.4842 B( 23-C , 36-C ) :   1.1054
B( 24-C , 25-C ) :   1.0531 B( 24-C , 30-C ) :   1.0769 B( 25-C , 26-C ) :   1.0233
B( 25-C , 28-C ) :   1.0312 B( 25-C , 69-H ) :   0.8743 B( 26-C , 27-N ) :   1.1077
B( 26-C , 70-H ) :   0.9235 B( 26-C , 71-H ) :   0.9468 B( 27-N , 72-H ) :   0.9701
B( 27-N , 73-H ) :   0.9675 B( 28-C , 29-N ) :   1.0953 B( 28-C , 74-H ) :   0.9305
B( 28-C , 75-H ) :   0.9334 B( 29-N , 76-H ) :   0.9699 B( 29-N , 77-H ) :   0.9666
B( 30-C , 31-C ) :   1.6884 B( 30-C , 35-C ) :   1.0446 B( 31-C , 32-C ) :   0.9581
B( 31-C , 78-H ) :   0.9565 B( 32-C , 33-C ) :   1.0027 B( 32-C , 39-C ) :   0.9350
B( 32-C , 79-H ) :   0.8547 B( 33-C , 34-C ) :   1.7093 B( 33-C , 80-H ) :   0.9708
B( 34-C , 35-C ) :   1.1309 B( 34-C , 81-H ) :   0.9923 B( 35-C , 36-C ) :   1.4497
B( 36-C , 37-C ) :   1.1346 B( 37-C , 38-C ) :   1.6292 B( 37-C , 82-H ) :   0.9883
B( 38-C , 83-H ) :   0.9833 B( 39-C , 40-C ) :   1.8015 B( 39-C , 84-H ) :   0.9678
B( 40-C , 41-C ) :   1.1029 B( 40-C , 85-H ) :   0.9457 B( 41-C , 42-N ) :   1.6056
B( 41-C , 43-C ) :   0.1096 B( 41-C , 52-C ) :   1.0044 B( 42-N , 43-C ) :   1.3552
B( 43-C , 44-C ) :   1.0548 B( 43-C , 48-C ) :   1.4142 B( 44-C , 45-C ) :   0.8935
B( 44-C , 52-C ) :   1.5653 B( 45-C , 46-O ) :   2.1991 B( 45-C , 47-C ) :   0.9262
B( 47-C , 48-C ) :   1.0686 B( 47-C , 51-C ) :   1.5999 B( 48-C , 49-N ) :   1.3167
B( 49-N , 50-C ) :   1.6501 B( 50-C , 51-C ) :   1.0745 B( 50-C , 86-H ) :   0.9894
B( 51-C , 87-H ) :   1.0114 B( 52-C , 53-C ) :   1.1028 B( 53-C , 54-C ) :   1.6715
B( 53-C , 88-H ) :   0.9675 B( 54-C , 55-C ) :   1.0909 B( 54-C , 89-H ) :   0.9449
B( 55-C , 56-N ) :   1.7248 B( 55-C , 59-O ) :   1.1390 B( 56-N , 57-C ) :   1.3162
B( 57-C , 58-C ) :   1.5017 B( 57-C , 60-C ) :   0.9703 B( 58-C , 59-O ) :   1.1788
B( 58-C , 90-H ) :   0.9911 B( 60-C , 61-O ) :   2.2027 B( 60-C , 91-H ) :   0.9520

-----------------------------------------------------------------------------
         ABSORPTION SPECTRUM VIA TRANSITION ELECTRIC DIPOLE MOMENTS
-----------------------------------------------------------------------------
State   Energy  Wavelength   fosc         T2         TX        TY        TZ
        (cm-1)    (nm)                  (au**2)     (au)      (au)      (au)
-----------------------------------------------------------------------------
   0   10167.1    983.6   0.082666284   2.67674   0.35410   1.33368  -0.87900
   1   11232.8    890.3   0.061357551   1.79827  -0.65190  -0.36519   1.11353
   2   14534.2    688.0   0.069274944   1.56913   1.19141   0.16155  -0.35154
   3   18052.5    553.9   0.004523595   0.08249  -0.22908  -0.05294   0.16497
   4   18477.8    541.2   0.090877735   1.61914  -0.72285   0.82357  -0.64680
   5   21115.2    473.6   0.000419804   0.00655  -0.03486  -0.06028  -0.04118
   6   21949.0    455.6   0.003671389   0.05507   0.08487   0.14582  -0.16310
   7   22901.8    436.6   0.255047385   3.66629   0.35580   1.46527  -1.18011
   8   23600.4    423.7   0.395489476   5.51686   0.41224   1.59854  -1.67081
   9   24517.8    407.9   0.169891496   2.28121   0.45967   1.31954  -0.57336
  10   24797.1    403.3   0.177938075   2.36235   0.15708   1.39641  -0.62266
  11   25041.1    399.3   0.169689162   2.23088  -1.19944  -0.24812   0.85478
  12   25142.0    397.7   0.000025646   0.00034  -0.00538   0.01076   0.01382
  13   25286.7    395.5   0.062760174   0.81709  -0.11196   0.67309  -0.59287
  14   25599.3    390.6   0.446367919   5.74039  -0.55598  -1.81296   1.46439
  15   25884.6    386.3   0.001232687   0.01568   0.00121   0.12330   0.02175
  16   26224.6    381.3   0.272147346   3.41641   1.70251   0.67430  -0.25139
  17   26478.9    377.7   0.640997150   7.96952  -2.33304   1.33879   0.85678
  18   26978.4    370.7   0.003268770   0.03989  -0.15483  -0.11259  -0.05693
  19   27301.2    366.3   0.094791000   1.14304  -0.85440  -0.05526   0.64030
  20   27673.6    361.4   0.002433557   0.02895  -0.06592   0.10022   0.12067
  21   27898.2    358.4   0.005050130   0.05959  -0.18525  -0.08225  -0.13606
  22   29378.2    340.4   0.037334155   0.41837   0.40515  -0.31920   0.39030
  23   29554.6    338.4   0.022060987   0.24574   0.36135  -0.11149   0.32053
  24   29778.8    335.8   0.506477271   5.59923  -1.68764   0.87859  -1.40684
  25   29993.9    333.4   0.002966807   0.03256  -0.16803   0.05274  -0.03935
  26   30640.9    326.4   0.000220828   0.00237  -0.00779  -0.03984   0.02692
  27   30744.4    325.3   0.034205691   0.36628   0.20436   0.27699  -0.49778
  28   31053.2    322.0   0.001629380   0.01727   0.10998   0.06029  -0.03928
  29   31315.0    319.3   0.190368216   2.00132   0.28880  -0.98078   0.97775
  30   31702.9    315.4   0.084774096   0.88032  -0.82837  -0.16186   0.40979
  31   32191.9    310.6   0.004021561   0.04113   0.11256  -0.01080   0.16835
  32   32632.1    306.4   0.020347560   0.20528   0.38360   0.22784   0.07887
  33   32769.1    305.2   0.018197059   0.18282   0.22310  -0.35979   0.05993
  34   33268.5    300.6   0.231478593   2.29062   0.57623  -1.12518   0.83219
  35   33339.7    299.9   0.017510248   0.17290  -0.40272   0.06040   0.08411
  36   33497.5    298.5   0.000193076   0.00190   0.01908   0.02173   0.03258
  37   33578.1    297.8   0.344967125   3.38218  -0.87505  -0.95893   1.30265
  38   33689.5    296.8   0.028073279   0.27433  -0.23381  -0.03823   0.46712
  39   34373.2    290.9   0.000002727   0.00003  -0.00101  -0.00324  -0.00382
  40   34570.1    289.3   0.053976954   0.51402   0.68526   0.02957  -0.20874
  41   34868.5    286.8   0.000030668   0.00029   0.01089  -0.00174  -0.01296
  42   34968.7    286.0   0.000046805   0.00044  -0.01106   0.00761   0.01614
  43   35175.3    284.3   0.043787665   0.40982  -0.11573  -0.61660   0.12740
  44   35253.9    283.7   0.052463168   0.48992   0.14251  -0.67456   0.12076
  45   36042.2    277.5   0.035953563   0.32840  -0.14348  -0.50676   0.22586
  46   36491.1    274.0   0.029215519   0.26357  -0.32289   0.29790  -0.26565
  47   36754.7    272.1   0.146478210   1.31201   0.38686  -1.07049   0.12807
  48   36811.0    271.7   0.215359082   1.92602   1.35626  -0.28203   0.08383
  49   37237.6    268.5   0.384091263   3.39569   0.15748  -1.81482   0.27803
  50   37716.4    265.1   0.011574328   0.10103  -0.26225   0.16181   0.07792
  51   37732.8    265.0   0.061614605   0.53758   0.61400  -0.35639  -0.18321
  52   38130.3    262.3   0.022130909   0.19108   0.06037   0.29996  -0.31218
  53   38296.5    261.1   0.089463258   0.76906   0.69199   0.12535  -0.52393
  54   38634.2    258.8   0.036338336   0.30965   0.26581  -0.29395   0.39063
  55   39417.6    253.7   0.271211354   2.26513   1.15519   0.86285   0.43144
  56   39831.0    251.1   0.088560123   0.73197   0.08043  -0.20026   0.82789
  57   40037.6    249.8   0.008395129   0.06903   0.21967   0.09239  -0.11063
  58   40073.2    249.5   0.018461674   0.15167   0.31185   0.13612   0.18944
  59   40171.9    248.9   0.005820571   0.04770  -0.13254  -0.13284  -0.11175

FINAL SINGLE POINT ENERGY     -2732.847504671327

DIPOLE MOMENT
-------------
                                X             Y             Z
Electronic contribution:    -23.48381       9.81725     -28.16003
Nuclear contribution   :     24.70518     -10.94322      30.95351
                        -----------------------------------------
Total Dipole Moment    :      1.22137      -1.12597       2.79348
                        -----------------------------------------
Magnitude (a.u.)       :      3.25010
Magnitude (Debye)      :      8.26109

Rotational constants in cm-1:     0.001520     0.000463     0.000389
Rotational constants in MHz :    45.578253    13.885479    11.675644

                             ****ORCA TERMINATED NORMALLY****
TOTAL RUN TIME: 0 days 0 hours 7 minutes 24 seconds 145 msec
