                         Program Version 4.2.0 -  RELEASE  -
|  1> # ORCA input file
|  2> # SCF done       -161.313738924813          0.000723432843
|  3> ! CAM-B3LYP def2-SVP def2/J RIJCOSX Grid4 TightSCF
|  4> %maxcore 5000
|  5> %tddft
|  6>     Mode sTDDFT
|  7>     Ethresh 5.0
|  8>     maxcore 5000
|  9> end
| 10>
| 11> %pal
| 12>   nprocs 6
| 13>   end
| 14> * xyz 0 1
| 15>    O       -2.47970         1.50088        -3.28760
| 16>    C       -1.85784         1.62743        -2.08517
| 17>    N       -1.68884         0.49096        -1.47485
| 18>    C       -2.22421        -0.45174        -2.30920
| 19>    C       -2.70831         0.19083        -3.42474
| 20>    C       -2.22991        -1.87357        -1.98286
| 21>    O       -2.68723        -2.73398        -2.68862
| 22>    C       -1.45319         2.90914        -1.61380
| 23>    C       -0.80676         3.18016        -0.42504
| 24>    C       -0.54074         4.54322        -0.29158
| 25>    C       -0.99579         5.29863        -1.39016
| 26>    S       -1.74897         4.33515        -2.58092
| 27>    C       -0.66343         6.65922        -1.18074
| 28>    C        0.00754         6.76404         0.05496
| 29>    C        0.08715         5.44332         0.66220
| 30>    C        0.61683         5.12975         1.87822
| 31>    C        1.15544         6.11636         2.73356
| 32>    N        1.57610         6.91784         3.43651
| 33>    C        0.63960         3.80843         2.37434
| 34>    N        0.66296         2.73791         2.78318
| 35>    C        0.41691         8.05955         0.33874
| 36>    C        0.05757         8.95190        -0.66448
| 37>    S       -0.82290         8.16444        -1.96879
| 38>    C        0.32997        10.34401        -0.74931
| 39>    C        1.18961        11.04484         0.13343
| 40>    C        1.43790        12.45632        -0.03210
| 41>    N        2.24992        13.09356         0.81898
| 42>    C        2.83841        12.43690         1.78729
| 43>    C        2.62342        11.02705         1.92713
| 44>    N        1.81715        10.38610         1.11857
| 45>    C        3.30901        10.31176         2.94291
| 46>    N        3.89744         9.77874         3.76762
| 47>    C        3.68809        13.13582         2.67972
| 48>    N        4.38283        13.67911         3.41049
| 49>    C        0.86824        13.23220        -1.06933
| 50>    C        0.00751        12.53292        -1.94411
| 51>    C       -0.24091        11.12241        -1.78130
| 52>    N       -1.06723        10.65773        -2.71965
| 53>    S       -1.49049        11.85844        -3.69854
| 54>    N       -0.65227        13.02537        -2.99368
| 55>    C        1.18152        14.60699        -1.21245
| 56>    C        0.67966        15.47765        -2.17409
| 57>    C        1.22412        16.74790        -2.05635
| 58>    C        2.15163        16.84843        -0.99822
| 59>    S        2.33680        15.38107        -0.13992
| 60>    C        2.66083        18.16957        -0.98362
| 61>    C        2.05907        18.90449        -2.02506
| 62>    C        1.13061        18.03522        -2.72902
| 63>    C        0.33830        18.35040        -3.79285
| 64>    C        0.32303        19.63854        -4.36992
| 65>    N        0.30178        20.68040        -4.84730
| 66>    C       -0.52435        17.40623        -4.39042
| 67>    N       -1.22747        16.64531        -4.88151
| 68>    C        2.52125        20.21861        -2.09618
| 69>    C        3.46362        20.47157        -1.11950
| 70>    S        3.78876        19.09225        -0.09623
| 71>    C        4.15586        21.69850        -0.90861
| 72>    N        4.01332        22.79473        -1.59496
| 73>    C        4.88432        23.68862        -1.03488
| 74>    C        5.53348        23.05975         0.00219
| 75>    O        5.07711        21.80643         0.08500
| 76>    C        5.02839        25.05424        -1.52702
| 77>    O        5.78363        25.86997        -1.06696
| 78>    H       -3.19666        -0.16264        -4.30925
| 79>    H       -1.76375        -2.08955        -1.00641
| 80>    H       -0.55405         2.40862         0.27820
| 81>    H        0.95456         8.36773         1.21564
| 82>    H       -0.03923        15.16233        -2.90771
| 83>    H        2.21439        20.96642        -2.80355
| 84>    H        6.28214        23.38809         0.69327
| 85>    H        4.36564        25.27213        -2.38199
| 86> *
| 87>
| 88>                          ****END OF INPUT****

CARTESIAN COORDINATES (ANGSTROEM)
---------------------------------
  O     -2.479700    1.500880   -3.287600
  C     -1.857840    1.627430   -2.085170
  N     -1.688840    0.490960   -1.474850
  C     -2.224210   -0.451740   -2.309200
  C     -2.708310    0.190830   -3.424740
  C     -2.229910   -1.873570   -1.982860
  O     -2.687230   -2.733980   -2.688620
  C     -1.453190    2.909140   -1.613800
  C     -0.806760    3.180160   -0.425040
  C     -0.540740    4.543220   -0.291580
  C     -0.995790    5.298630   -1.390160
  S     -1.748970    4.335150   -2.580920
  C     -0.663430    6.659220   -1.180740
  C      0.007540    6.764040    0.054960
  C      0.087150    5.443320    0.662200
  C      0.616830    5.129750    1.878220
  C      1.155440    6.116360    2.733560
  N      1.576100    6.917840    3.436510
  C      0.639600    3.808430    2.374340
  N      0.662960    2.737910    2.783180
  C      0.416910    8.059550    0.338740
  C      0.057570    8.951900   -0.664480
  S     -0.822900    8.164440   -1.968790
  C      0.329970   10.344010   -0.749310
  C      1.189610   11.044840    0.133430
  C      1.437900   12.456320   -0.032100
  N      2.249920   13.093560    0.818980
  C      2.838410   12.436900    1.787290
  C      2.623420   11.027050    1.927130
  N      1.817150   10.386100    1.118570
  C      3.309010   10.311760    2.942910
  N      3.897440    9.778740    3.767620
  C      3.688090   13.135820    2.679720
  N      4.382830   13.679110    3.410490
  C      0.868240   13.232200   -1.069330
  C      0.007510   12.532920   -1.944110
  C     -0.240910   11.122410   -1.781300
  N     -1.067230   10.657730   -2.719650
  S     -1.490490   11.858440   -3.698540
  N     -0.652270   13.025370   -2.993680
  C      1.181520   14.606990   -1.212450
  C      0.679660   15.477650   -2.174090
  C      1.224120   16.747900   -2.056350
  C      2.151630   16.848430   -0.998220
  S      2.336800   15.381070   -0.139920
  C      2.660830   18.169570   -0.983620
  C      2.059070   18.904490   -2.025060
  C      1.130610   18.035220   -2.729020
  C      0.338300   18.350400   -3.792850
  C      0.323030   19.638540   -4.369920
  N      0.301780   20.680400   -4.847300
  C     -0.524350   17.406230   -4.390420
  N     -1.227470   16.645310   -4.881510
  C      2.521250   20.218610   -2.096180
  C      3.463620   20.471570   -1.119500
  S      3.788760   19.092250   -0.096230
  C      4.155860   21.698500   -0.908610
  N      4.013320   22.794730   -1.594960
  C      4.884320   23.688620   -1.034880
  C      5.533480   23.059750    0.002190
  O      5.077110   21.806430    0.085000
  C      5.028390   25.054240   -1.527020
  O      5.783630   25.869970   -1.066960
  H     -3.196660   -0.162640   -4.309250
  H     -1.763750   -2.089550   -1.006410
  H     -0.554050    2.408620    0.278200
  H      0.954560    8.367730    1.215640
  H     -0.039230   15.162330   -2.907710
  H      2.214390   20.966420   -2.803550
  H      6.282140   23.388090    0.693270
  H      4.365640   25.272130   -2.381990

 Total Charge           Charge          ....    0
 Multiplicity           Mult            ....    1
 Number of Electrons    NEL             ....  456
 Basis Dimension        Dim             ....  942

ORBITAL ENERGIES
----------------

  NO   OCC          E(Eh)            E(eV)
   0   2.0000     -89.065503     -2423.5955
   1   2.0000     -89.002677     -2421.8860
   2   2.0000     -89.002529     -2421.8819
   3   2.0000     -88.994195     -2421.6552
   4   2.0000     -88.994006     -2421.6500
   5   2.0000     -19.331512      -526.0372
   6   2.0000     -19.330984      -526.0228
   7   2.0000     -19.218663      -522.9664
   8   2.0000     -19.218138      -522.9521
   9   2.0000     -14.482871      -394.0990
  10   2.0000     -14.477054      -393.9407
  11   2.0000     -14.473812      -393.8525
  12   2.0000     -14.473606      -393.8468
  13   2.0000     -14.444158      -393.0455
  14   2.0000     -14.436723      -392.8432
  15   2.0000     -14.436317      -392.8322
  16   2.0000     -14.434736      -392.7891
  17   2.0000     -14.433269      -392.7492
  18   2.0000     -14.432670      -392.7329
  19   2.0000     -14.428225      -392.6120
  20   2.0000     -14.428053      -392.6073
  21   2.0000     -10.399644      -282.9887
  22   2.0000     -10.397086      -282.9191
  23   2.0000     -10.390349      -282.7358
  24   2.0000     -10.389906      -282.7237
  25   2.0000     -10.371081      -282.2114
  26   2.0000     -10.370001      -282.1821
  27   2.0000     -10.366586      -282.0892
  28   2.0000     -10.364692      -282.0376
  29   2.0000     -10.363378      -282.0019
  30   2.0000     -10.362948      -281.9902
  31   2.0000     -10.362892      -281.9886
  32   2.0000     -10.361917      -281.9621
  33   2.0000     -10.359502      -281.8964
  34   2.0000     -10.359001      -281.8828
  35   2.0000     -10.358321      -281.8643
  36   2.0000     -10.356531      -281.8155
  37   2.0000     -10.342930      -281.4454
  38   2.0000     -10.342565      -281.4355
  39   2.0000     -10.338796      -281.3329
  40   2.0000     -10.337952      -281.3100
  41   2.0000     -10.337695      -281.3030
  42   2.0000     -10.337480      -281.2971
  43   2.0000     -10.337322      -281.2928
  44   2.0000     -10.336635      -281.2741
  45   2.0000     -10.336508      -281.2707
  46   2.0000     -10.334999      -281.2296
  47   2.0000     -10.334600      -281.2188
  48   2.0000     -10.334367      -281.2124
  49   2.0000     -10.333899      -281.1997
  50   2.0000     -10.332931      -281.1734
  51   2.0000     -10.332217      -281.1539
  52   2.0000     -10.328685      -281.0578
  53   2.0000     -10.316032      -280.7135
  54   2.0000     -10.315513      -280.6994
  55   2.0000     -10.314614      -280.6749
  56   2.0000     -10.314012      -280.6585
  57   2.0000     -10.313307      -280.6394
  58   2.0000     -10.313010      -280.6313
  59   2.0000     -10.308544      -280.5097
  60   2.0000     -10.308266      -280.5022
  61   2.0000     -10.307603      -280.4842
  62   2.0000     -10.305429      -280.4250
  63   2.0000      -8.156421      -221.9475
  64   2.0000      -8.097191      -220.3358
  65   2.0000      -8.096978      -220.3300
  66   2.0000      -8.087539      -220.0731
  67   2.0000      -8.086487      -220.0445
  68   2.0000      -6.127478      -166.7371
  69   2.0000      -6.119679      -166.5249
  70   2.0000      -6.119269      -166.5138
  71   2.0000      -6.066391      -165.0749
  72   2.0000      -6.066149      -165.0683
  73   2.0000      -6.062217      -164.9613
  74   2.0000      -6.061963      -164.9544
  75   2.0000      -6.059621      -164.8907
  76   2.0000      -6.059487      -164.8870
  77   2.0000      -6.056973      -164.8186
  78   2.0000      -6.056084      -164.7944
  79   2.0000      -6.052377      -164.6936
  80   2.0000      -6.051208      -164.6617
  81   2.0000      -6.049918      -164.6266
  82   2.0000      -6.048918      -164.5994
  83   2.0000      -1.259767       -34.2800
  84   2.0000      -1.259549       -34.2741
  85   2.0000      -1.162925       -31.6448
  86   2.0000      -1.139724       -31.0135
  87   2.0000      -1.132367       -30.8133
  88   2.0000      -1.131883       -30.8001
  89   2.0000      -1.067177       -29.0394
  90   2.0000      -1.052324       -28.6352
  91   2.0000      -1.051899       -28.6236
  92   2.0000      -1.037879       -28.2421
  93   2.0000      -1.037507       -28.2320
  94   2.0000      -1.028297       -27.9814
  95   2.0000      -1.026864       -27.9424
  96   2.0000      -1.025582       -27.9075
  97   2.0000      -1.021619       -27.7997
  98   2.0000      -1.013391       -27.5758
  99   2.0000      -1.012849       -27.5610
 100   2.0000      -1.010788       -27.5050
 101   2.0000      -1.009548       -27.4712
 102   2.0000      -1.002183       -27.2708
 103   2.0000      -0.990830       -26.9619
 104   2.0000      -0.966913       -26.3110
 105   2.0000      -0.962418       -26.1887
 106   2.0000      -0.931181       -25.3387
 107   2.0000      -0.927179       -25.2298
 108   2.0000      -0.923510       -25.1300
 109   2.0000      -0.908723       -24.7276
 110   2.0000      -0.893190       -24.3049
 111   2.0000      -0.888115       -24.1668
 112   2.0000      -0.875680       -23.8285
 113   2.0000      -0.869577       -23.6624
 114   2.0000      -0.862859       -23.4796
 115   2.0000      -0.862393       -23.4669
 116   2.0000      -0.852551       -23.1991
 117   2.0000      -0.824777       -22.4433
 118   2.0000      -0.823415       -22.4063
 119   2.0000      -0.800760       -21.7898
 120   2.0000      -0.793468       -21.5914
 121   2.0000      -0.786970       -21.4145
 122   2.0000      -0.775732       -21.1087
 123   2.0000      -0.775670       -21.1070
 124   2.0000      -0.770711       -20.9721
 125   2.0000      -0.752323       -20.4718
 126   2.0000      -0.740061       -20.1381
 127   2.0000      -0.725902       -19.7528
 128   2.0000      -0.717366       -19.5205
 129   2.0000      -0.712511       -19.3884
 130   2.0000      -0.708272       -19.2731
 131   2.0000      -0.705669       -19.2022
 132   2.0000      -0.704410       -19.1680
 133   2.0000      -0.692712       -18.8497
 134   2.0000      -0.687236       -18.7007
 135   2.0000      -0.684833       -18.6353
 136   2.0000      -0.672512       -18.3000
 137   2.0000      -0.670934       -18.2570
 138   2.0000      -0.647240       -17.6123
 139   2.0000      -0.643396       -17.5077
 140   2.0000      -0.638758       -17.3815
 141   2.0000      -0.636477       -17.3194
 142   2.0000      -0.635317       -17.2879
 143   2.0000      -0.630530       -17.1576
 144   2.0000      -0.622835       -16.9482
 145   2.0000      -0.619098       -16.8465
 146   2.0000      -0.617294       -16.7974
 147   2.0000      -0.612169       -16.6580
 148   2.0000      -0.603662       -16.4265
 149   2.0000      -0.601076       -16.3561
 150   2.0000      -0.600659       -16.3448
 151   2.0000      -0.598719       -16.2920
 152   2.0000      -0.583625       -15.8812
 153   2.0000      -0.577859       -15.7243
 154   2.0000      -0.576278       -15.6813
 155   2.0000      -0.573942       -15.6178
 156   2.0000      -0.569816       -15.5055
 157   2.0000      -0.560183       -15.2434
 158   2.0000      -0.554580       -15.0909
 159   2.0000      -0.553282       -15.0556
 160   2.0000      -0.552421       -15.0321
 161   2.0000      -0.546860       -14.8808
 162   2.0000      -0.533683       -14.5222
 163   2.0000      -0.530066       -14.4238
 164   2.0000      -0.518220       -14.1015
 165   2.0000      -0.517691       -14.0871
 166   2.0000      -0.515363       -14.0237
 167   2.0000      -0.510754       -13.8983
 168   2.0000      -0.507439       -13.8081
 169   2.0000      -0.506675       -13.7873
 170   2.0000      -0.506032       -13.7698
 171   2.0000      -0.504829       -13.7371
 172   2.0000      -0.504220       -13.7205
 173   2.0000      -0.502171       -13.6648
 174   2.0000      -0.500739       -13.6258
 175   2.0000      -0.500556       -13.6208
 176   2.0000      -0.498695       -13.5702
 177   2.0000      -0.489749       -13.3267
 178   2.0000      -0.487704       -13.2711
 179   2.0000      -0.486395       -13.2355
 180   2.0000      -0.486101       -13.2275
 181   2.0000      -0.483954       -13.1691
 182   2.0000      -0.480552       -13.0765
 183   2.0000      -0.479233       -13.0406
 184   2.0000      -0.467586       -12.7237
 185   2.0000      -0.467157       -12.7120
 186   2.0000      -0.466905       -12.7051
 187   2.0000      -0.463713       -12.6183
 188   2.0000      -0.462381       -12.5820
 189   2.0000      -0.461431       -12.5562
 190   2.0000      -0.459466       -12.5027
 191   2.0000      -0.458910       -12.4876
 192   2.0000      -0.456340       -12.4176
 193   2.0000      -0.455856       -12.4045
 194   2.0000      -0.452340       -12.3088
 195   2.0000      -0.445551       -12.1241
 196   2.0000      -0.444722       -12.1015
 197   2.0000      -0.442762       -12.0482
 198   2.0000      -0.442218       -12.0334
 199   2.0000      -0.439925       -11.9710
 200   2.0000      -0.437171       -11.8960
 201   2.0000      -0.433185       -11.7876
 202   2.0000      -0.432576       -11.7710
 203   2.0000      -0.430650       -11.7186
 204   2.0000      -0.427285       -11.6270
 205   2.0000      -0.424475       -11.5506
 206   2.0000      -0.423341       -11.5197
 207   2.0000      -0.414724       -11.2852
 208   2.0000      -0.413041       -11.2394
 209   2.0000      -0.410180       -11.1616
 210   2.0000      -0.393297       -10.7021
 211   2.0000      -0.391668       -10.6578
 212   2.0000      -0.391459       -10.6521
 213   2.0000      -0.390458       -10.6249
 214   2.0000      -0.387274       -10.5383
 215   2.0000      -0.368371       -10.0239
 216   2.0000      -0.366096        -9.9620
 217   2.0000      -0.362066        -9.8523
 218   2.0000      -0.355716        -9.6795
 219   2.0000      -0.354318        -9.6415
 220   2.0000      -0.342000        -9.3063
 221   2.0000      -0.339596        -9.2409
 222   2.0000      -0.339109        -9.2276
 223   2.0000      -0.329012        -8.9529
 224   2.0000      -0.327194        -8.9034
 225   2.0000      -0.312911        -8.5147
 226   2.0000      -0.284046        -7.7293
 227   2.0000      -0.249634        -6.7929
 228   0.0000      -0.144421        -3.9299
 229   0.0000      -0.109740        -2.9862
 230   0.0000      -0.106342        -2.8937
 231   0.0000      -0.068026        -1.8511
 232   0.0000      -0.056125        -1.5272

MULLIKEN ATOMIC CHARGES
-----------------------
   0 O :   -0.174425
   1 C :    0.094815
   2 N :   -0.069931
   3 C :   -0.045390
   4 C :    0.132384
   5 C :    0.173112
   6 O :   -0.173551
   7 C :   -0.100450
   8 C :   -0.034716
   9 C :    0.013087
  10 C :   -0.099378
  11 S :    0.225961
  12 C :   -0.066556
  13 C :    0.039562
  14 C :    0.300467
  15 C :   -0.293799
  16 C :   -0.192400
  17 N :    0.186767
  18 C :   -0.192079
  19 N :    0.184559
  20 C :   -0.052056
  21 C :   -0.183816
  22 S :    0.208242
  23 C :    0.203572
  24 C :   -0.071795
  25 C :   -0.056845
  26 N :   -0.015625
  27 C :   -0.094480
  28 C :   -0.121171
  29 N :    0.052467
  30 C :   -0.219664
  31 N :    0.257676
  32 C :   -0.235440
  33 N :    0.250906
  34 C :    0.185652
  35 C :   -0.005174
  36 C :   -0.024779
  37 N :   -0.336641
  38 S :    0.582098
  39 N :   -0.275588
  40 C :   -0.174667
  41 C :   -0.063702
  42 C :    0.035830
  43 C :   -0.057895
  44 S :    0.210891
  45 C :   -0.100154
  46 C :    0.012901
  47 C :    0.305007
  48 C :   -0.297626
  49 C :   -0.196259
  50 N :    0.185398
  51 C :   -0.187110
  52 N :    0.171086
  53 C :   -0.035326
  54 C :   -0.102509
  55 S :    0.236792
  56 C :    0.096299
  57 N :   -0.072724
  58 C :   -0.045173
  59 C :    0.134907
  60 O :   -0.171967
  61 C :    0.170394
  62 O :   -0.173405
  63 H :    0.037574
  64 H :   -0.006228
  65 H :    0.027727
  66 H :    0.021526
  67 H :    0.021296
  68 H :    0.027264
  69 H :    0.039179
  70 H :   -0.004898
Sum of atomic charges:   -0.0000000

LOEWDIN ATOMIC CHARGES
----------------------
   0 O :    0.019700
   1 C :    0.025142
   2 N :   -0.092743
   3 C :   -0.102967
   4 C :    0.073045
   5 C :    0.106004
   6 O :   -0.128407
   7 C :   -0.193865
   8 C :    0.001377
   9 C :   -0.063619
  10 C :   -0.176709
  11 S :    0.496050
  12 C :   -0.179919
  13 C :   -0.070122
  14 C :    0.076473
  15 C :   -0.094755
  16 C :   -0.018507
  17 N :   -0.021236
  18 C :   -0.019279
  19 N :   -0.024216
  20 C :   -0.007372
  21 C :   -0.165025
  22 S :    0.511312
  23 C :   -0.041593
  24 C :   -0.005290
  25 C :   -0.014413
  26 N :   -0.019227
  27 C :   -0.019904
  28 C :   -0.018946
  29 N :    0.010950
  30 C :   -0.041043
  31 N :    0.013978
  32 C :   -0.039162
  33 N :    0.003378
  34 C :   -0.035744
  35 C :   -0.037866
  36 C :   -0.045202
  37 N :   -0.303275
  38 S :    0.699373
  39 N :   -0.266712
  40 C :   -0.168461
  41 C :   -0.006187
  42 C :   -0.073103
  43 C :   -0.176776
  44 S :    0.513101
  45 C :   -0.176834
  46 C :   -0.063611
  47 C :    0.079234
  48 C :   -0.099118
  49 C :   -0.020174
  50 N :   -0.025253
  51 C :   -0.015222
  52 N :   -0.033096
  53 C :    0.000645
  54 C :   -0.192720
  55 S :    0.504361
  56 C :    0.024676
  57 N :   -0.092872
  58 C :   -0.103314
  59 C :    0.074488
  60 O :    0.021550
  61 C :    0.105492
  62 O :   -0.128152
  63 H :    0.037339
  64 H :    0.004489
  65 H :    0.050703
  66 H :    0.037847
  67 H :    0.038393
  68 H :    0.050491
  69 H :    0.038011
  70 H :    0.004405

  Mayer bond orders larger than 0.100000
B(  0-O ,  1-C ) :   1.2050 B(  0-O ,  4-C ) :   1.1572 B(  1-C ,  2-N ) :   1.7763
B(  1-C ,  7-C ) :   1.0460 B(  2-N ,  3-C ) :   1.2972 B(  3-C ,  4-C ) :   1.5157
B(  3-C ,  5-C ) :   0.9665 B(  4-C , 63-H ) :   0.9902 B(  5-C ,  6-O ) :   2.2059
B(  5-C , 64-H ) :   0.9526 B(  7-C ,  8-C ) :   1.4927 B(  7-C , 11-S ) :   1.1035
B(  8-C ,  9-C ) :   1.2706 B(  8-C , 65-H ) :   1.0073 B(  9-C , 10-C ) :   1.4292
B(  9-C , 14-C ) :   0.9861 B( 10-C , 11-S ) :   1.1251 B( 10-C , 12-C ) :   1.1961
B( 12-C , 13-C ) :   1.4013 B( 12-C , 22-S ) :   1.1054 B( 13-C , 14-C ) :   0.9936
B( 13-C , 20-C ) :   1.2780 B( 14-C , 15-C ) :   1.7224 B( 15-C , 16-C ) :   1.1348
B( 15-C , 18-C ) :   1.1321 B( 16-C , 17-N ) :   2.9905 B( 18-C , 19-N ) :   2.9994
B( 20-C , 21-C ) :   1.4065 B( 20-C , 66-H ) :   0.9846 B( 21-C , 22-S ) :   1.0955
B( 21-C , 23-C ) :   1.1916 B( 23-C , 24-C ) :   1.2597 B( 23-C , 34-C ) :   0.1224
B( 23-C , 36-C ) :   1.1906 B( 24-C , 25-C ) :   1.1031 B( 24-C , 29-N ) :   1.4516
B( 25-C , 26-N ) :   1.3966 B( 25-C , 34-C ) :   1.2486 B( 26-N , 27-C ) :   1.6933
B( 27-C , 28-C ) :   1.2114 B( 27-C , 32-C ) :   1.1591 B( 28-C , 29-N ) :   1.7288
B( 28-C , 30-C ) :   1.1598 B( 30-C , 31-N ) :   3.0306 B( 32-C , 33-N ) :   3.0419
B( 34-C , 35-C ) :   1.2015 B( 34-C , 40-C ) :   1.2135 B( 35-C , 36-C ) :   1.1077
B( 35-C , 39-N ) :   1.5150 B( 36-C , 37-N ) :   1.4715 B( 37-N , 38-S ) :   1.2730
B( 37-N , 39-N ) :   0.1493 B( 38-S , 39-N ) :   1.2924 B( 40-C , 41-C ) :   1.4052
B( 40-C , 44-S ) :   1.0841 B( 41-C , 42-C ) :   1.2829 B( 41-C , 67-H ) :   0.9840
B( 42-C , 43-C ) :   1.4021 B( 42-C , 47-C ) :   0.9904 B( 43-C , 44-S ) :   1.0891
B( 43-C , 45-C ) :   1.2003 B( 45-C , 46-C ) :   1.4239 B( 45-C , 55-S ) :   1.1286
B( 46-C , 47-C ) :   0.9880 B( 46-C , 53-C ) :   1.2721 B( 47-C , 48-C ) :   1.7164
B( 48-C , 49-C ) :   1.1319 B( 48-C , 51-C ) :   1.1394 B( 49-C , 50-N ) :   3.0011
B( 51-C , 52-N ) :   2.9845 B( 53-C , 54-C ) :   1.4871 B( 53-C , 68-H ) :   1.0080
B( 54-C , 55-S ) :   1.1068 B( 54-C , 56-C ) :   1.0480 B( 56-C , 57-N ) :   1.7734
B( 56-C , 60-O ) :   1.2073 B( 57-N , 58-C ) :   1.2985 B( 58-C , 59-C ) :   1.5151
B( 58-C , 61-C ) :   0.9643 B( 59-C , 60-O ) :   1.1562 B( 59-C , 69-H ) :   0.9905
B( 61-C , 62-O ) :   2.2065 B( 61-C , 70-H ) :   0.9528

-----------------------------------------------------------------------------
         ABSORPTION SPECTRUM VIA TRANSITION ELECTRIC DIPOLE MOMENTS
-----------------------------------------------------------------------------
State   Energy  Wavelength   fosc         T2         TX        TY        TZ
        (cm-1)    (nm)                  (au**2)     (au)      (au)      (au)
-----------------------------------------------------------------------------
   0    7801.3   1281.8   0.575290611  24.27698   1.06328   4.80091  -0.31251
   1   13604.7    735.0   0.002741572   0.06634  -0.00287   0.15620   0.20478
   2   14005.6    714.0   0.041747022   0.98130  -0.33050  -0.91075  -0.20641
   3   16685.2    599.3   0.006565543   0.12954   0.01416  -0.04578   0.35672
   4   22554.6    443.4   0.140512827   2.05096   0.57925   1.24271   0.41363
   5   23116.4    432.6   0.070829574   1.00872   0.46400   0.80633   0.37848
   6   23719.9    421.6   0.242377810   3.36399   0.11774   1.75830  -0.50845
   7   23966.6    417.2   0.011797331   0.16205  -0.06475  -0.33651   0.21124
   8   24095.7    415.0   0.043037229   0.58800  -0.27816  -0.70933  -0.08649
   9   24793.6    403.3   0.037898755   0.50322  -0.27454  -0.64860  -0.08471
  10   25267.5    395.8   0.065798212   0.85729  -0.38941  -0.73713  -0.40285
  11   25447.6    393.0   0.008380534   0.10842   0.24360   0.20869   0.07433
  12   28632.2    349.3   1.576294248  18.12420  -1.04936  -4.12550   0.05699
  13   29416.6    339.9   0.042484901   0.47546   0.52209  -0.00269   0.45042
  14   30094.2    332.3   0.320255039   3.50339   0.90030   1.44490   0.77789
  15   30243.1    330.7   0.041010782   0.44642  -0.33565  -0.28311  -0.50360
  16   30794.8    324.7   0.075185994   0.80378   0.51091   0.25571   0.69092
  17   30964.8    322.9   0.061329341   0.65204   0.22002  -0.36504   0.68584
  18   31491.3    317.5   0.038677409   0.40434  -0.55779  -0.04767  -0.30155
  19   31628.1    316.2   0.023274668   0.24226   0.05288  -0.19096  -0.45056
  20   31792.4    314.5   0.186500294   1.93122   0.26756  -0.54540   1.24987
  21   32357.2    309.1   0.820446156   8.34747  -1.49773   0.86695  -2.31358
  22   32721.7    305.6   0.233633223   2.35057  -0.76287   0.65052  -1.15993
  23   33092.4    302.2   0.289053350   2.87558   0.96745  -0.20320   1.37780
  24   33283.4    300.4   0.139657497   1.38138  -0.58206   0.28730  -0.97981
  25   33515.6    298.4   0.000041858   0.00041  -0.01590   0.00727  -0.01028
  26   33982.5    294.3   0.000032777   0.00032  -0.00459   0.00785  -0.01532
  27   34388.3    290.8   0.069343991   0.66386   0.19943   0.37677   0.69435
  28   34562.5    289.3   0.289906087   2.76139  -0.91245  -1.12044  -0.82063
  29   34872.7    286.8   0.282916902   2.67084  -1.04107  -0.47806  -1.16554
  30   35059.4    285.2   0.007684655   0.07216  -0.11257   0.23636  -0.06018
  31   35971.2    278.0   0.150521246   1.37758   0.61040   0.78451   0.62414
  32   37157.9    269.1   0.044399465   0.39337  -0.43023  -0.28459  -0.35677
  33   37375.0    267.6   0.023092756   0.20341  -0.25287  -0.10586  -0.35813
  34   37706.8    265.2   0.075273158   0.65720  -0.21920  -0.77422   0.09864
  35   37813.6    264.5   0.059357626   0.51678  -0.07014  -0.71105  -0.07916
  36   37959.0    263.4   0.017298455   0.15003   0.31241   0.11475   0.19814
  37   38275.4    261.3   0.007842271   0.06745  -0.25950  -0.00996   0.00340
  38   38604.4    259.0   0.013121004   0.11189  -0.00857   0.32376   0.08368
  39   38849.8    257.4   0.000178617   0.00151   0.00714   0.02324   0.03037
  40   38938.5    256.8   0.000057053   0.00048   0.00112   0.02068   0.00731
  41   39011.4    256.3   0.003813618   0.03218   0.03628   0.12509   0.12337
  42   39333.8    254.2   0.003256489   0.02726   0.05627   0.13930  -0.06844
  43   39607.0    252.5   0.002934914   0.02439   0.04529  -0.13335  -0.06754
  44   40118.1    249.3   0.014359917   0.11784  -0.11627  -0.32280   0.01083
  45   40208.3    248.7   0.002118346   0.01734   0.01616  -0.00655  -0.13054

FINAL SINGLE POINT ENERGY     -4550.171819060842

DIPOLE MOMENT
-------------
                                X             Y             Z
Electronic contribution:     -1.84870       0.52961       1.32809
Nuclear contribution   :      0.62320      -0.47325      -3.30749
                        -----------------------------------------
Total Dipole Moment    :     -1.22551       0.05636      -1.97939
                        -----------------------------------------
Magnitude (a.u.)       :      2.32874
Magnitude (Debye)      :      5.91919

Rotational constants in cm-1:     0.002936     0.000337     0.000304
Rotational constants in MHz :    88.028031    10.092871     9.114206

                             ****ORCA TERMINATED NORMALLY****
TOTAL RUN TIME: 0 days 0 hours 6 minutes 46 seconds 102 msec
