                         Program Version 4.2.0 -  RELEASE  -
|  1> # ORCA input file
|  2> # SCF done       -160.743184920057          0.000406653302
|  3> ! CAM-B3LYP def2-SVP def2/J RIJCOSX Grid4 TightSCF
|  4> %maxcore 5000
|  5> %tddft
|  6>     Mode sTDDFT
|  7>     Ethresh 5.0
|  8>     maxcore 5000
|  9> end
| 10>
| 11> %pal
| 12>   nprocs 6
| 13>   end
| 14> * xyz 0 1
| 15>    O        0.16747         1.84281         3.92923
| 16>    C       -0.15689         1.83926         2.60883
| 17>    N       -0.50779         0.66514         2.17169
| 18>    C       -0.41540        -0.16685         3.25411
| 19>    C        0.00381         0.57853         4.33128
| 20>    C       -0.73268        -1.58829         3.17924
| 21>    O       -0.66233        -2.35352         4.10515
| 22>    C       -0.09483         3.04335         1.85040
| 23>    C       -0.37500         3.18580         0.50666
| 24>    C       -0.21227         4.50837         0.09248
| 25>    C        0.19148         5.36218         1.13759
| 26>    S        0.37247         4.54140         2.62194
| 27>    C        0.33235         6.67778         0.62994
| 28>    C        0.01903         6.65265        -0.74425
| 29>    C       -0.33619         5.29370        -1.12495
| 30>    C       -0.71167         4.85749        -2.36104
| 31>    C       -0.79620         5.72678        -3.46996
| 32>    N       -0.86864         6.42506        -4.37650
| 33>    C       -1.04430         3.51036        -2.61967
| 34>    N       -1.31812         2.41988        -2.84281
| 35>    C        0.13016         7.90045        -1.34228
| 36>    C        0.52086         8.87944        -0.43582
| 37>    S        0.75146         8.23962         1.18139
| 38>    C        0.72925        10.25642        -0.71551
| 39>    C        1.08974        11.17533         0.29555
| 40>    C        1.30154        12.57540         0.05478
| 41>    N        1.66461        13.36497         1.08792
| 42>    C        1.80489        12.85729         2.26818
| 43>    C        1.57859        11.47588         2.50974
| 44>    N        1.23789        10.68720         1.54427
| 45>    F        1.71342        10.95372         3.72337
| 46>    F        2.17575        13.66593         3.25232
| 47>    C        1.15949        13.13218        -1.23874
| 48>    C        0.81977        12.21054        -2.25478
| 49>    C        0.60028        10.80695        -2.01106
| 50>    N        0.28648        10.16196        -3.13616
| 51>    S        0.26757        11.19186        -4.36057
| 52>    N        0.65565        12.51774        -3.54258
| 53>    C        1.34627        14.50793        -1.55083
| 54>    C        1.56040        15.57294        -0.68466
| 55>    C        1.71236        16.77545        -1.36322
| 56>    C        1.62271        16.62944        -2.76214
| 57>    S        1.32083        15.01754        -3.23413
| 58>    C        1.81955        17.90105        -3.35498
| 59>    C        2.03062        18.85086        -2.33713
| 60>    C        1.95488        18.17660        -1.05064
| 61>    C        2.06694        18.74022         0.18514
| 62>    C        2.29931        20.12089         0.36665
| 63>    N        2.48849        21.23989         0.52761
| 64>    C        1.94063        17.98963         1.37466
| 65>    N        1.82817        17.39873         2.35014
| 66>    C        2.25147        20.13616        -2.83362
| 67>    C        2.20962        20.15548        -4.21265
| 68>    S        1.89061        18.58662        -4.91619
| 69>    C        2.40905        21.28922        -5.05140
| 70>    N        2.67236        22.50237        -4.66211
| 71>    C        2.78885        23.23477        -5.81198
| 72>    C        2.58097        22.39157        -6.87833
| 73>    O        2.34125        21.16483        -6.40375
| 74>    C        3.08902        24.66197        -5.80480
| 75>    O        3.20255        25.34090        -6.79182
| 76>    H        0.20231         0.32706         5.35261
| 77>    H       -1.05121        -1.90271         2.17069
| 78>    H       -0.67635         2.35712        -0.10671
| 79>    H       -0.05449         8.12271        -2.37698
| 80>    H        1.60151        15.44541         0.38034
| 81>    H        2.43745        21.02130        -2.25432
| 82>    H        2.58134        22.54943        -7.93701
| 83>    H        3.20625        25.06902        -4.78595
| 84> *
| 85>
| 86>                          ****END OF INPUT****

CARTESIAN COORDINATES (ANGSTROEM)
---------------------------------
  O      0.167470    1.842810    3.929230
  C     -0.156890    1.839260    2.608830
  N     -0.507790    0.665140    2.171690
  C     -0.415400   -0.166850    3.254110
  C      0.003810    0.578530    4.331280
  C     -0.732680   -1.588290    3.179240
  O     -0.662330   -2.353520    4.105150
  C     -0.094830    3.043350    1.850400
  C     -0.375000    3.185800    0.506660
  C     -0.212270    4.508370    0.092480
  C      0.191480    5.362180    1.137590
  S      0.372470    4.541400    2.621940
  C      0.332350    6.677780    0.629940
  C      0.019030    6.652650   -0.744250
  C     -0.336190    5.293700   -1.124950
  C     -0.711670    4.857490   -2.361040
  C     -0.796200    5.726780   -3.469960
  N     -0.868640    6.425060   -4.376500
  C     -1.044300    3.510360   -2.619670
  N     -1.318120    2.419880   -2.842810
  C      0.130160    7.900450   -1.342280
  C      0.520860    8.879440   -0.435820
  S      0.751460    8.239620    1.181390
  C      0.729250   10.256420   -0.715510
  C      1.089740   11.175330    0.295550
  C      1.301540   12.575400    0.054780
  N      1.664610   13.364970    1.087920
  C      1.804890   12.857290    2.268180
  C      1.578590   11.475880    2.509740
  N      1.237890   10.687200    1.544270
  F      1.713420   10.953720    3.723370
  F      2.175750   13.665930    3.252320
  C      1.159490   13.132180   -1.238740
  C      0.819770   12.210540   -2.254780
  C      0.600280   10.806950   -2.011060
  N      0.286480   10.161960   -3.136160
  S      0.267570   11.191860   -4.360570
  N      0.655650   12.517740   -3.542580
  C      1.346270   14.507930   -1.550830
  C      1.560400   15.572940   -0.684660
  C      1.712360   16.775450   -1.363220
  C      1.622710   16.629440   -2.762140
  S      1.320830   15.017540   -3.234130
  C      1.819550   17.901050   -3.354980
  C      2.030620   18.850860   -2.337130
  C      1.954880   18.176600   -1.050640
  C      2.066940   18.740220    0.185140
  C      2.299310   20.120890    0.366650
  N      2.488490   21.239890    0.527610
  C      1.940630   17.989630    1.374660
  N      1.828170   17.398730    2.350140
  C      2.251470   20.136160   -2.833620
  C      2.209620   20.155480   -4.212650
  S      1.890610   18.586620   -4.916190
  C      2.409050   21.289220   -5.051400
  N      2.672360   22.502370   -4.662110
  C      2.788850   23.234770   -5.811980
  C      2.580970   22.391570   -6.878330
  O      2.341250   21.164830   -6.403750
  C      3.089020   24.661970   -5.804800
  O      3.202550   25.340900   -6.791820
  H      0.202310    0.327060    5.352610
  H     -1.051210   -1.902710    2.170690
  H     -0.676350    2.357120   -0.106710
  H     -0.054490    8.122710   -2.376980
  H      1.601510   15.445410    0.380340
  H      2.437450   21.021300   -2.254320
  H      2.581340   22.549430   -7.937010
  H      3.206250   25.069020   -4.785950

 Total Charge           Charge          ....    0
 Multiplicity           Mult            ....    1
 Number of Electrons    NEL             ....  448
 Basis Dimension        Dim             ....  914

ORBITAL ENERGIES
----------------

  NO   OCC          E(Eh)            E(eV)
   0   2.0000     -89.055824     -2423.3322
   1   2.0000     -88.998188     -2421.7638
   2   2.0000     -88.998128     -2421.7622
   3   2.0000     -88.988197     -2421.4920
   4   2.0000     -88.987901     -2421.4839
   5   2.0000     -24.830247      -675.6654
   6   2.0000     -24.823458      -675.4806
   7   2.0000     -19.327806      -525.9363
   8   2.0000     -19.327749      -525.9348
   9   2.0000     -19.216051      -522.8953
  10   2.0000     -19.216040      -522.8950
  11   2.0000     -14.471031      -393.7768
  12   2.0000     -14.465559      -393.6279
  13   2.0000     -14.464661      -393.6034
  14   2.0000     -14.464077      -393.5876
  15   2.0000     -14.431453      -392.6998
  16   2.0000     -14.430434      -392.6721
  17   2.0000     -14.429831      -392.6557
  18   2.0000     -14.429764      -392.6538
  19   2.0000     -14.424369      -392.5070
  20   2.0000     -14.424239      -392.5035
  21   2.0000     -10.446413      -284.2613
  22   2.0000     -10.442646      -284.1588
  23   2.0000     -10.386579      -282.6332
  24   2.0000     -10.386548      -282.6323
  25   2.0000     -10.365875      -282.0698
  26   2.0000     -10.365538      -282.0606
  27   2.0000     -10.360704      -281.9291
  28   2.0000     -10.360669      -281.9281
  29   2.0000     -10.359087      -281.8851
  30   2.0000     -10.357447      -281.8405
  31   2.0000     -10.356015      -281.8015
  32   2.0000     -10.355923      -281.7990
  33   2.0000     -10.353384      -281.7299
  34   2.0000     -10.352918      -281.7172
  35   2.0000     -10.352770      -281.7132
  36   2.0000     -10.351881      -281.6890
  37   2.0000     -10.338403      -281.3222
  38   2.0000     -10.338379      -281.3216
  39   2.0000     -10.332233      -281.1544
  40   2.0000     -10.332110      -281.1510
  41   2.0000     -10.331828      -281.1433
  42   2.0000     -10.330449      -281.1058
  43   2.0000     -10.329895      -281.0907
  44   2.0000     -10.329763      -281.0871
  45   2.0000     -10.329196      -281.0717
  46   2.0000     -10.329025      -281.0671
  47   2.0000     -10.328701      -281.0582
  48   2.0000     -10.328346      -281.0486
  49   2.0000     -10.327674      -281.0303
  50   2.0000     -10.327501      -281.0256
  51   2.0000     -10.312596      -280.6200
  52   2.0000     -10.312595      -280.6200
  53   2.0000     -10.309152      -280.5263
  54   2.0000     -10.308813      -280.5171
  55   2.0000     -10.308547      -280.5098
  56   2.0000     -10.308276      -280.5025
  57   2.0000     -10.302510      -280.3455
  58   2.0000     -10.302422      -280.3431
  59   2.0000     -10.299330      -280.2590
  60   2.0000     -10.298771      -280.2438
  61   2.0000      -8.146750      -221.6843
  62   2.0000      -8.092635      -220.2118
  63   2.0000      -8.092603      -220.2109
  64   2.0000      -8.081141      -219.8990
  65   2.0000      -8.080845      -219.8910
  66   2.0000      -6.117877      -166.4759
  67   2.0000      -6.110017      -166.2620
  68   2.0000      -6.109553      -166.2494
  69   2.0000      -6.061814      -164.9504
  70   2.0000      -6.061803      -164.9500
  71   2.0000      -6.057634      -164.8366
  72   2.0000      -6.057629      -164.8365
  73   2.0000      -6.055138      -164.7687
  74   2.0000      -6.055052      -164.7663
  75   2.0000      -6.050560      -164.6441
  76   2.0000      -6.050335      -164.6380
  77   2.0000      -6.045968      -164.5192
  78   2.0000      -6.045602      -164.5092
  79   2.0000      -6.043576      -164.4541
  80   2.0000      -6.043370      -164.4484
  81   2.0000      -1.356578       -36.9144
  82   2.0000      -1.341293       -36.4984
  83   2.0000      -1.256158       -34.1818
  84   2.0000      -1.256049       -34.1788
  85   2.0000      -1.153580       -31.3905
  86   2.0000      -1.129687       -30.7404
  87   2.0000      -1.129680       -30.7402
  88   2.0000      -1.127747       -30.6876
  89   2.0000      -1.054447       -28.6929
  90   2.0000      -1.046992       -28.4901
  91   2.0000      -1.046101       -28.4659
  92   2.0000      -1.033984       -28.1361
  93   2.0000      -1.033962       -28.1355
  94   2.0000      -1.022925       -27.8352
  95   2.0000      -1.022232       -27.8163
  96   2.0000      -1.012962       -27.5641
  97   2.0000      -1.008573       -27.4447
  98   2.0000      -1.007344       -27.4112
  99   2.0000      -1.005087       -27.3498
 100   2.0000      -0.995911       -27.1001
 101   2.0000      -0.983002       -26.7488
 102   2.0000      -0.961557       -26.1653
 103   2.0000      -0.956629       -26.0312
 104   2.0000      -0.925164       -25.1750
 105   2.0000      -0.919851       -25.0304
 106   2.0000      -0.901522       -24.5317
 107   2.0000      -0.898555       -24.4509
 108   2.0000      -0.888803       -24.1856
 109   2.0000      -0.882359       -24.0102
 110   2.0000      -0.870091       -23.6764
 111   2.0000      -0.863383       -23.4938
 112   2.0000      -0.856705       -23.3121
 113   2.0000      -0.855314       -23.2743
 114   2.0000      -0.830056       -22.5870
 115   2.0000      -0.816845       -22.2275
 116   2.0000      -0.801419       -21.8077
 117   2.0000      -0.791808       -21.5462
 118   2.0000      -0.785692       -21.3798
 119   2.0000      -0.778337       -21.1796
 120   2.0000      -0.771906       -21.0046
 121   2.0000      -0.769897       -20.9500
 122   2.0000      -0.768969       -20.9247
 123   2.0000      -0.752195       -20.4683
 124   2.0000      -0.734348       -19.9826
 125   2.0000      -0.716335       -19.4925
 126   2.0000      -0.707415       -19.2498
 127   2.0000      -0.703328       -19.1385
 128   2.0000      -0.702201       -19.1079
 129   2.0000      -0.695273       -18.9193
 130   2.0000      -0.692167       -18.8348
 131   2.0000      -0.687454       -18.7066
 132   2.0000      -0.684218       -18.6185
 133   2.0000      -0.680047       -18.5050
 134   2.0000      -0.670626       -18.2487
 135   2.0000      -0.664750       -18.0888
 136   2.0000      -0.643936       -17.5224
 137   2.0000      -0.640991       -17.4423
 138   2.0000      -0.634443       -17.2641
 139   2.0000      -0.632551       -17.2126
 140   2.0000      -0.631232       -17.1767
 141   2.0000      -0.630908       -17.1679
 142   2.0000      -0.626690       -17.0531
 143   2.0000      -0.618167       -16.8212
 144   2.0000      -0.615105       -16.7379
 145   2.0000      -0.612195       -16.6587
 146   2.0000      -0.608731       -16.5644
 147   2.0000      -0.599288       -16.3075
 148   2.0000      -0.597398       -16.2560
 149   2.0000      -0.597371       -16.2553
 150   2.0000      -0.582449       -15.8492
 151   2.0000      -0.579528       -15.7697
 152   2.0000      -0.578940       -15.7538
 153   2.0000      -0.574159       -15.6237
 154   2.0000      -0.572034       -15.5658
 155   2.0000      -0.565873       -15.3982
 156   2.0000      -0.560148       -15.2424
 157   2.0000      -0.549549       -14.9540
 158   2.0000      -0.548570       -14.9274
 159   2.0000      -0.547801       -14.9064
 160   2.0000      -0.547580       -14.9004
 161   2.0000      -0.535311       -14.5665
 162   2.0000      -0.533236       -14.5101
 163   2.0000      -0.527628       -14.3575
 164   2.0000      -0.523281       -14.2392
 165   2.0000      -0.522171       -14.2090
 166   2.0000      -0.515320       -14.0226
 167   2.0000      -0.514353       -13.9963
 168   2.0000      -0.507439       -13.8081
 169   2.0000      -0.505139       -13.7455
 170   2.0000      -0.501062       -13.6346
 171   2.0000      -0.500204       -13.6112
 172   2.0000      -0.499759       -13.5991
 173   2.0000      -0.498079       -13.5534
 174   2.0000      -0.497276       -13.5316
 175   2.0000      -0.496791       -13.5184
 176   2.0000      -0.496245       -13.5035
 177   2.0000      -0.491725       -13.3805
 178   2.0000      -0.487339       -13.2612
 179   2.0000      -0.484729       -13.1902
 180   2.0000      -0.482824       -13.1383
 181   2.0000      -0.479857       -13.0576
 182   2.0000      -0.477754       -13.0003
 183   2.0000      -0.471497       -12.8301
 184   2.0000      -0.462809       -12.5937
 185   2.0000      -0.462536       -12.5862
 186   2.0000      -0.460812       -12.5393
 187   2.0000      -0.459729       -12.5099
 188   2.0000      -0.457778       -12.4568
 189   2.0000      -0.456761       -12.4291
 190   2.0000      -0.451734       -12.2923
 191   2.0000      -0.449746       -12.2382
 192   2.0000      -0.445382       -12.1195
 193   2.0000      -0.441186       -12.0053
 194   2.0000      -0.440201       -11.9785
 195   2.0000      -0.439935       -11.9712
 196   2.0000      -0.439165       -11.9503
 197   2.0000      -0.435935       -11.8624
 198   2.0000      -0.428470       -11.6593
 199   2.0000      -0.427358       -11.6290
 200   2.0000      -0.422954       -11.5092
 201   2.0000      -0.421837       -11.4788
 202   2.0000      -0.415332       -11.3018
 203   2.0000      -0.410408       -11.1678
 204   2.0000      -0.408744       -11.1225
 205   2.0000      -0.406658       -11.0657
 206   2.0000      -0.388096       -10.5606
 207   2.0000      -0.387953       -10.5568
 208   2.0000      -0.387816       -10.5530
 209   2.0000      -0.382777       -10.4159
 210   2.0000      -0.381666       -10.3857
 211   2.0000      -0.375414       -10.2155
 212   2.0000      -0.357322        -9.7232
 213   2.0000      -0.355098        -9.6627
 214   2.0000      -0.350502        -9.5376
 215   2.0000      -0.348916        -9.4945
 216   2.0000      -0.337218        -9.1762
 217   2.0000      -0.337008        -9.1704
 218   2.0000      -0.336992        -9.1700
 219   2.0000      -0.323996        -8.8164
 220   2.0000      -0.322617        -8.7789
 221   2.0000      -0.307959        -8.3800
 222   2.0000      -0.278487        -7.5780
 223   2.0000      -0.244404        -6.6506
 224   0.0000      -0.129357        -3.5200
 225   0.0000      -0.104332        -2.8390
 226   0.0000      -0.099221        -2.6999
 227   0.0000      -0.042081        -1.1451
 228   0.0000      -0.037946        -1.0326

MULLIKEN ATOMIC CHARGES
-----------------------
   0 O :   -0.173790
   1 C :    0.095005
   2 N :   -0.071094
   3 C :   -0.047269
   4 C :    0.133140
   5 C :    0.170258
   6 O :   -0.173906
   7 C :   -0.104633
   8 C :   -0.032774
   9 C :    0.011013
  10 C :   -0.100108
  11 S :    0.226039
  12 C :   -0.066886
  13 C :    0.038488
  14 C :    0.305143
  15 C :   -0.302785
  16 C :   -0.187243
  17 N :    0.172105
  18 C :   -0.197773
  19 N :    0.185774
  20 C :   -0.064903
  21 C :   -0.176690
  22 S :    0.206155
  23 C :    0.180337
  24 C :   -0.060241
  25 C :   -0.068861
  26 N :    0.003252
  27 C :    0.148056
  28 C :    0.154722
  29 N :   -0.058027
  30 F :   -0.132447
  31 F :   -0.127082
  32 C :    0.201145
  33 C :   -0.028156
  34 C :   -0.003792
  35 N :   -0.280793
  36 S :    0.571320
  37 N :   -0.340377
  38 C :   -0.179804
  39 C :   -0.063208
  40 C :    0.040707
  41 C :   -0.071250
  42 S :    0.206717
  43 C :   -0.096844
  44 C :    0.008882
  45 C :    0.304826
  46 C :   -0.300337
  47 C :   -0.196080
  48 N :    0.183351
  49 C :   -0.192318
  50 N :    0.179703
  51 C :   -0.033378
  52 C :   -0.104863
  53 S :    0.223147
  54 C :    0.096357
  55 N :   -0.071093
  56 C :   -0.045836
  57 C :    0.132200
  58 O :   -0.175377
  59 C :    0.169090
  60 O :   -0.174211
  61 H :    0.036501
  62 H :   -0.006420
  63 H :    0.025545
  64 H :    0.020218
  65 H :    0.023694
  66 H :    0.025709
  67 H :    0.037497
  68 H :   -0.005445
Sum of atomic charges:   -0.0000000

LOEWDIN ATOMIC CHARGES
----------------------
   0 O :    0.019509
   1 C :    0.025690
   2 N :   -0.094843
   3 C :   -0.104026
   4 C :    0.072190
   5 C :    0.105283
   6 O :   -0.129381
   7 C :   -0.197369
   8 C :    0.001476
   9 C :   -0.068060
  10 C :   -0.173651
  11 S :    0.496996
  12 C :   -0.185536
  13 C :   -0.072425
  14 C :    0.080384
  15 C :   -0.101100
  16 C :   -0.015430
  17 N :   -0.034081
  18 C :   -0.019895
  19 N :   -0.027816
  20 C :   -0.012068
  21 C :   -0.167305
  22 S :    0.511438
  23 C :   -0.041664
  24 C :   -0.016365
  25 C :   -0.007067
  26 N :   -0.027967
  27 C :    0.062138
  28 C :    0.065503
  29 N :   -0.059732
  30 F :   -0.022272
  31 F :   -0.016693
  32 C :   -0.045672
  33 C :   -0.047392
  34 C :   -0.038766
  35 N :   -0.269595
  36 S :    0.689964
  37 N :   -0.306953
  38 C :   -0.163854
  39 C :   -0.012824
  40 C :   -0.071655
  41 C :   -0.185509
  42 S :    0.512256
  43 C :   -0.174095
  44 C :   -0.067553
  45 C :    0.079118
  46 C :   -0.099146
  47 C :   -0.019282
  48 N :   -0.027785
  49 C :   -0.018003
  50 N :   -0.028652
  51 C :    0.001549
  52 C :   -0.197561
  53 S :    0.494376
  54 C :    0.026046
  55 N :   -0.094847
  56 C :   -0.103709
  57 C :    0.071668
  58 O :    0.019009
  59 C :    0.105336
  60 O :   -0.129553
  61 H :    0.036921
  62 H :    0.004017
  63 H :    0.049926
  64 H :    0.037415
  65 H :    0.037773
  66 H :    0.049921
  67 H :    0.036994
  68 H :    0.004260

  Mayer bond orders larger than 0.100000
B(  0-O ,  1-C ) :   1.2046 B(  0-O ,  4-C ) :   1.1565 B(  1-C ,  2-N ) :   1.7766
B(  1-C ,  7-C ) :   1.0470 B(  2-N ,  3-C ) :   1.2981 B(  3-C ,  4-C ) :   1.5161
B(  3-C ,  5-C ) :   0.9659 B(  4-C , 61-H ) :   0.9905 B(  5-C ,  6-O ) :   2.2071
B(  5-C , 62-H ) :   0.9523 B(  7-C ,  8-C ) :   1.4932 B(  7-C , 11-S ) :   1.1013
B(  8-C ,  9-C ) :   1.2702 B(  8-C , 63-H ) :   1.0071 B(  9-C , 10-C ) :   1.4297
B(  9-C , 14-C ) :   0.9871 B( 10-C , 11-S ) :   1.1296 B( 10-C , 12-C ) :   1.1954
B( 12-C , 13-C ) :   1.4107 B( 12-C , 22-S ) :   1.0897 B( 13-C , 14-C ) :   0.9916
B( 13-C , 20-C ) :   1.2765 B( 14-C , 15-C ) :   1.7160 B( 15-C , 16-C ) :   1.1404
B( 15-C , 18-C ) :   1.1334 B( 16-C , 17-N ) :   2.9859 B( 18-C , 19-N ) :   3.0023
B( 20-C , 21-C ) :   1.4248 B( 20-C , 64-H ) :   0.9810 B( 21-C , 22-S ) :   1.0883
B( 21-C , 23-C ) :   1.1872 B( 23-C , 24-C ) :   1.2948 B( 23-C , 32-C ) :   0.1262
B( 23-C , 34-C ) :   1.2026 B( 24-C , 25-C ) :   1.1154 B( 24-C , 29-N ) :   1.3708
B( 25-C , 26-N ) :   1.4338 B( 25-C , 32-C ) :   1.3017 B( 26-N , 27-C ) :   1.6616
B( 27-C , 28-C ) :   1.1027 B( 27-C , 31-F ) :   1.1873 B( 28-C , 29-N ) :   1.6539
B( 28-C , 30-F ) :   1.1922 B( 32-C , 33-C ) :   1.1904 B( 32-C , 38-C ) :   1.1750
B( 33-C , 34-C ) :   1.1138 B( 33-C , 37-N ) :   1.4665 B( 34-C , 35-N ) :   1.5070
B( 35-N , 36-S ) :   1.2904 B( 35-N , 37-N ) :   0.1514 B( 36-S , 37-N ) :   1.2698
B( 38-C , 39-C ) :   1.4162 B( 38-C , 42-S ) :   1.0992 B( 39-C , 40-C ) :   1.2714
B( 39-C , 65-H ) :   0.9876 B( 40-C , 41-C ) :   1.4086 B( 40-C , 45-C ) :   0.9921
B( 41-C , 42-S ) :   1.1015 B( 41-C , 43-C ) :   1.1924 B( 43-C , 44-C ) :   1.4321
B( 43-C , 53-S ) :   1.1274 B( 44-C , 45-C ) :   0.9879 B( 44-C , 51-C ) :   1.2682
B( 45-C , 46-C ) :   1.7175 B( 46-C , 47-C ) :   1.1330 B( 46-C , 49-C ) :   1.1393
B( 47-C , 48-N ) :   2.9999 B( 49-C , 50-N ) :   2.9902 B( 51-C , 52-C ) :   1.4929
B( 51-C , 66-H ) :   1.0078 B( 52-C , 53-S ) :   1.1005 B( 52-C , 54-C ) :   1.0477
B( 54-C , 55-N ) :   1.7759 B( 54-C , 58-O ) :   1.2048 B( 55-N , 56-C ) :   1.2976
B( 56-C , 57-C ) :   1.5156 B( 56-C , 59-C ) :   0.9655 B( 57-C , 58-O ) :   1.1547
B( 57-C , 67-H ) :   0.9909 B( 59-C , 60-O ) :   2.2064 B( 59-C , 68-H ) :   0.9526

-----------------------------------------------------------------------------
         ABSORPTION SPECTRUM VIA TRANSITION ELECTRIC DIPOLE MOMENTS
-----------------------------------------------------------------------------
State   Energy  Wavelength   fosc         T2         TX        TY        TZ
        (cm-1)    (nm)                  (au**2)     (au)      (au)      (au)
-----------------------------------------------------------------------------
   0    9951.2   1004.9   0.800170893  26.47165  -0.71829  -4.93728   1.25657
   1   13487.5    741.4   0.002062236   0.05034  -0.05039  -0.16897   0.13873
   2   14254.1    701.6   0.005544651   0.12806   0.06606   0.30009   0.18341
   3   18487.2    540.9   0.002201872   0.03921  -0.01565  -0.07876  -0.18100
   4   23242.8    430.2   0.025005118   0.35417   0.09697   0.57897   0.09781
   5   24481.4    408.5   0.009816700   0.13201  -0.00827   0.28184  -0.22915
   6   25738.0    388.5   0.357586311   4.57385  -0.30512  -2.01367   0.65261
   7   26337.9    379.7   0.014440490   0.18050   0.04013   0.39632   0.14772
   8   26702.9    374.5   0.098840563   1.21858  -0.05128   0.65623  -0.88618
   9   26917.6    371.5   0.026186672   0.32027   0.03226   0.13252  -0.54925
  10   28901.3    346.0   1.529096358  17.41779   0.61250   3.99644  -1.03494
  11   29750.1    336.1   0.119430495   1.32161  -0.14708   0.59290  -0.97388
  12   30487.1    328.0   0.001019675   0.01101   0.03705  -0.08370   0.05131
  13   30916.7    323.5   0.000372709   0.00397  -0.04790  -0.01054   0.03953
  14   31231.7    320.2   0.235998904   2.48765  -0.17803  -1.22942   0.97185
  15   31469.6    317.8   0.045750350   0.47861  -0.03174  -0.57374  -0.38525
  16   31686.5    315.6   0.070766904   0.73524   0.05481   0.48879   0.70237
  17   32211.9    310.4   0.701910159   7.17365  -0.44710  -0.76672  -2.52703
  18   32310.0    309.5   0.143034225   1.45740   0.00362   0.77449   0.92604
  19   32351.8    309.1   0.221824516   2.25728  -0.49506  -0.45534  -1.34345
  20   32782.4    305.0   0.186954083   1.87746  -0.04749   0.62163  -1.22016
  21   32838.7    304.5   0.082454151   0.82661   0.19535   0.88697  -0.04155
  22   34569.7    289.3   0.036106159   0.34384   0.02027  -0.03343   0.58508
  23   35475.9    281.9   0.035611954   0.33047  -0.04891   0.04103   0.57131
  24   35776.2    279.5   0.000017538   0.00016  -0.01025  -0.00486   0.00573
  25   35883.9    278.7   0.164306539   1.50741  -0.33484  -1.16137  -0.21566
  26   35914.3    278.4   0.003786207   0.03471   0.04401   0.17854   0.02991
  27   36080.1    277.2   0.095047291   0.86726   0.24851   0.11830   0.88966
  28   36324.4    275.3   0.753943310   6.83306   0.40863  -0.16210   2.57678
  29   37067.3    269.8   0.011282250   0.10020   0.03819   0.25703   0.18078
  30   37139.5    269.3   0.096416660   0.85466   0.18605  -0.02606   0.90519
  31   37301.9    268.1   0.112158870   0.98987  -0.20004  -0.97070   0.08717
  32   37576.3    266.1   0.092711227   0.81226  -0.01719  -0.61206   0.66132
  33   37899.2    263.9   0.009651665   0.08384  -0.14351  -0.18957   0.16525
  34   38148.5    262.1   0.004958625   0.04279  -0.13969  -0.02295  -0.15083
  35   38377.7    260.6   0.020720060   0.17774   0.05136  -0.00068   0.41845
  36   38649.0    258.7   0.042280990   0.36015   0.04550   0.15763   0.57726
  37   38891.9    257.1   0.037694861   0.31908  -0.02560   0.07663  -0.55906
  38   39906.3    250.6   0.009957425   0.08214  -0.04459  -0.28268   0.01568
  39   40145.9    249.1   0.328781913   2.69614   0.07567   1.17893  -1.14041

FINAL SINGLE POINT ENERGY     -4564.227308741581

DIPOLE MOMENT
-------------
                                X             Y             Z
Electronic contribution:      1.76828       1.34083       9.55441
Nuclear contribution   :     -1.52212      -1.58551     -10.01259
                        -----------------------------------------
Total Dipole Moment    :      0.24617      -0.24468      -0.45818
                        -----------------------------------------
Magnitude (a.u.)       :      0.57480
Magnitude (Debye)      :      1.46102

Rotational constants in cm-1:     0.003346     0.000336     0.000306
Rotational constants in MHz :   100.319411    10.078161     9.174338

                             ****ORCA TERMINATED NORMALLY****
TOTAL RUN TIME: 0 days 0 hours 6 minutes 15 seconds 200 msec
