                         Program Version 4.2.0 -  RELEASE  -
|  1> # ORCA input file
|  2> # SCF done       -152.290623923372          0.000505481722
|  3> ! CAM-B3LYP def2-SVP def2/J RIJCOSX Grid4 TightSCF
|  4> %maxcore 5000
|  5> %tddft
|  6>     Mode sTDDFT
|  7>     Ethresh 5.0
|  8>     maxcore 5000
|  9> end
| 10>
| 11> %pal
| 12>   nprocs 6
| 13>   end
| 14> * xyz 0 1
| 15>    O       -1.31360         1.10047        -3.12923
| 16>    C       -1.06123         1.37961        -1.82253
| 17>    N       -1.13626         0.33353        -1.05247
| 18>    C       -1.45637        -0.70582        -1.88327
| 19>    C       -1.56185        -0.21317        -3.16261
| 20>    C       -1.63396        -2.06879        -1.39726
| 21>    O       -1.91851        -3.01070        -2.09033
| 22>    C       -0.75405         2.70853        -1.41362
| 23>    C       -0.47844         3.12787        -0.12866
| 24>    C       -0.22281         4.49902        -0.08511
| 25>    C       -0.30827         5.11176        -1.35082
| 26>    S       -0.70080         4.00433        -2.58836
| 27>    C       -0.04043         6.49607        -1.21045
| 28>    C        0.21566         6.75782         0.15005
| 29>    C        0.11001         5.51455         0.89952
| 30>    C        0.28448         5.34690         2.24157
| 31>    C        0.60574         6.42123         3.09863
| 32>    N        0.86613         7.28453         3.80700
| 33>    C        0.15529         4.08956         2.86959
| 34>    N        0.05316         3.07412         3.39182
| 35>    C        0.48522         8.09601         0.40205
| 36>    C        0.43706         8.86543        -0.75380
| 37>    S        0.05230         7.90309        -2.17511
| 38>    C        0.63951        10.26627        -0.88595
| 39>    C        0.94994        11.13466         0.19435
| 40>    C        1.09699        12.54614        -0.01010
| 41>    N        1.37668        13.34958         1.03225
| 42>    C        1.51875        12.83360         2.22026
| 43>    C        1.38558        11.44475         2.41960
| 44>    N        1.10949        10.63578         1.43566
| 45>    C        0.95823        13.16925        -1.27382
| 46>    C        0.67838        12.30469        -2.35214
| 47>    C        0.52292        10.88570        -2.14805
| 48>    N        0.25312        10.25109        -3.29134
| 49>    S        0.20283        11.31739        -4.49087
| 50>    N        0.51471        12.63333        -3.63574
| 51>    C        1.08245        14.57531        -1.40759
| 52>    C        0.97123        15.31281        -2.57981
| 53>    C        1.12162        16.67377        -2.35123
| 54>    C        1.34845        16.97733        -0.99403
| 55>    S        1.38541        15.57932        -0.00231
| 56>    C        1.46938        18.38432        -0.87530
| 57>    C        1.32168        18.96822        -2.14891
| 58>    C        1.10175        17.90939        -3.11973
| 59>    C        0.91384        18.04002        -4.46402
| 60>    C        0.91402        19.29546        -5.10878
| 61>    N        0.91254        20.30922        -5.64409
| 62>    C        0.70547        16.92692        -5.30632
| 63>    N        0.53451        16.03148        -6.00186
| 64>    C        1.41453        20.35993        -2.12199
| 65>    C        1.62888        20.82443        -0.84058
| 66>    S        1.72243        19.54540         0.34960
| 67>    C        1.76054        22.18624        -0.44638
| 68>    N        1.70849        23.22405        -1.22944
| 69>    C        1.87650        24.30619        -0.40875
| 70>    C        2.02792        23.84680         0.87828
| 71>    O        1.95562        22.51161         0.85953
| 72>    C        1.87751        25.67493        -0.91023
| 73>    O        2.01958        26.65452        -0.22548
| 74>    H       -1.79138        -0.67583        -4.10011
| 75>    H       -1.47974        -2.15722        -0.30814
| 76>    H       -0.47261         2.45087         0.70518
| 77>    H        0.70783         8.52860         1.35936
| 78>    H        1.74336        13.51421         3.02879
| 79>    H        1.50786        10.99327         3.39406
| 80>    H        0.78666        14.84698        -3.53022
| 81>    H        1.33294        21.02163        -2.96411
| 82>    H        2.18075        24.34669         1.81229
| 83>    H        1.73441        25.72946        -2.00310
| 84> *
| 85>
| 86>                          ****END OF INPUT****

CARTESIAN COORDINATES (ANGSTROEM)
---------------------------------
  O     -1.313600    1.100470   -3.129230
  C     -1.061230    1.379610   -1.822530
  N     -1.136260    0.333530   -1.052470
  C     -1.456370   -0.705820   -1.883270
  C     -1.561850   -0.213170   -3.162610
  C     -1.633960   -2.068790   -1.397260
  O     -1.918510   -3.010700   -2.090330
  C     -0.754050    2.708530   -1.413620
  C     -0.478440    3.127870   -0.128660
  C     -0.222810    4.499020   -0.085110
  C     -0.308270    5.111760   -1.350820
  S     -0.700800    4.004330   -2.588360
  C     -0.040430    6.496070   -1.210450
  C      0.215660    6.757820    0.150050
  C      0.110010    5.514550    0.899520
  C      0.284480    5.346900    2.241570
  C      0.605740    6.421230    3.098630
  N      0.866130    7.284530    3.807000
  C      0.155290    4.089560    2.869590
  N      0.053160    3.074120    3.391820
  C      0.485220    8.096010    0.402050
  C      0.437060    8.865430   -0.753800
  S      0.052300    7.903090   -2.175110
  C      0.639510   10.266270   -0.885950
  C      0.949940   11.134660    0.194350
  C      1.096990   12.546140   -0.010100
  N      1.376680   13.349580    1.032250
  C      1.518750   12.833600    2.220260
  C      1.385580   11.444750    2.419600
  N      1.109490   10.635780    1.435660
  C      0.958230   13.169250   -1.273820
  C      0.678380   12.304690   -2.352140
  C      0.522920   10.885700   -2.148050
  N      0.253120   10.251090   -3.291340
  S      0.202830   11.317390   -4.490870
  N      0.514710   12.633330   -3.635740
  C      1.082450   14.575310   -1.407590
  C      0.971230   15.312810   -2.579810
  C      1.121620   16.673770   -2.351230
  C      1.348450   16.977330   -0.994030
  S      1.385410   15.579320   -0.002310
  C      1.469380   18.384320   -0.875300
  C      1.321680   18.968220   -2.148910
  C      1.101750   17.909390   -3.119730
  C      0.913840   18.040020   -4.464020
  C      0.914020   19.295460   -5.108780
  N      0.912540   20.309220   -5.644090
  C      0.705470   16.926920   -5.306320
  N      0.534510   16.031480   -6.001860
  C      1.414530   20.359930   -2.121990
  C      1.628880   20.824430   -0.840580
  S      1.722430   19.545400    0.349600
  C      1.760540   22.186240   -0.446380
  N      1.708490   23.224050   -1.229440
  C      1.876500   24.306190   -0.408750
  C      2.027920   23.846800    0.878280
  O      1.955620   22.511610    0.859530
  C      1.877510   25.674930   -0.910230
  O      2.019580   26.654520   -0.225480
  H     -1.791380   -0.675830   -4.100110
  H     -1.479740   -2.157220   -0.308140
  H     -0.472610    2.450870    0.705180
  H      0.707830    8.528600    1.359360
  H      1.743360   13.514210    3.028790
  H      1.507860   10.993270    3.394060
  H      0.786660   14.846980   -3.530220
  H      1.332940   21.021630   -2.964110
  H      2.180750   24.346690    1.812290
  H      1.734410   25.729460   -2.003100

 Total Charge           Charge          ....    0
 Multiplicity           Mult            ....    1
 Number of Electrons    NEL             ....  432
 Basis Dimension        Dim             ....  896

ORBITAL ENERGIES
----------------

  NO   OCC          E(Eh)            E(eV)
   0   2.0000     -89.052502     -2423.2418
   1   2.0000     -88.996246     -2421.7110
   2   2.0000     -88.995611     -2421.6937
   3   2.0000     -88.984606     -2421.3942
   4   2.0000     -88.983374     -2421.3607
   5   2.0000     -19.326227      -525.8934
   6   2.0000     -19.325959      -525.8861
   7   2.0000     -19.214855      -522.8628
   8   2.0000     -19.214693      -522.8584
   9   2.0000     -14.460423      -393.4881
  10   2.0000     -14.460233      -393.4830
  11   2.0000     -14.454068      -393.3152
  12   2.0000     -14.447199      -393.1283
  13   2.0000     -14.430511      -392.6742
  14   2.0000     -14.428709      -392.6251
  15   2.0000     -14.428372      -392.6160
  16   2.0000     -14.427722      -392.5983
  17   2.0000     -14.422499      -392.4562
  18   2.0000     -14.422226      -392.4487
  19   2.0000     -10.385019      -282.5907
  20   2.0000     -10.384794      -282.5846
  21   2.0000     -10.363667      -282.0097
  22   2.0000     -10.362557      -281.9795
  23   2.0000     -10.359613      -281.8994
  24   2.0000     -10.359437      -281.8946
  25   2.0000     -10.354409      -281.7578
  26   2.0000     -10.354211      -281.7524
  27   2.0000     -10.351260      -281.6721
  28   2.0000     -10.349966      -281.6369
  29   2.0000     -10.347753      -281.5767
  30   2.0000     -10.347351      -281.5657
  31   2.0000     -10.346545      -281.5438
  32   2.0000     -10.345228      -281.5080
  33   2.0000     -10.343143      -281.4512
  34   2.0000     -10.342637      -281.4374
  35   2.0000     -10.336909      -281.2816
  36   2.0000     -10.335462      -281.2422
  37   2.0000     -10.331127      -281.1243
  38   2.0000     -10.329840      -281.0892
  39   2.0000     -10.329416      -281.0777
  40   2.0000     -10.328822      -281.0615
  41   2.0000     -10.328819      -281.0615
  42   2.0000     -10.327849      -281.0351
  43   2.0000     -10.325487      -280.9708
  44   2.0000     -10.324301      -280.9385
  45   2.0000     -10.322282      -280.8836
  46   2.0000     -10.321567      -280.8641
  47   2.0000     -10.321417      -280.8600
  48   2.0000     -10.320801      -280.8433
  49   2.0000     -10.311302      -280.5848
  50   2.0000     -10.311075      -280.5786
  51   2.0000     -10.307069      -280.4696
  52   2.0000     -10.306379      -280.4508
  53   2.0000     -10.305931      -280.4386
  54   2.0000     -10.305108      -280.4162
  55   2.0000     -10.299026      -280.2507
  56   2.0000     -10.298048      -280.2241
  57   2.0000     -10.294992      -280.1410
  58   2.0000     -10.292784      -280.0809
  59   2.0000      -8.143371      -221.5924
  60   2.0000      -8.090709      -220.1594
  61   2.0000      -8.090003      -220.1402
  62   2.0000      -8.077715      -219.8058
  63   2.0000      -8.075347      -219.7414
  64   2.0000      -6.114455      -166.3828
  65   2.0000      -6.106642      -166.1702
  66   2.0000      -6.106238      -166.1592
  67   2.0000      -6.059885      -164.8978
  68   2.0000      -6.059176      -164.8786
  69   2.0000      -6.055741      -164.7851
  70   2.0000      -6.055023      -164.7656
  71   2.0000      -6.053186      -164.7156
  72   2.0000      -6.052527      -164.6976
  73   2.0000      -6.047128      -164.5507
  74   2.0000      -6.044995      -164.4927
  75   2.0000      -6.042551      -164.4262
  76   2.0000      -6.040172      -164.3614
  77   2.0000      -6.040071      -164.3587
  78   2.0000      -6.037856      -164.2984
  79   2.0000      -1.254355       -34.1327
  80   2.0000      -1.254118       -34.1263
  81   2.0000      -1.149025       -31.2666
  82   2.0000      -1.128387       -30.7050
  83   2.0000      -1.128192       -30.6997
  84   2.0000      -1.108466       -30.1629
  85   2.0000      -1.045039       -28.4369
  86   2.0000      -1.043628       -28.3986
  87   2.0000      -1.034047       -28.1378
  88   2.0000      -1.032268       -28.0894
  89   2.0000      -1.031694       -28.0738
  90   2.0000      -1.021377       -27.7931
  91   2.0000      -1.019744       -27.7486
  92   2.0000      -1.008019       -27.4296
  93   2.0000      -1.006658       -27.3926
  94   2.0000      -1.005516       -27.3615
  95   2.0000      -1.000058       -27.2130
  96   2.0000      -0.992132       -26.9973
  97   2.0000      -0.976937       -26.5838
  98   2.0000      -0.958254       -26.0754
  99   2.0000      -0.952862       -25.9287
 100   2.0000      -0.921783       -25.0830
 101   2.0000      -0.917263       -24.9600
 102   2.0000      -0.896785       -24.4028
 103   2.0000      -0.891647       -24.2630
 104   2.0000      -0.886559       -24.1245
 105   2.0000      -0.878636       -23.9089
 106   2.0000      -0.867080       -23.5945
 107   2.0000      -0.859835       -23.3973
 108   2.0000      -0.852512       -23.1980
 109   2.0000      -0.851167       -23.1614
 110   2.0000      -0.822853       -22.3910
 111   2.0000      -0.803498       -21.8643
 112   2.0000      -0.796702       -21.6794
 113   2.0000      -0.788205       -21.4482
 114   2.0000      -0.781463       -21.2647
 115   2.0000      -0.772352       -21.0168
 116   2.0000      -0.769984       -20.9523
 117   2.0000      -0.763510       -20.7762
 118   2.0000      -0.759293       -20.6614
 119   2.0000      -0.731273       -19.8989
 120   2.0000      -0.723532       -19.6883
 121   2.0000      -0.712375       -19.3847
 122   2.0000      -0.704279       -19.1644
 123   2.0000      -0.700901       -19.0725
 124   2.0000      -0.700357       -19.0577
 125   2.0000      -0.684594       -18.6288
 126   2.0000      -0.683570       -18.6009
 127   2.0000      -0.680615       -18.5205
 128   2.0000      -0.674916       -18.3654
 129   2.0000      -0.656365       -17.8606
 130   2.0000      -0.651035       -17.7156
 131   2.0000      -0.648117       -17.6361
 132   2.0000      -0.632213       -17.2034
 133   2.0000      -0.629818       -17.1382
 134   2.0000      -0.626517       -17.0484
 135   2.0000      -0.622330       -16.9344
 136   2.0000      -0.619014       -16.8442
 137   2.0000      -0.613204       -16.6861
 138   2.0000      -0.608795       -16.5661
 139   2.0000      -0.607077       -16.5194
 140   2.0000      -0.602288       -16.3891
 141   2.0000      -0.595745       -16.2110
 142   2.0000      -0.595498       -16.2043
 143   2.0000      -0.580321       -15.7913
 144   2.0000      -0.578340       -15.7374
 145   2.0000      -0.576872       -15.6975
 146   2.0000      -0.575208       -15.6522
 147   2.0000      -0.569317       -15.4919
 148   2.0000      -0.562884       -15.3169
 149   2.0000      -0.559243       -15.2178
 150   2.0000      -0.547384       -14.8951
 151   2.0000      -0.545922       -14.8553
 152   2.0000      -0.545740       -14.8503
 153   2.0000      -0.543274       -14.7832
 154   2.0000      -0.539342       -14.6762
 155   2.0000      -0.527972       -14.3668
 156   2.0000      -0.523285       -14.2393
 157   2.0000      -0.513818       -13.9817
 158   2.0000      -0.513329       -13.9684
 159   2.0000      -0.506227       -13.7751
 160   2.0000      -0.504999       -13.7417
 161   2.0000      -0.502924       -13.6852
 162   2.0000      -0.498540       -13.5659
 163   2.0000      -0.497305       -13.5323
 164   2.0000      -0.496470       -13.5096
 165   2.0000      -0.495297       -13.4777
 166   2.0000      -0.494806       -13.4643
 167   2.0000      -0.493688       -13.4339
 168   2.0000      -0.491611       -13.3774
 169   2.0000      -0.487576       -13.2676
 170   2.0000      -0.486058       -13.2263
 171   2.0000      -0.483303       -13.1513
 172   2.0000      -0.481621       -13.1056
 173   2.0000      -0.475816       -12.9476
 174   2.0000      -0.473401       -12.8819
 175   2.0000      -0.463410       -12.6100
 176   2.0000      -0.461850       -12.5676
 177   2.0000      -0.459611       -12.5066
 178   2.0000      -0.457634       -12.4529
 179   2.0000      -0.457367       -12.4456
 180   2.0000      -0.455807       -12.4031
 181   2.0000      -0.452786       -12.3209
 182   2.0000      -0.448742       -12.2109
 183   2.0000      -0.448324       -12.1995
 184   2.0000      -0.447577       -12.1792
 185   2.0000      -0.439816       -11.9680
 186   2.0000      -0.438381       -11.9290
 187   2.0000      -0.438283       -11.9263
 188   2.0000      -0.436959       -11.8903
 189   2.0000      -0.430437       -11.7128
 190   2.0000      -0.426853       -11.6153
 191   2.0000      -0.425274       -11.5723
 192   2.0000      -0.420807       -11.4507
 193   2.0000      -0.419755       -11.4221
 194   2.0000      -0.411171       -11.1885
 195   2.0000      -0.407049       -11.0764
 196   2.0000      -0.406757       -11.0684
 197   2.0000      -0.388557       -10.5732
 198   2.0000      -0.386360       -10.5134
 199   2.0000      -0.386092       -10.5061
 200   2.0000      -0.384826       -10.4716
 201   2.0000      -0.380256       -10.3473
 202   2.0000      -0.377979       -10.2853
 203   2.0000      -0.356534        -9.7018
 204   2.0000      -0.353440        -9.6176
 205   2.0000      -0.347146        -9.4463
 206   2.0000      -0.345955        -9.4139
 207   2.0000      -0.339211        -9.2304
 208   2.0000      -0.335836        -9.1386
 209   2.0000      -0.335681        -9.1344
 210   2.0000      -0.334787        -9.1100
 211   2.0000      -0.321125        -8.7383
 212   2.0000      -0.319852        -8.7036
 213   2.0000      -0.304517        -8.2863
 214   2.0000      -0.275716        -7.5026
 215   2.0000      -0.239308        -6.5119
 216   0.0000      -0.126610        -3.4452
 217   0.0000      -0.101850        -2.7715
 218   0.0000      -0.096140        -2.6161
 219   0.0000      -0.038616        -1.0508
 220   0.0000      -0.035385        -0.9629

MULLIKEN ATOMIC CHARGES
-----------------------
   0 O :   -0.174879
   1 C :    0.093900
   2 N :   -0.073662
   3 C :   -0.044624
   4 C :    0.133315
   5 C :    0.170886
   6 O :   -0.175935
   7 C :   -0.103803
   8 C :   -0.036064
   9 C :    0.005835
  10 C :   -0.097214
  11 S :    0.222651
  12 C :   -0.069904
  13 C :    0.047221
  14 C :    0.308714
  15 C :   -0.305001
  16 C :   -0.183461
  17 N :    0.166923
  18 C :   -0.196064
  19 N :    0.180683
  20 C :   -0.070107
  21 C :   -0.183593
  22 S :    0.205451
  23 C :    0.197893
  24 C :   -0.069550
  25 C :   -0.043463
  26 N :   -0.093918
  27 C :    0.052351
  28 C :    0.039480
  29 N :   -0.019866
  30 C :    0.167341
  31 C :   -0.001973
  32 C :   -0.023593
  33 N :   -0.342054
  34 S :    0.569679
  35 N :   -0.278345
  36 C :   -0.169840
  37 C :   -0.067487
  38 C :    0.036274
  39 C :   -0.063558
  40 S :    0.199310
  41 C :   -0.101861
  42 C :    0.008358
  43 C :    0.305595
  44 C :   -0.300944
  45 C :   -0.196719
  46 N :    0.179721
  47 C :   -0.186508
  48 N :    0.170610
  49 C :   -0.036036
  50 C :   -0.103660
  51 S :    0.220190
  52 C :    0.095037
  53 N :   -0.072992
  54 C :   -0.046172
  55 C :    0.133264
  56 O :   -0.175852
  57 C :    0.170695
  58 O :   -0.175770
  59 H :    0.035848
  60 H :   -0.006460
  61 H :    0.026543
  62 H :    0.018715
  63 H :    0.022244
  64 H :    0.033263
  65 H :    0.017423
  66 H :    0.025963
  67 H :    0.035804
  68 H :   -0.006247
Sum of atomic charges:    0.0000000

LOEWDIN ATOMIC CHARGES
----------------------
   0 O :    0.018863
   1 C :    0.026274
   2 N :   -0.096128
   3 C :   -0.103610
   4 C :    0.071337
   5 C :    0.105462
   6 O :   -0.130525
   7 C :   -0.199419
   8 C :    0.001736
   9 C :   -0.070345
  10 C :   -0.171474
  11 S :    0.493823
  12 C :   -0.188349
  13 C :   -0.072465
  14 C :    0.081849
  15 C :   -0.102955
  16 C :   -0.012975
  17 N :   -0.038639
  18 C :   -0.019666
  19 N :   -0.029493
  20 C :   -0.013792
  21 C :   -0.161025
  22 S :    0.510204
  23 C :   -0.045694
  24 C :   -0.006621
  25 C :   -0.016084
  26 N :   -0.050678
  27 C :    0.023455
  28 C :    0.021952
  29 N :   -0.017588
  30 C :   -0.041108
  31 C :   -0.039866
  32 C :   -0.047750
  33 N :   -0.308669
  34 S :    0.689601
  35 N :   -0.271271
  36 C :   -0.164066
  37 C :   -0.013175
  38 C :   -0.072989
  39 C :   -0.188930
  40 S :    0.507224
  41 C :   -0.172242
  42 C :   -0.069551
  43 C :    0.080896
  44 C :   -0.102387
  45 C :   -0.019508
  46 N :   -0.029867
  47 C :   -0.015706
  48 N :   -0.034650
  49 C :    0.001712
  50 C :   -0.199460
  51 S :    0.492444
  52 C :    0.026588
  53 N :   -0.095995
  54 C :   -0.103841
  55 C :    0.071098
  56 O :    0.018507
  57 C :    0.105378
  58 O :   -0.130636
  59 H :    0.036582
  60 H :    0.004013
  61 H :    0.049824
  62 H :    0.035806
  63 H :    0.031504
  64 H :    0.035543
  65 H :    0.037260
  66 H :    0.049690
  67 H :    0.036491
  68 H :    0.004076

  Mayer bond orders larger than 0.100000
B(  0-O ,  1-C ) :   1.2060 B(  0-O ,  4-C ) :   1.1538 B(  1-C ,  2-N ) :   1.7767
B(  1-C ,  7-C ) :   1.0473 B(  2-N ,  3-C ) :   1.2953 B(  3-C ,  4-C ) :   1.5182
B(  3-C ,  5-C ) :   0.9671 B(  4-C , 59-H ) :   0.9902 B(  5-C ,  6-O ) :   2.2041
B(  5-C , 60-H ) :   0.9524 B(  7-C ,  8-C ) :   1.4928 B(  7-C , 11-S ) :   1.0989
B(  8-C ,  9-C ) :   1.2673 B(  8-C , 61-H ) :   1.0082 B(  9-C , 10-C ) :   1.4295
B(  9-C , 14-C ) :   0.9871 B( 10-C , 11-S ) :   1.1292 B( 10-C , 12-C ) :   1.1927
B( 12-C , 13-C ) :   1.4063 B( 12-C , 22-S ) :   1.0974 B( 13-C , 14-C ) :   0.9963
B( 13-C , 20-C ) :   1.2573 B( 14-C , 15-C ) :   1.7139 B( 15-C , 16-C ) :   1.1406
B( 15-C , 18-C ) :   1.1307 B( 16-C , 17-N ) :   2.9868 B( 18-C , 19-N ) :   3.0008
B( 20-C , 21-C ) :   1.4158 B( 20-C , 62-H ) :   0.9810 B( 21-C , 22-S ) :   1.0993
B( 21-C , 23-C ) :   1.1864 B( 23-C , 24-C ) :   1.2731 B( 23-C , 30-C ) :   0.1329
B( 23-C , 32-C ) :   1.1998 B( 24-C , 25-C ) :   1.1275 B( 24-C , 29-N ) :   1.4668
B( 25-C , 26-N ) :   1.3873 B( 25-C , 30-C ) :   1.2700 B( 26-N , 27-C ) :   1.6539
B( 27-C , 28-C ) :   1.1908 B( 27-C , 63-H ) :   0.9730 B( 28-C , 29-N ) :   1.6704
B( 28-C , 64-H ) :   0.9756 B( 30-C , 31-C ) :   1.2113 B( 30-C , 36-C ) :   1.1985
B( 31-C , 32-C ) :   1.1102 B( 31-C , 35-N ) :   1.5042 B( 32-C , 33-N ) :   1.4579
B( 33-N , 34-S ) :   1.2734 B( 33-N , 35-N ) :   0.1541 B( 34-S , 35-N ) :   1.2920
B( 36-C , 37-C ) :   1.4201 B( 36-C , 40-S ) :   1.0894 B( 37-C , 38-C ) :   1.2750
B( 37-C , 65-H ) :   0.9833 B( 38-C , 39-C ) :   1.4114 B( 38-C , 43-C ) :   0.9935
B( 39-C , 40-S ) :   1.0702 B( 39-C , 41-C ) :   1.1983 B( 41-C , 42-C ) :   1.4274
B( 41-C , 51-S ) :   1.1282 B( 42-C , 43-C ) :   0.9870 B( 42-C , 49-C ) :   1.2700
B( 43-C , 44-C ) :   1.7139 B( 44-C , 45-C ) :   1.1312 B( 44-C , 47-C ) :   1.1393
B( 45-C , 46-N ) :   3.0006 B( 47-C , 48-N ) :   2.9856 B( 49-C , 50-C ) :   1.4895
B( 49-C , 66-H ) :   1.0082 B( 50-C , 51-S ) :   1.0986 B( 50-C , 52-C ) :   1.0493
B( 52-C , 53-N ) :   1.7757 B( 52-C , 56-O ) :   1.2044 B( 53-N , 54-C ) :   1.2964
B( 54-C , 55-C ) :   1.5182 B( 54-C , 57-C ) :   0.9672 B( 55-C , 56-O ) :   1.1537
B( 55-C , 67-H ) :   0.9900 B( 57-C , 58-O ) :   2.2045 B( 57-C , 68-H ) :   0.9525

-----------------------------------------------------------------------------
         ABSORPTION SPECTRUM VIA TRANSITION ELECTRIC DIPOLE MOMENTS
-----------------------------------------------------------------------------
State   Energy  Wavelength   fosc         T2         TX        TY        TZ
        (cm-1)    (nm)                  (au**2)     (au)      (au)      (au)
-----------------------------------------------------------------------------
   0    9502.2   1052.4   0.772909330  26.77807  -0.60310  -5.13004   0.31142
   1   12994.6    769.6   0.000510204   0.01293   0.09413   0.02446   0.05888
   2   13860.4    721.5   0.007713728   0.18322   0.02329   0.35265  -0.24148
   3   18364.6    544.5   0.001339548   0.02401   0.12759  -0.07144   0.05128
   4   22867.7    437.3   0.027049976   0.38942   0.04629   0.56522  -0.26039
   5   23639.2    423.0   0.001670879   0.02327   0.13954  -0.00443  -0.06148
   6   24312.5    411.3   0.003182733   0.04310  -0.10425  -0.14922  -0.09982
   7   25784.7    387.8   0.336001740   4.28998   0.24803   2.05629  -0.01118
   8   26356.3    379.4   0.097235545   1.21455  -0.19383  -0.96937  -0.48715
   9   26623.3    375.6   0.045004397   0.55650   0.13742   0.23241   0.69542
  10   27152.1    368.3   0.006796855   0.08241  -0.06113  -0.19938  -0.19728
  11   28538.0    350.4   1.520957339  17.54566   0.51550   4.15418  -0.15064
  12   29703.3    336.7   0.087956076   0.97485  -0.04727  -0.84560  -0.50752
  13   30395.8    329.0   0.004131741   0.04475  -0.05382  -0.05927  -0.19581
  14   31123.9    321.3   0.212866320   2.25159  -0.33617  -1.36316  -0.52952
  15   31354.6    318.9   0.105939459   1.11232  -0.06723   0.86672  -0.59716
  16   31479.4    317.7   0.001496895   0.01565  -0.03051   0.09636  -0.07374
  17   32067.2    311.8   0.864128566   8.87143  -0.33592   0.43077  -2.92797
  18   32142.9    311.1   0.043246572   0.44294  -0.12691   0.42956  -0.49225
  19   32270.8    309.9   0.019098340   0.19483  -0.08379   0.21914  -0.37388
  20   32590.3    306.8   0.251429497   2.53982   0.40690   0.71776   1.36348
  21   32799.4    304.9   0.119824360   1.20269   0.13690   0.97990   0.47302
  22   34257.1    291.9   0.003789035   0.03641  -0.14984  -0.00964   0.11777
  23   34406.7    290.6   0.023432109   0.22420   0.08553   0.13105   0.44689
  24   35567.1    281.2   0.007343375   0.06797  -0.11654  -0.08435  -0.21743
  25   35677.5    280.3   0.110703264   1.02151   0.01896  -0.82892   0.57797
  26   35761.2    279.6   0.005278401   0.04859  -0.06069  -0.17733   0.11602
  27   35934.3    278.3   0.021051236   0.19286  -0.00638  -0.02876  -0.43817
  28   36001.6    277.8   0.051652249   0.47233   0.01097  -0.45825   0.51207
  29   36106.5    277.0   0.000004514   0.00004  -0.00244  -0.00463   0.00371
  30   36122.7    276.8   0.000199264   0.00182  -0.00685  -0.01098  -0.04060
  31   36169.4    276.5   0.663537977   6.03949  -0.43862  -0.61944  -2.33739
  32   36528.5    273.8   0.122241378   1.10170   0.11468   0.03234   1.04283
  33   36848.1    271.4   0.193485305   1.72866  -0.20715  -1.20809  -0.47568
  34   37454.9    267.0   0.114765838   1.00874  -0.18875  -0.58110  -0.79714
  35   37688.4    265.3   0.000533238   0.00466  -0.05496  -0.03194   0.02485
  36   38265.7    261.3   0.008443525   0.07264  -0.00366  -0.04889  -0.26503
  37   38335.7    260.9   0.025190248   0.21632   0.06819  -0.06553   0.45539
  38   38551.0    259.4   0.115857003   0.98938  -0.27554  -0.26224  -0.91907
  39   38741.7    258.1   0.006587582   0.05598  -0.03562  -0.06060  -0.22591
  40   39923.1    250.5   0.340957633   2.81159  -0.27289  -1.52678  -0.63722

FINAL SINGLE POINT ENERGY     -4365.934580955713

DIPOLE MOMENT
-------------
                                X             Y             Z
Electronic contribution:     -0.33663      -1.13351      -7.84996
Nuclear contribution   :      0.58897       1.14884       8.29104
                        -----------------------------------------
Total Dipole Moment    :      0.25234       0.01532       0.44107
                        -----------------------------------------
Magnitude (a.u.)       :      0.50839
Magnitude (Debye)      :      1.29222

Rotational constants in cm-1:     0.003943     0.000338     0.000311
Rotational constants in MHz :   118.219611    10.120446     9.336512

                             ****ORCA TERMINATED NORMALLY****
TOTAL RUN TIME: 0 days 0 hours 12 minutes 18 seconds 83 msec
