                         Program Version 4.2.0 -  RELEASE  -
|  1> # ORCA input file
|  2> # SCF done       -188.414868524703          0.000294140817
|  3> ! CAM-B3LYP def2-SVP def2/J RIJCOSX Grid4 TightSCF
|  4> %maxcore 5000
|  5> %tddft
|  6>     Mode sTDDFT
|  7>     Ethresh 5.0
|  8>     maxcore 5000
|  9> end
| 10>
| 11> %pal
| 12>   nprocs 6
| 13>   end
| 14> * xyz 0 1
| 15>    C        0.46190        -2.92506        -0.12158
| 16>    S        0.11399        -3.17436         1.52991
| 17>    C       -1.38146        -3.97748         1.15566
| 18>    C       -1.56807        -4.03877        -0.22554
| 19>    C       -0.51591        -3.42788        -0.93945
| 20>    O       -0.41408        -3.31335        -2.28873
| 21>    C       -1.32121        -3.78588        -3.16514
| 22>    O       -1.13548        -3.61596        -4.33466
| 23>    C       -2.57161        -4.53021        -2.69575
| 24>    O       -3.34503        -4.95452        -3.50774
| 25>    S       -2.93890        -4.81003        -0.96069
| 26>    C       -2.29909        -4.59257         2.04083
| 27>    N       -3.31682        -5.21893         1.44958
| 28>    C       -3.98145        -5.87583         2.41664
| 29>    C       -3.33415        -5.66506         3.71053
| 30>    C       -4.04108        -6.39614         4.77679
| 31>    O       -3.77089        -6.45353         5.95558
| 32>    C       -5.14824        -7.03479         4.03819
| 33>    C       -5.07370        -6.69192         2.60157
| 34>    N       -6.09615        -7.25841         1.91988
| 35>    C       -6.78997        -7.91100         2.82233
| 36>    C       -6.25841        -7.80674         4.16615
| 37>    C       -2.28496        -4.80436         3.50197
| 38>    C       -1.41796        -4.28887         4.51431
| 39>    C       -0.80375        -3.09178         4.47072
| 40>    C        0.10527        -2.55495         5.45026
| 41>    C        0.84354        -1.44158         5.10252
| 42>    C        1.80761        -0.91804         5.98397
| 43>    C        2.70879         0.13776         5.85454
| 44>    C        2.93237         0.99360         4.65243
| 45>    C        3.42926         0.13162         3.47149
| 46>    N        3.46596         0.90976         2.24790
| 47>    C        1.68142         1.79961         4.25953
| 48>    N        1.60911         3.02220         5.05818
| 49>    C        3.45760         0.19931         7.08957
| 50>    C        4.41870         1.04679         7.51284
| 51>    C        5.04867         0.89087         8.85263
| 52>    C        4.59485        -0.30628         9.63381
| 53>    C        3.59313        -1.10543         9.21595
| 54>    C        2.98752        -0.88828         7.95970
| 55>    C        1.97955        -1.55159         7.28222
| 56>    C        1.18294        -2.66459         7.63066
| 57>    C        0.28403        -3.15395         6.73762
| 58>    C        4.74339         2.02410         9.79648
| 59>    C        3.77340         2.92547         9.59604
| 60>    C        3.45424         3.96337        10.52536
| 61>    N        3.80998         3.94350        11.79886
| 62>    C        3.29525         5.06679        12.34239
| 63>    C        2.57189         5.86682        11.33900
| 64>    C        2.02576         7.09212        11.94133
| 65>    O        1.38151         7.96874        11.40526
| 66>    C        2.45878         6.97599        13.34517
| 67>    C        3.22773         5.72780        13.54518
| 68>    N        3.63714         5.62078        14.83215
| 69>    C        3.18400         6.69828        15.42698
| 70>    C        2.44343         7.58813        14.55760
| 71>    C        2.67919         5.17608        10.16245
| 72>    C        2.30004         5.47190         8.82721
| 73>    C        1.63963         6.56988         8.39715
| 74>    C        1.39650         6.79099         7.00657
| 75>    S        0.26512         7.98484         6.45133
| 76>    C        0.53015         7.57443         4.80941
| 77>    C        1.45541         6.57732         4.67593
| 78>    C        1.95740         6.13603         5.91735
| 79>    O        2.94058         5.20855         6.08267
| 80>    C        3.47989         4.45411         5.11217
| 81>    O        4.37529         3.70476         5.42083
| 82>    C        3.12985         4.63402         3.65172
| 83>    O        3.64949         3.95812         2.80678
| 84>    S        1.96683         5.87837         3.14159
| 85>    H        1.35387        -2.41579        -0.42568
| 86>    H       -7.66792        -8.46356         2.53637
| 87>    H       -6.67999        -8.26127         5.04075
| 88>    H       -1.34092        -4.92136         5.38817
| 89>    H       -0.98348        -2.44892         3.61926
| 90>    H        0.69677        -0.99742         4.12910
| 91>    H        3.71812         1.72130         4.86702
| 92>    H        2.75073        -0.71062         3.30533
| 93>    H        4.40868        -0.28541         3.76219
| 94>    H        3.94286         0.39261         1.51796
| 95>    H        3.97084         1.77951         2.39324
| 96>    H        0.77640         1.19237         4.38078
| 97>    H        1.77461         2.08471         3.20966
| 98>    H        1.59380         2.78708         6.04673
| 99>    H        0.76003         3.53493         4.83885
|100>    H        4.75723         1.87699         6.90626
|101>    H        6.13892         0.85238         8.71354
|102>    H        5.08105        -0.46801        10.58275
|103>    H        3.26693        -1.93933         9.81996
|104>    H        1.30054        -3.11897         8.60305
|105>    H       -0.32659        -4.00221         7.00216
|106>    H        5.31837         2.06172        10.71028
|107>    H        3.21059         2.90419         8.67358
|108>    H        3.37368         6.86006        16.47395
|109>    H        1.99660         8.51758        14.85051
|110>    H        2.62097         4.74963         8.09563
|111>    H        1.26775         7.30677         9.09597
|112>    H        0.00260         8.07977         4.02708
|113> *
|114>
|115>                          ****END OF INPUT****

CARTESIAN COORDINATES (ANGSTROEM)
---------------------------------
  C      0.461900   -2.925060   -0.121580
  S      0.113990   -3.174360    1.529910
  C     -1.381460   -3.977480    1.155660
  C     -1.568070   -4.038770   -0.225540
  C     -0.515910   -3.427880   -0.939450
  O     -0.414080   -3.313350   -2.288730
  C     -1.321210   -3.785880   -3.165140
  O     -1.135480   -3.615960   -4.334660
  C     -2.571610   -4.530210   -2.695750
  O     -3.345030   -4.954520   -3.507740
  S     -2.938900   -4.810030   -0.960690
  C     -2.299090   -4.592570    2.040830
  N     -3.316820   -5.218930    1.449580
  C     -3.981450   -5.875830    2.416640
  C     -3.334150   -5.665060    3.710530
  C     -4.041080   -6.396140    4.776790
  O     -3.770890   -6.453530    5.955580
  C     -5.148240   -7.034790    4.038190
  C     -5.073700   -6.691920    2.601570
  N     -6.096150   -7.258410    1.919880
  C     -6.789970   -7.911000    2.822330
  C     -6.258410   -7.806740    4.166150
  C     -2.284960   -4.804360    3.501970
  C     -1.417960   -4.288870    4.514310
  C     -0.803750   -3.091780    4.470720
  C      0.105270   -2.554950    5.450260
  C      0.843540   -1.441580    5.102520
  C      1.807610   -0.918040    5.983970
  C      2.708790    0.137760    5.854540
  C      2.932370    0.993600    4.652430
  C      3.429260    0.131620    3.471490
  N      3.465960    0.909760    2.247900
  C      1.681420    1.799610    4.259530
  N      1.609110    3.022200    5.058180
  C      3.457600    0.199310    7.089570
  C      4.418700    1.046790    7.512840
  C      5.048670    0.890870    8.852630
  C      4.594850   -0.306280    9.633810
  C      3.593130   -1.105430    9.215950
  C      2.987520   -0.888280    7.959700
  C      1.979550   -1.551590    7.282220
  C      1.182940   -2.664590    7.630660
  C      0.284030   -3.153950    6.737620
  C      4.743390    2.024100    9.796480
  C      3.773400    2.925470    9.596040
  C      3.454240    3.963370   10.525360
  N      3.809980    3.943500   11.798860
  C      3.295250    5.066790   12.342390
  C      2.571890    5.866820   11.339000
  C      2.025760    7.092120   11.941330
  O      1.381510    7.968740   11.405260
  C      2.458780    6.975990   13.345170
  C      3.227730    5.727800   13.545180
  N      3.637140    5.620780   14.832150
  C      3.184000    6.698280   15.426980
  C      2.443430    7.588130   14.557600
  C      2.679190    5.176080   10.162450
  C      2.300040    5.471900    8.827210
  C      1.639630    6.569880    8.397150
  C      1.396500    6.790990    7.006570
  S      0.265120    7.984840    6.451330
  C      0.530150    7.574430    4.809410
  C      1.455410    6.577320    4.675930
  C      1.957400    6.136030    5.917350
  O      2.940580    5.208550    6.082670
  C      3.479890    4.454110    5.112170
  O      4.375290    3.704760    5.420830
  C      3.129850    4.634020    3.651720
  O      3.649490    3.958120    2.806780
  S      1.966830    5.878370    3.141590
  H      1.353870   -2.415790   -0.425680
  H     -7.667920   -8.463560    2.536370
  H     -6.679990   -8.261270    5.040750
  H     -1.340920   -4.921360    5.388170
  H     -0.983480   -2.448920    3.619260
  H      0.696770   -0.997420    4.129100
  H      3.718120    1.721300    4.867020
  H      2.750730   -0.710620    3.305330
  H      4.408680   -0.285410    3.762190
  H      3.942860    0.392610    1.517960
  H      3.970840    1.779510    2.393240
  H      0.776400    1.192370    4.380780
  H      1.774610    2.084710    3.209660
  H      1.593800    2.787080    6.046730
  H      0.760030    3.534930    4.838850
  H      4.757230    1.876990    6.906260
  H      6.138920    0.852380    8.713540
  H      5.081050   -0.468010   10.582750
  H      3.266930   -1.939330    9.819960
  H      1.300540   -3.118970    8.603050
  H     -0.326590   -4.002210    7.002160
  H      5.318370    2.061720   10.710280
  H      3.210590    2.904190    8.673580
  H      3.373680    6.860060   16.473950
  H      1.996600    8.517580   14.850510
  H      2.620970    4.749630    8.095630
  H      1.267750    7.306770    9.095970
  H      0.002600    8.079770    4.027080

 Total Charge           Charge          ....    0
 Multiplicity           Mult            ....    1
 Number of Electrons    NEL             ....  510
 Basis Dimension        Dim             .... 1136

ORBITAL ENERGIES
----------------

  NO   OCC          E(Eh)            E(eV)
   0   2.0000     -88.994211     -2421.6556
   1   2.0000     -88.983117     -2421.3537
   2   2.0000     -88.974992     -2421.1326
   3   2.0000     -88.972358     -2421.0609
   4   2.0000     -19.306573      -525.3585
   5   2.0000     -19.306063      -525.3447
   6   2.0000     -19.246435      -523.7221
   7   2.0000     -19.237830      -523.4880
   8   2.0000     -19.227610      -523.2099
   9   2.0000     -19.221853      -523.0532
  10   2.0000     -19.211417      -522.7692
  11   2.0000     -19.210797      -522.7524
  12   2.0000     -14.424088      -392.4994
  13   2.0000     -14.420570      -392.4037
  14   2.0000     -14.407499      -392.0480
  15   2.0000     -14.406145      -392.0111
  16   2.0000     -14.402546      -391.9132
  17   2.0000     -14.373623      -391.1262
  18   2.0000     -10.440436      -284.0987
  19   2.0000     -10.427936      -283.7586
  20   2.0000     -10.414463      -283.3920
  21   2.0000     -10.394937      -282.8606
  22   2.0000     -10.375954      -282.3441
  23   2.0000     -10.372236      -282.2429
  24   2.0000     -10.370108      -282.1850
  25   2.0000     -10.368880      -282.1516
  26   2.0000     -10.361425      -281.9487
  27   2.0000     -10.344165      -281.4790
  28   2.0000     -10.341657      -281.4108
  29   2.0000     -10.338602      -281.3277
  30   2.0000     -10.335790      -281.2512
  31   2.0000     -10.334102      -281.2052
  32   2.0000     -10.331500      -281.1344
  33   2.0000     -10.330141      -281.0974
  34   2.0000     -10.325547      -280.9724
  35   2.0000     -10.325044      -280.9587
  36   2.0000     -10.324671      -280.9486
  37   2.0000     -10.323957      -280.9292
  38   2.0000     -10.320789      -280.8429
  39   2.0000     -10.319341      -280.8035
  40   2.0000     -10.313496      -280.6445
  41   2.0000     -10.312823      -280.6262
  42   2.0000     -10.307276      -280.4752
  43   2.0000     -10.307031      -280.4686
  44   2.0000     -10.302004      -280.3318
  45   2.0000     -10.298368      -280.2328
  46   2.0000     -10.293323      -280.0955
  47   2.0000     -10.291978      -280.0590
  48   2.0000     -10.290382      -280.0155
  49   2.0000     -10.290257      -280.0121
  50   2.0000     -10.289364      -279.9878
  51   2.0000     -10.289014      -279.9783
  52   2.0000     -10.288268      -279.9580
  53   2.0000     -10.288010      -279.9510
  54   2.0000     -10.287601      -279.9399
  55   2.0000     -10.287048      -279.9248
  56   2.0000     -10.286648      -279.9139
  57   2.0000     -10.285754      -279.8896
  58   2.0000     -10.283853      -279.8379
  59   2.0000     -10.282829      -279.8100
  60   2.0000     -10.282314      -279.7960
  61   2.0000     -10.280169      -279.7376
  62   2.0000     -10.279720      -279.7254
  63   2.0000     -10.277597      -279.6676
  64   2.0000     -10.273827      -279.5651
  65   2.0000     -10.273297      -279.5506
  66   2.0000     -10.271548      -279.5030
  67   2.0000     -10.270270      -279.4682
  68   2.0000     -10.269070      -279.4356
  69   2.0000     -10.268303      -279.4147
  70   2.0000      -8.088697      -220.1046
  71   2.0000      -8.078674      -219.8319
  72   2.0000      -8.071618      -219.6399
  73   2.0000      -8.066126      -219.4904
  74   2.0000      -6.058100      -164.8493
  75   2.0000      -6.053749      -164.7309
  76   2.0000      -6.050831      -164.6515
  77   2.0000      -6.047936      -164.5727
  78   2.0000      -6.043803      -164.4603
  79   2.0000      -6.041423      -164.3955
  80   2.0000      -6.040789      -164.3782
  81   2.0000      -6.037304      -164.2834
  82   2.0000      -6.036041      -164.2490
  83   2.0000      -6.032157      -164.1433
  84   2.0000      -6.031433      -164.1236
  85   2.0000      -6.026975      -164.0023
  86   2.0000      -1.236512       -33.6472
  87   2.0000      -1.234734       -33.5988
  88   2.0000      -1.170567       -31.8527
  89   2.0000      -1.161403       -31.6034
  90   2.0000      -1.130559       -30.7641
  91   2.0000      -1.128178       -30.6993
  92   2.0000      -1.125907       -30.6375
  93   2.0000      -1.124366       -30.5955
  94   2.0000      -1.089346       -29.6426
  95   2.0000      -1.075443       -29.2643
  96   2.0000      -1.063114       -28.9288
  97   2.0000      -1.055993       -28.7350
  98   2.0000      -1.021055       -27.7843
  99   2.0000      -1.014381       -27.6027
 100   2.0000      -0.997588       -27.1458
 101   2.0000      -0.987413       -26.8689
 102   2.0000      -0.959414       -26.1070
 103   2.0000      -0.956779       -26.0353
 104   2.0000      -0.944776       -25.7087
 105   2.0000      -0.938233       -25.5306
 106   2.0000      -0.937225       -25.5032
 107   2.0000      -0.930331       -25.3156
 108   2.0000      -0.925931       -25.1959
 109   2.0000      -0.914521       -24.8854
 110   2.0000      -0.908791       -24.7295
 111   2.0000      -0.889165       -24.1954
 112   2.0000      -0.881402       -23.9842
 113   2.0000      -0.876408       -23.8483
 114   2.0000      -0.870416       -23.6852
 115   2.0000      -0.860416       -23.4131
 116   2.0000      -0.857425       -23.3317
 117   2.0000      -0.856022       -23.2935
 118   2.0000      -0.846245       -23.0275
 119   2.0000      -0.845519       -23.0077
 120   2.0000      -0.841153       -22.8889
 121   2.0000      -0.834175       -22.6991
 122   2.0000      -0.812980       -22.1223
 123   2.0000      -0.811925       -22.0936
 124   2.0000      -0.786166       -21.3927
 125   2.0000      -0.774956       -21.0876
 126   2.0000      -0.773220       -21.0404
 127   2.0000      -0.765403       -20.8277
 128   2.0000      -0.765316       -20.8253
 129   2.0000      -0.761120       -20.7111
 130   2.0000      -0.752582       -20.4788
 131   2.0000      -0.743107       -20.2210
 132   2.0000      -0.740485       -20.1496
 133   2.0000      -0.736618       -20.0444
 134   2.0000      -0.733634       -19.9632
 135   2.0000      -0.718252       -19.5446
 136   2.0000      -0.711249       -19.3541
 137   2.0000      -0.709432       -19.3046
 138   2.0000      -0.703517       -19.1437
 139   2.0000      -0.682213       -18.5640
 140   2.0000      -0.680024       -18.5044
 141   2.0000      -0.678709       -18.4686
 142   2.0000      -0.673231       -18.3195
 143   2.0000      -0.666998       -18.1499
 144   2.0000      -0.654150       -17.8003
 145   2.0000      -0.651687       -17.7333
 146   2.0000      -0.646140       -17.5824
 147   2.0000      -0.636512       -17.3204
 148   2.0000      -0.634986       -17.2788
 149   2.0000      -0.632354       -17.2072
 150   2.0000      -0.630631       -17.1604
 151   2.0000      -0.620160       -16.8754
 152   2.0000      -0.609969       -16.5981
 153   2.0000      -0.607837       -16.5401
 154   2.0000      -0.604573       -16.4513
 155   2.0000      -0.600417       -16.3382
 156   2.0000      -0.595883       -16.2148
 157   2.0000      -0.593850       -16.1595
 158   2.0000      -0.593190       -16.1415
 159   2.0000      -0.592456       -16.1216
 160   2.0000      -0.587550       -15.9880
 161   2.0000      -0.584626       -15.9085
 162   2.0000      -0.580286       -15.7904
 163   2.0000      -0.577646       -15.7185
 164   2.0000      -0.572554       -15.5800
 165   2.0000      -0.566124       -15.4050
 166   2.0000      -0.562229       -15.2990
 167   2.0000      -0.559249       -15.2179
 168   2.0000      -0.554055       -15.0766
 169   2.0000      -0.552561       -15.0359
 170   2.0000      -0.551546       -15.0083
 171   2.0000      -0.547165       -14.8891
 172   2.0000      -0.544931       -14.8283
 173   2.0000      -0.542000       -14.7486
 174   2.0000      -0.540013       -14.6945
 175   2.0000      -0.537626       -14.6295
 176   2.0000      -0.533062       -14.5054
 177   2.0000      -0.530793       -14.4436
 178   2.0000      -0.529110       -14.3978
 179   2.0000      -0.527330       -14.3494
 180   2.0000      -0.526370       -14.3233
 181   2.0000      -0.524180       -14.2637
 182   2.0000      -0.521831       -14.1997
 183   2.0000      -0.520836       -14.1727
 184   2.0000      -0.517490       -14.0816
 185   2.0000      -0.516556       -14.0562
 186   2.0000      -0.513676       -13.9778
 187   2.0000      -0.511794       -13.9266
 188   2.0000      -0.508711       -13.8427
 189   2.0000      -0.507561       -13.8114
 190   2.0000      -0.505789       -13.7632
 191   2.0000      -0.503632       -13.7045
 192   2.0000      -0.502122       -13.6634
 193   2.0000      -0.500858       -13.6290
 194   2.0000      -0.498739       -13.5714
 195   2.0000      -0.496441       -13.5089
 196   2.0000      -0.493290       -13.4231
 197   2.0000      -0.487474       -13.2648
 198   2.0000      -0.484501       -13.1839
 199   2.0000      -0.483485       -13.1563
 200   2.0000      -0.481714       -13.1081
 201   2.0000      -0.478343       -13.0164
 202   2.0000      -0.476160       -12.9570
 203   2.0000      -0.474466       -12.9109
 204   2.0000      -0.472564       -12.8591
 205   2.0000      -0.471560       -12.8318
 206   2.0000      -0.467244       -12.7143
 207   2.0000      -0.465117       -12.6565
 208   2.0000      -0.463420       -12.6103
 209   2.0000      -0.460131       -12.5208
 210   2.0000      -0.456923       -12.4335
 211   2.0000      -0.452048       -12.3009
 212   2.0000      -0.448811       -12.2128
 213   2.0000      -0.447844       -12.1865
 214   2.0000      -0.442357       -12.0372
 215   2.0000      -0.441541       -12.0149
 216   2.0000      -0.439518       -11.9599
 217   2.0000      -0.437227       -11.8976
 218   2.0000      -0.434162       -11.8141
 219   2.0000      -0.430320       -11.7096
 220   2.0000      -0.424612       -11.5543
 221   2.0000      -0.423255       -11.5174
 222   2.0000      -0.416805       -11.3419
 223   2.0000      -0.403736       -10.9862
 224   2.0000      -0.400722       -10.9042
 225   2.0000      -0.395251       -10.7553
 226   2.0000      -0.391787       -10.6611
 227   2.0000      -0.390730       -10.6323
 228   2.0000      -0.389850       -10.6084
 229   2.0000      -0.389531       -10.5997
 230   2.0000      -0.385167       -10.4809
 231   2.0000      -0.381259       -10.3746
 232   2.0000      -0.370779       -10.0894
 233   2.0000      -0.363087        -9.8801
 234   2.0000      -0.358261        -9.7488
 235   2.0000      -0.357298        -9.7226
 236   2.0000      -0.354931        -9.6582
 237   2.0000      -0.351068        -9.5530
 238   2.0000      -0.344308        -9.3691
 239   2.0000      -0.343463        -9.3461
 240   2.0000      -0.337827        -9.1927
 241   2.0000      -0.334821        -9.1109
 242   2.0000      -0.333913        -9.0862
 243   2.0000      -0.330806        -9.0017
 244   2.0000      -0.330118        -8.9830
 245   2.0000      -0.328450        -8.9376
 246   2.0000      -0.320667        -8.7258
 247   2.0000      -0.312385        -8.5004
 248   2.0000      -0.311857        -8.4861
 249   2.0000      -0.307160        -8.3583
 250   2.0000      -0.300412        -8.1746
 251   2.0000      -0.298047        -8.1103
 252   2.0000      -0.281391        -7.6570
 253   2.0000      -0.272673        -7.4198
 254   2.0000      -0.230454        -6.2710
 255   0.0000      -0.118712        -3.2303
 256   0.0000      -0.110841        -3.0161
 257   0.0000      -0.080613        -2.1936
 258   0.0000      -0.058281        -1.5859
 259   0.0000      -0.048041        -1.3073

MULLIKEN ATOMIC CHARGES
-----------------------
   0 C :   -0.093249
   1 S :    0.177736
   2 C :   -0.196477
   3 C :   -0.026576
   4 C :    0.203147
   5 O :   -0.193991
   6 C :    0.199975
   7 O :   -0.111518
   8 C :   -0.002027
   9 O :   -0.123306
  10 S :    0.203582
  11 C :    0.077460
  12 N :   -0.106612
  13 C :    0.076476
  14 C :   -0.138557
  15 C :    0.205851
  16 O :   -0.129317
  17 C :   -0.041627
  18 C :   -0.035253
  19 N :   -0.054703
  20 C :    0.089468
  21 C :   -0.089046
  22 C :    0.018272
  23 C :   -0.028055
  24 C :   -0.008869
  25 C :    0.112413
  26 C :   -0.105521
  27 C :    0.044810
  28 C :   -0.041867
  29 C :   -0.103862
  30 C :    0.164625
  31 N :   -0.228802
  32 C :    0.159636
  33 N :   -0.241440
  34 C :    0.104178
  35 C :   -0.156014
  36 C :    0.152271
  37 C :   -0.042766
  38 C :    0.021057
  39 C :    0.014157
  40 C :    0.036946
  41 C :    0.002719
  42 C :   -0.012727
  43 C :   -0.037072
  44 C :   -0.017099
  45 C :    0.050276
  46 N :   -0.039647
  47 C :    0.077751
  48 C :   -0.166867
  49 C :    0.214218
  50 O :   -0.144088
  51 C :   -0.018827
  52 C :   -0.040740
  53 N :   -0.055102
  54 C :    0.085143
  55 C :   -0.094532
  56 C :    0.063182
  57 C :   -0.054849
  58 C :    0.069300
  59 C :   -0.165428
  60 S :    0.178316
  61 C :   -0.134385
  62 C :   -0.036048
  63 C :    0.179122
  64 O :   -0.219716
  65 C :    0.260136
  66 O :   -0.176492
  67 C :    0.018455
  68 O :   -0.151940
  69 S :    0.112144
  70 H :    0.043957
  71 H :    0.010109
  72 H :   -0.005336
  73 H :    0.015001
  74 H :   -0.011818
  75 H :   -0.030023
  76 H :    0.007111
  77 H :   -0.024293
  78 H :   -0.009568
  79 H :    0.086588
  80 H :    0.109191
  81 H :   -0.005518
  82 H :    0.018400
  83 H :    0.114649
  84 H :    0.116739
  85 H :    0.019869
  86 H :    0.047603
  87 H :   -0.000329
  88 H :   -0.030306
  89 H :   -0.032797
  90 H :   -0.018124
  91 H :    0.032847
  92 H :    0.010662
  93 H :    0.007449
  94 H :   -0.008408
  95 H :   -0.009445
  96 H :    0.002637
  97 H :    0.035349
Sum of atomic charges:    0.0000000

LOEWDIN ATOMIC CHARGES
----------------------
   0 C :   -0.172421
   1 S :    0.504920
   2 C :   -0.222492
   3 C :   -0.182138
   4 C :   -0.010452
   5 O :   -0.024899
   6 C :    0.044752
   7 O :   -0.091394
   8 C :   -0.118324
   9 O :   -0.093222
  10 S :    0.461184
  11 C :    0.061413
  12 N :   -0.130157
  13 C :    0.046334
  14 C :   -0.041483
  15 C :    0.065528
  16 O :   -0.140416
  17 C :   -0.042460
  18 C :    0.019967
  19 N :   -0.096716
  20 C :    0.074493
  21 C :   -0.035554
  22 C :   -0.026834
  23 C :   -0.032563
  24 C :   -0.011444
  25 C :   -0.025728
  26 C :   -0.014236
  27 C :   -0.020255
  28 C :   -0.039472
  29 C :   -0.045904
  30 C :    0.030404
  31 N :   -0.121594
  32 C :    0.030672
  33 N :   -0.047514
  34 C :   -0.020896
  35 C :    0.069045
  36 C :   -0.030744
  37 C :   -0.022857
  38 C :   -0.013508
  39 C :   -0.032250
  40 C :   -0.029266
  41 C :   -0.001186
  42 C :   -0.024770
  43 C :    0.082931
  44 C :   -0.064762
  45 C :    0.078667
  46 N :   -0.107616
  47 C :    0.051445
  48 C :   -0.047290
  49 C :    0.067487
  50 O :   -0.148042
  51 C :   -0.041792
  52 C :    0.015894
  53 N :   -0.096327
  54 C :    0.068665
  55 C :   -0.037766
  56 C :   -0.027687
  57 C :   -0.032605
  58 C :   -0.006243
  59 C :   -0.193638
  60 S :    0.482967
  61 C :   -0.201105
  62 C :   -0.229780
  63 C :   -0.007674
  64 O :   -0.018420
  65 C :    0.055518
  66 O :   -0.155570
  67 C :   -0.090891
  68 O :   -0.116617
  69 S :    0.369584
  70 H :    0.040415
  71 H :    0.024082
  72 H :    0.034441
  73 H :    0.039441
  74 H :    0.012924
  75 H :    0.020063
  76 H :    0.028009
  77 H :    0.008253
  78 H :    0.004865
  79 H :    0.054127
  80 H :    0.050120
  81 H :    0.008457
  82 H :    0.018001
  83 H :    0.062807
  84 H :    0.062272
  85 H :    0.036147
  86 H :    0.063339
  87 H :    0.028340
  88 H :    0.032478
  89 H :    0.029516
  90 H :    0.029651
  91 H :    0.040584
  92 H :    0.030296
  93 H :    0.022630
  94 H :    0.033222
  95 H :    0.024417
  96 H :    0.035501
  97 H :    0.030709

  Mayer bond orders larger than 0.100000
B(  0-C ,  1-S ) :   1.1690 B(  0-C ,  4-C ) :   1.5398 B(  0-C , 70-H ) :   0.9688
B(  1-S ,  2-C ) :   1.1172 B(  2-C ,  3-C ) :   1.4799 B(  2-C , 11-C ) :   1.1848
B(  3-C ,  4-C ) :   1.2572 B(  3-C , 10-S ) :   1.0373 B(  4-C ,  5-O ) :   1.0707
B(  5-O ,  6-C ) :   1.0713 B(  6-C ,  7-O ) :   2.2551 B(  6-C ,  8-C ) :   0.7826
B(  8-C ,  9-O ) :   2.1717 B(  8-C , 10-S ) :   0.9777 B(  9-O , 10-S ) :   0.1146
B( 11-C , 12-N ) :   1.5164 B( 11-C , 22-C ) :   1.0197 B( 12-N , 13-C ) :   1.3699
B( 13-C , 14-C ) :   1.0572 B( 13-C , 18-C ) :   1.4172 B( 14-C , 15-C ) :   0.8881
B( 14-C , 22-C ) :   1.5783 B( 15-C , 16-O ) :   2.2832 B( 15-C , 17-C ) :   0.9048
B( 17-C , 18-C ) :   1.0545 B( 17-C , 21-C ) :   1.6092 B( 18-C , 19-N ) :   1.3184
B( 19-N , 20-C ) :   1.6472 B( 20-C , 21-C ) :   1.0771 B( 20-C , 71-H ) :   0.9897
B( 21-C , 72-H ) :   1.0105 B( 22-C , 23-C ) :   1.1067 B( 23-C , 24-C ) :   1.6742
B( 23-C , 73-H ) :   0.9535 B( 24-C , 25-C ) :   1.0892 B( 24-C , 74-H ) :   0.9641
B( 25-C , 26-C ) :   1.5018 B( 25-C , 42-C ) :   1.1329 B( 26-C , 27-C ) :   1.1174
B( 26-C , 75-H ) :   0.9913 B( 27-C , 28-C ) :   1.4649 B( 27-C , 40-C ) :   1.1324
B( 28-C , 29-C ) :   1.0219 B( 28-C , 34-C ) :   1.1091 B( 29-C , 30-C ) :   1.0502
B( 29-C , 32-C ) :   1.0326 B( 29-C , 76-H ) :   0.8805 B( 30-C , 31-N ) :   1.0908
B( 30-C , 77-H ) :   0.9341 B( 30-C , 78-H ) :   0.9375 B( 31-N , 79-H ) :   0.9649
B( 31-N , 80-H ) :   0.9457 B( 32-C , 33-N ) :   1.0204 B( 32-C , 81-H ) :   0.9481
B( 32-C , 82-H ) :   0.9130 B( 33-N , 65-C ) :   0.1531 B( 33-N , 83-H ) :   0.9448
B( 33-N , 84-H ) :   0.9499 B( 34-C , 35-C ) :   1.6475 B( 34-C , 39-C ) :   1.0535
B( 35-C , 36-C ) :   0.9759 B( 35-C , 85-H ) :   0.9655 B( 36-C , 37-C ) :   0.9717
B( 36-C , 43-C ) :   0.9433 B( 36-C , 86-H ) :   0.8610 B( 37-C , 38-C ) :   1.7252
B( 37-C , 87-H ) :   0.9641 B( 38-C , 39-C ) :   1.1361 B( 38-C , 88-H ) :   0.9893
B( 39-C , 40-C ) :   1.4281 B( 40-C , 41-C ) :   1.1399 B( 41-C , 42-C ) :   1.6103
B( 41-C , 89-H ) :   0.9912 B( 42-C , 90-H ) :   0.9856 B( 43-C , 44-C ) :   1.8042
B( 43-C , 91-H ) :   0.9718 B( 44-C , 45-C ) :   1.0950 B( 44-C , 92-H ) :   0.9291
B( 45-C , 46-N ) :   1.6169 B( 45-C , 47-C ) :   0.1118 B( 45-C , 56-C ) :   1.0092
B( 46-N , 47-C ) :   1.3416 B( 47-C , 48-C ) :   1.0460 B( 47-C , 52-C ) :   1.4172
B( 48-C , 49-C ) :   0.8999 B( 48-C , 56-C ) :   1.5475 B( 49-C , 50-O ) :   2.2133
B( 49-C , 51-C ) :   0.9202 B( 51-C , 52-C ) :   1.0714 B( 51-C , 55-C ) :   1.5992
B( 52-C , 53-N ) :   1.3139 B( 53-N , 54-C ) :   1.6555 B( 54-C , 55-C ) :   1.0767
B( 54-C , 93-H ) :   0.9894 B( 55-C , 94-H ) :   1.0103 B( 56-C , 57-C ) :   1.1353
B( 57-C , 58-C ) :   1.6860 B( 57-C , 95-H ) :   0.9468 B( 58-C , 59-C ) :   1.1015
B( 58-C , 96-H ) :   0.9542 B( 59-C , 60-S ) :   1.1417 B( 59-C , 63-C ) :   1.4884
B( 60-S , 61-C ) :   1.1849 B( 61-C , 62-C ) :   1.5467 B( 61-C , 97-H ) :   0.9726
B( 62-C , 63-C ) :   1.2651 B( 62-C , 69-S ) :   0.9455 B( 63-C , 64-O ) :   1.0532
B( 64-O , 65-C ) :   1.0529 B( 65-C , 66-O ) :   2.0870 B( 65-C , 67-C ) :   0.8052
B( 67-C , 68-O ) :   2.1074 B( 67-C , 69-S ) :   1.0454 B( 68-O , 69-S ) :   0.1255

-----------------------------------------------------------------------------
         ABSORPTION SPECTRUM VIA TRANSITION ELECTRIC DIPOLE MOMENTS
-----------------------------------------------------------------------------
State   Energy  Wavelength   fosc         T2         TX        TY        TZ
        (cm-1)    (nm)                  (au**2)     (au)      (au)      (au)
-----------------------------------------------------------------------------
   0   11688.6    855.5   0.078172831   2.20176  -0.94968  -1.10707  -0.27250
   1   12776.9    782.7   0.118675224   3.05780  -0.27081  -1.23080  -1.21226
   2   14542.8    687.6   0.031992160   0.72422   0.29127  -0.42984   0.67426
   3   17704.1    564.8   0.142965346   2.65847  -0.28394  -0.15255  -1.59830
   4   19207.4    520.6   0.067980944   1.16518   0.70971   0.76702  -0.27051
   5   20967.8    476.9   0.002713041   0.04260  -0.13425   0.00634   0.15663
   6   22135.4    451.8   0.455431937   6.77349   1.31909   0.96564  -2.02510
   7   22423.8    446.0   0.007463780   0.10958   0.02620  -0.18787  -0.27129
   8   23517.1    425.2   0.014317555   0.20043  -0.27493  -0.27044  -0.22739
   9   23717.8    421.6   0.056287764   0.78129  -0.35276  -0.71280  -0.38571
  10   24664.2    405.4   0.027233759   0.36351   0.28054   0.31770   0.42881
  11   24999.9    400.0   0.515348439   6.78637   0.80307   1.78077   1.72346
  12   25148.9    397.6   0.145272486   1.90169   1.24414   0.59145   0.06319
  13   25583.3    390.9   0.257686483   3.31598  -1.47244  -0.99951   0.38584
  14   25795.3    387.7   0.002404043   0.03068   0.02813   0.06974  -0.15820
  15   26086.1    383.3   0.407430390   5.14185   0.88723   1.62107   1.31408
  16   26291.7    380.3   0.090436582   1.13240   0.41203   0.92024   0.34028
  17   26323.3    379.9   0.091526924   1.14468  -0.78951  -0.46133  -0.55545
  18   26661.0    375.1   0.003357073   0.04145  -0.17364  -0.05292  -0.09221
  19   26859.0    372.3   0.000745101   0.00913  -0.04704  -0.04802  -0.06793
  20   27083.0    369.2   0.238475678   2.89883  -0.28392  -1.08320  -1.28254
  21   27352.5    365.6   0.425542125   5.12179   1.85939   1.17159  -0.54020
  22   27971.5    357.5   0.371255226   4.36951   0.73212  -0.13062   1.95357
  23   28135.6    355.4   0.283669613   3.31920   0.40677   0.05753   1.77494
  24   28813.2    347.1   0.026283574   0.30031   0.15563  -0.14547   0.50490
  25   29164.1    342.9   0.001509698   0.01704  -0.02123  -0.11418  -0.05962
  26   29283.9    341.5   0.053275961   0.59893  -0.47454  -0.43593  -0.42862
  27   29818.8    335.4   0.014331033   0.15822   0.27093  -0.28238  -0.07125
  28   30310.3    329.9   0.005184526   0.05631  -0.16207  -0.14267   0.09843
  29   30401.1    328.9   0.001693356   0.01834   0.10855  -0.03709  -0.07196
  30   30865.3    324.0   0.011414948   0.12175   0.00740  -0.03433   0.34716
  31   31273.0    319.8   0.001440339   0.01516   0.01152   0.02714  -0.11955
  32   31290.1    319.6   0.001089735   0.01147  -0.08902   0.05858  -0.01047
  33   31967.9    312.8   0.007744133   0.07975  -0.03471   0.21046   0.18507
  34   32055.2    312.0   0.183710878   1.88674  -0.62067  -0.54582  -1.09709
  35   32180.7    310.7   0.006236491   0.06380  -0.13986   0.07972  -0.19464
  36   32722.5    305.6   0.085260441   0.85778   0.58248   0.70062   0.16620
  37   32910.4    303.9   0.037969506   0.37982  -0.43903  -0.41039  -0.13656
  38   33324.0    300.1   0.118912670   1.17475  -0.40521  -0.49329   0.87591
  39   33441.1    299.0   0.003591562   0.03536   0.18398  -0.02462  -0.03004
  40   33582.6    297.8   0.025506227   0.25004  -0.29937  -0.24086  -0.32000
  41   33869.9    295.2   0.008445450   0.08209  -0.14927  -0.24238   0.03255
  42   34122.5    293.1   0.012251282   0.11820   0.33222   0.02614  -0.08453
  43   34560.0    289.4   0.187928694   1.79017  -0.91850  -0.84220   0.48705
  44   34727.6    288.0   0.009098865   0.08626  -0.29222  -0.01612   0.02452
  45   34962.6    286.0   0.014372108   0.13533   0.19345   0.06057   0.30698
  46   35444.1    282.1   0.001119389   0.01040  -0.08011  -0.06232   0.00981
  47   35478.4    281.9   0.044724860   0.41501  -0.47855  -0.35154  -0.24985
  48   35811.2    279.2   0.425530888   3.91190   0.75298   1.43191   1.13779
  49   35932.6    278.3   0.210134148   1.92524  -0.90367  -0.77771  -0.70978
  50   36258.5    275.8   0.021335443   0.19372  -0.37925   0.15478  -0.16101
  51   36326.2    275.3   0.205207829   1.85973  -0.43373   0.29024   1.25991
  52   36477.2    274.1   0.141917566   1.28083  -0.83065  -0.20270   0.74146
  53   36569.9    273.4   0.020096421   0.18091  -0.17872  -0.15090  -0.35525
  54   36803.3    271.7   0.050266640   0.44964   0.40673   0.38687   0.36680
  55   36954.3    270.6   0.016128865   0.14369   0.13195  -0.29708   0.19497
  56   37112.5    269.5   0.065395758   0.58010   0.57659   0.35971   0.34389
  57   37473.5    266.9   0.143077619   1.25697   0.69793  -0.87182  -0.09897
  58   37850.7    264.2   0.011767644   0.10235  -0.23617   0.08268   0.19935
  59   38011.3    263.1   0.106214373   0.91991  -0.56229   0.75987  -0.16231
  60   38211.5    261.7   0.279910910   2.41158   0.33750  -1.42650  -0.51260
  61   38473.3    259.9   0.025532831   0.21848   0.45867   0.04231  -0.07944
  62   38565.5    259.3   0.063369170   0.54095   0.24206   0.46233  -0.51827
  63   38651.3    258.7   0.093741448   0.79844   0.02822  -0.67523   0.58456
  64   38979.6    256.5   0.006716910   0.05673  -0.12107  -0.15146   0.13832
  65   39113.7    255.7   0.000977510   0.00823   0.03599   0.07738   0.03074
  66   39208.7    255.0   0.021868965   0.18362   0.14130  -0.14727  -0.37678
  67   39329.7    254.3   0.203100406   1.70006   0.39737   0.27807   1.21030
  68   39391.8    253.9   0.010257591   0.08573  -0.25445  -0.14463  -0.00782
  69   39428.3    253.6   0.063851183   0.53313  -0.55815  -0.17941  -0.43521
  70   39875.8    250.8   0.001777549   0.01468  -0.00053  -0.09777   0.07153
  71   39957.0    250.3   0.017482175   0.14404   0.00280  -0.36760   0.09434
  72   40202.4    248.7   0.015450056   0.12652  -0.06959   0.30225   0.17413
  73   40270.6    248.3   0.021537462   0.17607  -0.11115   0.15142  -0.37521

FINAL SINGLE POINT ENERGY     -4517.098234413656

DIPOLE MOMENT
-------------
                                X             Y             Z
Electronic contribution:    -26.57570      -5.54215     -27.28575
Nuclear contribution   :     27.28127       6.93113      28.98233
                        -----------------------------------------
Total Dipole Moment    :      0.70557       1.38897       1.69659
                        -----------------------------------------
Magnitude (a.u.)       :      2.30336
Magnitude (Debye)      :      5.85468

Rotational constants in cm-1:     0.001455     0.000378     0.000338
Rotational constants in MHz :    43.617510    11.342521    10.143381

                             ****ORCA TERMINATED NORMALLY****
TOTAL RUN TIME: 0 days 0 hours 9 minutes 57 seconds 389 msec
