                         Program Version 4.2.0 -  RELEASE  -
|  1> # ORCA input file
|  2> # SCF done       -161.558403352085          0.000619783493
|  3> ! CAM-B3LYP def2-SVP def2/J RIJCOSX Grid4 TightSCF
|  4> %maxcore 5000
|  5> %tddft
|  6>     Mode sTDDFT
|  7>     Ethresh 5.0
|  8>     maxcore 5000
|  9> end
| 10>
| 11> %pal
| 12>   nprocs 6
| 13>   end
| 14> * xyz 0 1
| 15>    C       12.67879         4.69961         9.37704
| 16>    O       13.42505         4.01682        10.25039
| 17>    C       14.61864         3.79356         9.67004
| 18>    C       14.65323         4.32724         8.42426
| 19>    C       13.37522         4.93271         8.21162
| 20>    C       12.96131         5.62353         7.02629
| 21>    C       11.75087         6.19276         6.83600
| 22>    C       11.39355         6.87865         5.64448
| 23>    C       10.18143         7.46005         5.45999
| 24>    C        9.78661         8.17249         4.30155
| 25>    C       10.56443         8.42009         3.08022
| 26>    N        9.95059         9.13550         2.18414
| 27>    C        8.72526         9.42051         2.72121
| 28>    C        8.59083         8.81479         4.04783
| 29>    C        7.30981         9.13833         4.61362
| 30>    S        6.77587         8.70436         6.11186
| 31>    C        6.65934         9.94419         3.60513
| 32>    C        7.57060        10.11042         2.45805
| 33>    N        7.01445        10.91623         1.50879
| 34>    C        5.86409        11.27778         1.99714
| 35>    C        5.55273        10.71381         3.31317
| 36>    C        4.32513        10.94623         4.02355
| 37>    C        3.60092        12.10131         3.80203
| 38>    C        2.40881        12.32719         4.51098
| 39>    C        1.51838        13.39792         4.48244
| 40>    C        1.64834        14.62120         3.63912
| 41>    C        0.43258        14.81032         2.71802
| 42>    N        0.13127        13.55761         2.04698
| 43>    C        1.89956        15.86935         4.50473
| 44>    N        3.22020        15.77007         5.09726
| 45>    C        0.46886        13.09130         5.42421
| 46>    C       -0.63686        13.76399         5.80033
| 47>    C       -1.57411        13.22660         6.82228
| 48>    C       -1.22865        11.86709         7.34048
| 49>    C       -0.11367        11.20968         6.96860
| 50>    C        0.76567        11.77737         6.01888
| 51>    C        1.94702        11.32761         5.46100
| 52>    C        2.70281        10.15027         5.65728
| 53>    C        3.85342         9.97148         4.95975
| 54>    C       -1.60244        14.15450         8.01364
| 55>    C       -2.73197        14.63582         8.54214
| 56>    C       -2.81367        15.45832         9.70917
| 57>    C       -1.72873        15.98357        10.53818
| 58>    N       -2.12520        16.68827        11.56224
| 59>    C       -3.48805        16.68900        11.49795
| 60>    C       -3.94760        15.93694        10.32378
| 61>    C       -5.38897        15.91032        10.27890
| 62>    S       -6.32648        15.14398         9.16578
| 63>    C       -5.78938        16.65227        11.44566
| 64>    C       -4.60210        17.11789        12.17682
| 65>    N       -4.96622        17.79635        13.30267
| 66>    C       -6.26657        17.74895        13.33538
| 67>    C       -6.87305        17.02727        12.21469
| 68>    C       -8.25806        16.83157        11.96852
| 69>    O       -8.64701        16.57397        10.69876
| 70>    C       -9.97618        16.44617        10.69849
| 71>    C      -10.48606        16.60670        11.94885
| 72>    C       -9.37881        16.85350        12.80772
| 73>    C       -9.39566        16.99854        14.23265
| 74>    C      -10.50940        17.15314        14.97286
| 75>    C      -10.49312        17.26710        16.40490
| 76>    C      -11.59108        17.42559        17.14385
| 77>    H       11.68618         4.96403         9.68244
| 78>    H       15.34709         3.25163        10.23972
| 79>    H       15.46953         4.30445         7.73203
| 80>    H       13.70131         5.67994         6.23803
| 81>    H       11.00462         6.14128         7.61660
| 82>    H       12.14190         6.93099         4.86491
| 83>    H        9.44137         7.39968         6.24823
| 84>    H       11.55991         8.05951         2.88886
| 85>    H        5.20939        11.90961         1.42243
| 86>    H        3.96937        12.85199         3.11940
| 87>    H        2.53320        14.50124         3.00648
| 88>    H        0.64968        15.64223         2.02487
| 89>    H       -0.44852        15.08796         3.30095
| 90>    H        0.92884        13.24955         1.50042
| 91>    H       -0.65263        13.67278         1.41447
| 92>    H        1.08966        15.97257         5.24558
| 93>    H        1.88917        16.75751         3.86574
| 94>    H        3.27326        14.95778         5.70362
| 95>    H        3.43206        16.59291         5.64966
| 96>    H       -0.88769        14.73729         5.40385
| 97>    H       -2.58476        13.20521         6.39158
| 98>    H       -1.91401        11.45231         8.06352
| 99>    H        0.11416        10.23535         7.37587
|100>    H        2.35936         9.40319         6.35697
|101>    H        4.43754         9.07600         5.09459
|102>    H       -0.63821        14.36548         8.45294
|103>    H       -3.68652        14.39731         8.08892
|104>    H       -0.67749        15.84158        10.35860
|105>    H       -6.80587        18.26282        14.11095
|106>    H      -10.44681        16.24171         9.75655
|107>    H      -11.51615        16.53939        12.23034
|108>    H       -8.43752        16.95253        14.73185
|109>    H      -11.47805        17.20544        14.49564
|110>    H       -9.52198        17.21711        16.88086
|111>    H      -12.56947        17.48057        16.69480
|112>    H      -11.54997        17.50721        18.21590
|113> *
|114>
|115>                          ****END OF INPUT****

CARTESIAN COORDINATES (ANGSTROEM)
---------------------------------
  C     12.678790    4.699610    9.377040
  O     13.425050    4.016820   10.250390
  C     14.618640    3.793560    9.670040
  C     14.653230    4.327240    8.424260
  C     13.375220    4.932710    8.211620
  C     12.961310    5.623530    7.026290
  C     11.750870    6.192760    6.836000
  C     11.393550    6.878650    5.644480
  C     10.181430    7.460050    5.459990
  C      9.786610    8.172490    4.301550
  C     10.564430    8.420090    3.080220
  N      9.950590    9.135500    2.184140
  C      8.725260    9.420510    2.721210
  C      8.590830    8.814790    4.047830
  C      7.309810    9.138330    4.613620
  S      6.775870    8.704360    6.111860
  C      6.659340    9.944190    3.605130
  C      7.570600   10.110420    2.458050
  N      7.014450   10.916230    1.508790
  C      5.864090   11.277780    1.997140
  C      5.552730   10.713810    3.313170
  C      4.325130   10.946230    4.023550
  C      3.600920   12.101310    3.802030
  C      2.408810   12.327190    4.510980
  C      1.518380   13.397920    4.482440
  C      1.648340   14.621200    3.639120
  C      0.432580   14.810320    2.718020
  N      0.131270   13.557610    2.046980
  C      1.899560   15.869350    4.504730
  N      3.220200   15.770070    5.097260
  C      0.468860   13.091300    5.424210
  C     -0.636860   13.763990    5.800330
  C     -1.574110   13.226600    6.822280
  C     -1.228650   11.867090    7.340480
  C     -0.113670   11.209680    6.968600
  C      0.765670   11.777370    6.018880
  C      1.947020   11.327610    5.461000
  C      2.702810   10.150270    5.657280
  C      3.853420    9.971480    4.959750
  C     -1.602440   14.154500    8.013640
  C     -2.731970   14.635820    8.542140
  C     -2.813670   15.458320    9.709170
  C     -1.728730   15.983570   10.538180
  N     -2.125200   16.688270   11.562240
  C     -3.488050   16.689000   11.497950
  C     -3.947600   15.936940   10.323780
  C     -5.388970   15.910320   10.278900
  S     -6.326480   15.143980    9.165780
  C     -5.789380   16.652270   11.445660
  C     -4.602100   17.117890   12.176820
  N     -4.966220   17.796350   13.302670
  C     -6.266570   17.748950   13.335380
  C     -6.873050   17.027270   12.214690
  C     -8.258060   16.831570   11.968520
  O     -8.647010   16.573970   10.698760
  C     -9.976180   16.446170   10.698490
  C    -10.486060   16.606700   11.948850
  C     -9.378810   16.853500   12.807720
  C     -9.395660   16.998540   14.232650
  C    -10.509400   17.153140   14.972860
  C    -10.493120   17.267100   16.404900
  C    -11.591080   17.425590   17.143850
  H     11.686180    4.964030    9.682440
  H     15.347090    3.251630   10.239720
  H     15.469530    4.304450    7.732030
  H     13.701310    5.679940    6.238030
  H     11.004620    6.141280    7.616600
  H     12.141900    6.930990    4.864910
  H      9.441370    7.399680    6.248230
  H     11.559910    8.059510    2.888860
  H      5.209390   11.909610    1.422430
  H      3.969370   12.851990    3.119400
  H      2.533200   14.501240    3.006480
  H      0.649680   15.642230    2.024870
  H     -0.448520   15.087960    3.300950
  H      0.928840   13.249550    1.500420
  H     -0.652630   13.672780    1.414470
  H      1.089660   15.972570    5.245580
  H      1.889170   16.757510    3.865740
  H      3.273260   14.957780    5.703620
  H      3.432060   16.592910    5.649660
  H     -0.887690   14.737290    5.403850
  H     -2.584760   13.205210    6.391580
  H     -1.914010   11.452310    8.063520
  H      0.114160   10.235350    7.375870
  H      2.359360    9.403190    6.356970
  H      4.437540    9.076000    5.094590
  H     -0.638210   14.365480    8.452940
  H     -3.686520   14.397310    8.088920
  H     -0.677490   15.841580   10.358600
  H     -6.805870   18.262820   14.110950
  H    -10.446810   16.241710    9.756550
  H    -11.516150   16.539390   12.230340
  H     -8.437520   16.952530   14.731850
  H    -11.478050   17.205440   14.495640
  H     -9.521980   17.217110   16.880860
  H    -12.569470   17.480570   16.694800
  H    -11.549970   17.507210   18.215900

 Total Charge           Charge          ....    0
 Multiplicity           Mult            ....    1
 Number of Electrons    NEL             ....  438
 Basis Dimension        Dim             .... 1056

ORBITAL ENERGIES
----------------

  NO   OCC          E(Eh)            E(eV)
   0   2.0000     -88.890053     -2418.8213
   1   2.0000     -88.884420     -2418.6680
   2   2.0000     -19.290953      -524.9335
   3   2.0000     -19.289707      -524.8996
   4   2.0000     -14.413680      -392.2162
   5   2.0000     -14.411311      -392.1517
   6   2.0000     -14.404793      -391.9744
   7   2.0000     -14.402717      -391.9178
   8   2.0000     -14.376797      -391.2125
   9   2.0000     -14.372948      -391.1078
  10   2.0000     -10.336790      -281.2784
  11   2.0000     -10.334620      -281.2193
  12   2.0000     -10.333875      -281.1990
  13   2.0000     -10.330859      -281.1170
  14   2.0000     -10.330659      -281.1115
  15   2.0000     -10.328356      -281.0489
  16   2.0000     -10.326194      -280.9900
  17   2.0000     -10.324763      -280.9511
  18   2.0000     -10.322667      -280.8940
  19   2.0000     -10.320308      -280.8298
  20   2.0000     -10.320209      -280.8272
  21   2.0000     -10.317662      -280.7579
  22   2.0000     -10.315149      -280.6895
  23   2.0000     -10.314399      -280.6691
  24   2.0000     -10.307224      -280.4738
  25   2.0000     -10.299483      -280.2632
  26   2.0000     -10.298458      -280.2353
  27   2.0000     -10.292874      -280.0834
  28   2.0000     -10.292633      -280.0768
  29   2.0000     -10.292113      -280.0626
  30   2.0000     -10.291254      -280.0393
  31   2.0000     -10.289605      -279.9944
  32   2.0000     -10.289143      -279.9818
  33   2.0000     -10.285934      -279.8945
  34   2.0000     -10.283914      -279.8395
  35   2.0000     -10.283396      -279.8254
  36   2.0000     -10.282969      -279.8138
  37   2.0000     -10.282495      -279.8009
  38   2.0000     -10.282003      -279.7875
  39   2.0000     -10.280722      -279.7527
  40   2.0000     -10.279634      -279.7231
  41   2.0000     -10.279276      -279.7133
  42   2.0000     -10.278796      -279.7003
  43   2.0000     -10.275766      -279.6178
  44   2.0000     -10.275619      -279.6138
  45   2.0000     -10.273618      -279.5593
  46   2.0000     -10.273475      -279.5555
  47   2.0000     -10.273309      -279.5509
  48   2.0000     -10.273230      -279.5488
  49   2.0000     -10.272567      -279.5307
  50   2.0000     -10.272134      -279.5190
  51   2.0000     -10.269068      -279.4355
  52   2.0000     -10.268264      -279.4137
  53   2.0000     -10.267100      -279.3820
  54   2.0000     -10.266296      -279.3601
  55   2.0000     -10.264340      -279.3069
  56   2.0000     -10.261348      -279.2255
  57   2.0000     -10.260930      -279.2141
  58   2.0000     -10.260273      -279.1962
  59   2.0000     -10.258184      -279.1394
  60   2.0000     -10.257034      -279.1081
  61   2.0000     -10.254790      -279.0470
  62   2.0000      -7.985795      -217.3045
  63   2.0000      -7.980021      -217.1474
  64   2.0000      -5.954666      -162.0347
  65   2.0000      -5.954414      -162.0278
  66   2.0000      -5.948874      -161.8771
  67   2.0000      -5.948419      -161.8647
  68   2.0000      -5.944943      -161.7701
  69   2.0000      -5.939468      -161.6211
  70   2.0000      -1.213796       -33.0291
  71   2.0000      -1.208310       -32.8798
  72   2.0000      -1.079658       -29.3790
  73   2.0000      -1.069877       -29.1128
  74   2.0000      -1.060731       -28.8640
  75   2.0000      -1.051195       -28.6045
  76   2.0000      -0.982176       -26.7264
  77   2.0000      -0.962415       -26.1887
  78   2.0000      -0.956965       -26.0403
  79   2.0000      -0.950374       -25.8610
  80   2.0000      -0.948790       -25.8179
  81   2.0000      -0.943899       -25.6848
  82   2.0000      -0.929742       -25.2996
  83   2.0000      -0.923954       -25.1421
  84   2.0000      -0.917242       -24.9594
  85   2.0000      -0.901450       -24.5297
  86   2.0000      -0.898845       -24.4588
  87   2.0000      -0.895171       -24.3588
  88   2.0000      -0.887892       -24.1608
  89   2.0000      -0.870217       -23.6798
  90   2.0000      -0.866009       -23.5653
  91   2.0000      -0.859347       -23.3840
  92   2.0000      -0.846536       -23.0354
  93   2.0000      -0.840875       -22.8814
  94   2.0000      -0.835661       -22.7395
  95   2.0000      -0.833584       -22.6830
  96   2.0000      -0.832253       -22.6468
  97   2.0000      -0.828785       -22.5524
  98   2.0000      -0.822519       -22.3819
  99   2.0000      -0.812244       -22.1023
 100   2.0000      -0.804007       -21.8781
 101   2.0000      -0.790389       -21.5076
 102   2.0000      -0.771421       -20.9914
 103   2.0000      -0.763036       -20.7633
 104   2.0000      -0.754433       -20.5292
 105   2.0000      -0.742006       -20.1910
 106   2.0000      -0.735107       -20.0033
 107   2.0000      -0.727205       -19.7882
 108   2.0000      -0.721853       -19.6426
 109   2.0000      -0.714135       -19.4326
 110   2.0000      -0.708871       -19.2894
 111   2.0000      -0.702097       -19.1050
 112   2.0000      -0.692400       -18.8412
 113   2.0000      -0.688189       -18.7266
 114   2.0000      -0.680436       -18.5156
 115   2.0000      -0.676643       -18.4124
 116   2.0000      -0.674402       -18.3514
 117   2.0000      -0.670038       -18.2327
 118   2.0000      -0.665971       -18.1220
 119   2.0000      -0.662074       -18.0160
 120   2.0000      -0.656168       -17.8552
 121   2.0000      -0.644299       -17.5323
 122   2.0000      -0.640096       -17.4179
 123   2.0000      -0.636572       -17.3220
 124   2.0000      -0.633734       -17.2448
 125   2.0000      -0.628417       -17.1001
 126   2.0000      -0.620223       -16.8771
 127   2.0000      -0.617971       -16.8158
 128   2.0000      -0.611710       -16.6455
 129   2.0000      -0.601066       -16.3558
 130   2.0000      -0.588970       -16.0267
 131   2.0000      -0.581730       -15.8297
 132   2.0000      -0.579490       -15.7687
 133   2.0000      -0.575686       -15.6652
 134   2.0000      -0.572845       -15.5879
 135   2.0000      -0.566638       -15.4190
 136   2.0000      -0.565319       -15.3831
 137   2.0000      -0.564271       -15.3546
 138   2.0000      -0.559974       -15.2377
 139   2.0000      -0.553671       -15.0662
 140   2.0000      -0.550826       -14.9887
 141   2.0000      -0.547239       -14.8911
 142   2.0000      -0.546488       -14.8707
 143   2.0000      -0.545217       -14.8361
 144   2.0000      -0.539859       -14.6903
 145   2.0000      -0.537521       -14.6267
 146   2.0000      -0.534804       -14.5528
 147   2.0000      -0.530133       -14.4257
 148   2.0000      -0.529346       -14.4042
 149   2.0000      -0.526881       -14.3372
 150   2.0000      -0.525461       -14.2985
 151   2.0000      -0.522999       -14.2315
 152   2.0000      -0.520716       -14.1694
 153   2.0000      -0.516277       -14.0486
 154   2.0000      -0.512862       -13.9557
 155   2.0000      -0.506418       -13.7803
 156   2.0000      -0.503952       -13.7132
 157   2.0000      -0.498150       -13.5554
 158   2.0000      -0.495897       -13.4940
 159   2.0000      -0.494646       -13.4600
 160   2.0000      -0.491997       -13.3879
 161   2.0000      -0.487748       -13.2723
 162   2.0000      -0.484952       -13.1962
 163   2.0000      -0.483199       -13.1485
 164   2.0000      -0.480241       -13.0680
 165   2.0000      -0.479689       -13.0530
 166   2.0000      -0.478564       -13.0224
 167   2.0000      -0.476222       -12.9587
 168   2.0000      -0.474207       -12.9038
 169   2.0000      -0.472252       -12.8506
 170   2.0000      -0.471636       -12.8339
 171   2.0000      -0.468258       -12.7419
 172   2.0000      -0.466322       -12.6893
 173   2.0000      -0.463658       -12.6168
 174   2.0000      -0.456021       -12.4090
 175   2.0000      -0.452514       -12.3135
 176   2.0000      -0.445846       -12.1321
 177   2.0000      -0.443534       -12.0692
 178   2.0000      -0.440173       -11.9777
 179   2.0000      -0.437382       -11.9018
 180   2.0000      -0.432006       -11.7555
 181   2.0000      -0.430616       -11.7177
 182   2.0000      -0.428917       -11.6714
 183   2.0000      -0.428811       -11.6685
 184   2.0000      -0.427963       -11.6455
 185   2.0000      -0.426948       -11.6178
 186   2.0000      -0.424598       -11.5539
 187   2.0000      -0.421865       -11.4795
 188   2.0000      -0.420996       -11.4559
 189   2.0000      -0.412719       -11.2307
 190   2.0000      -0.409360       -11.1392
 191   2.0000      -0.406060       -11.0495
 192   2.0000      -0.396062       -10.7774
 193   2.0000      -0.389774       -10.6063
 194   2.0000      -0.383578       -10.4377
 195   2.0000      -0.380891       -10.3646
 196   2.0000      -0.374822       -10.1994
 197   2.0000      -0.362533        -9.8650
 198   2.0000      -0.361092        -9.8258
 199   2.0000      -0.353570        -9.6211
 200   2.0000      -0.349068        -9.4986
 201   2.0000      -0.344095        -9.3633
 202   2.0000      -0.342251        -9.3131
 203   2.0000      -0.339824        -9.2471
 204   2.0000      -0.334583        -9.1045
 205   2.0000      -0.325203        -8.8492
 206   2.0000      -0.313103        -8.5200
 207   2.0000      -0.307143        -8.3578
 208   2.0000      -0.305435        -8.3113
 209   2.0000      -0.301145        -8.1946
 210   2.0000      -0.300355        -8.1731
 211   2.0000      -0.297640        -8.0992
 212   2.0000      -0.288585        -7.8528
 213   2.0000      -0.280757        -7.6398
 214   2.0000      -0.276082        -7.5126
 215   2.0000      -0.270786        -7.3685
 216   2.0000      -0.258505        -7.0343
 217   2.0000      -0.249212        -6.7814
 218   2.0000      -0.216922        -5.9027
 219   0.0000      -0.108437        -2.9507
 220   0.0000      -0.099503        -2.7076
 221   0.0000      -0.076969        -2.0944
 222   0.0000      -0.073737        -2.0065
 223   0.0000      -0.054607        -1.4859

MULLIKEN ATOMIC CHARGES
-----------------------
   0 C :    0.073682
   1 O :   -0.173649
   2 C :    0.133064
   3 C :   -0.040849
   4 C :    0.040004
   5 C :    0.031254
   6 C :    0.019725
   7 C :    0.029667
   8 C :   -0.034813
   9 C :    0.009709
  10 C :    0.051455
  11 N :   -0.030393
  12 C :    0.023621
  13 C :    0.000471
  14 C :   -0.005043
  15 S :   -0.144082
  16 C :   -0.021024
  17 C :   -0.014561
  18 N :   -0.029303
  19 C :    0.047732
  20 C :    0.004494
  21 C :    0.076975
  22 C :   -0.112559
  23 C :    0.048403
  24 C :   -0.006428
  25 C :   -0.073140
  26 C :    0.154163
  27 N :   -0.210637
  28 C :    0.156491
  29 N :   -0.225114
  30 C :    0.119909
  31 C :   -0.147033
  32 C :    0.132872
  33 C :   -0.040198
  34 C :    0.024025
  35 C :    0.004666
  36 C :    0.048545
  37 C :   -0.013880
  38 C :    0.019955
  39 C :   -0.041574
  40 C :   -0.001083
  41 C :   -0.000789
  42 C :    0.053080
  43 N :   -0.030993
  44 C :    0.023995
  45 C :   -0.004139
  46 C :   -0.014330
  47 S :   -0.131316
  48 C :   -0.004963
  49 C :   -0.007975
  50 N :   -0.029811
  51 C :    0.044907
  52 C :   -0.016917
  53 C :    0.078299
  54 O :   -0.159577
  55 C :    0.168998
  56 C :   -0.054374
  57 C :    0.071402
  58 C :   -0.036678
  59 C :    0.014744
  60 C :    0.004877
  61 C :   -0.016202
  62 H :    0.008633
  63 H :    0.011303
  64 H :   -0.012139
  65 H :   -0.018245
  66 H :   -0.009649
  67 H :   -0.012780
  68 H :   -0.007445
  69 H :    0.002798
  70 H :    0.002916
  71 H :   -0.031879
  72 H :   -0.018705
  73 H :   -0.011969
  74 H :   -0.019784
  75 H :    0.089144
  76 H :    0.090018
  77 H :   -0.029336
  78 H :   -0.008943
  79 H :    0.099188
  80 H :    0.090871
  81 H :   -0.002326
  82 H :    0.031992
  83 H :   -0.009275
  84 H :   -0.033772
  85 H :   -0.037281
  86 H :   -0.029737
  87 H :    0.006374
  88 H :   -0.008267
  89 H :    0.007534
  90 H :    0.012164
  91 H :    0.014497
  92 H :   -0.009860
  93 H :   -0.015186
  94 H :   -0.014377
  95 H :   -0.006901
  96 H :    0.015742
  97 H :    0.026931
Sum of atomic charges:   -0.0000000

LOEWDIN ATOMIC CHARGES
----------------------
   0 C :    0.040702
   1 O :    0.030556
   2 C :    0.031026
   3 C :   -0.067971
   4 C :   -0.083084
   5 C :   -0.001885
   6 C :   -0.026942
   7 C :   -0.000557
   8 C :   -0.027920
   9 C :   -0.034295
  10 C :    0.082476
  11 N :   -0.080762
  12 C :    0.032901
  13 C :   -0.048027
  14 C :   -0.134251
  15 S :    0.042326
  16 C :   -0.049520
  17 C :    0.033177
  18 N :   -0.081474
  19 C :    0.080542
  20 C :   -0.020831
  21 C :   -0.028217
  22 C :   -0.000863
  23 C :   -0.021668
  24 C :   -0.019463
  25 C :   -0.040899
  26 C :    0.025262
  27 N :   -0.115126
  28 C :    0.028322
  29 N :   -0.119304
  30 C :   -0.010355
  31 C :    0.063913
  32 C :   -0.027962
  33 C :   -0.033469
  34 C :   -0.013427
  35 C :   -0.035479
  36 C :   -0.028011
  37 C :   -0.009561
  38 C :   -0.017151
  39 C :    0.016117
  40 C :   -0.034391
  41 C :   -0.035608
  42 C :    0.087608
  43 N :   -0.083693
  44 C :    0.036263
  45 C :   -0.038716
  46 C :   -0.142847
  47 S :    0.044930
  48 C :   -0.039714
  49 C :    0.034949
  50 N :   -0.079407
  51 C :    0.082376
  52 C :   -0.048303
  53 C :    0.018132
  54 O :    0.039231
  55 C :    0.060853
  56 C :   -0.068857
  57 C :   -0.046449
  58 C :   -0.030154
  59 C :   -0.010735
  60 C :   -0.026822
  61 C :   -0.038602
  62 H :    0.021563
  63 H :    0.022674
  64 H :    0.029886
  65 H :    0.029700
  66 H :    0.029277
  67 H :    0.025743
  68 H :    0.028598
  69 H :    0.021278
  70 H :    0.022241
  71 H :    0.024268
  72 H :    0.025429
  73 H :    0.000152
  74 H :    0.010427
  75 H :    0.052635
  76 H :    0.054507
  77 H :   -0.004789
  78 H :    0.014951
  79 H :    0.052904
  80 H :    0.054290
  81 H :    0.026108
  82 H :    0.056884
  83 H :    0.025991
  84 H :    0.031078
  85 H :    0.027792
  86 H :    0.014694
  87 H :    0.025842
  88 H :    0.027892
  89 H :    0.023590
  90 H :    0.025208
  91 H :    0.027404
  92 H :    0.030366
  93 H :    0.027571
  94 H :    0.027053
  95 H :    0.029214
  96 H :    0.022350
  97 H :    0.026334

  Mayer bond orders larger than 0.100000
B(  0-C ,  1-O ) :   1.1835 B(  0-C ,  4-C ) :   1.4981 B(  0-C , 62-H ) :   1.0027
B(  1-O ,  2-C ) :   1.1430 B(  2-C ,  3-C ) :   1.5780 B(  2-C , 63-H ) :   1.0016
B(  3-C ,  4-C ) :   1.2084 B(  3-C , 64-H ) :   1.0091 B(  4-C ,  5-C ) :   1.0771
B(  5-C ,  6-C ) :   1.6756 B(  5-C , 65-H ) :   0.9798 B(  6-C ,  7-C ) :   1.1449
B(  6-C , 66-H ) :   0.9850 B(  7-C ,  8-C ) :   1.6068 B(  7-C , 67-H ) :   0.9829
B(  8-C ,  9-C ) :   1.1124 B(  8-C , 68-H ) :   0.9763 B(  9-C , 10-C ) :   1.0102
B(  9-C , 13-C ) :   1.4892 B( 10-C , 11-N ) :   1.7407 B( 10-C , 69-H ) :   0.9881
B( 11-N , 12-C ) :   1.2521 B( 12-C , 13-C ) :   1.0753 B( 12-C , 17-C ) :   1.5205
B( 13-C , 14-C ) :   1.0452 B( 14-C , 15-S ) :   1.6732 B( 14-C , 16-C ) :   1.0333
B( 16-C , 17-C ) :   1.0729 B( 16-C , 20-C ) :   1.5285 B( 17-C , 18-N ) :   1.2623
B( 18-N , 19-C ) :   1.7243 B( 19-C , 20-C ) :   1.0418 B( 19-C , 70-H ) :   0.9855
B( 20-C , 21-C ) :   1.0153 B( 21-C , 22-C ) :   1.4933 B( 21-C , 38-C ) :   1.1451
B( 22-C , 23-C ) :   1.1430 B( 22-C , 71-H ) :   0.9923 B( 23-C , 24-C ) :   1.4740
B( 23-C , 36-C ) :   1.1190 B( 24-C , 25-C ) :   1.0314 B( 24-C , 30-C ) :   1.0822
B( 25-C , 26-C ) :   1.0424 B( 25-C , 28-C ) :   1.0411 B( 25-C , 72-H ) :   0.8825
B( 26-C , 27-N ) :   1.0965 B( 26-C , 73-H ) :   0.9378 B( 26-C , 74-H ) :   0.9304
B( 27-N , 75-H ) :   0.9699 B( 27-N , 76-H ) :   0.9681 B( 28-C , 29-N ) :   1.0961
B( 28-C , 77-H ) :   0.9326 B( 28-C , 78-H ) :   0.9347 B( 29-N , 79-H ) :   0.9694
B( 29-N , 80-H ) :   0.9664 B( 30-C , 31-C ) :   1.6382 B( 30-C , 35-C ) :   1.0535
B( 31-C , 32-C ) :   0.9698 B( 31-C , 81-H ) :   0.9749 B( 32-C , 33-C ) :   0.9923
B( 32-C , 39-C ) :   0.9533 B( 32-C , 82-H ) :   0.8752 B( 33-C , 34-C ) :   1.7008
B( 33-C , 83-H ) :   0.9733 B( 34-C , 35-C ) :   1.1350 B( 34-C , 84-H ) :   0.9895
B( 35-C , 36-C ) :   1.4374 B( 36-C , 37-C ) :   1.1328 B( 37-C , 38-C ) :   1.6100
B( 37-C , 85-H ) :   0.9946 B( 38-C , 86-H ) :   0.9679 B( 39-C , 40-C ) :   1.7565
B( 39-C , 87-H ) :   0.9648 B( 40-C , 41-C ) :   1.0877 B( 40-C , 88-H ) :   0.9672
B( 41-C , 42-C ) :   1.0117 B( 41-C , 45-C ) :   1.5389 B( 42-C , 43-N ) :   1.7273
B( 42-C , 89-H ) :   0.9902 B( 43-N , 44-C ) :   1.2621 B( 44-C , 45-C ) :   1.0666
B( 44-C , 49-C ) :   1.5128 B( 45-C , 46-C ) :   1.0239 B( 46-C , 47-S ) :   1.7027
B( 46-C , 48-C ) :   1.0362 B( 48-C , 49-C ) :   1.0684 B( 48-C , 52-C ) :   1.5208
B( 49-C , 50-N ) :   1.2601 B( 50-N , 51-C ) :   1.7302 B( 51-C , 52-C ) :   1.0360
B( 51-C , 90-H ) :   0.9894 B( 52-C , 53-C ) :   1.0634 B( 53-C , 54-O ) :   1.1921
B( 53-C , 57-C ) :   1.4157 B( 54-O , 55-C ) :   1.1584 B( 55-C , 56-C ) :   1.5373
B( 55-C , 91-H ) :   1.0044 B( 56-C , 57-C ) :   1.2222 B( 56-C , 92-H ) :   0.9980
B( 57-C , 58-C ) :   1.0740 B( 58-C , 59-C ) :   1.7325 B( 58-C , 61-C ) :   0.1001
B( 58-C , 93-H ) :   0.9689 B( 59-C , 60-C ) :   1.1024 B( 59-C , 94-H ) :   0.9782
B( 60-C , 61-C ) :   1.9015 B( 60-C , 95-H ) :   0.9772 B( 61-C , 96-H ) :   0.9588
B( 61-C , 97-H ) :   0.9524

-----------------------------------------------------------------------------
         ABSORPTION SPECTRUM VIA TRANSITION ELECTRIC DIPOLE MOMENTS
-----------------------------------------------------------------------------
State   Energy  Wavelength   fosc         T2         TX        TY        TZ
        (cm-1)    (nm)                  (au**2)     (au)      (au)      (au)
-----------------------------------------------------------------------------
   0   10742.7    930.9   0.194183459   5.95079  -1.97410   1.41728   0.21227
   1   12128.3    824.5   0.028761200   0.78070   0.44696  -0.27563  -0.71060
   2   14078.0    710.3   0.089471076   2.09226  -1.24816  -0.09128   0.72527
   3   14916.8    670.4   0.051513000   1.13689   0.92897  -0.21630  -0.47656
   4   15121.7    661.3   0.124960538   2.72050  -1.49594   0.33365   0.60937
   5   15878.9    629.8   0.187669791   3.89089   1.45589  -1.10592   0.74041
   6   16538.8    604.6   0.011567877   0.23026  -0.18546   0.24260  -0.37015
   7   17636.0    567.0   0.059042843   1.10216  -0.97624   0.14403   0.35827
   8   17834.7    560.7   0.001751414   0.03233   0.14438  -0.04387  -0.09776
   9   18664.2    535.8   0.013991875   0.24680   0.35675   0.03929  -0.34349
  10   18821.7    531.3   0.162685481   2.84554  -1.52117   0.44528   0.57733
  11   19416.2    515.0   0.056804060   0.96314   0.68376  -0.41818  -0.56634
  12   20780.5    481.2   0.032178542   0.50978  -0.58508   0.40072   0.08299
  13   22316.8    448.1   0.675945756   9.97139  -2.48831   1.64078  -1.04284
  14   22566.2    443.1   0.337358757   4.92164   1.71146  -0.22213  -1.39399
  15   24383.4    410.1   0.190424281   2.57101   1.27324  -0.47060  -0.85347
  16   24566.9    407.1   0.021661957   0.29028   0.45096  -0.28722   0.06649
  17   25135.1    397.9   0.471324470   6.17327   1.98827  -1.44438   0.36579
  18   25649.1    389.9   0.002246170   0.02883   0.08616  -0.14509   0.01889
  19   26273.3    380.6   0.013582257   0.17019   0.40973  -0.00573   0.04771
  20   26283.2    380.5   0.036021780   0.45119   0.51715  -0.24936   0.34867
  21   26482.2    377.6   0.267425812   3.32449   1.48336  -0.91613  -0.53370
  22   26707.5    374.4   0.160575271   1.97934  -1.16555   0.75676  -0.21942
  23   27137.1    368.5   0.007810777   0.09476   0.15969   0.17958  -0.19237
  24   27291.2    366.4   0.110303690   1.33059  -1.06995   0.37325   0.21560
  25   27875.0    358.7   0.159946531   1.88901   1.27431  -0.46474  -0.22171
  26   28229.3    354.2   0.005360003   0.06251   0.03649   0.16780   0.18171
  27   28423.8    351.8   0.015156651   0.17555   0.23070  -0.02783  -0.34864
  28   28672.9    348.8   0.003698825   0.04247   0.13788  -0.14904   0.03528
  29   29482.3    339.2   0.554773238   6.19483   2.05410  -0.80671  -1.15096
  30   29795.1    335.6   0.027382378   0.30255  -0.37744  -0.02163   0.39953
  31   30198.8    331.1   0.015003688   0.16356  -0.34892   0.11008   0.17233
  32   30439.0    328.5   0.007416004   0.08021   0.27064  -0.06784  -0.04860
  33   30534.6    327.5   0.020700204   0.22318  -0.36920   0.28172  -0.08662
  34   30804.1    324.6   0.026149651   0.27947   0.43113  -0.22297  -0.20948
  35   30980.4    322.8   0.000123249   0.00131  -0.01057   0.03289  -0.01078
  36   31322.6    319.3   0.225330926   2.36831  -1.44026   0.49388   0.22369
  37   31630.4    316.2   0.002587884   0.02693   0.14805  -0.04190  -0.05709
  38   31941.9    313.1   0.003115068   0.03211   0.15277  -0.09314  -0.00965
  39   32155.6    311.0   0.105080708   1.07582   0.90556  -0.49672  -0.09515
  40   32287.3    309.7   0.014512548   0.14797  -0.37702   0.05918   0.04824
  41   32939.8    303.6   0.001131952   0.01131   0.01335   0.07815   0.07091
  42   33381.0    299.6   0.056258736   0.55484  -0.37056   0.23720   0.60105
  43   33492.7    298.6   0.065032130   0.63923  -0.74308   0.28783   0.06490
  44   33749.9    296.3   0.056795047   0.55401  -0.26021  -0.06284   0.69451
  45   34085.7    293.4   0.087524921   0.84535  -0.80479   0.42491   0.13082
  46   34218.3    292.2   0.215495080   2.07326  -1.29004   0.60467   0.20842
  47   34287.1    291.7   0.014916818   0.14323   0.31140  -0.21120   0.04062
  48   34661.1    288.5   0.023567348   0.22384   0.35123  -0.18236  -0.25928
  49   34786.5    287.5   0.031754269   0.30052  -0.34974   0.40888  -0.10493
  50   35062.6    285.2   0.025263754   0.23721   0.41432  -0.10540  -0.23331
  51   35319.3    283.1   0.075939866   0.70784  -0.69187   0.43210  -0.20603
  52   35455.7    282.0   0.001437506   0.01335  -0.09362  -0.04060   0.05417
  53   35680.0    280.3   0.139090192   1.28336   0.88789  -0.18587  -0.67858
  54   35937.1    278.3   0.013937220   0.12768  -0.32709   0.05036   0.13473
  55   36176.6    276.4   0.012936346   0.11772  -0.00968   0.12731  -0.31847
  56   36444.8    274.4   0.056365818   0.50916   0.12672  -0.08521   0.69703
  57   36580.4    273.4   0.259322055   2.33381  -0.82311   0.73962  -1.05322
  58   36724.6    272.3   0.258115314   2.31383   1.23666  -0.06732  -0.88315
  59   36761.1    272.0   0.085977316   0.76996   0.29468   0.11400   0.81862
  60   36964.7    270.5   0.051979935   0.46294   0.44156  -0.51561   0.04589
  61   37281.6    268.2   0.250404610   2.21118   0.67225  -0.78846  -1.06658
  62   37567.1    266.2   0.511194031   4.47975   0.42147   0.20227  -2.06427
  63   37641.3    265.7   0.067622366   0.59143  -0.15033  -0.11883   0.74479
  64   37653.8    265.6   0.016684210   0.14587  -0.01080   0.09001  -0.37102
  65   37832.0    264.3   0.038311493   0.33338  -0.06158  -0.20729   0.53537
  66   38032.2    262.9   0.026493398   0.22933   0.15241  -0.02538   0.45327
  67   38406.5    260.4   0.067595438   0.57941  -0.22420   0.38775  -0.61546
  68   38424.3    260.3   0.007478181   0.06407   0.05775  -0.10690   0.22206
  69   38631.0    258.9   0.052515448   0.44753   0.61472   0.25637  -0.06263
  70   38991.7    256.5   0.015507260   0.13093   0.25591  -0.25041   0.05227
  71   39152.3    255.4   0.023337847   0.19624   0.40061  -0.00881   0.18887
  72   39217.3    255.0   0.009195685   0.07719  -0.04746   0.25790  -0.09182
  73   39248.9    254.8   0.009500330   0.07969  -0.02519  -0.27728   0.04656
  74   39319.6    254.3   0.252825369   2.11683  -1.36039  -0.47096  -0.21062
  75   39549.9    252.8   0.027220925   0.22659   0.06487  -0.17970   0.43599
  76   39877.7    250.8   0.019216311   0.15864  -0.32296  -0.20543   0.11017
  77   40052.8    249.7   0.235190653   1.93314   0.41152   0.54297  -1.21201
  78   40237.0    248.5   0.011342862   0.09281  -0.06699  -0.17697  -0.23874

FINAL SINGLE POINT ENERGY     -3274.812238430850

DIPOLE MOMENT
-------------
                                X             Y             Z
Electronic contribution:      9.93094      -9.69186       1.00298
Nuclear contribution   :    -11.51787       9.81468      -0.30096
                        -----------------------------------------
Total Dipole Moment    :     -1.58693       0.12281       0.70202
                        -----------------------------------------
Magnitude (a.u.)       :      1.73962
Magnitude (Debye)      :      4.42176

Rotational constants in cm-1:     0.001963     0.000258     0.000235
Rotational constants in MHz :    58.854533     7.733970     7.042824

                             ****ORCA TERMINATED NORMALLY****
TOTAL RUN TIME: 0 days 0 hours 8 minutes 9 seconds 931 msec
