                         Program Version 4.2.0 -  RELEASE  -
|  1> # ORCA input file
|  2> # SCF done       -189.505799167603          0.000462897413
|  3> ! CAM-B3LYP def2-SVP def2/J RIJCOSX Grid4 TightSCF
|  4> %maxcore 5000
|  5> %tddft
|  6>     Mode sTDDFT
|  7>     Ethresh 5.0
|  8>     maxcore 5000
|  9> end
| 10>
| 11> %pal
| 12>   nprocs 6
| 13>   end
| 14> * xyz 0 1
| 15>    C       -1.04403        -0.98677         0.64935
| 16>    C       -2.15943        -0.31250         1.35781
| 17>    O       -3.26727        -0.73543         1.60228
| 18>    C       -1.62880         1.00680         1.76207
| 19>    C       -0.31032         1.15392         1.29958
| 20>    C        0.06468        -0.04629         0.56045
| 21>    C        1.22855        -0.20695        -0.14428
| 22>    C        2.25850         0.75751        -0.19754
| 23>    N        3.13636         1.49195        -0.27972
| 24>    C        1.56742        -1.31946        -0.94440
| 25>    N        1.91317        -2.17329        -1.63048
| 26>    C        0.38409         2.32203         1.58442
| 27>    C       -0.24881         3.31428         2.31605
| 28>    C       -1.55799         3.15282         2.75965
| 29>    C       -2.26912         1.98947         2.48829
| 30>   Cl       -2.30493         4.41438         3.66086
| 31>    C       -0.96619        -2.29145         0.24844
| 32>    C       -1.93644        -3.31354         0.20987
| 33>    C       -3.31464        -3.31949         0.38841
| 34>    C       -3.85965        -4.58407         0.20966
| 35>    C       -2.89340        -5.56464        -0.10627
| 36>    S       -1.32534        -4.92432        -0.20084
| 37>    C       -3.54939        -6.81254        -0.24971
| 38>    C       -4.92380        -6.62660        -0.03143
| 39>    C       -5.17000        -5.21812         0.24015
| 40>    C       -6.38047        -4.62224         0.42904
| 41>    C       -7.58863        -5.35105         0.35994
| 42>    N       -8.57454        -5.92942         0.27455
| 43>    C       -6.53309        -3.23542         0.65119
| 44>    N       -6.69286        -2.11288         0.81600
| 45>    C       -5.65618        -7.81110        -0.13838
| 46>    C       -4.84700        -8.88839        -0.43734
| 47>    S       -3.16071        -8.43654        -0.59875
| 48>    C       -5.22555       -10.25351        -0.62715
| 49>    C       -6.35160       -10.89995        -0.16768
| 50>    C       -7.33946       -10.25383         0.74685
| 51>    O       -7.05901        -9.84288         1.83398
| 52>    O       -8.59050       -10.16337         0.26032
| 53>    C       -6.41904       -12.26268        -0.59001
| 54>    C       -5.33665       -12.60226        -1.36662
| 55>    S       -4.24412       -11.31398        -1.59766
| 56>    C       -7.43671       -13.21872        -0.22231
| 57>    C       -7.71558       -14.39709        -0.88182
| 58>    C       -8.71304       -15.13315        -0.23732
| 59>    C       -9.18629       -14.50481         0.92490
| 60>    S       -8.40924       -13.01644         1.22344
| 61>    C      -10.18619       -15.32790         1.51096
| 62>    C      -10.33535       -16.47700         0.71089
| 63>    C       -9.40928       -16.39722        -0.40610
| 64>    C       -9.21151       -17.33673        -1.37491
| 65>    C       -9.94338       -18.54291        -1.39014
| 66>    N      -10.54887       -19.51654        -1.38930
| 67>    C       -8.26655       -17.15719        -2.40639
| 68>    N       -7.49954       -16.99637        -3.24326
| 69>    C      -11.26561       -17.37406         1.21971
| 70>    C      -11.82985       -16.92658         2.40512
| 71>    S      -11.21077       -15.34506         2.86649
| 72>    C      -12.81564       -17.54558         3.20613
| 73>    C      -13.18790       -18.85432         3.24081
| 74>    C      -14.50927       -19.20473         3.83744
| 75>    O      -15.21517       -18.48266         4.49961
| 76>    C      -14.77573       -20.58971         3.39411
| 77>    C      -13.65354       -21.08468         2.70406
| 78>    C      -12.59756       -20.07547         2.72875
| 79>    C      -11.26448       -20.33688         2.55203
| 80>    C      -10.75219       -21.59881         2.18043
| 81>    N      -10.27882       -22.60078         1.88436
| 82>    C      -10.23366       -19.41265         2.81193
| 83>    N       -9.35620       -18.70656         3.03482
| 84>    C      -13.68943       -22.36015         2.16022
| 85>    C      -14.83493       -23.12285         2.32513
| 86>    C      -15.92930       -22.62613         3.02662
| 87>    C      -15.91639       -21.34586         3.56964
| 88>   Cl      -17.32561       -23.61399         3.22020
| 89>    H        1.39950         2.47157         1.25651
| 90>    H        0.27817         4.22665         2.54717
| 91>    H       -3.28363         1.84996         2.82667
| 92>    H        0.00771        -2.62659        -0.08972
| 93>    H       -3.86730        -2.43389         0.64582
| 94>    H       -6.72024        -7.88091        -0.01220
| 95>    H       -8.67878       -10.51174        -0.63708
| 96>    H       -5.11942       -13.56056        -1.79323
| 97>    H       -7.23083       -14.69432        -1.79313
| 98>    H      -11.55885       -18.29002         0.74001
| 99>    H      -13.40369       -16.88757         3.83900
|100>    H      -12.85628       -22.75989         1.60522
|101>    H      -14.88234       -24.11565         1.90612
|102>    H      -16.76204       -20.95146         4.11031
|103> *
|104>
|105>                          ****END OF INPUT****

CARTESIAN COORDINATES (ANGSTROEM)
---------------------------------
  C     -1.044030   -0.986770    0.649350
  C     -2.159430   -0.312500    1.357810
  O     -3.267270   -0.735430    1.602280
  C     -1.628800    1.006800    1.762070
  C     -0.310320    1.153920    1.299580
  C      0.064680   -0.046290    0.560450
  C      1.228550   -0.206950   -0.144280
  C      2.258500    0.757510   -0.197540
  N      3.136360    1.491950   -0.279720
  C      1.567420   -1.319460   -0.944400
  N      1.913170   -2.173290   -1.630480
  C      0.384090    2.322030    1.584420
  C     -0.248810    3.314280    2.316050
  C     -1.557990    3.152820    2.759650
  C     -2.269120    1.989470    2.488290
  Cl    -2.304930    4.414380    3.660860
  C     -0.966190   -2.291450    0.248440
  C     -1.936440   -3.313540    0.209870
  C     -3.314640   -3.319490    0.388410
  C     -3.859650   -4.584070    0.209660
  C     -2.893400   -5.564640   -0.106270
  S     -1.325340   -4.924320   -0.200840
  C     -3.549390   -6.812540   -0.249710
  C     -4.923800   -6.626600   -0.031430
  C     -5.170000   -5.218120    0.240150
  C     -6.380470   -4.622240    0.429040
  C     -7.588630   -5.351050    0.359940
  N     -8.574540   -5.929420    0.274550
  C     -6.533090   -3.235420    0.651190
  N     -6.692860   -2.112880    0.816000
  C     -5.656180   -7.811100   -0.138380
  C     -4.847000   -8.888390   -0.437340
  S     -3.160710   -8.436540   -0.598750
  C     -5.225550  -10.253510   -0.627150
  C     -6.351600  -10.899950   -0.167680
  C     -7.339460  -10.253830    0.746850
  O     -7.059010   -9.842880    1.833980
  O     -8.590500  -10.163370    0.260320
  C     -6.419040  -12.262680   -0.590010
  C     -5.336650  -12.602260   -1.366620
  S     -4.244120  -11.313980   -1.597660
  C     -7.436710  -13.218720   -0.222310
  C     -7.715580  -14.397090   -0.881820
  C     -8.713040  -15.133150   -0.237320
  C     -9.186290  -14.504810    0.924900
  S     -8.409240  -13.016440    1.223440
  C    -10.186190  -15.327900    1.510960
  C    -10.335350  -16.477000    0.710890
  C     -9.409280  -16.397220   -0.406100
  C     -9.211510  -17.336730   -1.374910
  C     -9.943380  -18.542910   -1.390140
  N    -10.548870  -19.516540   -1.389300
  C     -8.266550  -17.157190   -2.406390
  N     -7.499540  -16.996370   -3.243260
  C    -11.265610  -17.374060    1.219710
  C    -11.829850  -16.926580    2.405120
  S    -11.210770  -15.345060    2.866490
  C    -12.815640  -17.545580    3.206130
  C    -13.187900  -18.854320    3.240810
  C    -14.509270  -19.204730    3.837440
  O    -15.215170  -18.482660    4.499610
  C    -14.775730  -20.589710    3.394110
  C    -13.653540  -21.084680    2.704060
  C    -12.597560  -20.075470    2.728750
  C    -11.264480  -20.336880    2.552030
  C    -10.752190  -21.598810    2.180430
  N    -10.278820  -22.600780    1.884360
  C    -10.233660  -19.412650    2.811930
  N     -9.356200  -18.706560    3.034820
  C    -13.689430  -22.360150    2.160220
  C    -14.834930  -23.122850    2.325130
  C    -15.929300  -22.626130    3.026620
  C    -15.916390  -21.345860    3.569640
  Cl   -17.325610  -23.613990    3.220200
  H      1.399500    2.471570    1.256510
  H      0.278170    4.226650    2.547170
  H     -3.283630    1.849960    2.826670
  H      0.007710   -2.626590   -0.089720
  H     -3.867300   -2.433890    0.645820
  H     -6.720240   -7.880910   -0.012200
  H     -8.678780  -10.511740   -0.637080
  H     -5.119420  -13.560560   -1.793230
  H     -7.230830  -14.694320   -1.793130
  H    -11.558850  -18.290020    0.740010
  H    -13.403690  -16.887570    3.839000
  H    -12.856280  -22.759890    1.605220
  H    -14.882340  -24.115650    1.906120
  H    -16.762040  -20.951460    4.110310

 Total Charge           Charge          ....    0
 Multiplicity           Mult            ....    1
 Number of Electrons    NEL             ....  546
 Basis Dimension        Dim             .... 1134

ORBITAL ENERGIES
----------------

  NO   OCC          E(Eh)            E(eV)
   0   2.0000    -101.599551     -2764.6643
   1   2.0000    -101.599065     -2764.6511
   2   2.0000     -89.006438     -2421.9883
   3   2.0000     -89.005042     -2421.9503
   4   2.0000     -89.003649     -2421.9124
   5   2.0000     -89.003303     -2421.9030
   6   2.0000     -88.996708     -2421.7236
   7   2.0000     -19.282978      -524.7165
   8   2.0000     -19.229471      -523.2605
   9   2.0000     -19.226083      -523.1683
  10   2.0000     -19.224311      -523.1201
  11   2.0000     -14.441014      -392.9600
  12   2.0000     -14.440482      -392.9455
  13   2.0000     -14.437596      -392.8670
  14   2.0000     -14.434957      -392.7952
  15   2.0000     -14.425231      -392.5305
  16   2.0000     -14.424805      -392.5189
  17   2.0000     -14.420577      -392.4038
  18   2.0000     -14.420328      -392.3971
  19   2.0000     -10.428873      -283.7841
  20   2.0000     -10.380057      -282.4557
  21   2.0000     -10.376855      -282.3686
  22   2.0000     -10.375483      -282.3312
  23   2.0000     -10.375366      -282.3281
  24   2.0000     -10.363033      -281.9925
  25   2.0000     -10.361245      -281.9438
  26   2.0000     -10.353655      -281.7373
  27   2.0000     -10.353452      -281.7317
  28   2.0000     -10.353080      -281.7216
  29   2.0000     -10.352477      -281.7052
  30   2.0000     -10.351357      -281.6747
  31   2.0000     -10.350797      -281.6595
  32   2.0000     -10.350627      -281.6549
  33   2.0000     -10.349689      -281.6294
  34   2.0000     -10.349111      -281.6136
  35   2.0000     -10.347023      -281.5568
  36   2.0000     -10.346273      -281.5364
  37   2.0000     -10.344625      -281.4916
  38   2.0000     -10.342975      -281.4466
  39   2.0000     -10.341368      -281.4029
  40   2.0000     -10.340646      -281.3833
  41   2.0000     -10.337115      -281.2872
  42   2.0000     -10.336181      -281.2618
  43   2.0000     -10.335627      -281.2467
  44   2.0000     -10.334842      -281.2253
  45   2.0000     -10.333774      -281.1963
  46   2.0000     -10.332945      -281.1737
  47   2.0000     -10.330328      -281.1025
  48   2.0000     -10.329242      -281.0730
  49   2.0000     -10.327526      -281.0263
  50   2.0000     -10.326453      -280.9971
  51   2.0000     -10.323334      -280.9122
  52   2.0000     -10.322465      -280.8885
  53   2.0000     -10.321184      -280.8537
  54   2.0000     -10.320962      -280.8477
  55   2.0000     -10.319809      -280.8163
  56   2.0000     -10.317989      -280.7668
  57   2.0000     -10.316529      -280.7270
  58   2.0000     -10.316199      -280.7180
  59   2.0000     -10.315952      -280.7113
  60   2.0000     -10.315033      -280.6863
  61   2.0000     -10.314803      -280.6801
  62   2.0000     -10.314470      -280.6710
  63   2.0000     -10.313691      -280.6498
  64   2.0000     -10.309924      -280.5473
  65   2.0000     -10.308685      -280.5136
  66   2.0000     -10.308396      -280.5057
  67   2.0000     -10.307642      -280.4852
  68   2.0000     -10.307142      -280.4716
  69   2.0000     -10.307039      -280.4688
  70   2.0000     -10.306894      -280.4648
  71   2.0000     -10.306410      -280.4517
  72   2.0000     -10.305428      -280.4249
  73   2.0000     -10.303976      -280.3855
  74   2.0000      -9.554655      -259.9954
  75   2.0000      -9.554194      -259.9828
  76   2.0000      -8.101227      -220.4456
  77   2.0000      -8.099124      -220.3884
  78   2.0000      -8.098271      -220.3652
  79   2.0000      -8.098113      -220.3609
  80   2.0000      -8.092561      -220.2098
  81   2.0000      -7.324856      -199.3195
  82   2.0000      -7.324397      -199.3070
  83   2.0000      -7.314922      -199.0492
  84   2.0000      -7.314471      -199.0369
  85   2.0000      -7.314386      -199.0346
  86   2.0000      -7.313906      -199.0215
  87   2.0000      -6.070490      -165.1864
  88   2.0000      -6.068292      -165.1266
  89   2.0000      -6.067420      -165.1029
  90   2.0000      -6.067197      -165.0968
  91   2.0000      -6.066294      -165.0723
  92   2.0000      -6.064060      -165.0115
  93   2.0000      -6.063532      -164.9971
  94   2.0000      -6.063231      -164.9889
  95   2.0000      -6.063069      -164.9845
  96   2.0000      -6.061833      -164.9509
  97   2.0000      -6.061699      -164.9472
  98   2.0000      -6.060837      -164.9238
  99   2.0000      -6.060671      -164.9192
 100   2.0000      -6.057408      -164.8304
 101   2.0000      -6.054943      -164.7634
 102   2.0000      -1.206759       -32.8376
 103   2.0000      -1.145205       -31.1626
 104   2.0000      -1.141824       -31.0706
 105   2.0000      -1.122637       -30.5485
 106   2.0000      -1.059393       -28.8275
 107   2.0000      -1.058576       -28.8053
 108   2.0000      -1.034060       -28.1382
 109   2.0000      -1.031909       -28.0797
 110   2.0000      -1.029042       -28.0017
 111   2.0000      -1.028172       -27.9780
 112   2.0000      -1.027175       -27.9508
 113   2.0000      -1.018575       -27.7168
 114   2.0000      -1.014417       -27.6037
 115   2.0000      -1.012920       -27.5630
 116   2.0000      -1.012464       -27.5506
 117   2.0000      -1.011951       -27.5366
 118   2.0000      -1.006014       -27.3750
 119   2.0000      -1.001017       -27.2391
 120   2.0000      -1.000267       -27.2186
 121   2.0000      -0.988891       -26.9091
 122   2.0000      -0.988405       -26.8959
 123   2.0000      -0.973108       -26.4796
 124   2.0000      -0.969236       -26.3742
 125   2.0000      -0.941339       -25.6151
 126   2.0000      -0.940764       -25.5995
 127   2.0000      -0.931492       -25.3472
 128   2.0000      -0.926907       -25.2224
 129   2.0000      -0.911203       -24.7951
 130   2.0000      -0.908010       -24.7082
 131   2.0000      -0.894446       -24.3391
 132   2.0000      -0.891048       -24.2466
 133   2.0000      -0.888267       -24.1710
 134   2.0000      -0.886684       -24.1279
 135   2.0000      -0.874564       -23.7981
 136   2.0000      -0.870481       -23.6870
 137   2.0000      -0.868295       -23.6275
 138   2.0000      -0.866894       -23.5894
 139   2.0000      -0.863720       -23.5030
 140   2.0000      -0.858524       -23.3616
 141   2.0000      -0.822674       -22.3861
 142   2.0000      -0.812717       -22.1151
 143   2.0000      -0.797148       -21.6915
 144   2.0000      -0.789333       -21.4788
 145   2.0000      -0.783687       -21.3252
 146   2.0000      -0.776384       -21.1265
 147   2.0000      -0.775585       -21.1047
 148   2.0000      -0.770923       -20.9779
 149   2.0000      -0.748398       -20.3649
 150   2.0000      -0.735273       -20.0078
 151   2.0000      -0.732394       -19.9295
 152   2.0000      -0.721286       -19.6272
 153   2.0000      -0.717846       -19.5336
 154   2.0000      -0.708695       -19.2846
 155   2.0000      -0.704899       -19.1813
 156   2.0000      -0.702641       -19.1198
 157   2.0000      -0.701047       -19.0764
 158   2.0000      -0.696184       -18.9441
 159   2.0000      -0.694242       -18.8913
 160   2.0000      -0.689930       -18.7740
 161   2.0000      -0.687209       -18.6999
 162   2.0000      -0.686202       -18.6725
 163   2.0000      -0.666049       -18.1241
 164   2.0000      -0.660778       -17.9807
 165   2.0000      -0.651105       -17.7175
 166   2.0000      -0.644240       -17.5307
 167   2.0000      -0.640567       -17.4307
 168   2.0000      -0.632590       -17.2136
 169   2.0000      -0.629569       -17.1314
 170   2.0000      -0.624860       -17.0033
 171   2.0000      -0.623545       -16.9675
 172   2.0000      -0.621033       -16.8992
 173   2.0000      -0.617170       -16.7940
 174   2.0000      -0.610519       -16.6131
 175   2.0000      -0.594670       -16.1818
 176   2.0000      -0.592243       -16.1157
 177   2.0000      -0.590772       -16.0757
 178   2.0000      -0.582570       -15.8525
 179   2.0000      -0.573039       -15.5932
 180   2.0000      -0.568655       -15.4739
 181   2.0000      -0.562200       -15.2982
 182   2.0000      -0.560515       -15.2524
 183   2.0000      -0.559459       -15.2236
 184   2.0000      -0.557381       -15.1671
 185   2.0000      -0.555920       -15.1273
 186   2.0000      -0.552823       -15.0431
 187   2.0000      -0.549048       -14.9403
 188   2.0000      -0.548032       -14.9127
 189   2.0000      -0.547500       -14.8982
 190   2.0000      -0.545464       -14.8428
 191   2.0000      -0.540615       -14.7109
 192   2.0000      -0.539353       -14.6765
 193   2.0000      -0.536130       -14.5888
 194   2.0000      -0.534507       -14.5447
 195   2.0000      -0.529244       -14.4015
 196   2.0000      -0.527408       -14.3515
 197   2.0000      -0.523877       -14.2554
 198   2.0000      -0.518281       -14.1031
 199   2.0000      -0.516063       -14.0428
 200   2.0000      -0.514748       -14.0070
 201   2.0000      -0.514411       -13.9978
 202   2.0000      -0.512530       -13.9466
 203   2.0000      -0.509373       -13.8607
 204   2.0000      -0.506718       -13.7885
 205   2.0000      -0.503278       -13.6949
 206   2.0000      -0.502586       -13.6761
 207   2.0000      -0.501145       -13.6369
 208   2.0000      -0.495893       -13.4939
 209   2.0000      -0.494168       -13.4470
 210   2.0000      -0.493281       -13.4229
 211   2.0000      -0.490930       -13.3589
 212   2.0000      -0.488460       -13.2917
 213   2.0000      -0.484998       -13.1975
 214   2.0000      -0.481073       -13.0906
 215   2.0000      -0.477466       -12.9925
 216   2.0000      -0.475925       -12.9506
 217   2.0000      -0.473208       -12.8766
 218   2.0000      -0.471574       -12.8322
 219   2.0000      -0.470817       -12.8116
 220   2.0000      -0.467851       -12.7309
 221   2.0000      -0.466739       -12.7006
 222   2.0000      -0.465393       -12.6640
 223   2.0000      -0.464825       -12.6485
 224   2.0000      -0.462306       -12.5800
 225   2.0000      -0.460604       -12.5337
 226   2.0000      -0.457523       -12.4498
 227   2.0000      -0.456676       -12.4268
 228   2.0000      -0.456000       -12.4084
 229   2.0000      -0.452982       -12.3263
 230   2.0000      -0.450919       -12.2701
 231   2.0000      -0.449523       -12.2321
 232   2.0000      -0.449356       -12.2276
 233   2.0000      -0.448837       -12.2135
 234   2.0000      -0.448428       -12.2023
 235   2.0000      -0.445763       -12.1298
 236   2.0000      -0.445110       -12.1121
 237   2.0000      -0.443988       -12.0815
 238   2.0000      -0.440484       -11.9862
 239   2.0000      -0.438760       -11.9393
 240   2.0000      -0.436960       -11.8903
 241   2.0000      -0.436162       -11.8686
 242   2.0000      -0.433220       -11.7885
 243   2.0000      -0.432752       -11.7758
 244   2.0000      -0.432088       -11.7577
 245   2.0000      -0.430668       -11.7191
 246   2.0000      -0.428900       -11.6710
 247   2.0000      -0.419541       -11.4163
 248   2.0000      -0.416011       -11.3202
 249   2.0000      -0.414930       -11.2908
 250   2.0000      -0.411100       -11.1866
 251   2.0000      -0.408470       -11.1150
 252   2.0000      -0.399482       -10.8705
 253   2.0000      -0.397124       -10.8063
 254   2.0000      -0.396317       -10.7843
 255   2.0000      -0.388795       -10.5797
 256   2.0000      -0.380482       -10.3534
 257   2.0000      -0.371594       -10.1116
 258   2.0000      -0.363792        -9.8993
 259   2.0000      -0.360737        -9.8161
 260   2.0000      -0.358545        -9.7565
 261   2.0000      -0.356256        -9.6942
 262   2.0000      -0.355911        -9.6848
 263   2.0000      -0.349617        -9.5136
 264   2.0000      -0.347704        -9.4615
 265   2.0000      -0.338705        -9.2166
 266   2.0000      -0.333974        -9.0879
 267   2.0000      -0.331043        -9.0081
 268   2.0000      -0.324011        -8.8168
 269   2.0000      -0.315197        -8.5770
 270   2.0000      -0.312791        -8.5115
 271   2.0000      -0.280210        -7.6249
 272   2.0000      -0.269449        -7.3321
 273   0.0000      -0.120052        -3.2668
 274   0.0000      -0.117979        -3.2104
 275   0.0000      -0.094332        -2.5669
 276   0.0000      -0.094264        -2.5651
 277   0.0000      -0.071420        -1.9434

MULLIKEN ATOMIC CHARGES
-----------------------
   0 C :   -0.087761
   1 C :    0.159269
   2 O :   -0.140208
   3 C :   -0.029014
   4 C :    0.033005
   5 C :    0.303047
   6 C :   -0.351371
   7 C :   -0.184813
   8 N :    0.157684
   9 C :   -0.195748
  10 N :    0.155228
  11 C :   -0.027847
  12 C :    0.051432
  13 C :    0.069650
  14 C :   -0.008306
  15 Cl:   -0.064302
  16 C :    0.036491
  17 C :   -0.114992
  18 C :   -0.001934
  19 C :   -0.008363
  20 C :   -0.080978
  21 S :    0.208816
  22 C :   -0.101118
  23 C :    0.011724
  24 C :    0.310292
  25 C :   -0.290444
  26 C :   -0.190249
  27 N :    0.178976
  28 C :   -0.192415
  29 N :    0.197527
  30 C :   -0.034038
  31 C :   -0.079079
  32 S :    0.203975
  33 C :   -0.104660
  34 C :   -0.047039
  35 C :    0.119367
  36 O :   -0.147735
  37 O :   -0.156986
  38 C :    0.122910
  39 C :   -0.119728
  40 S :    0.172716
  41 C :   -0.132921
  42 C :   -0.032586
  43 C :    0.023911
  44 C :   -0.092627
  45 S :    0.201786
  46 C :   -0.067116
  47 C :   -0.006045
  48 C :    0.303283
  49 C :   -0.283618
  50 C :   -0.183426
  51 N :    0.172096
  52 C :   -0.187303
  53 N :    0.170332
  54 C :   -0.000487
  55 C :   -0.116611
  56 S :    0.225910
  57 C :    0.083869
  58 C :   -0.133461
  59 C :    0.133275
  60 O :   -0.135495
  61 C :   -0.005702
  62 C :    0.012694
  63 C :    0.266558
  64 C :   -0.331269
  65 C :   -0.174449
  66 N :    0.166098
  67 C :   -0.199788
  68 N :    0.170575
  69 C :   -0.025061
  70 C :    0.051815
  71 C :    0.067438
  72 C :   -0.011656
  73 Cl:   -0.065345
  74 H :    0.009445
  75 H :    0.000825
  76 H :    0.001409
  77 H :    0.012411
  78 H :    0.040363
  79 H :    0.030856
  80 H :    0.193083
  81 H :    0.042814
  82 H :    0.004400
  83 H :    0.024739
  84 H :    0.024725
  85 H :    0.015905
  86 H :    0.001703
  87 H :   -0.000336
Sum of atomic charges:   -0.0000000

LOEWDIN ATOMIC CHARGES
----------------------
   0 C :   -0.096528
   1 C :    0.087990
   2 O :   -0.127886
   3 C :   -0.036750
   4 C :   -0.020126
   5 C :    0.076349
   6 C :   -0.138821
   7 C :   -0.019137
   8 N :   -0.048410
   9 C :   -0.024239
  10 N :   -0.050155
  11 C :    0.009386
  12 C :   -0.017634
  13 C :   -0.104986
  14 C :   -0.003474
  15 Cl:    0.147359
  16 C :    0.042591
  17 C :   -0.176418
  18 C :    0.018331
  19 C :   -0.072305
  20 C :   -0.159937
  21 S :    0.499553
  22 C :   -0.187813
  23 C :   -0.051251
  24 C :    0.073886
  25 C :   -0.087721
  26 C :   -0.016801
  27 N :   -0.023002
  28 C :   -0.022509
  29 N :   -0.012117
  30 C :   -0.017687
  31 C :   -0.175522
  32 S :    0.482694
  33 C :   -0.171137
  34 C :   -0.111630
  35 C :    0.052505
  36 O :   -0.129296
  37 O :   -0.025600
  38 C :   -0.076013
  39 C :   -0.170367
  40 S :    0.474428
  41 C :   -0.171092
  42 C :   -0.027488
  43 C :   -0.060470
  44 C :   -0.184713
  45 S :    0.515431
  46 C :   -0.158514
  47 C :   -0.067331
  48 C :    0.082963
  49 C :   -0.098220
  50 C :   -0.013682
  51 N :   -0.030039
  52 C :   -0.015245
  53 N :   -0.032425
  54 C :    0.009057
  55 C :   -0.182802
  56 S :    0.508304
  57 C :    0.044583
  58 C :   -0.091576
  59 C :    0.084639
  60 O :   -0.134257
  61 C :   -0.040114
  62 C :   -0.015794
  63 C :    0.064822
  64 C :   -0.133218
  65 C :   -0.020209
  66 N :   -0.041590
  67 C :   -0.015434
  68 N :   -0.044334
  69 C :    0.009623
  70 C :   -0.015276
  71 C :   -0.106284
  72 C :   -0.004292
  73 Cl:    0.146037
  74 H :    0.043181
  75 H :    0.040112
  76 H :    0.045184
  77 H :    0.043044
  78 H :    0.044049
  79 H :    0.043362
  80 H :    0.098802
  81 H :    0.032158
  82 H :    0.040008
  83 H :    0.042614
  84 H :    0.047129
  85 H :    0.044738
  86 H :    0.040570
  87 H :    0.044192

  Mayer bond orders larger than 0.100000
B(  0-C ,  1-C ) :   0.9416 B(  0-C ,  5-C ) :   1.0750 B(  0-C , 16-C ) :   1.6056
B(  1-C ,  2-O ) :   2.1790 B(  1-C ,  3-C ) :   0.9481 B(  3-C ,  4-C ) :   1.3345
B(  3-C , 14-C ) :   1.3692 B(  4-C ,  5-C ) :   0.9938 B(  4-C , 11-C ) :   1.3568
B(  5-C ,  6-C ) :   1.6345 B(  6-C ,  7-C ) :   1.1406 B(  6-C ,  9-C ) :   1.1391
B(  7-C ,  8-N ) :   2.9784 B(  9-C , 10-N ) :   2.9792 B( 11-C , 12-C ) :   1.3785
B( 11-C , 74-H ) :   0.9819 B( 12-C , 13-C ) :   1.3802 B( 12-C , 75-H ) :   0.9869
B( 13-C , 14-C ) :   1.3287 B( 13-C , 15-Cl) :   0.9925 B( 14-C , 76-H ) :   1.0112
B( 16-C , 17-C ) :   1.2113 B( 16-C , 77-H ) :   0.9120 B( 17-C , 18-C ) :   1.4017
B( 17-C , 21-S ) :   1.0781 B( 18-C , 19-C ) :   1.3132 B( 18-C , 78-H ) :   0.9711
B( 19-C , 20-C ) :   1.3897 B( 19-C , 24-C ) :   0.9937 B( 20-C , 21-S ) :   1.1676
B( 20-C , 22-C ) :   1.1945 B( 22-C , 23-C ) :   1.4417 B( 22-C , 32-S ) :   1.1175
B( 23-C , 24-C ) :   0.9942 B( 23-C , 30-C ) :   1.2970 B( 24-C , 25-C ) :   1.7196
B( 25-C , 26-C ) :   1.1373 B( 25-C , 28-C ) :   1.1360 B( 26-C , 27-N ) :   2.9819
B( 28-C , 29-N ) :   2.9970 B( 30-C , 31-C ) :   1.4902 B( 30-C , 79-H ) :   0.9757
B( 31-C , 32-S ) :   1.1143 B( 31-C , 33-C ) :   1.0886 B( 33-C , 34-C ) :   1.5763
B( 33-C , 40-S ) :   1.1642 B( 34-C , 35-C ) :   0.8750 B( 34-C , 38-C ) :   1.2567
B( 35-C , 36-O ) :   2.2143 B( 35-C , 37-O ) :   1.1983 B( 37-O , 80-H ) :   0.9466
B( 38-C , 39-C ) :   1.5498 B( 38-C , 41-C ) :   1.0234 B( 39-C , 40-S ) :   1.1630
B( 39-C , 81-H ) :   0.9620 B( 41-C , 42-C ) :   1.4878 B( 41-C , 45-S ) :   1.1344
B( 42-C , 43-C ) :   1.2810 B( 42-C , 82-H ) :   0.9964 B( 43-C , 44-C ) :   1.4402
B( 43-C , 48-C ) :   0.9931 B( 44-C , 45-S ) :   1.1329 B( 44-C , 46-C ) :   1.1761
B( 46-C , 47-C ) :   1.4147 B( 46-C , 56-S ) :   1.1606 B( 47-C , 48-C ) :   0.9998
B( 47-C , 54-C ) :   1.3550 B( 48-C , 49-C ) :   1.7181 B( 49-C , 50-C ) :   1.1331
B( 49-C , 52-C ) :   1.1312 B( 50-C , 51-N ) :   2.9832 B( 52-C , 53-N ) :   2.9900
B( 54-C , 55-C ) :   1.4031 B( 54-C , 83-H ) :   0.9807 B( 55-C , 56-S ) :   1.0919
B( 55-C , 57-C ) :   1.1270 B( 57-C , 58-C ) :   1.6820 B( 57-C , 84-H ) :   0.9289
B( 58-C , 59-C ) :   0.9446 B( 58-C , 63-C ) :   1.0311 B( 59-C , 60-O ) :   2.2710
B( 59-C , 61-C ) :   0.9184 B( 61-C , 62-C ) :   1.3327 B( 61-C , 72-C ) :   1.3685
B( 62-C , 63-C ) :   1.0050 B( 62-C , 69-C ) :   1.3683 B( 63-C , 64-C ) :   1.6563
B( 64-C , 65-C ) :   1.1241 B( 64-C , 67-C ) :   1.1728 B( 65-C , 66-N ) :   2.9989
B( 67-C , 68-N ) :   2.9976 B( 69-C , 70-C ) :   1.3730 B( 69-C , 85-H ) :   0.9848
B( 70-C , 71-C ) :   1.3812 B( 70-C , 86-H ) :   0.9881 B( 71-C , 72-C ) :   1.3367
B( 71-C , 73-Cl) :   0.9924 B( 72-C , 87-H ) :   1.0107

-----------------------------------------------------------------------------
         ABSORPTION SPECTRUM VIA TRANSITION ELECTRIC DIPOLE MOMENTS
-----------------------------------------------------------------------------
State   Energy  Wavelength   fosc         T2         TX        TY        TZ
        (cm-1)    (nm)                  (au**2)     (au)      (au)      (au)
-----------------------------------------------------------------------------
   0   14638.9    683.1   0.286772912   6.44921   1.46341   1.99973  -0.55562
   1   15301.9    653.5   0.187631978   4.03679   0.85210   1.78614   0.34702
   2   21242.3    470.8   1.043170887  16.16697  -1.96587  -3.34974   1.03998
   3   22403.4    446.4   0.742759933  10.91467   1.78498   2.71359   0.60411
   4   23349.3    428.3   0.226128320   3.18828  -1.08044  -1.42036  -0.05912
   5   23434.2    426.7   0.009511235   0.13362  -0.03009  -0.36211   0.03984
   6   27076.2    369.3   0.014134057   0.17185   0.23350   0.33496  -0.07164
   7   27143.9    368.4   0.013346548   0.16187   0.15160  -0.27352   0.25313
   8   27752.8    360.3   0.126237903   1.49747  -0.20876  -1.19440  -0.16522
   9   28151.4    355.2   0.166619320   1.94850  -1.08404  -0.35611   0.80408
  10   29114.3    343.5   0.006055495   0.06847   0.04523  -0.08158  -0.24448
  11   29395.1    340.2   0.180803705   2.02492  -0.30100  -1.26963  -0.56776
  12   29587.0    338.0   0.249308522   2.77404  -1.29241  -0.49829   0.92488
  13   30121.4    332.0   0.039589413   0.43269   0.39989   0.04759  -0.52011
  14   30765.0    325.0   0.105410882   1.12799   0.61580  -0.71239  -0.49120
  15   30920.7    323.4   0.138958040   1.47948   1.07174   0.01048   0.57511
  16   31080.0    321.8   0.791659620   8.38558  -0.47059   2.71603   0.88731
  17   31351.1    319.0   0.317890973   3.33812   1.45134   0.99060   0.50044
  18   31863.0    313.8   0.224892799   2.32362  -1.19060   0.47934   0.82239
  19   32405.5    308.6   0.407773092   4.14263  -1.14454  -1.68304   0.00456
  20   32628.3    306.5   0.023672454   0.23885   0.31788   0.35739   0.10039
  21   32668.2    306.1   0.007461569   0.07519   0.21361  -0.02946   0.16940
  22   32890.1    304.0   0.164468294   1.64624  -1.12587  -0.27669   0.54963
  23   32986.1    303.2   0.156470440   1.56163   0.49985  -0.99555  -0.56627
  24   33342.3    299.9   0.088258936   0.87144  -0.64826  -0.67146  -0.01855
  25   34229.6    292.1   0.013197121   0.12693   0.14471   0.32158   0.05070
  26   34359.8    291.0   0.004075076   0.03904  -0.00781   0.04557   0.19211
  27   34425.1    290.5   0.198487013   1.89816   1.19854   0.58229  -0.35016
  28   34523.4    289.7   0.424314422   4.04623   0.97924  -1.33370  -1.14392
  29   34690.1    288.3   0.157875857   1.49826   1.14312  -0.03339  -0.43636
  30   34708.0    288.1   0.286809810   2.72045  -1.45894  -0.28044   0.71644
  31   34981.8    285.9   0.100207232   0.94305  -0.70610  -0.09466  -0.65993
  32   35670.6    280.3   0.180278947   1.66384   1.21642  -0.14810  -0.40277
  33   36141.2    276.7   0.096126045   0.87562   0.78348   0.49067  -0.14500
  34   36210.2    276.2   0.111491011   1.01364  -0.77277  -0.22397   0.60524
  35   36766.8    272.0   0.008320196   0.07450   0.26340   0.00133  -0.07155
  36   36852.8    271.3   0.276584571   2.47077  -1.34336   0.38924   0.71740
  37   36909.3    270.9   0.028155271   0.25113   0.40662   0.26678   0.12090
  38   37125.2    269.4   0.124138127   1.10081  -1.00589  -0.11906   0.27352
  39   37258.0    268.4   0.042162188   0.37255  -0.52391   0.12926   0.28523
  40   37425.1    267.2   0.006041103   0.05314   0.03379   0.22607  -0.02989
  41   37531.0    266.4   0.025787089   0.22620  -0.27814   0.18975   0.33590
  42   37601.7    265.9   0.014176562   0.12412  -0.04400  -0.34899   0.01969
  43   37717.4    265.1   0.079737257   0.69598   0.74173  -0.19179  -0.33020
  44   38042.3    262.9   0.008348816   0.07225  -0.26531  -0.04286   0.00488
  45   38342.5    260.8   0.035355294   0.30356   0.38121  -0.37888  -0.12121
  46   39297.2    254.5   0.054101003   0.45323   0.58642  -0.04711  -0.32730
  47   40169.4    248.9   0.059715282   0.48940  -0.46087  -0.48998   0.19215
  48   40269.7    248.3   0.007905184   0.06463  -0.08438  -0.23527   0.04640

FINAL SINGLE POINT ENERGY     -5749.895570535354

DIPOLE MOMENT
-------------
                                X             Y             Z
Electronic contribution:     -2.83937       2.32105       4.75695
Nuclear contribution   :      2.08088      -2.53126      -5.03271
                        -----------------------------------------
Total Dipole Moment    :     -0.75849      -0.21021      -0.27576
                        -----------------------------------------
Magnitude (a.u.)       :      0.83399
Magnitude (Debye)      :      2.11983

Rotational constants in cm-1:     0.002459     0.000169     0.000162
Rotational constants in MHz :    73.719538     5.075492     4.844453

                             ****ORCA TERMINATED NORMALLY****
TOTAL RUN TIME: 0 days 0 hours 8 minutes 46 seconds 63 msec
