                         Program Version 4.2.0 -  RELEASE  -
|  1> # ORCA input file
|  2> # SCF done       -190.637132320864          0.000682836545
|  3> ! CAM-B3LYP def2-SVP def2/J RIJCOSX Grid4 TightSCF
|  4> %maxcore 5000
|  5> %tddft
|  6>     Mode sTDDFT
|  7>     Ethresh 5.0
|  8>     maxcore 5000
|  9> end
| 10>
| 11> %pal
| 12>   nprocs 6
| 13>   end
| 14> * xyz 0 1
| 15>    C       -6.68090        -0.41747        -1.22045
| 16>    C       -6.80341        -0.93515        -2.58862
| 17>    O       -6.78941        -2.10038        -2.94257
| 18>    C       -6.95360         0.24315        -3.46098
| 19>    C       -6.90767         1.41065        -2.67796
| 20>    C       -6.72083         1.03568        -1.27826
| 21>    C       -6.59167         1.91323        -0.23548
| 22>    C       -6.63731         3.31788        -0.37488
| 23>    N       -6.66620         4.46412        -0.41686
| 24>    C       -6.38431         1.56549         1.11711
| 25>    N       -6.21079         1.36841         2.23490
| 26>    C       -7.03636         2.64664        -3.29612
| 27>    C       -7.20604         2.69330        -4.67123
| 28>    C       -7.24674         1.52694        -5.42869
| 29>    C       -7.12026         0.27843        -4.82988
| 30>   Cl       -7.45810         1.63275        -7.13336
| 31>    C       -6.58185        -1.17971        -0.08669
| 32>    C       -6.54645        -2.57608         0.07087
| 33>    C       -6.47964        -3.16894         1.33832
| 34>    C       -6.45878        -4.54900         1.27581
| 35>    C       -6.50123        -5.02356        -0.05664
| 36>    S       -6.57781        -3.77930        -1.21593
| 37>    C       -6.48050        -6.43960        -0.02003
| 38>    C       -6.42760        -6.86006         1.32728
| 39>    C       -6.41016        -5.68629         2.18402
| 40>    C       -6.36294        -5.65572         3.54588
| 41>    C       -6.31839        -6.83094         4.32713
| 42>    N       -6.28268        -7.77845         4.97096
| 43>    C       -6.35672        -4.44411         4.27051
| 44>    N       -6.35702        -3.46373         4.86431
| 45>    C       -6.41425        -8.24607         1.45814
| 46>    C       -6.45390        -8.86505         0.22027
| 47>    S       -6.50652        -7.74201        -1.11997
| 48>    C       -6.46383       -10.25787        -0.06495
| 49>    N       -6.48489       -10.63244        -1.33312
| 50>    N       -6.50291       -11.87485        -1.71564
| 51>    C       -6.51190       -12.89762        -0.87736
| 52>    C       -6.49376       -12.63728         0.52747
| 53>    C       -6.46260       -11.26331         0.95031
| 54>    N       -6.44755       -11.25926         2.26657
| 55>    O       -6.46779       -12.53474         2.63731
| 56>    N       -6.49601       -13.38109         1.61353
| 57>    C       -6.54092       -14.21001        -1.42289
| 58>    C       -6.58373       -15.41629        -0.74509
| 59>    C       -6.61113       -16.49012        -1.63032
| 60>    C       -6.58269       -16.08340        -2.98260
| 61>    S       -6.52878       -14.38936        -3.16308
| 62>    C       -6.60513       -17.24192        -3.79984
| 63>    C       -6.65549       -18.37588        -2.96466
| 64>    C       -6.65005       -17.94167        -1.57731
| 65>    C       -6.64645       -18.74494        -0.47556
| 66>    C       -6.65493       -20.15108        -0.59781
| 67>    N       -6.66308       -21.29128        -0.71847
| 68>    C       -6.63371       -18.23320         0.83980
| 69>    N       -6.63282       -17.82569         1.91088
| 70>    C       -6.65549       -19.56996        -3.67242
| 71>    C       -6.59386       -19.36573        -5.04363
| 72>    S       -6.57620       -17.65535        -5.44994
| 73>    C       -6.59137       -20.32876        -6.07891
| 74>    C       -6.29352       -21.65387        -6.00293
| 75>    C       -6.76340       -22.55796        -7.09389
| 76>    O       -7.18251       -22.22380        -8.17545
| 77>    C       -6.65542       -23.92135        -6.53284
| 78>    C       -6.03662       -23.86125        -5.27001
| 79>    C       -5.65960       -22.47824        -4.99162
| 80>    C       -4.68496       -22.09469        -4.10942
| 81>    C       -4.00941       -22.98652        -3.24811
| 82>    N       -3.42644       -23.66670        -2.53186
| 83>    C       -4.17261       -20.78506        -4.02111
| 84>    N       -3.70664       -19.73939        -3.93524
| 85>    C       -5.86760       -25.02268        -4.53095
| 86>    C       -6.30499       -26.22308        -5.06815
| 87>    C       -6.89666       -26.26942        -6.32707
| 88>    C       -7.08418       -25.11403        -7.07835
| 89>   Cl       -7.41134       -27.78422        -6.96134
| 90>    H       -7.00992         3.56610        -2.73514
| 91>    H       -7.30863         3.64702        -5.16455
| 92>    H       -7.15068        -0.63303        -5.40553
| 93>    H       -6.53146        -0.65066         0.85738
| 94>    H       -6.45136        -2.58646         2.24233
| 95>    H       -6.37960        -8.79788         2.38059
| 96>    H       -6.59408       -15.47770         0.32861
| 97>    H       -6.73964       -20.54495        -3.22861
| 98>    H       -6.93272       -19.99066        -7.05260
| 99>    H       -5.42106       -25.00594        -3.54995
|100>    H       -6.18698       -27.13610        -4.50608
|101>    H       -7.54701       -25.14085        -8.05203
|102> *
|103>
|104>                          ****END OF INPUT****

CARTESIAN COORDINATES (ANGSTROEM)
---------------------------------
  C     -6.680900   -0.417470   -1.220450
  C     -6.803410   -0.935150   -2.588620
  O     -6.789410   -2.100380   -2.942570
  C     -6.953600    0.243150   -3.460980
  C     -6.907670    1.410650   -2.677960
  C     -6.720830    1.035680   -1.278260
  C     -6.591670    1.913230   -0.235480
  C     -6.637310    3.317880   -0.374880
  N     -6.666200    4.464120   -0.416860
  C     -6.384310    1.565490    1.117110
  N     -6.210790    1.368410    2.234900
  C     -7.036360    2.646640   -3.296120
  C     -7.206040    2.693300   -4.671230
  C     -7.246740    1.526940   -5.428690
  C     -7.120260    0.278430   -4.829880
  Cl    -7.458100    1.632750   -7.133360
  C     -6.581850   -1.179710   -0.086690
  C     -6.546450   -2.576080    0.070870
  C     -6.479640   -3.168940    1.338320
  C     -6.458780   -4.549000    1.275810
  C     -6.501230   -5.023560   -0.056640
  S     -6.577810   -3.779300   -1.215930
  C     -6.480500   -6.439600   -0.020030
  C     -6.427600   -6.860060    1.327280
  C     -6.410160   -5.686290    2.184020
  C     -6.362940   -5.655720    3.545880
  C     -6.318390   -6.830940    4.327130
  N     -6.282680   -7.778450    4.970960
  C     -6.356720   -4.444110    4.270510
  N     -6.357020   -3.463730    4.864310
  C     -6.414250   -8.246070    1.458140
  C     -6.453900   -8.865050    0.220270
  S     -6.506520   -7.742010   -1.119970
  C     -6.463830  -10.257870   -0.064950
  N     -6.484890  -10.632440   -1.333120
  N     -6.502910  -11.874850   -1.715640
  C     -6.511900  -12.897620   -0.877360
  C     -6.493760  -12.637280    0.527470
  C     -6.462600  -11.263310    0.950310
  N     -6.447550  -11.259260    2.266570
  O     -6.467790  -12.534740    2.637310
  N     -6.496010  -13.381090    1.613530
  C     -6.540920  -14.210010   -1.422890
  C     -6.583730  -15.416290   -0.745090
  C     -6.611130  -16.490120   -1.630320
  C     -6.582690  -16.083400   -2.982600
  S     -6.528780  -14.389360   -3.163080
  C     -6.605130  -17.241920   -3.799840
  C     -6.655490  -18.375880   -2.964660
  C     -6.650050  -17.941670   -1.577310
  C     -6.646450  -18.744940   -0.475560
  C     -6.654930  -20.151080   -0.597810
  N     -6.663080  -21.291280   -0.718470
  C     -6.633710  -18.233200    0.839800
  N     -6.632820  -17.825690    1.910880
  C     -6.655490  -19.569960   -3.672420
  C     -6.593860  -19.365730   -5.043630
  S     -6.576200  -17.655350   -5.449940
  C     -6.591370  -20.328760   -6.078910
  C     -6.293520  -21.653870   -6.002930
  C     -6.763400  -22.557960   -7.093890
  O     -7.182510  -22.223800   -8.175450
  C     -6.655420  -23.921350   -6.532840
  C     -6.036620  -23.861250   -5.270010
  C     -5.659600  -22.478240   -4.991620
  C     -4.684960  -22.094690   -4.109420
  C     -4.009410  -22.986520   -3.248110
  N     -3.426440  -23.666700   -2.531860
  C     -4.172610  -20.785060   -4.021110
  N     -3.706640  -19.739390   -3.935240
  C     -5.867600  -25.022680   -4.530950
  C     -6.304990  -26.223080   -5.068150
  C     -6.896660  -26.269420   -6.327070
  C     -7.084180  -25.114030   -7.078350
  Cl    -7.411340  -27.784220   -6.961340
  H     -7.009920    3.566100   -2.735140
  H     -7.308630    3.647020   -5.164550
  H     -7.150680   -0.633030   -5.405530
  H     -6.531460   -0.650660    0.857380
  H     -6.451360   -2.586460    2.242330
  H     -6.379600   -8.797880    2.380590
  H     -6.594080  -15.477700    0.328610
  H     -6.739640  -20.544950   -3.228610
  H     -6.932720  -19.990660   -7.052600
  H     -5.421060  -25.005940   -3.549950
  H     -6.186980  -27.136100   -4.506080
  H     -7.547010  -25.140850   -8.052030

 Total Charge           Charge          ....    0
 Multiplicity           Mult            ....    1
 Number of Electrons    NEL             ....  542
 Basis Dimension        Dim             .... 1134

ORBITAL ENERGIES
----------------

  NO   OCC          E(Eh)            E(eV)
   0   2.0000    -101.604201     -2764.7909
   1   2.0000    -101.601330     -2764.7127
   2   2.0000     -89.006393     -2421.9871
   3   2.0000     -89.004219     -2421.9279
   4   2.0000     -89.003536     -2421.9093
   5   2.0000     -89.000798     -2421.8348
   6   2.0000     -19.393977      -527.7369
   7   2.0000     -19.239807      -523.5418
   8   2.0000     -19.229344      -523.2571
   9   2.0000     -14.520673      -395.1276
  10   2.0000     -14.520400      -395.1202
  11   2.0000     -14.472145      -393.8071
  12   2.0000     -14.471642      -393.7934
  13   2.0000     -14.441106      -392.9625
  14   2.0000     -14.438015      -392.8784
  15   2.0000     -14.436924      -392.8487
  16   2.0000     -14.436534      -392.8381
  17   2.0000     -14.427796      -392.6003
  18   2.0000     -14.427701      -392.5977
  19   2.0000     -14.424191      -392.5022
  20   2.0000     -14.422404      -392.4536
  21   2.0000     -10.387010      -282.6449
  22   2.0000     -10.380168      -282.4587
  23   2.0000     -10.376297      -282.3534
  24   2.0000     -10.374142      -282.2948
  25   2.0000     -10.370865      -282.2056
  26   2.0000     -10.370392      -282.1927
  27   2.0000     -10.364139      -282.0226
  28   2.0000     -10.363871      -282.0153
  29   2.0000     -10.363108      -281.9945
  30   2.0000     -10.361830      -281.9597
  31   2.0000     -10.358174      -281.8602
  32   2.0000     -10.355642      -281.7913
  33   2.0000     -10.355611      -281.7905
  34   2.0000     -10.355207      -281.7795
  35   2.0000     -10.353904      -281.7441
  36   2.0000     -10.353784      -281.7408
  37   2.0000     -10.351728      -281.6848
  38   2.0000     -10.349824      -281.6330
  39   2.0000     -10.347324      -281.5650
  40   2.0000     -10.343415      -281.4586
  41   2.0000     -10.341213      -281.3987
  42   2.0000     -10.339744      -281.3587
  43   2.0000     -10.339574      -281.3541
  44   2.0000     -10.338849      -281.3344
  45   2.0000     -10.338839      -281.3341
  46   2.0000     -10.338500      -281.3249
  47   2.0000     -10.337350      -281.2936
  48   2.0000     -10.336427      -281.2685
  49   2.0000     -10.335980      -281.2563
  50   2.0000     -10.335720      -281.2492
  51   2.0000     -10.329582      -281.0822
  52   2.0000     -10.328798      -281.0609
  53   2.0000     -10.326734      -281.0047
  54   2.0000     -10.324349      -280.9398
  55   2.0000     -10.322811      -280.8980
  56   2.0000     -10.321817      -280.8709
  57   2.0000     -10.320197      -280.8268
  58   2.0000     -10.320187      -280.8266
  59   2.0000     -10.319979      -280.8209
  60   2.0000     -10.319580      -280.8100
  61   2.0000     -10.319386      -280.8048
  62   2.0000     -10.319270      -280.8016
  63   2.0000     -10.318406      -280.7781
  64   2.0000     -10.316847      -280.7357
  65   2.0000     -10.313451      -280.6433
  66   2.0000     -10.312815      -280.6260
  67   2.0000     -10.312364      -280.6137
  68   2.0000     -10.311809      -280.5986
  69   2.0000     -10.311371      -280.5867
  70   2.0000     -10.310656      -280.5672
  71   2.0000     -10.309968      -280.5485
  72   2.0000     -10.309761      -280.5429
  73   2.0000     -10.309338      -280.5314
  74   2.0000     -10.308039      -280.4960
  75   2.0000      -9.559299      -260.1218
  76   2.0000      -9.556456      -260.0444
  77   2.0000      -8.101145      -220.4434
  78   2.0000      -8.098107      -220.3607
  79   2.0000      -8.097282      -220.3382
  80   2.0000      -8.092981      -220.2212
  81   2.0000      -7.329510      -199.4461
  82   2.0000      -7.326635      -199.3679
  83   2.0000      -7.319566      -199.1755
  84   2.0000      -7.319022      -199.1607
  85   2.0000      -7.316735      -199.0985
  86   2.0000      -7.316202      -199.0840
  87   2.0000      -6.070283      -165.1808
  88   2.0000      -6.067383      -165.1019
  89   2.0000      -6.066528      -165.0786
  90   2.0000      -6.066130      -165.0678
  91   2.0000      -6.063634      -164.9999
  92   2.0000      -6.063017      -164.9831
  93   2.0000      -6.062379      -164.9657
  94   2.0000      -6.062173      -164.9601
  95   2.0000      -6.060625      -164.9180
  96   2.0000      -6.059891      -164.8980
  97   2.0000      -6.057621      -164.8363
  98   2.0000      -6.055633      -164.7822
  99   2.0000      -1.348567       -36.6964
 100   2.0000      -1.155541       -31.4439
 101   2.0000      -1.154002       -31.4020
 102   2.0000      -1.145186       -31.1621
 103   2.0000      -1.060711       -28.8634
 104   2.0000      -1.057699       -28.7815
 105   2.0000      -1.051519       -28.6133
 106   2.0000      -1.032391       -28.0928
 107   2.0000      -1.031856       -28.0782
 108   2.0000      -1.030968       -28.0541
 109   2.0000      -1.029378       -28.0108
 110   2.0000      -1.018738       -27.7213
 111   2.0000      -1.016886       -27.6709
 112   2.0000      -1.016503       -27.6604
 113   2.0000      -1.015781       -27.6408
 114   2.0000      -1.014485       -27.6056
 115   2.0000      -1.013526       -27.5795
 116   2.0000      -1.007583       -27.4177
 117   2.0000      -1.004228       -27.3264
 118   2.0000      -1.002564       -27.2812
 119   2.0000      -0.993657       -27.0388
 120   2.0000      -0.991559       -26.9817
 121   2.0000      -0.983499       -26.7624
 122   2.0000      -0.971510       -26.4361
 123   2.0000      -0.958228       -26.0747
 124   2.0000      -0.944349       -25.6970
 125   2.0000      -0.943046       -25.6616
 126   2.0000      -0.930210       -25.3123
 127   2.0000      -0.925060       -25.1721
 128   2.0000      -0.912703       -24.8359
 129   2.0000      -0.909289       -24.7430
 130   2.0000      -0.891458       -24.2578
 131   2.0000      -0.890232       -24.2244
 132   2.0000      -0.885877       -24.1059
 133   2.0000      -0.878564       -23.9070
 134   2.0000      -0.872259       -23.7354
 135   2.0000      -0.871046       -23.7024
 136   2.0000      -0.869656       -23.6645
 137   2.0000      -0.867089       -23.5947
 138   2.0000      -0.858866       -23.3709
 139   2.0000      -0.824327       -22.4311
 140   2.0000      -0.819003       -22.2862
 141   2.0000      -0.806680       -21.9509
 142   2.0000      -0.797614       -21.7042
 143   2.0000      -0.789855       -21.4930
 144   2.0000      -0.785399       -21.3718
 145   2.0000      -0.781917       -21.2771
 146   2.0000      -0.779377       -21.2079
 147   2.0000      -0.777052       -21.1447
 148   2.0000      -0.754380       -20.5277
 149   2.0000      -0.738326       -20.0909
 150   2.0000      -0.724896       -19.7254
 151   2.0000      -0.715615       -19.4729
 152   2.0000      -0.711217       -19.3532
 153   2.0000      -0.710213       -19.3259
 154   2.0000      -0.705101       -19.1868
 155   2.0000      -0.701823       -19.0976
 156   2.0000      -0.699762       -19.0415
 157   2.0000      -0.695258       -18.9189
 158   2.0000      -0.692179       -18.8351
 159   2.0000      -0.690466       -18.7885
 160   2.0000      -0.681706       -18.5502
 161   2.0000      -0.669012       -18.2047
 162   2.0000      -0.667846       -18.1730
 163   2.0000      -0.658338       -17.9143
 164   2.0000      -0.655949       -17.8493
 165   2.0000      -0.644850       -17.5473
 166   2.0000      -0.643316       -17.5055
 167   2.0000      -0.639018       -17.3886
 168   2.0000      -0.634859       -17.2754
 169   2.0000      -0.631032       -17.1712
 170   2.0000      -0.628413       -17.1000
 171   2.0000      -0.626429       -17.0460
 172   2.0000      -0.625453       -17.0194
 173   2.0000      -0.617392       -16.8001
 174   2.0000      -0.604759       -16.4563
 175   2.0000      -0.600634       -16.3441
 176   2.0000      -0.590649       -16.0724
 177   2.0000      -0.588068       -16.0021
 178   2.0000      -0.581124       -15.8132
 179   2.0000      -0.577856       -15.7243
 180   2.0000      -0.567570       -15.4444
 181   2.0000      -0.566835       -15.4244
 182   2.0000      -0.563781       -15.3413
 183   2.0000      -0.561354       -15.2752
 184   2.0000      -0.556890       -15.1537
 185   2.0000      -0.555730       -15.1222
 186   2.0000      -0.555308       -15.1107
 187   2.0000      -0.552498       -15.0342
 188   2.0000      -0.550529       -14.9807
 189   2.0000      -0.548066       -14.9136
 190   2.0000      -0.547037       -14.8856
 191   2.0000      -0.543245       -14.7825
 192   2.0000      -0.539559       -14.6821
 193   2.0000      -0.536859       -14.6087
 194   2.0000      -0.527621       -14.3573
 195   2.0000      -0.525476       -14.2989
 196   2.0000      -0.523607       -14.2481
 197   2.0000      -0.517767       -14.0891
 198   2.0000      -0.517260       -14.0754
 199   2.0000      -0.515587       -14.0298
 200   2.0000      -0.514870       -14.0103
 201   2.0000      -0.512267       -13.9395
 202   2.0000      -0.509358       -13.8603
 203   2.0000      -0.506814       -13.7911
 204   2.0000      -0.504626       -13.7316
 205   2.0000      -0.503445       -13.6994
 206   2.0000      -0.500586       -13.6216
 207   2.0000      -0.496307       -13.5052
 208   2.0000      -0.492997       -13.4151
 209   2.0000      -0.490069       -13.3355
 210   2.0000      -0.488741       -13.2993
 211   2.0000      -0.488473       -13.2920
 212   2.0000      -0.481693       -13.1075
 213   2.0000      -0.475788       -12.9468
 214   2.0000      -0.472057       -12.8453
 215   2.0000      -0.470843       -12.8123
 216   2.0000      -0.469795       -12.7838
 217   2.0000      -0.467805       -12.7296
 218   2.0000      -0.466741       -12.7007
 219   2.0000      -0.466140       -12.6843
 220   2.0000      -0.465655       -12.6711
 221   2.0000      -0.464783       -12.6474
 222   2.0000      -0.460745       -12.5375
 223   2.0000      -0.459582       -12.5059
 224   2.0000      -0.458314       -12.4714
 225   2.0000      -0.456815       -12.4306
 226   2.0000      -0.452545       -12.3144
 227   2.0000      -0.450434       -12.2569
 228   2.0000      -0.449255       -12.2249
 229   2.0000      -0.448882       -12.2147
 230   2.0000      -0.447444       -12.1756
 231   2.0000      -0.446507       -12.1501
 232   2.0000      -0.446209       -12.1420
 233   2.0000      -0.445893       -12.1334
 234   2.0000      -0.444340       -12.0911
 235   2.0000      -0.441671       -12.0185
 236   2.0000      -0.439766       -11.9667
 237   2.0000      -0.437602       -11.9077
 238   2.0000      -0.436151       -11.8683
 239   2.0000      -0.435289       -11.8448
 240   2.0000      -0.434578       -11.8255
 241   2.0000      -0.432854       -11.7785
 242   2.0000      -0.430629       -11.7180
 243   2.0000      -0.429662       -11.6917
 244   2.0000      -0.429402       -11.6846
 245   2.0000      -0.428854       -11.6697
 246   2.0000      -0.427214       -11.6251
 247   2.0000      -0.419673       -11.4199
 248   2.0000      -0.417523       -11.3614
 249   2.0000      -0.413914       -11.2632
 250   2.0000      -0.410815       -11.1789
 251   2.0000      -0.401260       -10.9188
 252   2.0000      -0.398897       -10.8545
 253   2.0000      -0.398687       -10.8488
 254   2.0000      -0.389234       -10.5916
 255   2.0000      -0.376899       -10.2559
 256   2.0000      -0.364679        -9.9234
 257   2.0000      -0.361997        -9.8504
 258   2.0000      -0.358884        -9.7657
 259   2.0000      -0.358517        -9.7557
 260   2.0000      -0.356075        -9.6893
 261   2.0000      -0.354444        -9.6449
 262   2.0000      -0.348566        -9.4850
 263   2.0000      -0.337569        -9.1857
 264   2.0000      -0.335838        -9.1386
 265   2.0000      -0.332116        -9.0373
 266   2.0000      -0.326838        -8.8937
 267   2.0000      -0.319391        -8.6911
 268   2.0000      -0.316679        -8.6173
 269   2.0000      -0.289999        -7.8913
 270   2.0000      -0.268411        -7.3038
 271   0.0000      -0.131821        -3.5870
 272   0.0000      -0.118734        -3.2309
 273   0.0000      -0.102817        -2.7978
 274   0.0000      -0.095276        -2.5926
 275   0.0000      -0.092492        -2.5168

MULLIKEN ATOMIC CHARGES
-----------------------
   0 C :   -0.087511
   1 C :    0.167729
   2 O :   -0.181870
   3 C :   -0.029731
   4 C :    0.034073
   5 C :    0.318851
   6 C :   -0.343020
   7 C :   -0.189674
   8 N :    0.158797
   9 C :   -0.188929
  10 N :    0.159687
  11 C :   -0.025891
  12 C :    0.049092
  13 C :    0.070436
  14 C :   -0.009355
  15 Cl:   -0.063652
  16 C :   -0.026123
  17 C :   -0.054790
  18 C :   -0.060686
  19 C :    0.053137
  20 C :   -0.077977
  21 S :    0.249131
  22 C :   -0.088678
  23 C :    0.013025
  24 C :    0.302776
  25 C :   -0.288986
  26 C :   -0.193268
  27 N :    0.187388
  28 C :   -0.195210
  29 N :    0.185144
  30 C :   -0.053574
  31 C :   -0.124888
  32 S :    0.260202
  33 C :    0.016969
  34 N :   -0.055702
  35 N :   -0.055237
  36 C :    0.014801
  37 C :   -0.028752
  38 C :   -0.027134
  39 N :    0.085423
  40 O :   -0.066475
  41 N :    0.084626
  42 C :   -0.127726
  43 C :   -0.051319
  44 C :    0.010652
  45 C :   -0.084822
  46 S :    0.258607
  47 C :   -0.081110
  48 C :   -0.000193
  49 C :    0.306851
  50 C :   -0.282029
  51 C :   -0.184607
  52 N :    0.167246
  53 C :   -0.192186
  54 N :    0.190588
  55 C :   -0.003922
  56 C :   -0.111395
  57 S :    0.224801
  58 C :    0.079853
  59 C :   -0.127972
  60 C :    0.135145
  61 O :   -0.133443
  62 C :   -0.009241
  63 C :    0.012743
  64 C :    0.262991
  65 C :   -0.326667
  66 C :   -0.174436
  67 N :    0.168960
  68 C :   -0.197364
  69 N :    0.169738
  70 C :   -0.020147
  71 C :    0.047501
  72 C :    0.067858
  73 C :   -0.007586
  74 Cl:   -0.064023
  75 H :    0.009425
  76 H :    0.002757
  77 H :   -0.002499
  78 H :    0.018957
  79 H :    0.030524
  80 H :    0.025363
  81 H :    0.027547
  82 H :    0.026572
  83 H :    0.024078
  84 H :    0.016823
  85 H :    0.004134
  86 H :   -0.001205
Sum of atomic charges:   -0.0000000

LOEWDIN ATOMIC CHARGES
----------------------
   0 C :   -0.108132
   1 C :    0.087464
   2 O :   -0.165941
   3 C :   -0.038767
   4 C :   -0.017265
   5 C :    0.074636
   6 C :   -0.132911
   7 C :   -0.018783
   8 N :   -0.045148
   9 C :   -0.023291
  10 N :   -0.040603
  11 C :    0.010565
  12 C :   -0.015801
  13 C :   -0.105926
  14 C :   -0.004292
  15 Cl:    0.147618
  16 C :    0.057697
  17 C :   -0.180932
  18 C :    0.011449
  19 C :   -0.070663
  20 C :   -0.171870
  21 S :    0.552469
  22 C :   -0.173324
  23 C :   -0.060806
  24 C :    0.073803
  25 C :   -0.095055
  26 C :   -0.020688
  27 N :   -0.020497
  28 C :   -0.019922
  29 N :   -0.021433
  30 C :   -0.008421
  31 C :   -0.177507
  32 S :    0.529953
  33 C :   -0.022893
  34 N :   -0.060366
  35 N :   -0.062663
  36 C :   -0.021012
  37 C :   -0.060056
  38 C :   -0.059945
  39 N :    0.003586
  40 O :    0.101774
  41 N :    0.003337
  42 C :   -0.180828
  43 C :   -0.005396
  44 C :   -0.064055
  45 C :   -0.168665
  46 S :    0.529081
  47 C :   -0.165796
  48 C :   -0.058031
  49 C :    0.078552
  50 C :   -0.092781
  51 C :   -0.011813
  52 N :   -0.031008
  53 C :   -0.021032
  54 N :   -0.017897
  55 C :    0.005930
  56 C :   -0.177256
  57 S :    0.506994
  58 C :    0.041911
  59 C :   -0.085944
  60 C :    0.085152
  61 O :   -0.132693
  62 C :   -0.040604
  63 C :   -0.015505
  64 C :    0.063841
  65 C :   -0.130525
  66 C :   -0.020320
  67 N :   -0.038581
  68 C :   -0.015732
  69 N :   -0.042536
  70 C :    0.010595
  71 C :   -0.014676
  72 C :   -0.106005
  73 C :   -0.003593
  74 Cl:    0.147191
  75 H :    0.043730
  76 H :    0.040939
  77 H :    0.043602
  78 H :    0.054493
  79 H :    0.048829
  80 H :    0.044921
  81 H :    0.045567
  82 H :    0.042590
  83 H :    0.047210
  84 H :    0.045321
  85 H :    0.041152
  86 H :    0.044239

  Mayer bond orders larger than 0.100000
B(  0-C ,  1-C ) :   0.9831 B(  0-C ,  5-C ) :   1.0714 B(  0-C , 16-C ) :   1.5059
B(  1-C ,  2-O ) :   2.1179 B(  1-C ,  3-C ) :   0.9609 B(  3-C ,  4-C ) :   1.3311
B(  3-C , 14-C ) :   1.3621 B(  4-C ,  5-C ) :   0.9931 B(  4-C , 11-C ) :   1.3627
B(  5-C ,  6-C ) :   1.6395 B(  6-C ,  7-C ) :   1.1434 B(  6-C ,  9-C ) :   1.1394
B(  7-C ,  8-N ) :   2.9746 B(  9-C , 10-N ) :   2.9625 B( 11-C , 12-C ) :   1.3723
B( 11-C , 75-H ) :   0.9834 B( 12-C , 13-C ) :   1.3815 B( 12-C , 76-H ) :   0.9883
B( 13-C , 14-C ) :   1.3309 B( 13-C , 15-Cl) :   0.9917 B( 14-C , 77-H ) :   1.0128
B( 16-C , 17-C ) :   1.2573 B( 16-C , 78-H ) :   0.9405 B( 17-C , 18-C ) :   1.3302
B( 17-C , 21-S ) :   1.0785 B( 18-C , 19-C ) :   1.3313 B( 18-C , 79-H ) :   1.0083
B( 19-C , 20-C ) :   1.3647 B( 19-C , 24-C ) :   0.9827 B( 20-C , 21-S ) :   1.1241
B( 20-C , 22-C ) :   1.2051 B( 22-C , 23-C ) :   1.4205 B( 22-C , 32-S ) :   1.1266
B( 23-C , 24-C ) :   0.9965 B( 23-C , 30-C ) :   1.2823 B( 24-C , 25-C ) :   1.7216
B( 25-C , 26-C ) :   1.1334 B( 25-C , 28-C ) :   1.1332 B( 26-C , 27-N ) :   2.9939
B( 28-C , 29-N ) :   2.9931 B( 30-C , 31-C ) :   1.4728 B( 30-C , 80-H ) :   0.9831
B( 31-C , 32-S ) :   1.0905 B( 31-C , 33-C ) :   1.1752 B( 33-C , 34-N ) :   1.7376
B( 33-C , 36-C ) :   0.1106 B( 33-C , 38-C ) :   1.0794 B( 34-N , 35-N ) :   1.2085
B( 35-N , 36-C ) :   1.7387 B( 36-C , 37-C ) :   1.0792 B( 36-C , 42-C ) :   1.1791
B( 37-C , 38-C ) :   1.1667 B( 37-C , 41-N ) :   1.6229 B( 38-C , 39-N ) :   1.6227
B( 39-N , 40-O ) :   1.0760 B( 39-N , 41-N ) :   0.1796 B( 40-O , 41-N ) :   1.0774
B( 42-C , 43-C ) :   1.4756 B( 42-C , 46-S ) :   1.0867 B( 43-C , 44-C ) :   1.2834
B( 43-C , 81-H ) :   0.9825 B( 44-C , 45-C ) :   1.4240 B( 44-C , 49-C ) :   0.9971
B( 45-C , 46-S ) :   1.1305 B( 45-C , 47-C ) :   1.1966 B( 47-C , 48-C ) :   1.4184
B( 47-C , 57-S ) :   1.1493 B( 48-C , 49-C ) :   0.9972 B( 48-C , 55-C ) :   1.3559
B( 49-C , 50-C ) :   1.7172 B( 50-C , 51-C ) :   1.1357 B( 50-C , 53-C ) :   1.1328
B( 51-C , 52-N ) :   2.9778 B( 53-C , 54-N ) :   2.9958 B( 55-C , 56-C ) :   1.4003
B( 55-C , 82-H ) :   0.9796 B( 56-C , 57-S ) :   1.0994 B( 56-C , 58-C ) :   1.1235
B( 58-C , 59-C ) :   1.6902 B( 58-C , 83-H ) :   0.9302 B( 59-C , 60-C ) :   0.9425
B( 59-C , 64-C ) :   1.0262 B( 60-C , 61-O ) :   2.2724 B( 60-C , 62-C ) :   0.9182
B( 62-C , 63-C ) :   1.3315 B( 62-C , 73-C ) :   1.3679 B( 63-C , 64-C ) :   1.0059
B( 63-C , 70-C ) :   1.3682 B( 64-C , 65-C ) :   1.6625 B( 65-C , 66-C ) :   1.1246
B( 65-C , 68-C ) :   1.1693 B( 66-C , 67-N ) :   3.0007 B( 68-C , 69-N ) :   2.9977
B( 70-C , 71-C ) :   1.3732 B( 70-C , 84-H ) :   0.9848 B( 71-C , 72-C ) :   1.3807
B( 71-C , 85-H ) :   0.9885 B( 72-C , 73-C ) :   1.3372 B( 72-C , 74-Cl) :   0.9932
B( 73-C , 86-H ) :   1.0104

-----------------------------------------------------------------------------
         ABSORPTION SPECTRUM VIA TRANSITION ELECTRIC DIPOLE MOMENTS
-----------------------------------------------------------------------------
State   Energy  Wavelength   fosc         T2         TX        TY        TZ
        (cm-1)    (nm)                  (au**2)     (au)      (au)      (au)
-----------------------------------------------------------------------------
   0   13962.1    716.2   1.246105909  29.38191   0.17428  -5.29736  -1.13559
   1   15661.0    638.5   0.148081637   3.11285  -0.03238  -1.65574   0.60854
   2   18571.5    538.5   0.921877473  16.34185  -0.13283   3.93058   0.93529
   3   21044.6    475.2   0.000235368   0.00368   0.00246  -0.05692   0.02089
   4   21723.5    460.3   0.131465810   1.99232   0.42232   0.34521  -1.30184
   5   22455.9    445.3   0.028102495   0.41199  -0.39357   0.49003   0.13026
   6   23777.9    420.6   0.407113506   5.63660   0.27877  -2.11130   1.04944
   7   25224.3    396.4   0.030404102   0.39682  -0.25629   0.51999  -0.24645
   8   26567.8    376.4   0.052989368   0.65661  -0.14183   0.33701  -0.72313
   9   26754.4    373.8   0.019363127   0.23826   0.39543   0.25962   0.12040
  10   27686.6    361.2   0.048080078   0.57170   0.11892   0.71288   0.22218
  11   28377.5    352.4   0.025271210   0.29318  -0.03067   0.52541   0.12721
  12   28581.0    349.9   0.094379108   1.08711   0.11815   0.27393   0.99906
  13   28825.6    346.9   0.294201057   3.36001  -0.12624   0.14703  -1.82276
  14   28948.1    345.4   0.052130903   0.59286   0.05840  -0.25132  -0.72546
  15   29291.5    341.4   0.084276367   0.94720   0.07238   0.95265  -0.18552
  16   29764.7    336.0   0.004870551   0.05387   0.00838   0.22274   0.06471
  17   30090.5    332.3   0.115485274   1.26349  -0.07407   1.02057  -0.46523
  18   30358.6    329.4   0.002447249   0.02654   0.12665   0.08396   0.05871
  19   31093.6    321.6   0.236235063   2.50121  -0.56078  -1.31090  -0.68432
  20   31406.8    318.4   0.077202877   0.80925  -0.42497  -0.34498   0.71389
  21   32114.7    311.4   0.205660707   2.10825   0.01763  -0.64946   1.29851
  22   32366.0    309.0   0.232869393   2.36864   0.03574  -1.39298  -0.65342
  23   32392.1    308.7   0.004337617   0.04408   0.03049  -0.14469   0.14906
  24   32526.6    307.4   0.183773798   1.86003   0.04813   1.35668  -0.13089
  25   32649.6    306.3   0.038979410   0.39304   0.14610   0.06468   0.60623
  26   32794.5    304.9   0.256778558   2.57771   0.26065  -0.29419   1.55667
  27   33040.6    302.7   0.039556059   0.39413   0.35981   0.37832   0.34863
  28   33109.6    302.0   0.192334155   1.91240   0.11764  -1.36686   0.17395
  29   33817.5    295.7   0.029400015   0.28621   0.08181   0.10430   0.51830
  30   34043.5    293.7   0.287820394   2.78332   0.06584   0.10863   1.66349
  31   34480.2    290.0   0.699462092   6.67836   0.79097   1.76953   1.70924
  32   34654.7    288.6   0.098916183   0.93968  -0.44878  -0.60415   0.61097
  33   34909.7    286.5   0.204704362   1.93044   0.39103   0.02571   1.33299
  34   35140.7    284.6   0.097305403   0.91160  -0.04116  -0.47117   0.82940
  35   35264.8    283.6   0.015134524   0.14129   0.07118   0.11304   0.35134
  36   35561.2    281.2   0.392907999   3.63739  -0.12639   0.20413  -1.89202
  37   36049.1    277.4   0.115308187   1.05303   0.11252  -0.98276  -0.27303
  38   36301.2    275.5   0.073419382   0.66583   0.19353   0.49155   0.62190
  39   36476.5    274.1   0.195281225   1.76248   0.39449   1.04779   0.71343
  40   36660.7    272.8   0.066987338   0.60154   0.45604   0.20188   0.59399
  41   36757.7    272.1   0.037450495   0.33542  -0.24665   0.42292   0.30939
  42   36932.8    270.8   0.045339406   0.40415   0.08104   0.53578   0.33245
  43   36975.5    270.4   0.034435845   0.30660   0.01305  -0.41866  -0.36215
  44   37319.5    268.0   0.033098062   0.29197  -0.15924   0.23790  -0.45828
  45   37801.8    264.5   0.004007443   0.03490   0.02632  -0.03231   0.18211
  46   37976.0    263.3   0.098890084   0.85727   0.00299  -0.92169  -0.08807
  47   38198.5    261.8   0.030641873   0.26409  -0.09051  -0.15018  -0.48305
  48   38298.5    261.1   0.015485644   0.13311   0.15507   0.33026   0.00029
  49   38476.6    259.9   0.005282623   0.04520  -0.19439   0.07114   0.04847
  50   38571.2    259.3   0.024921892   0.21271   0.17954   0.42482   0.00283
  51   38706.8    258.4   0.038985691   0.33158  -0.09309   0.47205  -0.31636
  52   39117.5    255.6   0.039172173   0.32967  -0.18162  -0.37357  -0.39640
  53   39337.3    254.2   0.003526200   0.02951  -0.14862   0.05506  -0.06626
  54   39497.8    253.2   0.005289376   0.04409  -0.05788  -0.08999  -0.18066
  55   39962.5    250.2   0.029823543   0.24569  -0.20214   0.45190   0.02472
  56   40022.7    249.9   0.007479832   0.06153   0.01887   0.15182  -0.19524

FINAL SINGLE POINT ENERGY     -5456.040570265979

DIPOLE MOMENT
-------------
                                X             Y             Z
Electronic contribution:     -1.67615      -3.75515      -8.37133
Nuclear contribution   :      0.20744       3.24748       4.53226
                        -----------------------------------------
Total Dipole Moment    :     -1.46871      -0.50767      -3.83907
                        -----------------------------------------
Magnitude (a.u.)       :      4.14166
Magnitude (Debye)      :     10.52726

Rotational constants in cm-1:     0.001741     0.000173     0.000159
Rotational constants in MHz :    52.202176     5.183088     4.755457

                             ****ORCA TERMINATED NORMALLY****
TOTAL RUN TIME: 0 days 0 hours 8 minutes 48 seconds 881 msec
