                         Program Version 4.2.0 -  RELEASE  -
|  1> # ORCA input file
|  2> # SCF done       -243.659996836196          0.000641353861
|  3> ! CAM-B3LYP def2-SVP def2/J RIJCOSX Grid4 TightSCF
|  4> %maxcore 5000
|  5> %tddft
|  6>     Mode sTDDFT
|  7>     Ethresh 5.0
|  8>     maxcore 5000
|  9> end
| 10>
| 11> %pal
| 12>   nprocs 6
| 13>   end
| 14> * xyz 0 1
| 15>    C        3.23566        -5.04589        -0.60670
| 16>    C        2.97342        -4.86864        -2.04008
| 17>    O        2.04302        -5.32274        -2.68216
| 18>    C        4.06918        -4.03072        -2.55728
| 19>    C        4.93761        -3.69741        -1.50195
| 20>    C        4.43741        -4.29835        -0.26798
| 21>    C        5.00559        -4.15473         0.96899
| 22>    C        6.17611        -3.40458         1.21841
| 23>    N        7.12113        -2.81337         1.48992
| 24>    C        4.51918        -4.71321         2.17112
| 25>    N        4.18670        -5.12759         3.18893
| 26>    C        6.05269        -2.91349        -1.76381
| 27>    C        6.27711        -2.48029        -3.06147
| 28>    C        5.40501        -2.81870        -4.09164
| 29>    C        4.28240        -3.60338        -3.85161
| 30>   Cl        5.72286        -2.25814        -5.68714
| 31>    C        2.49398        -5.81713         0.24764
| 32>    C        1.33989        -6.58463         0.01068
| 33>    C        0.75243        -7.35599         1.02048
| 34>    C       -0.35702        -8.05089         0.57732
| 35>    C       -0.63691        -7.79608        -0.78723
| 36>    S        0.46702        -6.72389        -1.51403
| 37>    C       -1.77649        -8.55811        -1.14898
| 38>    C       -2.19966        -9.30100        -0.03257
| 39>    C       -1.35325        -8.97068         1.10174
| 40>    C       -1.53882        -9.37948         2.39030
| 41>    C       -2.65751       -10.16946         2.72589
| 42>    N       -3.60604       -10.77520         2.94856
| 43>    C       -0.67546        -9.00380         3.44098
| 44>    N        0.03427        -8.70442         4.28935
| 45>    C       -3.28215       -10.13163        -0.30541
| 46>    C       -3.72344       -10.00003        -1.60944
| 47>    S       -2.74956        -8.84911        -2.51719
| 48>    C       -4.82782       -10.65455        -2.24718
| 49>    C       -4.77096       -10.69334        -3.72491
| 50>    C       -5.77715       -10.11454        -4.49985
| 51>    C       -5.70829       -10.09785        -5.88731
| 52>    C       -4.61051       -10.66343        -6.53216
| 53>    C       -3.59277       -11.24361        -5.78004
| 54>    C       -3.68078       -11.25042        -4.39257
| 55>    F       -2.70617       -11.82851        -3.68611
| 56>    F       -2.54326       -11.79193        -6.38893
| 57>    F       -4.53859       -10.65324        -7.86001
| 58>    F       -6.68821        -9.54574        -6.60151
| 59>    F       -6.83806        -9.57132        -3.89912
| 60>    C       -5.89910       -11.18175        -1.57284
| 61>    C       -6.11772       -10.91702        -0.13241
| 62>    C       -6.17660        -9.61762         0.37243
| 63>    C       -6.41203        -9.36794         1.71815
| 64>    C       -6.61149       -10.42856         2.59981
| 65>    C       -6.56581       -11.73490         2.11968
| 66>    C       -6.32147       -11.96248         0.76951
| 67>    F       -6.25574       -13.22414         0.33136
| 68>    F       -6.75632       -12.75902         2.94404
| 69>    F       -6.84702       -10.19187         3.88306
| 70>    F       -6.44510        -8.11269         2.16603
| 71>    F       -5.99030        -8.58231        -0.45356
| 72>    C       -6.89748       -12.01989        -2.17378
| 73>    C       -8.18293       -12.20943        -1.69683
| 74>    C       -8.89558       -13.13694        -2.45208
| 75>    C       -8.14569       -13.66872        -3.51504
| 76>    S       -6.56815       -13.02534        -3.57842
| 77>    C       -8.95112       -14.59752        -4.22100
| 78>    C      -10.21250       -14.65384        -3.59516
| 79>    C      -10.21213       -13.75437        -2.45405
| 80>    C      -11.21060       -13.57828        -1.54258
| 81>    C      -12.43147       -14.27847        -1.64622
| 82>    N      -13.41659       -14.85472        -1.75380
| 83>    C      -11.06381       -12.69979        -0.44802
| 84>    N      -10.92263       -11.98025         0.43306
| 85>    C      -11.07108       -15.56851        -4.19208
| 86>    C      -10.47960       -16.21739        -5.26603
| 87>    S       -8.84060       -15.64926        -5.55254
| 88>    C      -11.02692       -17.19491        -6.12934
| 89>    C      -12.09360       -18.01479        -5.93256
| 90>    C      -12.71834       -18.66406        -7.12377
| 91>    O      -12.25358       -18.72184        -8.23626
| 92>    C      -14.02747       -19.15739        -6.64917
| 93>    C      -14.13207       -18.94905        -5.26095
| 94>    C      -12.87961       -18.38022        -4.76951
| 95>    C      -12.44950       -18.44097        -3.47066
| 96>    C      -13.23280       -18.93660        -2.40529
| 97>    N      -13.82364       -19.33108        -1.50496
| 98>    C      -11.14423       -18.11229        -3.05496
| 99>    N      -10.08601       -17.87881        -2.67584
|100>    C      -15.29888       -19.30420        -4.59999
|101>    C      -16.33141       -19.87226        -5.32938
|102>    C      -16.20499       -20.09018        -6.69833
|103>    C      -15.04772       -19.73015        -7.38058
|104>   Cl      -17.50627       -20.81342        -7.56108
|105>    H        6.74577        -2.63699        -0.98663
|106>    H        7.14057        -1.87171        -3.27942
|107>    H        3.59949        -3.87336        -4.64142
|108>    H        2.83284        -5.87769         1.27481
|109>    H        1.14876        -7.39181         2.02004
|110>    H       -3.69800       -10.83249         0.39240
|111>    H       -8.58185       -11.67376        -0.85477
|112>    H      -12.09143       -15.73293        -3.89711
|113>    H      -10.57268       -17.27079        -7.11311
|114>    H      -15.42105       -19.13599        -3.54230
|115>    H      -17.24709       -20.15192        -4.83261
|116>    H      -14.94275       -19.89062        -8.44184
|117> *
|118>
|119>                          ****END OF INPUT****

CARTESIAN COORDINATES (ANGSTROEM)
---------------------------------
  C      3.235660   -5.045890   -0.606700
  C      2.973420   -4.868640   -2.040080
  O      2.043020   -5.322740   -2.682160
  C      4.069180   -4.030720   -2.557280
  C      4.937610   -3.697410   -1.501950
  C      4.437410   -4.298350   -0.267980
  C      5.005590   -4.154730    0.968990
  C      6.176110   -3.404580    1.218410
  N      7.121130   -2.813370    1.489920
  C      4.519180   -4.713210    2.171120
  N      4.186700   -5.127590    3.188930
  C      6.052690   -2.913490   -1.763810
  C      6.277110   -2.480290   -3.061470
  C      5.405010   -2.818700   -4.091640
  C      4.282400   -3.603380   -3.851610
  Cl     5.722860   -2.258140   -5.687140
  C      2.493980   -5.817130    0.247640
  C      1.339890   -6.584630    0.010680
  C      0.752430   -7.355990    1.020480
  C     -0.357020   -8.050890    0.577320
  C     -0.636910   -7.796080   -0.787230
  S      0.467020   -6.723890   -1.514030
  C     -1.776490   -8.558110   -1.148980
  C     -2.199660   -9.301000   -0.032570
  C     -1.353250   -8.970680    1.101740
  C     -1.538820   -9.379480    2.390300
  C     -2.657510  -10.169460    2.725890
  N     -3.606040  -10.775200    2.948560
  C     -0.675460   -9.003800    3.440980
  N      0.034270   -8.704420    4.289350
  C     -3.282150  -10.131630   -0.305410
  C     -3.723440  -10.000030   -1.609440
  S     -2.749560   -8.849110   -2.517190
  C     -4.827820  -10.654550   -2.247180
  C     -4.770960  -10.693340   -3.724910
  C     -5.777150  -10.114540   -4.499850
  C     -5.708290  -10.097850   -5.887310
  C     -4.610510  -10.663430   -6.532160
  C     -3.592770  -11.243610   -5.780040
  C     -3.680780  -11.250420   -4.392570
  F     -2.706170  -11.828510   -3.686110
  F     -2.543260  -11.791930   -6.388930
  F     -4.538590  -10.653240   -7.860010
  F     -6.688210   -9.545740   -6.601510
  F     -6.838060   -9.571320   -3.899120
  C     -5.899100  -11.181750   -1.572840
  C     -6.117720  -10.917020   -0.132410
  C     -6.176600   -9.617620    0.372430
  C     -6.412030   -9.367940    1.718150
  C     -6.611490  -10.428560    2.599810
  C     -6.565810  -11.734900    2.119680
  C     -6.321470  -11.962480    0.769510
  F     -6.255740  -13.224140    0.331360
  F     -6.756320  -12.759020    2.944040
  F     -6.847020  -10.191870    3.883060
  F     -6.445100   -8.112690    2.166030
  F     -5.990300   -8.582310   -0.453560
  C     -6.897480  -12.019890   -2.173780
  C     -8.182930  -12.209430   -1.696830
  C     -8.895580  -13.136940   -2.452080
  C     -8.145690  -13.668720   -3.515040
  S     -6.568150  -13.025340   -3.578420
  C     -8.951120  -14.597520   -4.221000
  C    -10.212500  -14.653840   -3.595160
  C    -10.212130  -13.754370   -2.454050
  C    -11.210600  -13.578280   -1.542580
  C    -12.431470  -14.278470   -1.646220
  N    -13.416590  -14.854720   -1.753800
  C    -11.063810  -12.699790   -0.448020
  N    -10.922630  -11.980250    0.433060
  C    -11.071080  -15.568510   -4.192080
  C    -10.479600  -16.217390   -5.266030
  S     -8.840600  -15.649260   -5.552540
  C    -11.026920  -17.194910   -6.129340
  C    -12.093600  -18.014790   -5.932560
  C    -12.718340  -18.664060   -7.123770
  O    -12.253580  -18.721840   -8.236260
  C    -14.027470  -19.157390   -6.649170
  C    -14.132070  -18.949050   -5.260950
  C    -12.879610  -18.380220   -4.769510
  C    -12.449500  -18.440970   -3.470660
  C    -13.232800  -18.936600   -2.405290
  N    -13.823640  -19.331080   -1.504960
  C    -11.144230  -18.112290   -3.054960
  N    -10.086010  -17.878810   -2.675840
  C    -15.298880  -19.304200   -4.599990
  C    -16.331410  -19.872260   -5.329380
  C    -16.204990  -20.090180   -6.698330
  C    -15.047720  -19.730150   -7.380580
  Cl   -17.506270  -20.813420   -7.561080
  H      6.745770   -2.636990   -0.986630
  H      7.140570   -1.871710   -3.279420
  H      3.599490   -3.873360   -4.641420
  H      2.832840   -5.877690    1.274810
  H      1.148760   -7.391810    2.020040
  H     -3.698000  -10.832490    0.392400
  H     -8.581850  -11.673760   -0.854770
  H    -12.091430  -15.732930   -3.897110
  H    -10.572680  -17.270790   -7.113110
  H    -15.421050  -19.135990   -3.542300
  H    -17.247090  -20.151920   -4.832610
  H    -14.942750  -19.890620   -8.441840

 Total Charge           Charge          ....    0
 Multiplicity           Mult            ....    1
 Number of Electrons    NEL             ....  656
 Basis Dimension        Dim             .... 1344

ORBITAL ENERGIES
----------------

  NO   OCC          E(Eh)            E(eV)
   0   2.0000    -101.603924     -2764.7833
   1   2.0000    -101.600781     -2764.6978
   2   2.0000     -89.006550     -2421.9914
   3   2.0000     -89.005806     -2421.9711
   4   2.0000     -89.005520     -2421.9633
   5   2.0000     -89.000136     -2421.8168
   6   2.0000     -24.830782      -675.6799
   7   2.0000     -24.828557      -675.6194
   8   2.0000     -24.827385      -675.5875
   9   2.0000     -24.825178      -675.5274
  10   2.0000     -24.824777      -675.5165
  11   2.0000     -24.816474      -675.2906
  12   2.0000     -24.815114      -675.2536
  13   2.0000     -24.812480      -675.1819
  14   2.0000     -24.810276      -675.1219
  15   2.0000     -24.807617      -675.0496
  16   2.0000     -19.239063      -523.5215
  17   2.0000     -19.228301      -523.2287
  18   2.0000     -14.446049      -393.0970
  19   2.0000     -14.440927      -392.9576
  20   2.0000     -14.440392      -392.9431
  21   2.0000     -14.439235      -392.9116
  22   2.0000     -14.426897      -392.5758
  23   2.0000     -14.426737      -392.5715
  24   2.0000     -14.423355      -392.4794
  25   2.0000     -14.421712      -392.4347
  26   2.0000     -10.415383      -283.4170
  27   2.0000     -10.411543      -283.3125
  28   2.0000     -10.411097      -283.3004
  29   2.0000     -10.407813      -283.2110
  30   2.0000     -10.407351      -283.1984
  31   2.0000     -10.397426      -282.9283
  32   2.0000     -10.396376      -282.8998
  33   2.0000     -10.396173      -282.8942
  34   2.0000     -10.391177      -282.7583
  35   2.0000     -10.390423      -282.7378
  36   2.0000     -10.386304      -282.6257
  37   2.0000     -10.378896      -282.4241
  38   2.0000     -10.376872      -282.3690
  39   2.0000     -10.376515      -282.3593
  40   2.0000     -10.365405      -282.0570
  41   2.0000     -10.363393      -282.0023
  42   2.0000     -10.357803      -281.8501
  43   2.0000     -10.354828      -281.7692
  44   2.0000     -10.354605      -281.7631
  45   2.0000     -10.354166      -281.7512
  46   2.0000     -10.353145      -281.7234
  47   2.0000     -10.352903      -281.7168
  48   2.0000     -10.352127      -281.6957
  49   2.0000     -10.347575      -281.5718
  50   2.0000     -10.347537      -281.5708
  51   2.0000     -10.345279      -281.5093
  52   2.0000     -10.345026      -281.5025
  53   2.0000     -10.343970      -281.4737
  54   2.0000     -10.342079      -281.4223
  55   2.0000     -10.341337      -281.4021
  56   2.0000     -10.341067      -281.3947
  57   2.0000     -10.340979      -281.3923
  58   2.0000     -10.340472      -281.3785
  59   2.0000     -10.338928      -281.3365
  60   2.0000     -10.338861      -281.3347
  61   2.0000     -10.337793      -281.3057
  62   2.0000     -10.337683      -281.3026
  63   2.0000     -10.337017      -281.2845
  64   2.0000     -10.334454      -281.2148
  65   2.0000     -10.330127      -281.0971
  66   2.0000     -10.328928      -281.0644
  67   2.0000     -10.327749      -281.0323
  68   2.0000     -10.325944      -280.9832
  69   2.0000     -10.323677      -280.9215
  70   2.0000     -10.323460      -280.9156
  71   2.0000     -10.321759      -280.8693
  72   2.0000     -10.320827      -280.8440
  73   2.0000     -10.319357      -280.8040
  74   2.0000     -10.318634      -280.7843
  75   2.0000     -10.317664      -280.7579
  76   2.0000     -10.317613      -280.7565
  77   2.0000     -10.316149      -280.7167
  78   2.0000     -10.316008      -280.7129
  79   2.0000     -10.314728      -280.6780
  80   2.0000     -10.313033      -280.6319
  81   2.0000     -10.311285      -280.5843
  82   2.0000     -10.311117      -280.5797
  83   2.0000     -10.310875      -280.5732
  84   2.0000     -10.310630      -280.5665
  85   2.0000     -10.310006      -280.5495
  86   2.0000     -10.309507      -280.5359
  87   2.0000     -10.309144      -280.5261
  88   2.0000     -10.308707      -280.5142
  89   2.0000     -10.307195      -280.4730
  90   2.0000      -9.559041      -260.1147
  91   2.0000      -9.555937      -260.0303
  92   2.0000      -8.100462      -220.4248
  93   2.0000      -8.100351      -220.4218
  94   2.0000      -8.099753      -220.4055
  95   2.0000      -8.092528      -220.2089
  96   2.0000      -7.329230      -199.4385
  97   2.0000      -7.326147      -199.3546
  98   2.0000      -7.319319      -199.1688
  99   2.0000      -7.318773      -199.1539
 100   2.0000      -7.316190      -199.0837
 101   2.0000      -7.315658      -199.0692
 102   2.0000      -6.069698      -165.1649
 103   2.0000      -6.069604      -165.1623
 104   2.0000      -6.068924      -165.1438
 105   2.0000      -6.065431      -165.0488
 106   2.0000      -6.065376      -165.0473
 107   2.0000      -6.064757      -165.0304
 108   2.0000      -6.062997      -164.9825
 109   2.0000      -6.062802      -164.9772
 110   2.0000      -6.062286      -164.9632
 111   2.0000      -6.061920      -164.9532
 112   2.0000      -6.057178      -164.8242
 113   2.0000      -6.055095      -164.7675
 114   2.0000      -1.358115       -36.9562
 115   2.0000      -1.350830       -36.7580
 116   2.0000      -1.345851       -36.6225
 117   2.0000      -1.342181       -36.5226
 118   2.0000      -1.336791       -36.3759
 119   2.0000      -1.335533       -36.3417
 120   2.0000      -1.331425       -36.2299
 121   2.0000      -1.331218       -36.2243
 122   2.0000      -1.320736       -35.9390
 123   2.0000      -1.315489       -35.7963
 124   2.0000      -1.154796       -31.4236
 125   2.0000      -1.144301       -31.1380
 126   2.0000      -1.060403       -28.8550
 127   2.0000      -1.058937       -28.8152
 128   2.0000      -1.035643       -28.1813
 129   2.0000      -1.033227       -28.1155
 130   2.0000      -1.031195       -28.0602
 131   2.0000      -1.030699       -28.0467
 132   2.0000      -1.027533       -27.9606
 133   2.0000      -1.019836       -27.7512
 134   2.0000      -1.018567       -27.7166
 135   2.0000      -1.016308       -27.6552
 136   2.0000      -1.015061       -27.6212
 137   2.0000      -1.013365       -27.5751
 138   2.0000      -1.010843       -27.5064
 139   2.0000      -1.003840       -27.3159
 140   2.0000      -1.003482       -27.3061
 141   2.0000      -1.001497       -27.2521
 142   2.0000      -0.992876       -27.0175
 143   2.0000      -0.990419       -26.9507
 144   2.0000      -0.978675       -26.6311
 145   2.0000      -0.972960       -26.4756
 146   2.0000      -0.955849       -26.0100
 147   2.0000      -0.944045       -25.6888
 148   2.0000      -0.942179       -25.6380
 149   2.0000      -0.930940       -25.3322
 150   2.0000      -0.924237       -25.1498
 151   2.0000      -0.914131       -24.8748
 152   2.0000      -0.909452       -24.7474
 153   2.0000      -0.907634       -24.6980
 154   2.0000      -0.890457       -24.2306
 155   2.0000      -0.889552       -24.2059
 156   2.0000      -0.885538       -24.0967
 157   2.0000      -0.881581       -23.9890
 158   2.0000      -0.876404       -23.8482
 159   2.0000      -0.871941       -23.7267
 160   2.0000      -0.869636       -23.6640
 161   2.0000      -0.869195       -23.6520
 162   2.0000      -0.868296       -23.6275
 163   2.0000      -0.866246       -23.5718
 164   2.0000      -0.858990       -23.3743
 165   2.0000      -0.834766       -22.7151
 166   2.0000      -0.816664       -22.2225
 167   2.0000      -0.805618       -21.9220
 168   2.0000      -0.790883       -21.5210
 169   2.0000      -0.789294       -21.4778
 170   2.0000      -0.782597       -21.2955
 171   2.0000      -0.780754       -21.2454
 172   2.0000      -0.777691       -21.1620
 173   2.0000      -0.773322       -21.0432
 174   2.0000      -0.768792       -20.9199
 175   2.0000      -0.758250       -20.6330
 176   2.0000      -0.753450       -20.5024
 177   2.0000      -0.747421       -20.3384
 178   2.0000      -0.729276       -19.8446
 179   2.0000      -0.722035       -19.6476
 180   2.0000      -0.715293       -19.4641
 181   2.0000      -0.710808       -19.3421
 182   2.0000      -0.709789       -19.3143
 183   2.0000      -0.707276       -19.2460
 184   2.0000      -0.704172       -19.1615
 185   2.0000      -0.701077       -19.0773
 186   2.0000      -0.698733       -19.0135
 187   2.0000      -0.695434       -18.9237
 188   2.0000      -0.694315       -18.8933
 189   2.0000      -0.690277       -18.7834
 190   2.0000      -0.689687       -18.7673
 191   2.0000      -0.685370       -18.6499
 192   2.0000      -0.679854       -18.4998
 193   2.0000      -0.675498       -18.3812
 194   2.0000      -0.666138       -18.1265
 195   2.0000      -0.663053       -18.0426
 196   2.0000      -0.656396       -17.8615
 197   2.0000      -0.650604       -17.7038
 198   2.0000      -0.649188       -17.6653
 199   2.0000      -0.646391       -17.5892
 200   2.0000      -0.643882       -17.5209
 201   2.0000      -0.639286       -17.3959
 202   2.0000      -0.636333       -17.3155
 203   2.0000      -0.635518       -17.2933
 204   2.0000      -0.634054       -17.2535
 205   2.0000      -0.630997       -17.1703
 206   2.0000      -0.630421       -17.1546
 207   2.0000      -0.626196       -17.0397
 208   2.0000      -0.625730       -17.0270
 209   2.0000      -0.625221       -17.0131
 210   2.0000      -0.623644       -16.9702
 211   2.0000      -0.620170       -16.8757
 212   2.0000      -0.616410       -16.7734
 213   2.0000      -0.612915       -16.6783
 214   2.0000      -0.604735       -16.4557
 215   2.0000      -0.602909       -16.4060
 216   2.0000      -0.599945       -16.3253
 217   2.0000      -0.595202       -16.1963
 218   2.0000      -0.591669       -16.1001
 219   2.0000      -0.590306       -16.0630
 220   2.0000      -0.588061       -16.0019
 221   2.0000      -0.579984       -15.7822
 222   2.0000      -0.577804       -15.7228
 223   2.0000      -0.574088       -15.6217
 224   2.0000      -0.572446       -15.5770
 225   2.0000      -0.565884       -15.3985
 226   2.0000      -0.564984       -15.3740
 227   2.0000      -0.561953       -15.2915
 228   2.0000      -0.561575       -15.2812
 229   2.0000      -0.560624       -15.2553
 230   2.0000      -0.558969       -15.2103
 231   2.0000      -0.557006       -15.1569
 232   2.0000      -0.553439       -15.0598
 233   2.0000      -0.551845       -15.0165
 234   2.0000      -0.549129       -14.9426
 235   2.0000      -0.548459       -14.9243
 236   2.0000      -0.547831       -14.9072
 237   2.0000      -0.546465       -14.8701
 238   2.0000      -0.545238       -14.8367
 239   2.0000      -0.544172       -14.8077
 240   2.0000      -0.540848       -14.7172
 241   2.0000      -0.537993       -14.6395
 242   2.0000      -0.535660       -14.5761
 243   2.0000      -0.532960       -14.5026
 244   2.0000      -0.528294       -14.3756
 245   2.0000      -0.525107       -14.2889
 246   2.0000      -0.523608       -14.2481
 247   2.0000      -0.522947       -14.2301
 248   2.0000      -0.517471       -14.0811
 249   2.0000      -0.517011       -14.0686
 250   2.0000      -0.516432       -14.0528
 251   2.0000      -0.516404       -14.0521
 252   2.0000      -0.515265       -14.0211
 253   2.0000      -0.509351       -13.8601
 254   2.0000      -0.508868       -13.8470
 255   2.0000      -0.507793       -13.8177
 256   2.0000      -0.505520       -13.7559
 257   2.0000      -0.503518       -13.7014
 258   2.0000      -0.502054       -13.6616
 259   2.0000      -0.501619       -13.6498
 260   2.0000      -0.497868       -13.5477
 261   2.0000      -0.493734       -13.4352
 262   2.0000      -0.491533       -13.3753
 263   2.0000      -0.491188       -13.3659
 264   2.0000      -0.488722       -13.2988
 265   2.0000      -0.488145       -13.2831
 266   2.0000      -0.485375       -13.2077
 267   2.0000      -0.481318       -13.0973
 268   2.0000      -0.480734       -13.0814
 269   2.0000      -0.479618       -13.0511
 270   2.0000      -0.474614       -12.9149
 271   2.0000      -0.471529       -12.8309
 272   2.0000      -0.471012       -12.8169
 273   2.0000      -0.470408       -12.8004
 274   2.0000      -0.469895       -12.7865
 275   2.0000      -0.468696       -12.7539
 276   2.0000      -0.467395       -12.7185
 277   2.0000      -0.466398       -12.6913
 278   2.0000      -0.462890       -12.5959
 279   2.0000      -0.460036       -12.5182
 280   2.0000      -0.458685       -12.4815
 281   2.0000      -0.457717       -12.4551
 282   2.0000      -0.454203       -12.3595
 283   2.0000      -0.453394       -12.3375
 284   2.0000      -0.451929       -12.2976
 285   2.0000      -0.450764       -12.2659
 286   2.0000      -0.450692       -12.2639
 287   2.0000      -0.449457       -12.2304
 288   2.0000      -0.448640       -12.2081
 289   2.0000      -0.446445       -12.1484
 290   2.0000      -0.445804       -12.1309
 291   2.0000      -0.444582       -12.0977
 292   2.0000      -0.440656       -11.9909
 293   2.0000      -0.439290       -11.9537
 294   2.0000      -0.438850       -11.9417
 295   2.0000      -0.438231       -11.9249
 296   2.0000      -0.436913       -11.8890
 297   2.0000      -0.434751       -11.8302
 298   2.0000      -0.434611       -11.8264
 299   2.0000      -0.430423       -11.7124
 300   2.0000      -0.428195       -11.6518
 301   2.0000      -0.419391       -11.4122
 302   2.0000      -0.416971       -11.3464
 303   2.0000      -0.414759       -11.2862
 304   2.0000      -0.410836       -11.1794
 305   2.0000      -0.409456       -11.1419
 306   2.0000      -0.401010       -10.9120
 307   2.0000      -0.398357       -10.8399
 308   2.0000      -0.390359       -10.6222
 309   2.0000      -0.380266       -10.3476
 310   2.0000      -0.366036        -9.9604
 311   2.0000      -0.365489        -9.9455
 312   2.0000      -0.361077        -9.8254
 313   2.0000      -0.358848        -9.7647
 314   2.0000      -0.357846        -9.7375
 315   2.0000      -0.354683        -9.6514
 316   2.0000      -0.353126        -9.6090
 317   2.0000      -0.349751        -9.5172
 318   2.0000      -0.346592        -9.4312
 319   2.0000      -0.343976        -9.3601
 320   2.0000      -0.336949        -9.1688
 321   2.0000      -0.332705        -9.0534
 322   2.0000      -0.329292        -8.9605
 323   2.0000      -0.322838        -8.7849
 324   2.0000      -0.318195        -8.6585
 325   2.0000      -0.314142        -8.5482
 326   2.0000      -0.289421        -7.8755
 327   2.0000      -0.262332        -7.1384
 328   0.0000      -0.126158        -3.4329
 329   0.0000      -0.117184        -3.1887
 330   0.0000      -0.097842        -2.6624
 331   0.0000      -0.094963        -2.5841
 332   0.0000      -0.079960        -2.1758

MULLIKEN ATOMIC CHARGES
-----------------------
   0 C :   -0.091446
   1 C :    0.169276
   2 O :   -0.185485
   3 C :   -0.024856
   4 C :    0.032994
   5 C :    0.319870
   6 C :   -0.346606
   7 C :   -0.190111
   8 N :    0.160064
   9 C :   -0.192124
  10 N :    0.162004
  11 C :   -0.029400
  12 C :    0.050320
  13 C :    0.070194
  14 C :   -0.010264
  15 Cl:   -0.064245
  16 C :   -0.026378
  17 C :   -0.054829
  18 C :   -0.058564
  19 C :    0.045862
  20 C :   -0.069376
  21 S :    0.245623
  22 C :   -0.089408
  23 C :    0.006153
  24 C :    0.302848
  25 C :   -0.285227
  26 C :   -0.168742
  27 N :    0.149954
  28 C :   -0.189020
  29 N :    0.188676
  30 C :   -0.004322
  31 C :   -0.139102
  32 S :    0.208717
  33 C :    0.125550
  34 C :   -0.314809
  35 C :    0.255417
  36 C :    0.168784
  37 C :    0.138485
  38 C :    0.171999
  39 C :    0.230145
  40 F :   -0.152426
  41 F :   -0.151454
  42 F :   -0.145552
  43 F :   -0.151806
  44 F :   -0.149782
  45 C :    0.116964
  46 C :   -0.237468
  47 C :    0.218590
  48 C :    0.160503
  49 C :    0.165679
  50 C :    0.189545
  51 C :    0.194751
  52 F :   -0.158144
  53 F :   -0.146798
  54 F :   -0.141486
  55 F :   -0.156503
  56 F :   -0.160125
  57 C :   -0.152290
  58 C :   -0.009214
  59 C :    0.026783
  60 C :   -0.090859
  61 S :    0.189732
  62 C :   -0.072404
  63 C :   -0.002539
  64 C :    0.302021
  65 C :   -0.278444
  66 C :   -0.183258
  67 N :    0.172571
  68 C :   -0.183323
  69 N :    0.172702
  70 C :   -0.000949
  71 C :   -0.114071
  72 S :    0.219078
  73 C :    0.082313
  74 C :   -0.130838
  75 C :    0.134568
  76 O :   -0.136014
  77 C :   -0.009168
  78 C :    0.018522
  79 C :    0.265080
  80 C :   -0.330069
  81 C :   -0.174645
  82 N :    0.168039
  83 C :   -0.196784
  84 N :    0.172018
  85 C :   -0.027072
  86 C :    0.050542
  87 C :    0.068765
  88 C :   -0.011563
  89 Cl:   -0.064679
  90 H :    0.010508
  91 H :    0.002131
  92 H :   -0.003274
  93 H :    0.017257
  94 H :    0.029244
  95 H :    0.016821
  96 H :    0.020801
  97 H :    0.024462
  98 H :    0.023824
  99 H :    0.017357
 100 H :    0.003554
 101 H :   -0.000348
Sum of atomic charges:   -0.0000000

LOEWDIN ATOMIC CHARGES
----------------------
   0 C :   -0.111148
   1 C :    0.087776
   2 O :   -0.168319
   3 C :   -0.038537
   4 C :   -0.016977
   5 C :    0.074896
   6 C :   -0.134076
   7 C :   -0.019056
   8 N :   -0.045880
   9 C :   -0.023072
  10 N :   -0.041888
  11 C :    0.010241
  12 C :   -0.016031
  13 C :   -0.106084
  14 C :   -0.004894
  15 Cl:    0.147305
  16 C :    0.057545
  17 C :   -0.184168
  18 C :    0.014148
  19 C :   -0.077897
  20 C :   -0.164807
  21 S :    0.550732
  22 C :   -0.186328
  23 C :   -0.055277
  24 C :    0.081989
  25 C :   -0.101213
  26 C :   -0.000884
  27 N :   -0.041910
  28 C :   -0.022356
  29 N :   -0.018273
  30 C :   -0.024163
  31 C :   -0.151678
  32 S :    0.498080
  33 C :   -0.037613
  34 C :   -0.119174
  35 C :    0.062682
  36 C :    0.026692
  37 C :    0.047537
  38 C :    0.026694
  39 C :    0.056653
  40 F :   -0.034389
  41 F :   -0.031746
  42 F :   -0.024276
  43 F :   -0.032452
  44 F :   -0.029594
  45 C :   -0.011391
  46 C :   -0.090828
  47 C :    0.064587
  48 C :    0.027517
  49 C :    0.055946
  50 C :    0.036103
  51 C :    0.064108
  52 F :   -0.036875
  53 F :   -0.026141
  54 F :   -0.017802
  55 F :   -0.035560
  56 F :   -0.037301
  57 C :   -0.162537
  58 C :   -0.012608
  59 C :   -0.059197
  60 C :   -0.176912
  61 S :    0.498600
  62 C :   -0.162157
  63 C :   -0.062354
  64 C :    0.081769
  65 C :   -0.093715
  66 C :   -0.013365
  67 N :   -0.028709
  68 C :   -0.014612
  69 N :   -0.027821
  70 C :    0.008386
  71 C :   -0.179947
  72 S :    0.503625
  73 C :    0.041894
  74 C :   -0.088998
  75 C :    0.085099
  76 O :   -0.133670
  77 C :   -0.040734
  78 C :   -0.015416
  79 C :    0.064457
  80 C :   -0.131422
  81 C :   -0.020270
  82 N :   -0.039105
  83 C :   -0.015243
  84 N :   -0.042669
  85 C :    0.009637
  86 C :   -0.014793
  87 C :   -0.106246
  88 C :   -0.004012
  89 Cl:    0.147065
  90 H :    0.043910
  91 H :    0.040786
  92 H :    0.043310
  93 H :    0.054168
  94 H :    0.048985
  95 H :    0.040676
  96 H :    0.042967
  97 H :    0.042929
  98 H :    0.046728
  99 H :    0.045086
 100 H :    0.041004
 101 H :    0.044257

  Mayer bond orders larger than 0.100000
B(  0-C ,  1-C ) :   0.9867 B(  0-C ,  5-C ) :   1.0691 B(  0-C , 16-C ) :   1.5040
B(  1-C ,  2-O ) :   2.1130 B(  1-C ,  3-C ) :   0.9596 B(  3-C ,  4-C ) :   1.3316
B(  3-C , 14-C ) :   1.3640 B(  4-C ,  5-C ) :   0.9925 B(  4-C , 11-C ) :   1.3635
B(  5-C ,  6-C ) :   1.6397 B(  6-C ,  7-C ) :   1.1432 B(  6-C ,  9-C ) :   1.1417
B(  7-C ,  8-N ) :   2.9750 B(  9-C , 10-N ) :   2.9633 B( 11-C , 12-C ) :   1.3724
B( 11-C , 90-H ) :   0.9817 B( 12-C , 13-C ) :   1.3839 B( 12-C , 91-H ) :   0.9869
B( 13-C , 14-C ) :   1.3301 B( 13-C , 15-Cl) :   0.9912 B( 14-C , 92-H ) :   1.0113
B( 16-C , 17-C ) :   1.2609 B( 16-C , 93-H ) :   0.9393 B( 17-C , 18-C ) :   1.3337
B( 17-C , 21-S ) :   1.0701 B( 18-C , 19-C ) :   1.3268 B( 18-C , 94-H ) :   1.0101
B( 19-C , 20-C ) :   1.3572 B( 19-C , 24-C ) :   0.9871 B( 20-C , 21-S ) :   1.1303
B( 20-C , 22-C ) :   1.1967 B( 22-C , 23-C ) :   1.4279 B( 22-C , 32-S ) :   1.1233
B( 23-C , 24-C ) :   0.9974 B( 23-C , 30-C ) :   1.2940 B( 24-C , 25-C ) :   1.7137
B( 25-C , 26-C ) :   1.1335 B( 25-C , 28-C ) :   1.1274 B( 26-C , 27-N ) :   2.9657
B( 28-C , 29-N ) :   2.9996 B( 30-C , 31-C ) :   1.4479 B( 30-C , 95-H ) :   0.9845
B( 31-C , 32-S ) :   1.1266 B( 31-C , 33-C ) :   1.1016 B( 33-C , 34-C ) :   0.9386
B( 33-C , 45-C ) :   1.7159 B( 34-C , 35-C ) :   1.3235 B( 34-C , 37-C ) :   0.1119
B( 34-C , 39-C ) :   1.3117 B( 35-C , 36-C ) :   1.2883 B( 35-C , 44-F ) :   1.1802
B( 36-C , 37-C ) :   1.2716 B( 36-C , 43-F ) :   1.1797 B( 37-C , 38-C ) :   1.2760
B( 37-C , 42-F ) :   1.1828 B( 38-C , 39-C ) :   1.2763 B( 38-C , 41-F ) :   1.1794
B( 39-C , 40-F ) :   1.1883 B( 45-C , 46-C ) :   0.9434 B( 45-C , 57-C ) :   1.1060
B( 46-C , 47-C ) :   1.3352 B( 46-C , 49-C ) :   0.1098 B( 46-C , 51-C ) :   1.3291
B( 47-C , 48-C ) :   1.2972 B( 47-C , 56-F ) :   1.1615 B( 48-C , 49-C ) :   1.2748
B( 48-C , 55-F ) :   1.1762 B( 49-C , 50-C ) :   1.2768 B( 49-C , 54-F ) :   1.1852
B( 50-C , 51-C ) :   1.2798 B( 50-C , 53-F ) :   1.1877 B( 51-C , 52-F ) :   1.1698
B( 57-C , 58-C ) :   1.4628 B( 57-C , 61-S ) :   1.1039 B( 58-C , 59-C ) :   1.2861
B( 58-C , 96-H ) :   0.9859 B( 59-C , 60-C ) :   1.4355 B( 59-C , 64-C ) :   0.9915
B( 60-C , 61-S ) :   1.1253 B( 60-C , 62-C ) :   1.1897 B( 62-C , 63-C ) :   1.4139
B( 62-C , 72-S ) :   1.1523 B( 63-C , 64-C ) :   0.9960 B( 63-C , 70-C ) :   1.3550
B( 64-C , 65-C ) :   1.7227 B( 65-C , 66-C ) :   1.1324 B( 65-C , 68-C ) :   1.1305
B( 66-C , 67-N ) :   2.9840 B( 68-C , 69-N ) :   2.9844 B( 70-C , 71-C ) :   1.4035
B( 70-C , 97-H ) :   0.9809 B( 71-C , 72-S ) :   1.0940 B( 71-C , 73-C ) :   1.1230
B( 73-C , 74-C ) :   1.6893 B( 73-C , 98-H ) :   0.9267 B( 74-C , 75-C ) :   0.9425
B( 74-C , 79-C ) :   1.0277 B( 75-C , 76-O ) :   2.2675 B( 75-C , 77-C ) :   0.9192
B( 77-C , 78-C ) :   1.3319 B( 77-C , 88-C ) :   1.3699 B( 78-C , 79-C ) :   1.0067
B( 78-C , 85-C ) :   1.3636 B( 79-C , 80-C ) :   1.6606 B( 80-C , 81-C ) :   1.1233
B( 80-C , 83-C ) :   1.1721 B( 81-C , 82-N ) :   2.9991 B( 83-C , 84-N ) :   2.9962
B( 85-C , 86-C ) :   1.3757 B( 85-C , 99-H ) :   0.9856 B( 86-C , 87-C ) :   1.3814
B( 86-C ,100-H ) :   0.9876 B( 87-C , 88-C ) :   1.3349 B( 87-C , 89-Cl) :   0.9924
B( 88-C ,101-H ) :   1.0114

-----------------------------------------------------------------------------
         ABSORPTION SPECTRUM VIA TRANSITION ELECTRIC DIPOLE MOMENTS
-----------------------------------------------------------------------------
State   Energy  Wavelength   fosc         T2         TX        TY        TZ
        (cm-1)    (nm)                  (au**2)     (au)      (au)      (au)
-----------------------------------------------------------------------------
   0   13294.7    752.2   0.708832941  17.55253  -3.17492  -2.59784  -0.85069
   1   14338.3    697.4   0.009809276   0.22522  -0.40196   0.02291   0.25124
   2   19709.2    507.4   1.712738924  28.60865   4.11803   3.35927   0.60482
   3   21765.7    459.4   0.128552014   1.94438   1.35753   0.16899  -0.27007
   4   21899.8    456.6   0.019876487   0.29880  -0.31830  -0.44338  -0.02993
   5   23550.9    424.6   0.129138970   1.80520   0.98542   0.91099  -0.06516
   6   25207.5    396.7   0.033671672   0.43975   0.61210   0.24640   0.06618
   7   26356.8    379.4   0.038142555   0.47642   0.05787   0.13339  -0.67474
   8   27225.2    367.3   0.028246063   0.34156  -0.34886   0.15040  -0.44411
   9   27751.9    360.3   0.005837343   0.06925  -0.01112  -0.23307   0.12166
  10   28182.7    354.8   0.049725819   0.58086   0.03813   0.68870   0.32421
  11   28605.7    349.6   0.102290892   1.17723   0.13181   0.34574   1.01996
  12   28920.6    345.8   0.069951857   0.79628  -0.48175  -0.38330  -0.64597
  13   29155.6    343.0   0.047083962   0.53165   0.42129   0.51825   0.29255
  14   29620.5    337.6   0.013642493   0.15163   0.35006   0.13878  -0.09912
  15   29885.7    334.6   0.281103263   3.09655  -1.67645  -0.08526   0.52802
  16   30105.4    332.2   0.155578228   1.70130   0.46067  -0.72571  -0.98104
  17   30234.1    330.8   0.093934815   1.02283  -0.76765  -0.49610   0.43293
  18   30467.9    328.2   0.066732050   0.72105  -0.68545  -0.49234  -0.09388
  19   30608.5    326.7   0.037304550   0.40123   0.45091   0.08792  -0.43609
  20   31013.6    322.4   0.491455610   5.21684  -0.60897  -1.26434   1.80206
  21   31401.3    318.5   0.141032384   1.47859  -0.48333  -0.32169  -1.06841
  22   31643.0    316.0   0.322608774   3.35641   1.66464   0.74833   0.15935
  23   31996.7    312.5   0.049753200   0.51191   0.67037   0.23439   0.08704
  24   32599.0    306.8   0.035715229   0.36068  -0.27990  -0.34760  -0.40189
  25   32807.7    304.8   0.040916512   0.41058  -0.03408  -0.11366   0.62968
  26   33193.5    301.3   0.196607633   1.94995  -1.14689  -0.58322  -0.54263
  27   33284.2    300.4   0.003735474   0.03695  -0.09474  -0.02971   0.16459
  28   33321.8    300.1   0.068309903   0.67489  -0.62021  -0.30194   0.44615
  29   33807.6    295.8   0.015071435   0.14676   0.24393   0.28724   0.06897
  30   33885.6    295.1   0.056090416   0.54494  -0.31710  -0.52574  -0.40986
  31   34311.4    291.4   0.236090403   2.26525   0.06195   0.05440  -1.50281
  32   34568.6    289.3   0.035862990   0.34154   0.24377   0.40080   0.34853
  33   34639.3    288.7   0.117682576   1.11846  -0.08141   0.71940  -0.77091
  34   34707.3    288.1   0.607531072   5.76267   0.33157  -0.00932   2.37753
  35   34734.8    287.9   0.053125216   0.50351   0.15073   0.68455   0.11040
  36   35013.4    285.6   0.257055147   2.41695   0.88041   0.32468  -1.23952
  37   35404.9    282.4   0.047845330   0.44489  -0.60280  -0.24307  -0.14978
  38   35456.4    282.0   0.128889822   1.19674   0.20342   0.51622   0.94280
  39   35760.9    279.6   0.153550198   1.41357  -0.93454  -0.65981  -0.32381
  40   36019.8    277.6   0.459946397   4.20379   0.78140   0.35645   1.86176
  41   36159.1    276.6   0.082719371   0.75312   0.35562   0.03430   0.79087
  42   36266.0    275.7   0.084528510   0.76732  -0.13332  -0.20934   0.84008
  43   36447.9    274.4   0.003332545   0.03010  -0.05051  -0.03041  -0.16317
  44   36500.6    274.0   0.091163823   0.82224  -0.08252   0.14710  -0.89095
  45   36596.0    273.3   0.002930179   0.02636  -0.01376   0.13205   0.09346
  46   36792.5    271.8   0.033118986   0.29634  -0.27457   0.04488  -0.46791
  47   37271.9    268.3   0.088304300   0.77997  -0.67824  -0.39475  -0.40513
  48   37316.9    268.0   0.050687529   0.44717   0.26930  -0.05298   0.60978
  49   37717.0    265.1   0.042655298   0.37232  -0.53780  -0.28811   0.00909
  50   38011.0    263.1   0.062060997   0.53751  -0.09043   0.21784   0.69417
  51   38166.4    262.0   0.023026683   0.19862   0.15305   0.25290   0.33352
  52   38256.6    261.4   0.134868096   1.16059  -0.11433  -0.31115  -1.02504
  53   38462.4    260.0   0.009748215   0.08344  -0.27526  -0.01863  -0.08557
  54   38635.2    258.8   0.089624782   0.76370  -0.08985  -0.39221  -0.77575
  55   39010.4    256.3   0.034087627   0.28767  -0.05177  -0.22500   0.48411
  56   39319.9    254.3   0.027500048   0.23025   0.17364  -0.09369   0.43740
  57   39737.1    251.7   0.038738265   0.32094  -0.55484  -0.10142   0.05290
  58   39810.4    251.2   0.063692356   0.52670  -0.29241  -0.03266  -0.66343
  59   40185.2    248.8   0.029607423   0.24256   0.31837   0.35942   0.10959

FINAL SINGLE POINT ENERGY     -6540.187687760835

DIPOLE MOMENT
-------------
                                X             Y             Z
Electronic contribution:     -6.35236       6.78159      -7.05348
Nuclear contribution   :      6.38611      -6.26992       2.66753
                        -----------------------------------------
Total Dipole Moment    :      0.03375       0.51166      -4.38595
                        -----------------------------------------
Magnitude (a.u.)       :      4.41582
Magnitude (Debye)      :     11.22413

Rotational constants in cm-1:     0.001343     0.000188     0.000171
Rotational constants in MHz :    40.247586     5.638976     5.121149

                             ****ORCA TERMINATED NORMALLY****
TOTAL RUN TIME: 0 days 0 hours 14 minutes 13 seconds 312 msec
