                         Program Version 4.2.0 -  RELEASE  -
|  1> # ORCA input file
|  2> # SCF done       -190.658330211292          0.000958752068
|  3> ! CAM-B3LYP def2-SVP def2/J RIJCOSX Grid4 TightSCF
|  4> %maxcore 5000
|  5> %tddft
|  6>     Mode sTDDFT
|  7>     Ethresh 5.0
|  8>     maxcore 5000
|  9> end
| 10>
| 11> %pal
| 12>   nprocs 6
| 13>   end
| 14> * xyz 0 1
| 15>    C       -2.65713        -8.54089        -9.89652
| 16>    C       -2.44567        -9.91254        -9.42577
| 17>    O       -2.53811       -10.33029        -8.28530
| 18>    C       -2.09036       -10.70390       -10.62021
| 19>    C       -2.08289        -9.86407       -11.74794
| 20>    C       -2.42795        -8.50666       -11.32903
| 21>    C       -2.50537        -7.41983       -12.16096
| 22>    C       -2.26180        -7.46859       -13.55025
| 23>    N       -2.07632        -7.43482       -14.68254
| 24>    C       -2.82972        -6.10257       -11.77385
| 25>    N       -3.08314        -5.00533       -11.54652
| 26>    C       -1.77477       -10.39911       -12.99041
| 27>    C       -1.48126       -11.75133       -13.08332
| 28>    C       -1.49305       -12.56485       -11.95567
| 29>    C       -1.79989       -12.04966       -10.70116
| 30>   Cl       -1.12256       -14.23886       -12.11762
| 31>    C       -3.00856        -7.47241        -9.10991
| 32>    C       -3.24264        -7.39724        -7.73025
| 33>    C       -3.57713        -6.19026        -7.10723
| 34>    C       -3.74998        -6.32496        -5.74587
| 35>    C       -3.55871        -7.64665        -5.29196
| 36>    S       -3.15453        -8.72244        -6.57663
| 37>    C       -3.72733        -7.73394        -3.90844
| 38>    C       -4.03009        -6.48350        -3.31571
| 39>    S       -4.13994        -5.18748        -4.47145
| 40>    C       -4.12990        -6.68541        -1.95279
| 41>    C       -3.90587        -8.05946        -1.73435
| 42>    N       -3.66257        -8.67733        -2.93741
| 43>    C       -3.28546       -10.04298        -3.18810
| 44>    C       -3.91875        -8.66758        -0.45227
| 45>    C       -4.12204        -9.98574        -0.03088
| 46>    C       -4.08385       -10.12466         1.40314
| 47>    N       -4.27362       -11.29416         2.00831
| 48>    C       -4.52457       -12.33440         1.24310
| 49>    C       -4.74749       -13.63776         1.90766
| 50>    O       -4.69224       -13.77978         3.11329
| 51>    C       -5.04649       -14.75377         0.99460
| 52>    C       -5.10314       -14.63209        -0.33682
| 53>    C       -4.86869       -13.36743        -1.05065
| 54>    O       -4.90189       -13.28311        -2.26260
| 55>    C       -4.58400       -12.20148        -0.18148
| 56>    N       -4.38387       -11.05372        -0.78989
| 57>    C       -3.85270        -8.92594         2.08191
| 58>    S       -3.70119        -7.63230         0.94171
| 59>    C       -3.74722        -8.81199         3.47793
| 60>    C       -3.49460        -7.68367         4.24209
| 61>    C       -3.41599        -7.98905         5.59445
| 62>    C       -3.61131        -9.35349         5.87162
| 63>    S       -3.90542       -10.27089         4.43724
| 64>    C       -3.49259        -9.62104         7.23646
| 65>    C       -3.19891        -8.45853         7.99307
| 66>    S       -3.09839        -7.02183         7.01653
| 67>    C       -3.04445        -8.84330         9.31050
| 68>    C       -3.26190       -10.23425         9.34732
| 69>    N       -3.55684       -10.67606         8.07489
| 70>    C       -3.77230       -12.04201         7.68226
| 71>    C       -3.30385       -11.09207        10.46763
| 72>    C       -2.74133       -10.90465        11.69604
| 73>    C       -3.26293       -11.65291        12.86760
| 74>    O       -4.03001       -12.58798        12.84934
| 75>    C       -2.68240       -10.97240        14.04785
| 76>    C       -1.78566        -9.97564        13.61959
| 77>    C       -1.70167       -10.01399        12.16183
| 78>    C       -0.66437        -9.51882        11.41391
| 79>    C        0.37326        -8.72258        11.93820
| 80>    N        1.22610        -8.05152        12.31306
| 81>    C       -0.46905        -9.83834        10.05502
| 82>    N       -0.24089       -10.12496         8.96696
| 83>    C       -1.13644        -9.18684        14.55700
| 84>    C       -1.38664        -9.40745        15.90277
| 85>    C       -2.26538       -10.40553        16.31005
| 86>    C       -2.92936       -11.20407        15.38498
| 87>   Cl       -2.53671       -10.65438        17.99272
| 88>    H       -1.75823        -9.79205       -13.88043
| 89>    H       -1.24021       -12.18109       -14.04288
| 90>    H       -1.81363       -12.67098        -9.81983
| 91>    H       -3.12771        -6.51812        -9.60825
| 92>    H       -3.67759        -5.26832        -7.65076
| 93>    H       -4.35550        -5.96423        -1.19332
| 94>    H       -4.12634       -10.72176        -3.04395
| 95>    H       -2.48788       -10.34236        -2.50811
| 96>    H       -2.93053       -10.11936        -4.21423
| 97>    H       -5.22160       -15.70535         1.47830
| 98>    H       -5.32466       -15.48110        -0.96938
| 99>    H       -3.36882        -6.70417         3.81835
|100>    H       -2.84656        -8.21444        10.15499
|101>    H       -4.66673       -12.44388         8.16296
|102>    H       -2.91421       -12.65700         7.95854
|103>    H       -3.90530       -12.08361         6.60265
|104>    H       -3.92853       -11.97567        10.38335
|105>    H       -0.45484        -8.40569        14.26097
|106>    H       -0.89409        -8.80068        16.64623
|107>    H       -3.61228       -11.97950        15.69372
|108> *
|109>
|110>                          ****END OF INPUT****

CARTESIAN COORDINATES (ANGSTROEM)
---------------------------------
  C     -2.657130   -8.540890   -9.896520
  C     -2.445670   -9.912540   -9.425770
  O     -2.538110  -10.330290   -8.285300
  C     -2.090360  -10.703900  -10.620210
  C     -2.082890   -9.864070  -11.747940
  C     -2.427950   -8.506660  -11.329030
  C     -2.505370   -7.419830  -12.160960
  C     -2.261800   -7.468590  -13.550250
  N     -2.076320   -7.434820  -14.682540
  C     -2.829720   -6.102570  -11.773850
  N     -3.083140   -5.005330  -11.546520
  C     -1.774770  -10.399110  -12.990410
  C     -1.481260  -11.751330  -13.083320
  C     -1.493050  -12.564850  -11.955670
  C     -1.799890  -12.049660  -10.701160
  Cl    -1.122560  -14.238860  -12.117620
  C     -3.008560   -7.472410   -9.109910
  C     -3.242640   -7.397240   -7.730250
  C     -3.577130   -6.190260   -7.107230
  C     -3.749980   -6.324960   -5.745870
  C     -3.558710   -7.646650   -5.291960
  S     -3.154530   -8.722440   -6.576630
  C     -3.727330   -7.733940   -3.908440
  C     -4.030090   -6.483500   -3.315710
  S     -4.139940   -5.187480   -4.471450
  C     -4.129900   -6.685410   -1.952790
  C     -3.905870   -8.059460   -1.734350
  N     -3.662570   -8.677330   -2.937410
  C     -3.285460  -10.042980   -3.188100
  C     -3.918750   -8.667580   -0.452270
  C     -4.122040   -9.985740   -0.030880
  C     -4.083850  -10.124660    1.403140
  N     -4.273620  -11.294160    2.008310
  C     -4.524570  -12.334400    1.243100
  C     -4.747490  -13.637760    1.907660
  O     -4.692240  -13.779780    3.113290
  C     -5.046490  -14.753770    0.994600
  C     -5.103140  -14.632090   -0.336820
  C     -4.868690  -13.367430   -1.050650
  O     -4.901890  -13.283110   -2.262600
  C     -4.584000  -12.201480   -0.181480
  N     -4.383870  -11.053720   -0.789890
  C     -3.852700   -8.925940    2.081910
  S     -3.701190   -7.632300    0.941710
  C     -3.747220   -8.811990    3.477930
  C     -3.494600   -7.683670    4.242090
  C     -3.415990   -7.989050    5.594450
  C     -3.611310   -9.353490    5.871620
  S     -3.905420  -10.270890    4.437240
  C     -3.492590   -9.621040    7.236460
  C     -3.198910   -8.458530    7.993070
  S     -3.098390   -7.021830    7.016530
  C     -3.044450   -8.843300    9.310500
  C     -3.261900  -10.234250    9.347320
  N     -3.556840  -10.676060    8.074890
  C     -3.772300  -12.042010    7.682260
  C     -3.303850  -11.092070   10.467630
  C     -2.741330  -10.904650   11.696040
  C     -3.262930  -11.652910   12.867600
  O     -4.030010  -12.587980   12.849340
  C     -2.682400  -10.972400   14.047850
  C     -1.785660   -9.975640   13.619590
  C     -1.701670  -10.013990   12.161830
  C     -0.664370   -9.518820   11.413910
  C      0.373260   -8.722580   11.938200
  N      1.226100   -8.051520   12.313060
  C     -0.469050   -9.838340   10.055020
  N     -0.240890  -10.124960    8.966960
  C     -1.136440   -9.186840   14.557000
  C     -1.386640   -9.407450   15.902770
  C     -2.265380  -10.405530   16.310050
  C     -2.929360  -11.204070   15.384980
  Cl    -2.536710  -10.654380   17.992720
  H     -1.758230   -9.792050  -13.880430
  H     -1.240210  -12.181090  -14.042880
  H     -1.813630  -12.670980   -9.819830
  H     -3.127710   -6.518120   -9.608250
  H     -3.677590   -5.268320   -7.650760
  H     -4.355500   -5.964230   -1.193320
  H     -4.126340  -10.721760   -3.043950
  H     -2.487880  -10.342360   -2.508110
  H     -2.930530  -10.119360   -4.214230
  H     -5.221600  -15.705350    1.478300
  H     -5.324660  -15.481100   -0.969380
  H     -3.368820   -6.704170    3.818350
  H     -2.846560   -8.214440   10.154990
  H     -4.666730  -12.443880    8.162960
  H     -2.914210  -12.657000    7.958540
  H     -3.905300  -12.083610    6.602650
  H     -3.928530  -11.975670   10.383350
  H     -0.454840   -8.405690   14.260970
  H     -0.894090   -8.800680   16.646230
  H     -3.612280  -11.979500   15.693720

 Total Charge           Charge          ....    0
 Multiplicity           Mult            ....    1
 Number of Electrons    NEL             ....  546
 Basis Dimension        Dim             .... 1150

ORBITAL ENERGIES
----------------

  NO   OCC          E(Eh)            E(eV)
   0   2.0000    -101.595199     -2764.5459
   1   2.0000    -101.594679     -2764.5318
   2   2.0000     -89.002462     -2421.8801
   3   2.0000     -88.971412     -2421.0352
   4   2.0000     -88.969647     -2420.9872
   5   2.0000     -88.962101     -2420.7818
   6   2.0000     -88.961468     -2420.7646
   7   2.0000     -19.236598      -523.4544
   8   2.0000     -19.235074      -523.4130
   9   2.0000     -19.223739      -523.1045
  10   2.0000     -19.216039      -522.8950
  11   2.0000     -14.487416      -394.2226
  12   2.0000     -14.485924      -394.1820
  13   2.0000     -14.458865      -393.4457
  14   2.0000     -14.455387      -393.3511
  15   2.0000     -14.416945      -392.3050
  16   2.0000     -14.414111      -392.2279
  17   2.0000     -14.413005      -392.1978
  18   2.0000     -14.412609      -392.1870
  19   2.0000     -10.384990      -282.5899
  20   2.0000     -10.384803      -282.5849
  21   2.0000     -10.371439      -282.2212
  22   2.0000     -10.366909      -282.0979
  23   2.0000     -10.348578      -281.5991
  24   2.0000     -10.347910      -281.5809
  25   2.0000     -10.347756      -281.5768
  26   2.0000     -10.347385      -281.5667
  27   2.0000     -10.342414      -281.4314
  28   2.0000     -10.341596      -281.4091
  29   2.0000     -10.341301      -281.4011
  30   2.0000     -10.341126      -281.3963
  31   2.0000     -10.340583      -281.3816
  32   2.0000     -10.340528      -281.3801
  33   2.0000     -10.339612      -281.3552
  34   2.0000     -10.337393      -281.2948
  35   2.0000     -10.336630      -281.2740
  36   2.0000     -10.328079      -281.0413
  37   2.0000     -10.327967      -281.0383
  38   2.0000     -10.327603      -281.0284
  39   2.0000     -10.322627      -280.8930
  40   2.0000     -10.322461      -280.8884
  41   2.0000     -10.322442      -280.8879
  42   2.0000     -10.319952      -280.8202
  43   2.0000     -10.319215      -280.8001
  44   2.0000     -10.318140      -280.7709
  45   2.0000     -10.318092      -280.7696
  46   2.0000     -10.317339      -280.7491
  47   2.0000     -10.317068      -280.7417
  48   2.0000     -10.317064      -280.7416
  49   2.0000     -10.316003      -280.7127
  50   2.0000     -10.315245      -280.6921
  51   2.0000     -10.314647      -280.6758
  52   2.0000     -10.312637      -280.6211
  53   2.0000     -10.311472      -280.5894
  54   2.0000     -10.309382      -280.5326
  55   2.0000     -10.308662      -280.5130
  56   2.0000     -10.307977      -280.4943
  57   2.0000     -10.306476      -280.4535
  58   2.0000     -10.304343      -280.3954
  59   2.0000     -10.302497      -280.3452
  60   2.0000     -10.302331      -280.3407
  61   2.0000     -10.301967      -280.3308
  62   2.0000     -10.301878      -280.3283
  63   2.0000     -10.301711      -280.3238
  64   2.0000     -10.301311      -280.3129
  65   2.0000     -10.301116      -280.3076
  66   2.0000     -10.300705      -280.2964
  67   2.0000     -10.298130      -280.2264
  68   2.0000     -10.297996      -280.2227
  69   2.0000     -10.294653      -280.1317
  70   2.0000     -10.293859      -280.1101
  71   2.0000     -10.289753      -279.9984
  72   2.0000     -10.286877      -279.9201
  73   2.0000      -9.550331      -259.8777
  74   2.0000      -9.549802      -259.8633
  75   2.0000      -8.096680      -220.3219
  76   2.0000      -8.064604      -219.4490
  77   2.0000      -8.062064      -219.3799
  78   2.0000      -8.057075      -219.2442
  79   2.0000      -8.056469      -219.2277
  80   2.0000      -7.320521      -199.2015
  81   2.0000      -7.319990      -199.1871
  82   2.0000      -7.310599      -198.9315
  83   2.0000      -7.310075      -198.9173
  84   2.0000      -7.310066      -198.9170
  85   2.0000      -7.309551      -198.9030
  86   2.0000      -6.065860      -165.0604
  87   2.0000      -6.061660      -164.9461
  88   2.0000      -6.059262      -164.8809
  89   2.0000      -6.034392      -164.2042
  90   2.0000      -6.031891      -164.1361
  91   2.0000      -6.029955      -164.0834
  92   2.0000      -6.027206      -164.0086
  93   2.0000      -6.027081      -164.0052
  94   2.0000      -6.026445      -163.9879
  95   2.0000      -6.026109      -163.9788
  96   2.0000      -6.023749      -163.9145
  97   2.0000      -6.023134      -163.8978
  98   2.0000      -6.022496      -163.8804
  99   2.0000      -6.017634      -163.7481
 100   2.0000      -6.017080      -163.7331
 101   2.0000      -1.152122       -31.3508
 102   2.0000      -1.147326       -31.2203
 103   2.0000      -1.139254       -31.0007
 104   2.0000      -1.131055       -30.7776
 105   2.0000      -1.112805       -30.2810
 106   2.0000      -1.111536       -30.2464
 107   2.0000      -1.106764       -30.1166
 108   2.0000      -1.036856       -28.2143
 109   2.0000      -1.020067       -27.7574
 110   2.0000      -1.019285       -27.7361
 111   2.0000      -1.018227       -27.7074
 112   2.0000      -1.010795       -27.5051
 113   2.0000      -1.006142       -27.3785
 114   2.0000      -1.004582       -27.3361
 115   2.0000      -1.002860       -27.2892
 116   2.0000      -0.993345       -27.0303
 117   2.0000      -0.992147       -26.9977
 118   2.0000      -0.982145       -26.7255
 119   2.0000      -0.981208       -26.7000
 120   2.0000      -0.955234       -25.9932
 121   2.0000      -0.954410       -25.9708
 122   2.0000      -0.948187       -25.8015
 123   2.0000      -0.934063       -25.4171
 124   2.0000      -0.931407       -25.3449
 125   2.0000      -0.917142       -24.9567
 126   2.0000      -0.911084       -24.7919
 127   2.0000      -0.901747       -24.5378
 128   2.0000      -0.897612       -24.4253
 129   2.0000      -0.885276       -24.0896
 130   2.0000      -0.882127       -24.0039
 131   2.0000      -0.879962       -23.9450
 132   2.0000      -0.875443       -23.8220
 133   2.0000      -0.864539       -23.5253
 134   2.0000      -0.861315       -23.4376
 135   2.0000      -0.856887       -23.3171
 136   2.0000      -0.851633       -23.1741
 137   2.0000      -0.827619       -22.5207
 138   2.0000      -0.821234       -22.3469
 139   2.0000      -0.814822       -22.1724
 140   2.0000      -0.812119       -22.0989
 141   2.0000      -0.798503       -21.7284
 142   2.0000      -0.797452       -21.6998
 143   2.0000      -0.787306       -21.4237
 144   2.0000      -0.781984       -21.2789
 145   2.0000      -0.775273       -21.0962
 146   2.0000      -0.769448       -20.9377
 147   2.0000      -0.767484       -20.8843
 148   2.0000      -0.765644       -20.8342
 149   2.0000      -0.744183       -20.2502
 150   2.0000      -0.735488       -20.0137
 151   2.0000      -0.710495       -19.3335
 152   2.0000      -0.701996       -19.1023
 153   2.0000      -0.697330       -18.9753
 154   2.0000      -0.695824       -18.9343
 155   2.0000      -0.690077       -18.7780
 156   2.0000      -0.688970       -18.7478
 157   2.0000      -0.685040       -18.6409
 158   2.0000      -0.683811       -18.6074
 159   2.0000      -0.675738       -18.3878
 160   2.0000      -0.672059       -18.2877
 161   2.0000      -0.667465       -18.1626
 162   2.0000      -0.652615       -17.7586
 163   2.0000      -0.646862       -17.6020
 164   2.0000      -0.644719       -17.5437
 165   2.0000      -0.641752       -17.4630
 166   2.0000      -0.634166       -17.2565
 167   2.0000      -0.624614       -16.9966
 168   2.0000      -0.621720       -16.9179
 169   2.0000      -0.617406       -16.8005
 170   2.0000      -0.617142       -16.7933
 171   2.0000      -0.614015       -16.7082
 172   2.0000      -0.608350       -16.5541
 173   2.0000      -0.597573       -16.2608
 174   2.0000      -0.591369       -16.0920
 175   2.0000      -0.588572       -16.0159
 176   2.0000      -0.584665       -15.9095
 177   2.0000      -0.583705       -15.8834
 178   2.0000      -0.578840       -15.7510
 179   2.0000      -0.575125       -15.6499
 180   2.0000      -0.574313       -15.6278
 181   2.0000      -0.569279       -15.4909
 182   2.0000      -0.568911       -15.4809
 183   2.0000      -0.561191       -15.2708
 184   2.0000      -0.560561       -15.2536
 185   2.0000      -0.549330       -14.9480
 186   2.0000      -0.547945       -14.9104
 187   2.0000      -0.545638       -14.8476
 188   2.0000      -0.542304       -14.7568
 189   2.0000      -0.541856       -14.7447
 190   2.0000      -0.538938       -14.6652
 191   2.0000      -0.537569       -14.6280
 192   2.0000      -0.535785       -14.5795
 193   2.0000      -0.534089       -14.5333
 194   2.0000      -0.532125       -14.4799
 195   2.0000      -0.529842       -14.4177
 196   2.0000      -0.526923       -14.3383
 197   2.0000      -0.526128       -14.3167
 198   2.0000      -0.521557       -14.1923
 199   2.0000      -0.519770       -14.1437
 200   2.0000      -0.517108       -14.0712
 201   2.0000      -0.514851       -14.0098
 202   2.0000      -0.513147       -13.9634
 203   2.0000      -0.509515       -13.8646
 204   2.0000      -0.509193       -13.8558
 205   2.0000      -0.507042       -13.7973
 206   2.0000      -0.504490       -13.7279
 207   2.0000      -0.501999       -13.6601
 208   2.0000      -0.499531       -13.5929
 209   2.0000      -0.498045       -13.5525
 210   2.0000      -0.496764       -13.5176
 211   2.0000      -0.494853       -13.4656
 212   2.0000      -0.490376       -13.3438
 213   2.0000      -0.487353       -13.2616
 214   2.0000      -0.486330       -13.2337
 215   2.0000      -0.481947       -13.1144
 216   2.0000      -0.479757       -13.0549
 217   2.0000      -0.479199       -13.0397
 218   2.0000      -0.476687       -12.9713
 219   2.0000      -0.472037       -12.8448
 220   2.0000      -0.471155       -12.8208
 221   2.0000      -0.468738       -12.7550
 222   2.0000      -0.463725       -12.6186
 223   2.0000      -0.459566       -12.5054
 224   2.0000      -0.458339       -12.4720
 225   2.0000      -0.457719       -12.4552
 226   2.0000      -0.456113       -12.4115
 227   2.0000      -0.450270       -12.2525
 228   2.0000      -0.449110       -12.2209
 229   2.0000      -0.447578       -12.1792
 230   2.0000      -0.446077       -12.1384
 231   2.0000      -0.442340       -12.0367
 232   2.0000      -0.441539       -12.0149
 233   2.0000      -0.435056       -11.8385
 234   2.0000      -0.434683       -11.8283
 235   2.0000      -0.430838       -11.7237
 236   2.0000      -0.428718       -11.6660
 237   2.0000      -0.427730       -11.6391
 238   2.0000      -0.427278       -11.6268
 239   2.0000      -0.426759       -11.6127
 240   2.0000      -0.424957       -11.5637
 241   2.0000      -0.421157       -11.4603
 242   2.0000      -0.416281       -11.3276
 243   2.0000      -0.411620       -11.2007
 244   2.0000      -0.407044       -11.0762
 245   2.0000      -0.404213       -10.9992
 246   2.0000      -0.400447       -10.8967
 247   2.0000      -0.398082       -10.8323
 248   2.0000      -0.395454       -10.7608
 249   2.0000      -0.392396       -10.6776
 250   2.0000      -0.392236       -10.6733
 251   2.0000      -0.381859       -10.3909
 252   2.0000      -0.380873       -10.3641
 253   2.0000      -0.372443       -10.1347
 254   2.0000      -0.370994       -10.0953
 255   2.0000      -0.356834        -9.7100
 256   2.0000      -0.356381        -9.6976
 257   2.0000      -0.355389        -9.6706
 258   2.0000      -0.352018        -9.5789
 259   2.0000      -0.350167        -9.5285
 260   2.0000      -0.344478        -9.3737
 261   2.0000      -0.343448        -9.3457
 262   2.0000      -0.339497        -9.2382
 263   2.0000      -0.338328        -9.2064
 264   2.0000      -0.337454        -9.1826
 265   2.0000      -0.331815        -9.0291
 266   2.0000      -0.311780        -8.4840
 267   2.0000      -0.308096        -8.3837
 268   2.0000      -0.298677        -8.1274
 269   2.0000      -0.287283        -7.8174
 270   2.0000      -0.286097        -7.7851
 271   2.0000      -0.263345        -7.1660
 272   2.0000      -0.232759        -6.3337
 273   0.0000      -0.112586        -3.0636
 274   0.0000      -0.100146        -2.7251
 275   0.0000      -0.085418        -2.3243
 276   0.0000      -0.083198        -2.2639
 277   0.0000      -0.064163        -1.7460

MULLIKEN ATOMIC CHARGES
-----------------------
   0 C :   -0.099547
   1 C :    0.166430
   2 O :   -0.181543
   3 C :   -0.024743
   4 C :    0.031024
   5 C :    0.326607
   6 C :   -0.355380
   7 C :   -0.192155
   8 N :    0.151389
   9 C :   -0.184368
  10 N :    0.143120
  11 C :   -0.029692
  12 C :    0.047329
  13 C :    0.071843
  14 C :   -0.014525
  15 Cl:   -0.070750
  16 C :   -0.020032
  17 C :   -0.045980
  18 C :   -0.043645
  19 C :   -0.022647
  20 C :   -0.031893
  21 S :    0.192221
  22 C :    0.011450
  23 C :    0.006011
  24 S :    0.155669
  25 C :   -0.159231
  26 C :    0.113590
  27 N :   -0.163391
  28 C :    0.140781
  29 C :   -0.210470
  30 C :    0.090312
  31 C :   -0.007513
  32 N :    0.036395
  33 C :   -0.109683
  34 C :    0.140511
  35 O :   -0.115201
  36 C :   -0.018190
  37 C :   -0.010390
  38 C :    0.144668
  39 O :   -0.115664
  40 C :   -0.120415
  41 N :    0.042139
  42 C :   -0.088872
  43 S :    0.208161
  44 C :   -0.057454
  45 C :   -0.073273
  46 C :   -0.028988
  47 C :   -0.052747
  48 S :    0.182004
  49 C :    0.045429
  50 C :   -0.017682
  51 S :    0.156954
  52 C :   -0.091050
  53 C :    0.106051
  54 N :   -0.155843
  55 C :    0.115291
  56 C :    0.007025
  57 C :   -0.133463
  58 C :    0.136116
  59 O :   -0.145549
  60 C :   -0.010655
  61 C :    0.018347
  62 C :    0.260784
  63 C :   -0.338776
  64 C :   -0.176743
  65 N :    0.150249
  66 C :   -0.197365
  67 N :    0.165151
  68 C :   -0.030656
  69 C :    0.048500
  70 C :    0.068304
  71 C :   -0.015080
  72 Cl:   -0.071273
  73 H :    0.006958
  74 H :   -0.001318
  75 H :   -0.005590
  76 H :    0.007241
  77 H :    0.009240
  78 H :   -0.012166
  79 H :    0.077084
  80 H :    0.027963
  81 H :    0.036121
  82 H :    0.018712
  83 H :    0.019196
  84 H :   -0.009958
  85 H :   -0.004189
  86 H :    0.051807
  87 H :    0.058009
  88 H :    0.056531
  89 H :    0.011266
  90 H :    0.008719
  91 H :   -0.000795
  92 H :   -0.002167
Sum of atomic charges:    0.0000000

LOEWDIN ATOMIC CHARGES
----------------------
   0 C :   -0.120145
   1 C :    0.085404
   2 O :   -0.165798
   3 C :   -0.036435
   4 C :   -0.018081
   5 C :    0.077314
   6 C :   -0.144314
   7 C :   -0.019160
   8 N :   -0.054934
   9 C :   -0.020357
  10 N :   -0.055548
  11 C :    0.008709
  12 C :   -0.020115
  13 C :   -0.107144
  14 C :   -0.007031
  15 Cl:    0.141711
  16 C :    0.056671
  17 C :   -0.183196
  18 C :   -0.019346
  19 C :   -0.192273
  20 C :   -0.196472
  21 S :    0.491710
  22 C :   -0.043078
  23 C :   -0.175150
  24 S :    0.390287
  25 C :   -0.085919
  26 C :   -0.014768
  27 N :    0.069069
  28 C :    0.033683
  29 C :   -0.174335
  30 C :   -0.050915
  31 C :   -0.057547
  32 N :   -0.006176
  33 C :   -0.044055
  34 C :    0.056062
  35 O :   -0.110352
  36 C :   -0.009645
  37 C :   -0.011601
  38 C :    0.058152
  39 O :   -0.108134
  40 C :   -0.045159
  41 N :    0.011981
  42 C :   -0.186918
  43 S :    0.514605
  44 C :   -0.177569
  45 C :   -0.059409
  46 C :   -0.177769
  47 C :   -0.217552
  48 S :    0.478416
  49 C :   -0.017246
  50 C :   -0.182334
  51 S :    0.394792
  52 C :   -0.035554
  53 C :   -0.018250
  54 N :    0.065454
  55 C :    0.040116
  56 C :    0.052230
  57 C :   -0.103571
  58 C :    0.081805
  59 O :   -0.144613
  60 C :   -0.038780
  61 C :   -0.016163
  62 C :    0.065297
  63 C :   -0.143714
  64 C :   -0.022198
  65 N :   -0.054730
  66 C :   -0.015600
  67 N :   -0.049740
  68 C :    0.004823
  69 C :   -0.019254
  70 C :   -0.108155
  71 C :   -0.006700
  72 Cl:    0.141058
  73 H :    0.042770
  74 H :    0.039170
  75 H :    0.042407
  76 H :    0.050990
  77 H :    0.042631
  78 H :    0.024295
  79 H :    0.034736
  80 H :    0.030841
  81 H :    0.026142
  82 H :    0.046294
  83 H :    0.046573
  84 H :    0.032335
  85 H :    0.032981
  86 H :    0.035251
  87 H :    0.040229
  88 H :    0.036954
  89 H :    0.044487
  90 H :    0.042287
  91 H :    0.039024
  92 H :    0.043258

  Mayer bond orders larger than 0.100000
B(  0-C ,  1-C ) :   0.9881 B(  0-C ,  5-C ) :   1.0880 B(  0-C , 16-C ) :   1.4684
B(  1-C ,  2-O ) :   2.1218 B(  1-C ,  3-C ) :   0.9557 B(  3-C ,  4-C ) :   1.3354
B(  3-C , 14-C ) :   1.3640 B(  4-C ,  5-C ) :   0.9875 B(  4-C , 11-C ) :   1.3662
B(  5-C ,  6-C ) :   1.6185 B(  6-C ,  7-C ) :   1.1456 B(  6-C ,  9-C ) :   1.1445
B(  7-C ,  8-N ) :   2.9733 B(  9-C , 10-N ) :   2.9561 B( 11-C , 12-C ) :   1.3680
B( 11-C , 73-H ) :   0.9833 B( 12-C , 13-C ) :   1.3869 B( 12-C , 74-H ) :   0.9877
B( 13-C , 14-C ) :   1.3274 B( 13-C , 15-Cl) :   0.9861 B( 14-C , 75-H ) :   1.0133
B( 16-C , 17-C ) :   1.2882 B( 16-C , 76-H ) :   0.9382 B( 17-C , 18-C ) :   1.3454
B( 17-C , 21-S ) :   1.0557 B( 18-C , 19-C ) :   1.3544 B( 18-C , 77-H ) :   1.0128
B( 19-C , 20-C ) :   1.3535 B( 19-C , 24-S ) :   1.0301 B( 20-C , 21-S ) :   1.0392
B( 20-C , 22-C ) :   1.2928 B( 22-C , 23-C ) :   1.3440 B( 22-C , 27-N ) :   1.2098
B( 23-C , 24-S ) :   1.0168 B( 23-C , 25-C ) :   1.3767 B( 25-C , 26-C ) :   1.3551
B( 25-C , 78-H ) :   1.0017 B( 26-C , 27-N ) :   1.2191 B( 26-C , 29-C ) :   1.1360
B( 27-N , 28-C ) :   0.9450 B( 28-C , 79-H ) :   0.9499 B( 28-C , 80-H ) :   0.9672
B( 28-C , 81-H ) :   0.9602 B( 29-C , 30-C ) :   1.3226 B( 29-C , 42-C ) :   0.1286
B( 29-C , 43-S ) :   1.1819 B( 30-C , 31-C ) :   1.1628 B( 30-C , 41-N ) :   1.4286
B( 31-C , 32-N ) :   1.4175 B( 31-C , 42-C ) :   1.3323 B( 32-N , 33-C ) :   1.6971
B( 33-C , 34-C ) :   0.9017 B( 33-C , 40-C ) :   1.0883 B( 34-C , 35-O ) :   2.2358
B( 34-C , 36-C ) :   1.0226 B( 36-C , 37-C ) :   1.6808 B( 36-C , 82-H ) :   0.9984
B( 37-C , 38-C ) :   1.0327 B( 37-C , 83-H ) :   0.9993 B( 38-C , 39-O ) :   2.2011
B( 38-C , 40-C ) :   0.9024 B( 40-C , 41-N ) :   1.7053 B( 42-C , 43-S ) :   1.1424
B( 42-C , 44-C ) :   1.2363 B( 44-C , 45-C ) :   1.4290 B( 44-C , 48-S ) :   1.1004
B( 45-C , 46-C ) :   1.3126 B( 45-C , 84-H ) :   1.0022 B( 46-C , 47-C ) :   1.4164
B( 46-C , 51-S ) :   1.0447 B( 47-C , 48-S ) :   1.0179 B( 47-C , 49-C ) :   1.2807
B( 49-C , 50-C ) :   1.3317 B( 49-C , 54-N ) :   1.2421 B( 50-C , 51-S ) :   1.0103
B( 50-C , 52-C ) :   1.4137 B( 52-C , 53-C ) :   1.3455 B( 52-C , 85-H ) :   1.0084
B( 53-C , 54-N ) :   1.1388 B( 53-C , 56-C ) :   1.1207 B( 54-N , 55-C ) :   0.9626
B( 55-C , 86-H ) :   0.9649 B( 55-C , 87-H ) :   0.9687 B( 55-C , 88-H ) :   0.9678
B( 56-C , 57-C ) :   1.6149 B( 56-C , 89-H ) :   0.9346 B( 57-C , 58-C ) :   0.9588
B( 57-C , 62-C ) :   1.0524 B( 58-C , 59-O ) :   2.2579 B( 58-C , 60-C ) :   0.9146
B( 60-C , 61-C ) :   1.3346 B( 60-C , 71-C ) :   1.3726 B( 61-C , 62-C ) :   1.0048
B( 61-C , 68-C ) :   1.3685 B( 62-C , 63-C ) :   1.6420 B( 63-C , 64-C ) :   1.1280
B( 63-C , 66-C ) :   1.1636 B( 64-C , 65-N ) :   2.9907 B( 66-C , 67-N ) :   3.0024
B( 68-C , 69-C ) :   1.3685 B( 68-C , 90-H ) :   0.9857 B( 69-C , 70-C ) :   1.3865
B( 69-C , 91-H ) :   0.9882 B( 70-C , 71-C ) :   1.3331 B( 70-C , 72-Cl) :   0.9860
B( 71-C , 92-H ) :   1.0109

-----------------------------------------------------------------------------
         ABSORPTION SPECTRUM VIA TRANSITION ELECTRIC DIPOLE MOMENTS
-----------------------------------------------------------------------------
State   Energy  Wavelength   fosc         T2         TX        TY        TZ
        (cm-1)    (nm)                  (au**2)     (au)      (au)      (au)
-----------------------------------------------------------------------------
   0   10690.6    935.4   1.199048884  36.92415  -0.25210   0.42353  -6.05650
   1   14604.9    684.7   0.116563318   2.62747  -0.78725  -1.35455   0.41583
   2   17834.0    560.7   0.626402631  11.56327   0.89217  -0.40027   3.25685
   3   19017.8    525.8   0.593764562  10.27849   0.87945  -0.26666  -3.07147
   4   19733.1    506.8   0.128970019   2.15163   0.19315  -0.64683  -1.30228
   5   21835.1    458.0   0.031503590   0.47499   0.13434   0.33957   0.58449
   6   22587.0    442.7   0.009053189   0.13195   0.05337  -0.35338   0.06500
   7   22924.6    436.2   0.034414522   0.49422   0.05882   0.14080  -0.68624
   8   23418.3    427.0   0.122604035   1.72356   0.24715  -0.29188  -1.25590
   9   24137.3    414.3   0.228983049   3.12312   0.04912  -0.93849   1.49665
  10   24811.6    403.0   0.003652105   0.04846  -0.18031   0.12128  -0.03519
  11   25597.3    390.7   0.000732524   0.00942  -0.08875   0.02656  -0.02898
  12   26061.4    383.7   0.034895495   0.44081  -0.42387  -0.06701  -0.50661
  13   26548.2    376.7   0.011777097   0.14604   0.02297  -0.06316  -0.37620
  14   26747.9    373.9   0.090775704   1.11726  -0.18378   0.10206   1.03589
  15   26889.9    371.9   0.026509355   0.32455  -0.32727   0.32805  -0.33140
  16   27631.8    361.9   0.001830374   0.02181   0.06313  -0.12227   0.05360
  17   27691.5    361.1   0.067697877   0.80483  -0.22591   0.43024   0.75411
  18   27907.5    358.3   0.033233139   0.39204   0.10017  -0.59099   0.18092
  19   28404.6    352.1   0.014281131   0.16552  -0.02691   0.35662  -0.19395
  20   29280.9    341.5   0.242519041   2.72670  -0.28134  -0.24629   1.60838
  21   29803.0    335.5   0.001298790   0.01435   0.08386   0.01968  -0.08323
  22   30017.4    333.1   0.079862863   0.87588  -0.07175   0.36191   0.86009
  23   30577.7    327.0   0.077416251   0.83350  -0.10162   0.19457  -0.88618
  24   30708.9    325.6   0.004710546   0.05050  -0.00287  -0.06580   0.21485
  25   30888.6    323.7   0.088488898   0.94312   0.17473  -0.88738   0.35376
  26   31280.9    319.7   0.053555622   0.56364  -0.35378   0.08528   0.65666
  27   31827.5    314.2   0.086182129   0.89144  -0.21885   0.89304   0.21452
  28   32072.2    311.8   0.002292704   0.02353   0.03984   0.14814  -0.00129
  29   32484.3    307.8   0.033503188   0.33954   0.44714   0.04627  -0.37076
  30   32929.3    303.7   0.126563025   1.26532  -0.19483   0.46167   1.00709
  31   33229.7    300.9   0.024234616   0.24010   0.06688   0.34582  -0.34064
  32   33432.2    299.1   0.233734966   2.30162  -0.02919  -1.39314   0.59994
  33   33539.7    298.2   0.007932095   0.07786  -0.04720   0.27264  -0.03603
  34   34095.9    293.3   0.013382985   0.12922   0.08026   0.05220   0.34649
  35   34241.9    292.0   0.013689170   0.13161   0.12833   0.28244  -0.18807
  36   34347.9    291.1   0.013261341   0.12711   0.04782  -0.02502  -0.35241
  37   34679.0    288.4   0.108322994   1.02832  -0.01876   0.68490  -0.74759
  38   34843.9    287.0   0.279008070   2.63612   0.10581  -1.44413   0.73445
  39   34924.6    286.3   0.369672158   3.48466   0.99758  -0.15642  -1.57004
  40   35120.9    284.7   0.293353929   2.74980   0.19689  -1.63286  -0.21168
  41   35444.8    282.1   0.033407828   0.31029   0.09286   0.34580  -0.42672
  42   35669.9    280.3   0.384679064   3.55036  -0.37884  -1.79088   0.44673
  43   35869.7    278.8   0.029539625   0.27111  -0.02563   0.14089   0.50061
  44   35929.8    278.3   0.013684315   0.12538   0.07831   0.28773   0.19096
  45   36038.4    277.5   0.075374680   0.68855  -0.22644  -0.74121  -0.29645
  46   36198.9    276.3   0.113663864   1.03372   0.44971   0.74487  -0.52598
  47   36458.1    274.3   0.042492869   0.38371  -0.09304  -0.59162  -0.15821
  48   36787.4    271.8   0.009538689   0.08536   0.14237   0.25331   0.03048
  49   36933.8    270.8   0.085831650   0.76507   0.03637  -0.80158   0.34815
  50   37587.9    266.0   0.005460873   0.04783   0.03621  -0.17607   0.12457
  51   38142.0    262.2   0.068496148   0.59121  -0.20956   0.49034  -0.55395
  52   38445.3    260.1   0.002444311   0.02093  -0.10205  -0.04484   0.09223
  53   38703.9    258.4   0.100483847   0.85471   0.43933   0.67220  -0.45809
  54   38797.4    257.7   0.035577182   0.30189   0.14053  -0.37035  -0.38076
  55   38951.2    256.7   0.072341657   0.61142  -0.38166  -0.62249   0.27976
  56   39019.3    256.3   0.030526616   0.25756   0.09514  -0.18473   0.46301
  57   39129.2    255.6   0.008632012   0.07263  -0.07581   0.08831  -0.24306
  58   39284.3    254.6   0.036477653   0.30569   0.30170  -0.13917  -0.44193
  59   39360.9    254.1   0.071729302   0.59994   0.05396   0.60724   0.47779
  60   39548.4    252.9   0.005732586   0.04772  -0.19603   0.08174  -0.05110
  61   39667.4    252.1   0.013232583   0.10982  -0.13154   0.14351  -0.26819
  62   40032.3    249.8   0.046166224   0.37965  -0.01525  -0.60750  -0.10183
  63   40093.7    249.4   0.021305902   0.17494  -0.07970   0.40386   0.07410
  64   40139.8    249.1   0.009939762   0.08152   0.04222   0.26550   0.09617

FINAL SINGLE POINT ENERGY     -5715.556898302724

DIPOLE MOMENT
-------------
                                X             Y             Z
Electronic contribution:      3.74454       4.77238      -2.56862
Nuclear contribution   :     -5.19708      -6.13132       4.21844
                        -----------------------------------------
Total Dipole Moment    :     -1.45254      -1.35893       1.64983
                        -----------------------------------------
Magnitude (a.u.)       :      2.58428
Magnitude (Debye)      :      6.56872

Rotational constants in cm-1:     0.002250     0.000181     0.000173
Rotational constants in MHz :    67.448735     5.429518     5.200247

                             ****ORCA TERMINATED NORMALLY****
TOTAL RUN TIME: 0 days 0 hours 9 minutes 13 seconds 390 msec
