                         Program Version 4.2.0 -  RELEASE  -
|  1> # ORCA input file
|  2> # SCF done       -191.327019659989          0.000619833621
|  3> ! CAM-B3LYP def2-SVP def2/J RIJCOSX Grid4 TightSCF
|  4> %maxcore 5000
|  5> %tddft
|  6>     Mode sTDDFT
|  7>     Ethresh 5.0
|  8>     maxcore 5000
|  9> end
| 10>
| 11> %pal
| 12>   nprocs 6
| 13>   end
| 14> * xyz 0 1
| 15>    C       10.61276        -3.40521         2.99855
| 16>    C       11.01243        -2.22663         3.55368
| 17>    C       12.10586        -1.28729         3.18774
| 18>    N       10.18618        -1.97914         4.61727
| 19>    C        9.26646        -2.97136         4.75443
| 20>    C        8.25911        -2.92300         5.84767
| 21>    C        9.50160        -3.89751         3.74566
| 22>    C        8.82718        -5.11921         3.42732
| 23>    C        7.75233        -5.65569         4.03807
| 24>    C        7.13391        -6.87571         3.63720
| 25>    S        7.72390        -7.83300         2.30690
| 26>    C        6.45035        -9.00312         2.51494
| 27>    C        5.63287        -8.65036         3.56671
| 28>    C        6.01798        -7.46352         4.19273
| 29>    C        6.33164       -10.12620         1.65126
| 30>    C        5.32207       -11.06524         1.61622
| 31>    C        5.48900       -12.02576         0.61868
| 32>    C        6.63343       -11.84925        -0.12993
| 33>    S        7.52045       -10.45792         0.42496
| 34>    C        7.08203       -12.62658        -1.23300
| 35>    S        8.65681       -12.39918        -1.93296
| 36>    C        8.35734       -13.61833        -3.14240
| 37>    C        7.09965       -14.15879        -2.97616
| 38>    C        6.38980       -13.61075        -1.90846
| 39>    C        9.35806       -13.91258        -4.11486
| 40>    C        9.13907       -14.63829        -5.23076
| 41>    C       10.10556       -14.95052        -6.25322
| 42>    C        9.65805       -15.36046        -7.48729
| 43>    C       10.57252       -15.64017        -8.52297
| 44>    C       10.37063       -16.01752        -9.83996
| 45>    C        9.05338       -16.25426       -10.50387
| 46>    C        8.86267       -15.39212       -11.76416
| 47>    N        7.45412       -15.07874       -11.93180
| 48>    C        8.86750       -17.75168       -10.80616
| 49>    N        8.69087       -18.47265        -9.55797
| 50>    C       11.67857       -16.17474       -10.43264
| 51>    C       12.06708       -16.49270       -11.68071
| 52>    C       13.50821       -16.61639       -12.05392
| 53>    C       14.46326       -16.35226       -10.93765
| 54>    C       14.06304       -15.99094        -9.70532
| 55>    C       12.68488       -15.88317        -9.39791
| 56>    C       12.00211       -15.54324        -8.25023
| 57>    C       12.43448       -15.14535        -6.96147
| 58>    C       11.51797       -14.84770        -6.00880
| 59>    C       13.66634       -17.97895       -12.68637
| 60>    C       14.21254       -19.03408       -12.07815
| 61>    C       14.30490       -20.34424       -12.65549
| 62>    S       15.14057       -21.60717       -11.79374
| 63>    C       14.79963       -22.76019       -13.05078
| 64>    C       14.08008       -22.17262       -14.06657
| 65>    C       13.80628       -20.82112       -13.84507
| 66>    C       15.23322       -24.11042       -12.96098
| 67>    C       16.00211       -24.70849       -11.98898
| 68>    C       16.23383       -26.06632       -12.21846
| 69>    C       15.64215       -26.53751       -13.37089
| 70>    S       14.78579       -25.26255       -14.18920
| 71>    C       15.65971       -27.85772       -13.89919
| 72>    S       14.75040       -28.25915       -15.32980
| 73>    C       15.27331       -29.91859       -15.26013
| 74>    C       16.10867       -30.11386       -14.18198
| 75>    C       16.32466       -28.96433       -13.41849
| 76>    C       14.84206       -30.88876       -16.21286
| 77>    C       13.97909       -30.62114       -17.21137
| 78>    C       13.51010       -31.53329       -18.21280
| 79>    C       14.14802       -32.65429       -18.71822
| 80>    C       15.45455       -33.27918       -18.38083
| 81>    N       13.37900       -33.14502       -19.72824
| 82>    C       12.26117       -32.37973       -19.90152
| 83>    C       11.24210       -32.73558       -20.92453
| 84>    C       12.29966       -31.36472       -18.97147
| 85>    C       11.27879       -30.35337       -18.78639
| 86>    C       10.95569       -29.78232       -17.63239
| 87>    H       11.04824        -3.88832         2.14650
| 88>    H       12.63912        -1.66570         2.32085
| 89>    H       12.81398        -1.17495         4.00970
| 90>    H       11.70703        -0.30105         2.94699
| 91>    H       10.25104        -1.17216         5.21657
| 92>    H        8.42095        -2.04281         6.46807
| 93>    H        8.33149        -3.80747         6.48019
| 94>    H        7.24802        -2.87571         5.44264
| 95>    H        9.24642        -5.65597         2.58379
| 96>    H        7.28566        -5.16681         4.87945
| 97>    H        4.78496        -9.23682         3.87170
| 98>    H        5.49489        -7.03632         5.03054
| 99>    H        4.48415       -11.04850         2.28933
|100>    H        4.79805       -12.83172         0.44951
|101>    H        6.70972       -14.93927        -3.60421
|102>    H        5.39300       -13.91097        -1.63997
|103>    H       10.32853       -13.47364        -3.92869
|104>    H        8.13568       -14.99369        -5.42653
|105>    H        8.59779       -15.44981        -7.67460
|106>    H        8.26180       -15.96725        -9.80669
|107>    H        9.29654       -15.90644       -12.63883
|108>    H        9.39400       -14.44477       -11.63453
|109>    H        6.91454       -15.92937       -12.05112
|110>    H        7.31107       -14.50010       -12.75199
|111>    H        9.72604       -18.11194       -11.39955
|112>    H        7.95948       -17.90181       -11.39953
|113>    H        9.48081       -18.29329        -8.94554
|114>    H        8.64472       -19.47194        -9.72533
|115>    H       11.35696       -16.69475       -12.47009
|116>    H       13.70454       -15.87587       -12.84751
|117>    H       15.51052       -16.44723       -11.18322
|118>    H       14.78723       -15.78591        -8.92957
|119>    H       13.49298       -15.07969        -6.75352
|120>    H       11.84505       -14.55109        -5.02409
|121>    H       13.24546       -18.07623       -13.67709
|122>    H       14.62468       -18.92512       -11.08394
|123>    H       13.76712       -22.71841       -14.93934
|124>    H       13.25150       -20.21421       -14.53745
|125>    H       16.38075       -24.16719       -11.13956
|126>    H       16.81151       -26.68984       -11.56072
|127>    H       16.54751       -31.06971       -13.95464
|128>    H       16.94820       -28.93859       -12.54294
|129>    H       15.22816       -31.88621       -16.06156
|130>    H       13.58210       -29.61557       -17.28448
|131>    H       15.36175       -33.95096       -17.52565
|132>    H       16.18504       -32.51190       -18.13231
|133>    H       15.82619       -33.85708       -19.22593
|134>    H       13.60483       -33.95926       -20.27656
|135>    H       11.72097       -33.00016       -21.86754
|136>    H       10.57310       -31.89752       -21.09606
|137>    H       10.64173       -33.58651       -20.59776
|138>    H       10.73350       -30.08069       -19.68262
|139>    H       11.43096       -30.05341       -16.70593
|140>    H       10.18578       -29.03219       -17.57292
|141> *
|142>
|143>                          ****END OF INPUT****

CARTESIAN COORDINATES (ANGSTROEM)
---------------------------------
  C     10.612760   -3.405210    2.998550
  C     11.012430   -2.226630    3.553680
  C     12.105860   -1.287290    3.187740
  N     10.186180   -1.979140    4.617270
  C      9.266460   -2.971360    4.754430
  C      8.259110   -2.923000    5.847670
  C      9.501600   -3.897510    3.745660
  C      8.827180   -5.119210    3.427320
  C      7.752330   -5.655690    4.038070
  C      7.133910   -6.875710    3.637200
  S      7.723900   -7.833000    2.306900
  C      6.450350   -9.003120    2.514940
  C      5.632870   -8.650360    3.566710
  C      6.017980   -7.463520    4.192730
  C      6.331640  -10.126200    1.651260
  C      5.322070  -11.065240    1.616220
  C      5.489000  -12.025760    0.618680
  C      6.633430  -11.849250   -0.129930
  S      7.520450  -10.457920    0.424960
  C      7.082030  -12.626580   -1.233000
  S      8.656810  -12.399180   -1.932960
  C      8.357340  -13.618330   -3.142400
  C      7.099650  -14.158790   -2.976160
  C      6.389800  -13.610750   -1.908460
  C      9.358060  -13.912580   -4.114860
  C      9.139070  -14.638290   -5.230760
  C     10.105560  -14.950520   -6.253220
  C      9.658050  -15.360460   -7.487290
  C     10.572520  -15.640170   -8.522970
  C     10.370630  -16.017520   -9.839960
  C      9.053380  -16.254260  -10.503870
  C      8.862670  -15.392120  -11.764160
  N      7.454120  -15.078740  -11.931800
  C      8.867500  -17.751680  -10.806160
  N      8.690870  -18.472650   -9.557970
  C     11.678570  -16.174740  -10.432640
  C     12.067080  -16.492700  -11.680710
  C     13.508210  -16.616390  -12.053920
  C     14.463260  -16.352260  -10.937650
  C     14.063040  -15.990940   -9.705320
  C     12.684880  -15.883170   -9.397910
  C     12.002110  -15.543240   -8.250230
  C     12.434480  -15.145350   -6.961470
  C     11.517970  -14.847700   -6.008800
  C     13.666340  -17.978950  -12.686370
  C     14.212540  -19.034080  -12.078150
  C     14.304900  -20.344240  -12.655490
  S     15.140570  -21.607170  -11.793740
  C     14.799630  -22.760190  -13.050780
  C     14.080080  -22.172620  -14.066570
  C     13.806280  -20.821120  -13.845070
  C     15.233220  -24.110420  -12.960980
  C     16.002110  -24.708490  -11.988980
  C     16.233830  -26.066320  -12.218460
  C     15.642150  -26.537510  -13.370890
  S     14.785790  -25.262550  -14.189200
  C     15.659710  -27.857720  -13.899190
  S     14.750400  -28.259150  -15.329800
  C     15.273310  -29.918590  -15.260130
  C     16.108670  -30.113860  -14.181980
  C     16.324660  -28.964330  -13.418490
  C     14.842060  -30.888760  -16.212860
  C     13.979090  -30.621140  -17.211370
  C     13.510100  -31.533290  -18.212800
  C     14.148020  -32.654290  -18.718220
  C     15.454550  -33.279180  -18.380830
  N     13.379000  -33.145020  -19.728240
  C     12.261170  -32.379730  -19.901520
  C     11.242100  -32.735580  -20.924530
  C     12.299660  -31.364720  -18.971470
  C     11.278790  -30.353370  -18.786390
  C     10.955690  -29.782320  -17.632390
  H     11.048240   -3.888320    2.146500
  H     12.639120   -1.665700    2.320850
  H     12.813980   -1.174950    4.009700
  H     11.707030   -0.301050    2.946990
  H     10.251040   -1.172160    5.216570
  H      8.420950   -2.042810    6.468070
  H      8.331490   -3.807470    6.480190
  H      7.248020   -2.875710    5.442640
  H      9.246420   -5.655970    2.583790
  H      7.285660   -5.166810    4.879450
  H      4.784960   -9.236820    3.871700
  H      5.494890   -7.036320    5.030540
  H      4.484150  -11.048500    2.289330
  H      4.798050  -12.831720    0.449510
  H      6.709720  -14.939270   -3.604210
  H      5.393000  -13.910970   -1.639970
  H     10.328530  -13.473640   -3.928690
  H      8.135680  -14.993690   -5.426530
  H      8.597790  -15.449810   -7.674600
  H      8.261800  -15.967250   -9.806690
  H      9.296540  -15.906440  -12.638830
  H      9.394000  -14.444770  -11.634530
  H      6.914540  -15.929370  -12.051120
  H      7.311070  -14.500100  -12.751990
  H      9.726040  -18.111940  -11.399550
  H      7.959480  -17.901810  -11.399530
  H      9.480810  -18.293290   -8.945540
  H      8.644720  -19.471940   -9.725330
  H     11.356960  -16.694750  -12.470090
  H     13.704540  -15.875870  -12.847510
  H     15.510520  -16.447230  -11.183220
  H     14.787230  -15.785910   -8.929570
  H     13.492980  -15.079690   -6.753520
  H     11.845050  -14.551090   -5.024090
  H     13.245460  -18.076230  -13.677090
  H     14.624680  -18.925120  -11.083940
  H     13.767120  -22.718410  -14.939340
  H     13.251500  -20.214210  -14.537450
  H     16.380750  -24.167190  -11.139560
  H     16.811510  -26.689840  -11.560720
  H     16.547510  -31.069710  -13.954640
  H     16.948200  -28.938590  -12.542940
  H     15.228160  -31.886210  -16.061560
  H     13.582100  -29.615570  -17.284480
  H     15.361750  -33.950960  -17.525650
  H     16.185040  -32.511900  -18.132310
  H     15.826190  -33.857080  -19.225930
  H     13.604830  -33.959260  -20.276560
  H     11.720970  -33.000160  -21.867540
  H     10.573100  -31.897520  -21.096060
  H     10.641730  -33.586510  -20.597760
  H     10.733500  -30.080690  -19.682620
  H     11.430960  -30.053410  -16.705930
  H     10.185780  -29.032190  -17.572920

 Total Charge           Charge          ....    0
 Multiplicity           Mult            ....    1
 Number of Electrons    NEL             ....  550
 Basis Dimension        Dim             .... 1302

ORBITAL ENERGIES
----------------

  NO   OCC          E(Eh)            E(eV)
   0   2.0000     -88.946514     -2420.3577
   1   2.0000     -88.944958     -2420.3153
   2   2.0000     -88.940168     -2420.1850
   3   2.0000     -88.938588     -2420.1420
   4   2.0000     -88.938316     -2420.1346
   5   2.0000     -88.933557     -2420.0051
   6   2.0000     -14.447389      -393.1334
   7   2.0000     -14.442299      -392.9949
   8   2.0000     -14.368686      -390.9918
   9   2.0000     -14.362422      -390.8214
  10   2.0000     -10.296472      -280.1813
  11   2.0000     -10.295345      -280.1506
  12   2.0000     -10.294089      -280.1164
  13   2.0000     -10.290727      -280.0249
  14   2.0000     -10.290664      -280.0232
  15   2.0000     -10.290105      -280.0080
  16   2.0000     -10.289253      -279.9848
  17   2.0000     -10.289185      -279.9830
  18   2.0000     -10.288847      -279.9738
  19   2.0000     -10.286892      -279.9206
  20   2.0000     -10.286341      -279.9056
  21   2.0000     -10.285159      -279.8734
  22   2.0000     -10.284692      -279.8607
  23   2.0000     -10.283212      -279.8204
  24   2.0000     -10.283085      -279.8170
  25   2.0000     -10.282804      -279.8093
  26   2.0000     -10.279656      -279.7237
  27   2.0000     -10.276315      -279.6328
  28   2.0000     -10.275025      -279.5977
  29   2.0000     -10.273979      -279.5692
  30   2.0000     -10.272846      -279.5384
  31   2.0000     -10.271678      -279.5066
  32   2.0000     -10.269024      -279.4343
  33   2.0000     -10.268842      -279.4294
  34   2.0000     -10.267522      -279.3935
  35   2.0000     -10.264609      -279.3142
  36   2.0000     -10.264546      -279.3125
  37   2.0000     -10.264210      -279.3033
  38   2.0000     -10.263970      -279.2968
  39   2.0000     -10.263402      -279.2814
  40   2.0000     -10.263147      -279.2744
  41   2.0000     -10.262675      -279.2616
  42   2.0000     -10.262072      -279.2452
  43   2.0000     -10.262018      -279.2437
  44   2.0000     -10.260234      -279.1952
  45   2.0000     -10.260157      -279.1931
  46   2.0000     -10.259332      -279.1706
  47   2.0000     -10.258265      -279.1416
  48   2.0000     -10.258142      -279.1382
  49   2.0000     -10.258068      -279.1362
  50   2.0000     -10.257561      -279.1224
  51   2.0000     -10.257320      -279.1159
  52   2.0000     -10.257228      -279.1134
  53   2.0000     -10.257116      -279.1103
  54   2.0000     -10.256716      -279.0994
  55   2.0000     -10.256424      -279.0915
  56   2.0000     -10.255518      -279.0668
  57   2.0000     -10.254835      -279.0483
  58   2.0000     -10.254308      -279.0339
  59   2.0000     -10.252613      -278.9878
  60   2.0000     -10.251504      -278.9576
  61   2.0000     -10.251176      -278.9487
  62   2.0000     -10.251087      -278.9463
  63   2.0000     -10.250298      -278.9248
  64   2.0000     -10.250132      -278.9203
  65   2.0000     -10.250035      -278.9176
  66   2.0000     -10.246583      -278.8237
  67   2.0000     -10.243330      -278.7352
  68   2.0000     -10.242191      -278.7042
  69   2.0000     -10.241835      -278.6945
  70   2.0000     -10.237736      -278.5830
  71   2.0000     -10.230269      -278.3798
  72   2.0000      -8.042152      -218.8381
  73   2.0000      -8.040710      -218.7988
  74   2.0000      -8.036049      -218.6720
  75   2.0000      -8.034444      -218.6283
  76   2.0000      -8.034054      -218.6177
  77   2.0000      -8.029233      -218.4865
  78   2.0000      -6.011401      -163.5785
  79   2.0000      -6.010075      -163.5424
  80   2.0000      -6.007416      -163.4701
  81   2.0000      -6.005973      -163.4308
  82   2.0000      -6.005381      -163.4147
  83   2.0000      -6.004238      -163.3836
  84   2.0000      -6.003671      -163.3682
  85   2.0000      -6.003304      -163.3582
  86   2.0000      -6.002614      -163.3394
  87   2.0000      -6.001260      -163.3026
  88   2.0000      -5.999641      -163.2585
  89   2.0000      -5.999355      -163.2507
  90   2.0000      -5.998508      -163.2277
  91   2.0000      -5.998020      -163.2144
  92   2.0000      -5.996588      -163.1755
  93   2.0000      -5.996061      -163.1611
  94   2.0000      -5.994546      -163.1199
  95   2.0000      -5.991240      -163.0299
  96   2.0000      -1.064489       -28.9662
  97   2.0000      -1.059048       -28.8182
  98   2.0000      -0.986338       -26.8396
  99   2.0000      -0.980226       -26.6733
 100   2.0000      -0.972929       -26.4747
 101   2.0000      -0.971403       -26.4332
 102   2.0000      -0.965607       -26.2755
 103   2.0000      -0.955359       -25.9966
 104   2.0000      -0.954033       -25.9605
 105   2.0000      -0.949090       -25.8261
 106   2.0000      -0.939280       -25.5591
 107   2.0000      -0.933175       -25.3930
 108   2.0000      -0.905359       -24.6361
 109   2.0000      -0.896325       -24.3902
 110   2.0000      -0.886039       -24.1104
 111   2.0000      -0.879839       -23.9416
 112   2.0000      -0.875852       -23.8331
 113   2.0000      -0.869849       -23.6698
 114   2.0000      -0.861169       -23.4336
 115   2.0000      -0.858542       -23.3621
 116   2.0000      -0.855458       -23.2782
 117   2.0000      -0.848369       -23.0853
 118   2.0000      -0.837808       -22.7979
 119   2.0000      -0.831690       -22.6314
 120   2.0000      -0.826444       -22.4887
 121   2.0000      -0.824622       -22.4391
 122   2.0000      -0.824426       -22.4338
 123   2.0000      -0.820123       -22.3167
 124   2.0000      -0.818497       -22.2724
 125   2.0000      -0.817394       -22.2424
 126   2.0000      -0.811212       -22.0742
 127   2.0000      -0.808946       -22.0125
 128   2.0000      -0.805013       -21.9055
 129   2.0000      -0.803698       -21.8697
 130   2.0000      -0.800601       -21.7855
 131   2.0000      -0.798676       -21.7331
 132   2.0000      -0.788599       -21.4589
 133   2.0000      -0.777581       -21.1591
 134   2.0000      -0.758890       -20.6505
 135   2.0000      -0.749103       -20.3841
 136   2.0000      -0.745970       -20.2989
 137   2.0000      -0.726505       -19.7692
 138   2.0000      -0.722377       -19.6569
 139   2.0000      -0.713468       -19.4145
 140   2.0000      -0.710964       -19.3463
 141   2.0000      -0.702598       -19.1187
 142   2.0000      -0.697607       -18.9829
 143   2.0000      -0.688233       -18.7278
 144   2.0000      -0.680962       -18.5299
 145   2.0000      -0.679728       -18.4964
 146   2.0000      -0.670352       -18.2412
 147   2.0000      -0.666119       -18.1260
 148   2.0000      -0.664254       -18.0753
 149   2.0000      -0.658797       -17.9268
 150   2.0000      -0.654643       -17.8138
 151   2.0000      -0.650278       -17.6950
 152   2.0000      -0.647785       -17.6271
 153   2.0000      -0.634173       -17.2567
 154   2.0000      -0.624871       -17.0036
 155   2.0000      -0.622188       -16.9306
 156   2.0000      -0.616434       -16.7740
 157   2.0000      -0.615359       -16.7448
 158   2.0000      -0.608634       -16.5618
 159   2.0000      -0.607124       -16.5207
 160   2.0000      -0.602311       -16.3897
 161   2.0000      -0.601784       -16.3754
 162   2.0000      -0.594519       -16.1777
 163   2.0000      -0.591427       -16.0935
 164   2.0000      -0.588805       -16.0222
 165   2.0000      -0.586994       -15.9729
 166   2.0000      -0.585724       -15.9384
 167   2.0000      -0.583085       -15.8666
 168   2.0000      -0.578509       -15.7420
 169   2.0000      -0.568857       -15.4794
 170   2.0000      -0.566632       -15.4188
 171   2.0000      -0.563308       -15.3284
 172   2.0000      -0.562049       -15.2941
 173   2.0000      -0.560801       -15.2602
 174   2.0000      -0.548169       -14.9164
 175   2.0000      -0.546599       -14.8737
 176   2.0000      -0.542724       -14.7683
 177   2.0000      -0.536317       -14.5939
 178   2.0000      -0.535926       -14.5833
 179   2.0000      -0.531427       -14.4609
 180   2.0000      -0.524144       -14.2627
 181   2.0000      -0.521776       -14.1982
 182   2.0000      -0.519514       -14.1367
 183   2.0000      -0.514633       -14.0039
 184   2.0000      -0.514182       -13.9916
 185   2.0000      -0.512794       -13.9538
 186   2.0000      -0.510908       -13.9025
 187   2.0000      -0.507396       -13.8070
 188   2.0000      -0.501466       -13.6456
 189   2.0000      -0.501007       -13.6331
 190   2.0000      -0.499243       -13.5851
 191   2.0000      -0.498558       -13.5664
 192   2.0000      -0.495771       -13.4906
 193   2.0000      -0.492833       -13.4107
 194   2.0000      -0.491438       -13.3727
 195   2.0000      -0.488240       -13.2857
 196   2.0000      -0.487795       -13.2736
 197   2.0000      -0.487060       -13.2536
 198   2.0000      -0.485836       -13.2203
 199   2.0000      -0.484595       -13.1865
 200   2.0000      -0.482092       -13.1184
 201   2.0000      -0.481940       -13.1142
 202   2.0000      -0.480436       -13.0733
 203   2.0000      -0.479337       -13.0434
 204   2.0000      -0.477581       -12.9956
 205   2.0000      -0.475172       -12.9301
 206   2.0000      -0.472906       -12.8684
 207   2.0000      -0.470056       -12.7909
 208   2.0000      -0.467961       -12.7339
 209   2.0000      -0.467478       -12.7207
 210   2.0000      -0.465869       -12.6769
 211   2.0000      -0.463889       -12.6231
 212   2.0000      -0.462954       -12.5976
 213   2.0000      -0.459331       -12.4990
 214   2.0000      -0.458740       -12.4830
 215   2.0000      -0.456213       -12.4142
 216   2.0000      -0.455116       -12.3843
 217   2.0000      -0.452144       -12.3035
 218   2.0000      -0.450539       -12.2598
 219   2.0000      -0.447461       -12.1760
 220   2.0000      -0.445315       -12.1176
 221   2.0000      -0.444689       -12.1006
 222   2.0000      -0.444111       -12.0849
 223   2.0000      -0.442823       -12.0498
 224   2.0000      -0.439467       -11.9585
 225   2.0000      -0.437608       -11.9079
 226   2.0000      -0.434989       -11.8367
 227   2.0000      -0.433571       -11.7981
 228   2.0000      -0.427696       -11.6382
 229   2.0000      -0.427010       -11.6195
 230   2.0000      -0.424916       -11.5626
 231   2.0000      -0.424070       -11.5395
 232   2.0000      -0.421347       -11.4654
 233   2.0000      -0.418275       -11.3818
 234   2.0000      -0.415424       -11.3043
 235   2.0000      -0.415202       -11.2982
 236   2.0000      -0.414042       -11.2666
 237   2.0000      -0.411049       -11.1852
 238   2.0000      -0.408187       -11.1073
 239   2.0000      -0.405995       -11.0477
 240   2.0000      -0.401645       -10.9293
 241   2.0000      -0.400773       -10.9056
 242   2.0000      -0.396272       -10.7831
 243   2.0000      -0.395480       -10.7615
 244   2.0000      -0.390980       -10.6391
 245   2.0000      -0.385464       -10.4890
 246   2.0000      -0.385351       -10.4859
 247   2.0000      -0.380537       -10.3549
 248   2.0000      -0.378877       -10.3098
 249   2.0000      -0.376361       -10.2413
 250   2.0000      -0.369618       -10.0578
 251   2.0000      -0.364517        -9.9190
 252   2.0000      -0.357125        -9.7179
 253   2.0000      -0.353341        -9.6149
 254   2.0000      -0.336420        -9.1545
 255   2.0000      -0.329754        -8.9731
 256   2.0000      -0.319875        -8.7042
 257   2.0000      -0.317726        -8.6458
 258   2.0000      -0.314456        -8.5568
 259   2.0000      -0.313597        -8.5334
 260   2.0000      -0.306863        -8.3502
 261   2.0000      -0.306526        -8.3410
 262   2.0000      -0.305440        -8.3114
 263   2.0000      -0.299847        -8.1593
 264   2.0000      -0.294274        -8.0076
 265   2.0000      -0.291937        -7.9440
 266   2.0000      -0.286736        -7.8025
 267   2.0000      -0.281958        -7.6725
 268   2.0000      -0.264259        -7.1909
 269   2.0000      -0.258084        -7.0228
 270   2.0000      -0.247638        -6.7386
 271   2.0000      -0.239841        -6.5264
 272   2.0000      -0.215818        -5.8727
 273   2.0000      -0.213580        -5.8118
 274   2.0000      -0.201361        -5.4793
 275   0.0000      -0.058607        -1.5948
 276   0.0000      -0.036022        -0.9802
 277   0.0000      -0.029329        -0.7981
 278   0.0000      -0.000049        -0.0013
 279   0.0000       0.002532         0.0689

MULLIKEN ATOMIC CHARGES
-----------------------
   0 C :   -0.091379
   1 C :   -0.073786
   2 C :    0.130489
   3 N :   -0.043536
   4 C :   -0.172452
   5 C :    0.127674
   6 C :    0.075550
   7 C :   -0.008517
   8 C :    0.011727
   9 C :   -0.037478
  10 S :    0.095138
  11 C :   -0.041308
  12 C :    0.000992
  13 C :   -0.002687
  14 C :   -0.031727
  15 C :   -0.009376
  16 C :   -0.004296
  17 C :   -0.033205
  18 S :    0.120368
  19 C :   -0.048619
  20 S :    0.117110
  21 C :   -0.079251
  22 C :    0.008970
  23 C :   -0.005426
  24 C :    0.070389
  25 C :   -0.018929
  26 C :    0.121968
  27 C :   -0.108251
  28 C :    0.057425
  29 C :   -0.085776
  30 C :   -0.035336
  31 C :    0.134779
  32 N :   -0.210906
  33 C :    0.162061
  34 N :   -0.226653
  35 C :    0.098220
  36 C :   -0.119145
  37 C :    0.180627
  38 C :   -0.061475
  39 C :    0.018112
  40 C :    0.003338
  41 C :    0.036730
  42 C :   -0.003979
  43 C :   -0.006450
  44 C :   -0.118448
  45 C :    0.105105
  46 C :   -0.075263
  47 S :    0.118915
  48 C :   -0.042126
  49 C :   -0.020484
  50 C :    0.011016
  51 C :   -0.030710
  52 C :   -0.014241
  53 C :   -0.007492
  54 C :   -0.026378
  55 S :    0.112207
  56 C :   -0.038947
  57 S :    0.093272
  58 C :   -0.039108
  59 C :    0.003066
  60 C :   -0.002467
  61 C :    0.002462
  62 C :   -0.051318
  63 C :    0.050544
  64 C :   -0.165242
  65 C :    0.121845
  66 N :   -0.039185
  67 C :   -0.153579
  68 C :    0.133489
  69 C :    0.041993
  70 C :   -0.056716
  71 C :   -0.039406
  72 H :   -0.046829
  73 H :    0.013750
  74 H :    0.017698
  75 H :    0.017044
  76 H :    0.106464
  77 H :   -0.010179
  78 H :    0.039258
  79 H :    0.038863
  80 H :   -0.021218
  81 H :   -0.048690
  82 H :   -0.028581
  83 H :   -0.030042
  84 H :   -0.025669
  85 H :   -0.025138
  86 H :   -0.020132
  87 H :   -0.025622
  88 H :   -0.020551
  89 H :   -0.019953
  90 H :   -0.033086
  91 H :   -0.011018
  92 H :   -0.025910
  93 H :    0.001227
  94 H :    0.085502
  95 H :    0.087419
  96 H :   -0.026314
  97 H :   -0.023185
  98 H :    0.098532
  99 H :    0.088458
 100 H :   -0.014465
 101 H :    0.031970
 102 H :   -0.010660
 103 H :   -0.038383
 104 H :   -0.041489
 105 H :   -0.030736
 106 H :   -0.006298
 107 H :   -0.007418
 108 H :   -0.014111
 109 H :   -0.025586
 110 H :   -0.016991
 111 H :   -0.023707
 112 H :   -0.029207
 113 H :   -0.025885
 114 H :   -0.032994
 115 H :    0.003040
 116 H :    0.035614
 117 H :    0.035645
 118 H :   -0.003633
 119 H :    0.107563
 120 H :    0.009041
 121 H :    0.011366
 122 H :    0.027816
 123 H :   -0.013445
 124 H :    0.023677
 125 H :    0.012649
Sum of atomic charges:   -0.0000000

LOEWDIN ATOMIC CHARGES
----------------------
   0 C :   -0.080294
   1 C :   -0.032312
   2 C :   -0.054674
   3 N :    0.085334
   4 C :   -0.012939
   5 C :   -0.056441
   6 C :   -0.089890
   7 C :   -0.011446
   8 C :   -0.069371
   9 C :   -0.158884
  10 S :    0.413621
  11 C :   -0.190134
  12 C :   -0.058268
  13 C :   -0.070167
  14 C :   -0.182705
  15 C :   -0.060075
  16 C :   -0.056617
  17 C :   -0.188073
  18 S :    0.418696
  19 C :   -0.187926
  20 S :    0.421409
  21 C :   -0.170210
  22 C :   -0.056740
  23 C :   -0.057021
  24 C :   -0.047797
  25 C :   -0.011914
  26 C :   -0.026665
  27 C :   -0.015477
  28 C :   -0.021472
  29 C :   -0.043463
  30 C :   -0.038147
  31 C :    0.026378
  32 N :   -0.117246
  33 C :    0.026328
  34 N :   -0.121324
  35 C :   -0.019273
  36 C :    0.060372
  37 C :   -0.030417
  38 C :   -0.036650
  39 C :   -0.017692
  40 C :   -0.037406
  41 C :   -0.030509
  42 C :   -0.012037
  43 C :   -0.023625
  44 C :   -0.013476
  45 C :   -0.040508
  46 C :   -0.174544
  47 S :    0.430401
  48 C :   -0.183111
  49 C :   -0.066357
  50 C :   -0.055663
  51 C :   -0.186303
  52 C :   -0.061347
  53 C :   -0.059928
  54 C :   -0.178847
  55 S :    0.424341
  56 C :   -0.190617
  57 S :    0.415885
  58 C :   -0.158842
  59 C :   -0.068901
  60 C :   -0.056510
  61 C :   -0.066624
  62 C :   -0.012649
  63 C :   -0.080737
  64 C :   -0.012235
  65 C :   -0.056316
  66 N :    0.087475
  67 C :   -0.023559
  68 C :   -0.053453
  69 C :   -0.078801
  70 C :   -0.020562
  71 C :   -0.061420
  72 H :    0.018520
  73 H :    0.039879
  74 H :    0.030351
  75 H :    0.030231
  76 H :    0.082181
  77 H :    0.027543
  78 H :    0.038311
  79 H :    0.037590
  80 H :    0.021469
  81 H :    0.025888
  82 H :    0.025640
  83 H :    0.025275
  84 H :    0.027310
  85 H :    0.027550
  86 H :    0.028098
  87 H :    0.027082
  88 H :    0.024365
  89 H :    0.027899
  90 H :    0.026929
  91 H :    0.031068
  92 H :   -0.006795
  93 H :    0.020329
  94 H :    0.048224
  95 H :    0.053067
  96 H :   -0.004142
  97 H :    0.007397
  98 H :    0.053024
  99 H :    0.053550
 100 H :    0.022668
 101 H :    0.058120
 102 H :    0.024217
 103 H :    0.028942
 104 H :    0.025406
 105 H :    0.023875
 106 H :    0.021233
 107 H :    0.029746
 108 H :    0.025066
 109 H :    0.026340
 110 H :    0.025956
 111 H :    0.027962
 112 H :    0.026029
 113 H :    0.026523
 114 H :    0.027289
 115 H :    0.022917
 116 H :    0.034896
 117 H :    0.041704
 118 H :    0.027491
 119 H :    0.083535
 120 H :    0.029587
 121 H :    0.037846
 122 H :    0.034766
 123 H :    0.024045
 124 H :    0.021997
 125 H :    0.020381

  Mayer bond orders larger than 0.100000
B(  0-C ,  1-C ) :   1.5423 B(  0-C ,  6-C ) :   1.2156 B(  0-C , 72-H ) :   1.0150
B(  1-C ,  2-C ) :   1.0846 B(  1-C ,  3-N ) :   1.1927 B(  2-C , 73-H ) :   0.9468
B(  2-C , 74-H ) :   0.9479 B(  2-C , 75-H ) :   0.9480 B(  3-N ,  4-C ) :   1.2432
B(  3-N , 76-H ) :   0.9376 B(  4-C ,  5-C ) :   1.1157 B(  4-C ,  6-C ) :   1.4481
B(  5-C , 77-H ) :   0.9333 B(  5-C , 78-H ) :   0.9386 B(  5-C , 79-H ) :   0.9380
B(  6-C ,  7-C ) :   1.1278 B(  7-C ,  8-C ) :   1.6649 B(  7-C , 80-H ) :   0.9660
B(  8-C ,  9-C ) :   1.1419 B(  8-C , 81-H ) :   0.9708 B(  9-C , 10-S ) :   1.1073
B(  9-C , 11-C ) :   0.1026 B(  9-C , 13-C ) :   1.4921 B( 10-S , 11-C ) :   1.1065
B( 11-C , 12-C ) :   1.5342 B( 11-C , 14-C ) :   1.1127 B( 12-C , 13-C ) :   1.2454
B( 12-C , 82-H ) :   0.9957 B( 13-C , 83-H ) :   0.9988 B( 14-C , 15-C ) :   1.5233
B( 14-C , 17-C ) :   0.1131 B( 14-C , 18-S ) :   1.1164 B( 15-C , 16-C ) :   1.2624
B( 15-C , 84-H ) :   0.9954 B( 16-C , 17-C ) :   1.5232 B( 16-C , 85-H ) :   0.9960
B( 17-C , 18-S ) :   1.1130 B( 17-C , 19-C ) :   1.1073 B( 19-C , 20-S ) :   1.1228
B( 19-C , 21-C ) :   0.1057 B( 19-C , 23-C ) :   1.5169 B( 20-S , 21-C ) :   1.1108
B( 21-C , 22-C ) :   1.5089 B( 21-C , 24-C ) :   1.1000 B( 22-C , 23-C ) :   1.2720
B( 22-C , 86-H ) :   0.9932 B( 23-C , 87-H ) :   0.9952 B( 24-C , 25-C ) :   1.7054
B( 24-C , 88-H ) :   0.9562 B( 25-C , 26-C ) :   1.0816 B( 25-C , 89-H ) :   0.9818
B( 26-C , 27-C ) :   1.5042 B( 26-C , 43-C ) :   1.1185 B( 27-C , 28-C ) :   1.1247
B( 27-C , 90-H ) :   1.0048 B( 28-C , 29-C ) :   1.4988 B( 28-C , 41-C ) :   1.1108
B( 29-C , 30-C ) :   1.0486 B( 29-C , 35-C ) :   1.0767 B( 30-C , 31-C ) :   1.0349
B( 30-C , 33-C ) :   1.0365 B( 30-C , 91-H ) :   0.8755 B( 31-C , 32-N ) :   1.1006
B( 31-C , 92-H ) :   0.9257 B( 31-C , 93-H ) :   0.9454 B( 32-N , 94-H ) :   0.9706
B( 32-N , 95-H ) :   0.9679 B( 33-C , 34-N ) :   1.0888 B( 33-C , 96-H ) :   0.9296
B( 33-C , 97-H ) :   0.9325 B( 34-N , 98-H ) :   0.9698 B( 34-N , 99-H ) :   0.9660
B( 35-C , 36-C ) :   1.6862 B( 35-C , 40-C ) :   1.0528 B( 36-C , 37-C ) :   0.9664
B( 36-C ,100-H ) :   0.9546 B( 37-C , 38-C ) :   1.0049 B( 37-C , 44-C ) :   0.9524
B( 37-C ,101-H ) :   0.8513 B( 38-C , 39-C ) :   1.7107 B( 38-C ,102-H ) :   0.9730
B( 39-C , 40-C ) :   1.1227 B( 39-C ,103-H ) :   0.9916 B( 40-C , 41-C ) :   1.4492
B( 41-C , 42-C ) :   1.1319 B( 42-C , 43-C ) :   1.6232 B( 42-C ,104-H ) :   0.9903
B( 43-C ,105-H ) :   0.9805 B( 44-C , 45-C ) :   1.8631 B( 44-C ,106-H ) :   0.9674
B( 45-C , 46-C ) :   1.0691 B( 45-C ,107-H ) :   0.9455 B( 46-C , 47-S ) :   1.1161
B( 46-C , 48-C ) :   0.1014 B( 46-C , 50-C ) :   1.5352 B( 47-S , 48-C ) :   1.1278
B( 48-C , 49-C ) :   1.5062 B( 48-C , 51-C ) :   1.1461 B( 49-C , 50-C ) :   1.2655
B( 49-C ,108-H ) :   0.9914 B( 50-C ,109-H ) :   0.9931 B( 51-C , 52-C ) :   1.5123
B( 51-C , 54-C ) :   0.1069 B( 51-C , 55-S ) :   1.1157 B( 52-C , 53-C ) :   1.2573
B( 52-C ,110-H ) :   0.9933 B( 53-C , 54-C ) :   1.5299 B( 53-C ,111-H ) :   0.9964
B( 54-C , 55-S ) :   1.1162 B( 54-C , 56-C ) :   1.1122 B( 56-C , 57-S ) :   1.1062
B( 56-C , 58-C ) :   0.1041 B( 56-C , 60-C ) :   1.5336 B( 57-S , 58-C ) :   1.1111
B( 58-C , 59-C ) :   1.4933 B( 58-C , 61-C ) :   1.1332 B( 59-C , 60-C ) :   1.2455
B( 59-C ,112-H ) :   0.9992 B( 60-C ,113-H ) :   0.9966 B( 61-C , 62-C ) :   1.6836
B( 61-C ,114-H ) :   0.9789 B( 62-C , 63-C ) :   1.0981 B( 62-C ,115-H ) :   0.9529
B( 63-C , 64-C ) :   1.4609 B( 63-C , 69-C ) :   1.2235 B( 64-C , 65-C ) :   1.1113
B( 64-C , 66-N ) :   1.2288 B( 65-C ,116-H ) :   0.9391 B( 65-C ,117-H ) :   0.9395
B( 65-C ,118-H ) :   0.9375 B( 66-N , 67-C ) :   1.2060 B( 66-N ,119-H ) :   0.9388
B( 67-C , 68-C ) :   1.1078 B( 67-C , 69-C ) :   1.4888 B( 68-C ,120-H ) :   0.9434
B( 68-C ,121-H ) :   0.9396 B( 68-C ,122-H ) :   0.9456 B( 69-C , 70-C ) :   1.0638
B( 70-C , 71-C ) :   1.9540 B( 70-C ,123-H ) :   0.9584 B( 71-C ,124-H ) :   0.9607
B( 71-C ,125-H ) :   0.9489

-----------------------------------------------------------------------------
         ABSORPTION SPECTRUM VIA TRANSITION ELECTRIC DIPOLE MOMENTS
-----------------------------------------------------------------------------
State   Energy  Wavelength   fosc         T2         TX        TY        TZ
        (cm-1)    (nm)                  (au**2)     (au)      (au)      (au)
-----------------------------------------------------------------------------
   0   15307.6    653.3   0.114485446   2.46217  -0.74067  -0.76287  -1.15396
   1   20683.0    483.5   1.883063948  29.97280   1.19456  -3.58141  -3.96476
   2   22561.8    443.2   0.639009281   9.32416   0.35608  -2.85870  -1.01253
   3   23393.9    427.5   0.589974036   8.30245  -0.06860  -2.28465  -1.75446
   4   24405.2    409.7   0.591942378   7.98495   0.08450   2.57976   1.15006
   5   25900.4    386.1   0.043193159   0.54901   0.45446   0.38129   0.44395
   6   27511.7    363.5   0.485617828   5.81103   1.85506   1.41015  -0.61747
   7   27702.2    361.0   0.243858527   2.89800  -0.73344   0.40793   1.48110
   8   29709.6    336.6   0.005431061   0.06018  -0.24092  -0.02463  -0.03917
   9   30854.8    324.1   0.085172524   0.90877   0.51516  -0.76051  -0.25495
  10   31214.2    320.4   0.321429242   3.39007  -1.47231  -0.39198   1.03380
  11   31861.0    313.9   0.012377075   0.12789  -0.09946  -0.13399   0.31630
  12   32043.9    312.1   0.091212858   0.93710  -0.07267   0.49564  -0.82835
  13   32335.0    309.3   0.008722776   0.08881   0.22739   0.13024  -0.14191
  14   32423.1    308.4   0.100797261   1.02346   0.75079  -0.04917   0.67628
  15   32834.5    304.6   0.016606993   0.16651  -0.05979   0.32138  -0.24423
  16   33647.9    297.2   0.263831540   2.58133   1.12551  -0.90821   0.69980
  17   33664.9    297.0   0.066247071   0.64784  -0.40636  -0.68740   0.10091
  18   34359.8    291.0   0.049066457   0.47012   0.32579  -0.04489  -0.60164
  19   34796.9    287.4   0.001786723   0.01690   0.03339  -0.11331   0.05432
  20   35104.7    284.9   0.021059520   0.19750   0.30074   0.13861  -0.29638
  21   35754.7    279.7   0.310562051   2.85951  -0.42833   0.51251   1.55351
  22   36491.1    274.0   0.005382437   0.04856   0.09890   0.04503   0.19170
  23   36901.2    271.0   0.123672536   1.10334  -0.74765  -0.60829  -0.41753
  24   37230.6    268.6   0.009730723   0.08604  -0.09626  -0.05419  -0.27174
  25   37798.2    264.6   0.000863183   0.00752  -0.03874  -0.05998  -0.04919
  26   38223.2    261.6   0.002794482   0.02407   0.04039   0.06932   0.13278
  27   38353.8    260.7   0.027454348   0.23566  -0.24409  -0.31171  -0.28091
  28   38904.4    257.0   0.010110146   0.08555   0.18984   0.19030   0.11532
  29   39471.1    253.3   0.101528747   0.84681   0.52862  -0.04143   0.75210
  30   39657.1    252.2   0.231128440   1.91870  -0.48225   0.69942   1.09405
  31   39864.0    250.9   0.010123244   0.08360   0.11047  -0.11564  -0.24088

FINAL SINGLE POINT ENERGY     -4999.039407726028

DIPOLE MOMENT
-------------
                                X             Y             Z
Electronic contribution:     12.35602       4.08351      30.94320
Nuclear contribution   :    -11.60504      -4.99873     -32.42696
                        -----------------------------------------
Total Dipole Moment    :      0.75098      -0.91523      -1.48376
                        -----------------------------------------
Magnitude (a.u.)       :      1.89820
Magnitude (Debye)      :      4.82483

Rotational constants in cm-1:     0.001834     0.000109     0.000108
Rotational constants in MHz :    54.985268     3.265308     3.223729

                             ****ORCA TERMINATED NORMALLY****
TOTAL RUN TIME: 0 days 0 hours 10 minutes 9 seconds 222 msec
