                         Program Version 4.2.0 -  RELEASE  -
|  1> # ORCA input file
|  2> # SCF done       -188.333076530797          0.000386255843
|  3> ! CAM-B3LYP def2-SVP def2/J RIJCOSX Grid4 TightSCF
|  4> %maxcore 5000
|  5> %tddft
|  6>     Mode sTDDFT
|  7>     Ethresh 5.0
|  8>     maxcore 5000
|  9> end
| 10>
| 11> %pal
| 12>   nprocs 6
| 13>   end
| 14> * xyz 0 1
| 15>    C        6.09227         4.11739         4.84228
| 16>    S        6.38826         3.68258         3.21134
| 17>    C        7.89410         2.90016         3.64735
| 18>    C        8.10751         2.99165         5.00829
| 19>    C        7.07335         3.69150         5.68175
| 20>    C        7.07081         3.90243         7.16109
| 21>    C        8.48190         3.76530         7.72293
| 22>    C        9.07826         2.43158         7.27064
| 23>    O        8.20277         1.40854         7.70620
| 24>    C        8.76066         0.12343         7.74680
| 25>    C        9.28598         2.43864         5.74680
| 26>    C        8.67655         2.31921         2.59261
| 27>    C        8.18241         2.18109         1.32196
| 28>    C        8.87695         1.67022         0.22128
| 29>    C       10.26549         1.21411         0.35493
| 30>    C       10.96159         1.24816         1.50875
| 31>    S       10.32408         1.83231         2.99349
| 32>    C       10.63893         0.77432        -0.94188
| 33>    C        9.57374         0.93971        -1.82916
| 34>    C        9.92860         0.53248        -3.13655
| 35>    C       11.20780         0.07921        -3.19940
| 36>    S       12.04577         0.12468        -1.68736
| 37>    C        8.45373         1.49866        -1.10570
| 38>    C        7.16501         1.84353        -1.59253
| 39>    C        6.70417         1.62396        -2.84560
| 40>    C        5.41859         1.99034        -3.37221
| 41>    C        5.12969         1.66859        -4.68173
| 42>    C        3.89780         2.02700        -5.26793
| 43>    C        3.37082         1.82786        -6.53687
| 44>    C        3.93285         1.14565        -7.74592
| 45>    C        4.77420         2.13671        -8.57741
| 46>    N        5.96098         2.54615        -7.84667
| 47>    C        4.76116        -0.11459        -7.45580
| 48>    N        4.06821        -0.99479        -6.52473
| 49>    C        2.07811         2.47077        -6.55430
| 50>    C        1.17708         2.63022        -7.54303
| 51>    C       -0.13648         3.29397        -7.30252
| 52>    C       -0.27491         3.92985        -5.95535
| 53>    C        0.64386         3.78162        -4.98391
| 54>    C        1.83300         3.05139        -5.22673
| 55>    C        2.93764         2.77015        -4.45443
| 56>    C        3.25101         3.07560        -3.10793
| 57>    C        4.44146         2.69410        -2.58802
| 58>    C       -1.16129         2.18948        -7.41117
| 59>    C       -2.11860         2.12981        -8.34102
| 60>    C       -3.08336         1.06707        -8.47987
| 61>    C       -3.03415        -0.11756        -7.80363
| 62>    C       -3.95017        -1.16582        -7.93891
| 63>    C       -5.08553        -1.06665        -8.86456
| 64>    C       -5.33592         0.00993        -9.63936
| 65>    S       -4.35568         1.42102        -9.64882
| 66>    C       -5.76920        -2.30563        -8.73821
| 67>    C       -5.11678        -3.12225        -7.81051
| 68>    C       -5.76693        -4.36940        -7.66848
| 69>    C       -6.86232        -4.46307        -8.46634
| 70>    S       -7.15819        -3.05248        -9.42432
| 71>    C       -3.97088        -2.41230        -7.29855
| 72>    C       -3.00242        -2.81443        -6.34083
| 73>    C       -2.94634        -3.97700        -5.65358
| 74>    C       -1.92682        -4.30344        -4.70828
| 75>    S       -2.27782        -5.54042        -3.52262
| 76>    C       -0.74621        -5.32362        -2.78242
| 77>    C        0.00741        -4.37830        -3.41055
| 78>    C       -0.65549        -3.79916        -4.52088
| 79>    C        0.03481        -2.79014        -5.38284
| 80>    C        1.54943        -2.89171        -5.21899
| 81>    C        1.91307        -2.77050        -3.73385
| 82>    O        1.34722        -1.62761        -3.11705
| 83>    C        1.94256        -0.40892        -3.47381
| 84>    C        1.39326        -4.00079        -2.98342
| 85>    H        5.20199         4.66149         5.08751
| 86>    H        6.44036         3.13868         7.62339
| 87>    H        6.65176         4.88126         7.40195
| 88>    H        8.44884         3.79968         8.81205
| 89>    H        9.11787         4.57664         7.36507
| 90>    H       10.06296         2.28504         7.74758
| 91>    H        8.01600        -0.51682         8.21646
| 92>    H        9.68180         0.10827         8.34374
| 93>    H        8.98433        -0.26709         6.74708
| 94>    H        9.49319         1.42069         5.40960
| 95>    H       10.17294         3.03950         5.52320
| 96>    H        7.16080         2.50335         1.17040
| 97>    H       11.98094         0.90525         1.59001
| 98>    H        9.29433         0.57021        -4.00284
| 99>    H       11.73053        -0.28884        -4.06079
|100>    H        6.51924         2.32165        -0.86913
|101>    H        7.35075         1.12281        -3.55104
|102>    H        5.87529         1.15798        -5.27238
|103>    H        3.08242         0.84106        -8.36524
|104>    H        4.12592         2.98407        -8.86177
|105>    H        5.10554         1.64018        -9.49471
|106>    H        5.68893         3.01753        -6.98942
|107>    H        6.50682         3.19754        -8.39976
|108>    H        5.76181         0.18880        -7.11817
|109>    H        4.88587        -0.66185        -8.39539
|110>    H        3.99391        -0.53384        -5.62277
|111>    H        4.61033        -1.84231        -6.38996
|112>    H        1.33205         2.22896        -8.53554
|113>    H       -0.33382         4.03086        -8.09081
|114>    H       -1.18631         4.48384        -5.78913
|115>    H        0.49860         4.23628        -4.01420
|116>    H        2.53221         3.61606        -2.50872
|117>    H        4.67460         2.93164        -1.56198
|118>    H       -1.05381         1.42283        -6.65882
|119>    H       -2.21423         2.93413        -9.06014
|120>    H       -2.20856        -0.25489        -7.12138
|121>    H       -6.17456         0.06210       -10.31559
|122>    H       -5.45464        -5.16624        -7.01900
|123>    H       -7.53729        -5.29146        -8.55990
|124>    H       -2.24597        -2.07462        -6.13528
|125>    H       -3.72982        -4.71196        -5.76354
|126>    H       -0.48988        -5.90803        -1.92089
|127>    H       -0.27779        -1.78553        -5.08055
|128>    H       -0.23783        -2.93802        -6.43045
|129>    H        2.04465        -2.11615        -5.80574
|130>    H        1.90129        -3.86070        -5.57756
|131>    H        3.01157        -2.72300        -3.62813
|132>    H        1.46133         0.35795        -2.86929
|133>    H        1.80207        -0.16804        -4.53319
|134>    H        3.01852        -0.41215        -3.25367
|135>    H        1.40196        -3.78976        -1.91207
|136>    H        2.07028        -4.84013        -3.16668
|137> *
|138>
|139>                          ****END OF INPUT****

CARTESIAN COORDINATES (ANGSTROEM)
---------------------------------
  C      6.092270    4.117390    4.842280
  S      6.388260    3.682580    3.211340
  C      7.894100    2.900160    3.647350
  C      8.107510    2.991650    5.008290
  C      7.073350    3.691500    5.681750
  C      7.070810    3.902430    7.161090
  C      8.481900    3.765300    7.722930
  C      9.078260    2.431580    7.270640
  O      8.202770    1.408540    7.706200
  C      8.760660    0.123430    7.746800
  C      9.285980    2.438640    5.746800
  C      8.676550    2.319210    2.592610
  C      8.182410    2.181090    1.321960
  C      8.876950    1.670220    0.221280
  C     10.265490    1.214110    0.354930
  C     10.961590    1.248160    1.508750
  S     10.324080    1.832310    2.993490
  C     10.638930    0.774320   -0.941880
  C      9.573740    0.939710   -1.829160
  C      9.928600    0.532480   -3.136550
  C     11.207800    0.079210   -3.199400
  S     12.045770    0.124680   -1.687360
  C      8.453730    1.498660   -1.105700
  C      7.165010    1.843530   -1.592530
  C      6.704170    1.623960   -2.845600
  C      5.418590    1.990340   -3.372210
  C      5.129690    1.668590   -4.681730
  C      3.897800    2.027000   -5.267930
  C      3.370820    1.827860   -6.536870
  C      3.932850    1.145650   -7.745920
  C      4.774200    2.136710   -8.577410
  N      5.960980    2.546150   -7.846670
  C      4.761160   -0.114590   -7.455800
  N      4.068210   -0.994790   -6.524730
  C      2.078110    2.470770   -6.554300
  C      1.177080    2.630220   -7.543030
  C     -0.136480    3.293970   -7.302520
  C     -0.274910    3.929850   -5.955350
  C      0.643860    3.781620   -4.983910
  C      1.833000    3.051390   -5.226730
  C      2.937640    2.770150   -4.454430
  C      3.251010    3.075600   -3.107930
  C      4.441460    2.694100   -2.588020
  C     -1.161290    2.189480   -7.411170
  C     -2.118600    2.129810   -8.341020
  C     -3.083360    1.067070   -8.479870
  C     -3.034150   -0.117560   -7.803630
  C     -3.950170   -1.165820   -7.938910
  C     -5.085530   -1.066650   -8.864560
  C     -5.335920    0.009930   -9.639360
  S     -4.355680    1.421020   -9.648820
  C     -5.769200   -2.305630   -8.738210
  C     -5.116780   -3.122250   -7.810510
  C     -5.766930   -4.369400   -7.668480
  C     -6.862320   -4.463070   -8.466340
  S     -7.158190   -3.052480   -9.424320
  C     -3.970880   -2.412300   -7.298550
  C     -3.002420   -2.814430   -6.340830
  C     -2.946340   -3.977000   -5.653580
  C     -1.926820   -4.303440   -4.708280
  S     -2.277820   -5.540420   -3.522620
  C     -0.746210   -5.323620   -2.782420
  C      0.007410   -4.378300   -3.410550
  C     -0.655490   -3.799160   -4.520880
  C      0.034810   -2.790140   -5.382840
  C      1.549430   -2.891710   -5.218990
  C      1.913070   -2.770500   -3.733850
  O      1.347220   -1.627610   -3.117050
  C      1.942560   -0.408920   -3.473810
  C      1.393260   -4.000790   -2.983420
  H      5.201990    4.661490    5.087510
  H      6.440360    3.138680    7.623390
  H      6.651760    4.881260    7.401950
  H      8.448840    3.799680    8.812050
  H      9.117870    4.576640    7.365070
  H     10.062960    2.285040    7.747580
  H      8.016000   -0.516820    8.216460
  H      9.681800    0.108270    8.343740
  H      8.984330   -0.267090    6.747080
  H      9.493190    1.420690    5.409600
  H     10.172940    3.039500    5.523200
  H      7.160800    2.503350    1.170400
  H     11.980940    0.905250    1.590010
  H      9.294330    0.570210   -4.002840
  H     11.730530   -0.288840   -4.060790
  H      6.519240    2.321650   -0.869130
  H      7.350750    1.122810   -3.551040
  H      5.875290    1.157980   -5.272380
  H      3.082420    0.841060   -8.365240
  H      4.125920    2.984070   -8.861770
  H      5.105540    1.640180   -9.494710
  H      5.688930    3.017530   -6.989420
  H      6.506820    3.197540   -8.399760
  H      5.761810    0.188800   -7.118170
  H      4.885870   -0.661850   -8.395390
  H      3.993910   -0.533840   -5.622770
  H      4.610330   -1.842310   -6.389960
  H      1.332050    2.228960   -8.535540
  H     -0.333820    4.030860   -8.090810
  H     -1.186310    4.483840   -5.789130
  H      0.498600    4.236280   -4.014200
  H      2.532210    3.616060   -2.508720
  H      4.674600    2.931640   -1.561980
  H     -1.053810    1.422830   -6.658820
  H     -2.214230    2.934130   -9.060140
  H     -2.208560   -0.254890   -7.121380
  H     -6.174560    0.062100  -10.315590
  H     -5.454640   -5.166240   -7.019000
  H     -7.537290   -5.291460   -8.559900
  H     -2.245970   -2.074620   -6.135280
  H     -3.729820   -4.711960   -5.763540
  H     -0.489880   -5.908030   -1.920890
  H     -0.277790   -1.785530   -5.080550
  H     -0.237830   -2.938020   -6.430450
  H      2.044650   -2.116150   -5.805740
  H      1.901290   -3.860700   -5.577560
  H      3.011570   -2.723000   -3.628130
  H      1.461330    0.357950   -2.869290
  H      1.802070   -0.168040   -4.533190
  H      3.018520   -0.412150   -3.253670
  H      1.401960   -3.789760   -1.912070
  H      2.070280   -4.840130   -3.166680

 Total Charge           Charge          ....    0
 Multiplicity           Mult            ....    1
 Number of Electrons    NEL             ....  538
 Basis Dimension        Dim             .... 1264

ORBITAL ENERGIES
----------------

  NO   OCC          E(Eh)            E(eV)
   0   2.0000     -88.966444     -2420.9000
   1   2.0000     -88.957083     -2420.6453
   2   2.0000     -88.947456     -2420.3833
   3   2.0000     -88.946187     -2420.3488
   4   2.0000     -88.942247     -2420.2416
   5   2.0000     -88.921474     -2419.6763
   6   2.0000     -19.210795      -522.7523
   7   2.0000     -19.188784      -522.1534
   8   2.0000     -14.370469      -391.0404
   9   2.0000     -14.369032      -391.0012
  10   2.0000     -10.317651      -280.7576
  11   2.0000     -10.316467      -280.7253
  12   2.0000     -10.316044      -280.7138
  13   2.0000     -10.311444      -280.5887
  14   2.0000     -10.307559      -280.4829
  15   2.0000     -10.303125      -280.3623
  16   2.0000     -10.297890      -280.2198
  17   2.0000     -10.293436      -280.0986
  18   2.0000     -10.292952      -280.0855
  19   2.0000     -10.289427      -279.9895
  20   2.0000     -10.287076      -279.9256
  21   2.0000     -10.287052      -279.9249
  22   2.0000     -10.283992      -279.8416
  23   2.0000     -10.282152      -279.7916
  24   2.0000     -10.281959      -279.7863
  25   2.0000     -10.281207      -279.7659
  26   2.0000     -10.280978      -279.7596
  27   2.0000     -10.280919      -279.7580
  28   2.0000     -10.280009      -279.7333
  29   2.0000     -10.276556      -279.6393
  30   2.0000     -10.275894      -279.6213
  31   2.0000     -10.275830      -279.6196
  32   2.0000     -10.274205      -279.5753
  33   2.0000     -10.273324      -279.5514
  34   2.0000     -10.271407      -279.4992
  35   2.0000     -10.269315      -279.4423
  36   2.0000     -10.268886      -279.4306
  37   2.0000     -10.267841      -279.4022
  38   2.0000     -10.266874      -279.3758
  39   2.0000     -10.266496      -279.3656
  40   2.0000     -10.266319      -279.3608
  41   2.0000     -10.266194      -279.3573
  42   2.0000     -10.265775      -279.3459
  43   2.0000     -10.265670      -279.3431
  44   2.0000     -10.264683      -279.3162
  45   2.0000     -10.264116      -279.3008
  46   2.0000     -10.263841      -279.2933
  47   2.0000     -10.263256      -279.2774
  48   2.0000     -10.261590      -279.2321
  49   2.0000     -10.260654      -279.2066
  50   2.0000     -10.260592      -279.2049
  51   2.0000     -10.260430      -279.2005
  52   2.0000     -10.259546      -279.1764
  53   2.0000     -10.259427      -279.1732
  54   2.0000     -10.258869      -279.1580
  55   2.0000     -10.258072      -279.1363
  56   2.0000     -10.258063      -279.1361
  57   2.0000     -10.257285      -279.1149
  58   2.0000     -10.255917      -279.0777
  59   2.0000     -10.255871      -279.0764
  60   2.0000     -10.255731      -279.0726
  61   2.0000     -10.254983      -279.0523
  62   2.0000     -10.253859      -279.0217
  63   2.0000     -10.251430      -278.9556
  64   2.0000     -10.251100      -278.9466
  65   2.0000     -10.245705      -278.7998
  66   2.0000     -10.245340      -278.7899
  67   2.0000     -10.244217      -278.7593
  68   2.0000     -10.243187      -278.7313
  69   2.0000     -10.233191      -278.4593
  70   2.0000      -8.060980      -219.3504
  71   2.0000      -8.052542      -219.1208
  72   2.0000      -8.042935      -218.8594
  73   2.0000      -8.041704      -218.8259
  74   2.0000      -8.037754      -218.7184
  75   2.0000      -8.017511      -218.1676
  76   2.0000      -6.030635      -164.1019
  77   2.0000      -6.025999      -163.9758
  78   2.0000      -6.022928      -163.8922
  79   2.0000      -6.022088      -163.8694
  80   2.0000      -6.017676      -163.7493
  81   2.0000      -6.014393      -163.6599
  82   2.0000      -6.012319      -163.6035
  83   2.0000      -6.011104      -163.5704
  84   2.0000      -6.008170      -163.4906
  85   2.0000      -6.007177      -163.4636
  86   2.0000      -6.006850      -163.4547
  87   2.0000      -6.004990      -163.4041
  88   2.0000      -6.003788      -163.3714
  89   2.0000      -6.002979      -163.3494
  90   2.0000      -5.999769      -163.2620
  91   2.0000      -5.986722      -162.9070
  92   2.0000      -5.982659      -162.7964
  93   2.0000      -5.979755      -162.7174
  94   2.0000      -1.114109       -30.3164
  95   2.0000      -1.091433       -29.6994
  96   2.0000      -0.996341       -27.1118
  97   2.0000      -0.988815       -26.9070
  98   2.0000      -0.982813       -26.7437
  99   2.0000      -0.978158       -26.6170
 100   2.0000      -0.958344       -26.0779
 101   2.0000      -0.955652       -26.0046
 102   2.0000      -0.955368       -25.9969
 103   2.0000      -0.954363       -25.9695
 104   2.0000      -0.941955       -25.6319
 105   2.0000      -0.937952       -25.5230
 106   2.0000      -0.917785       -24.9742
 107   2.0000      -0.912997       -24.8439
 108   2.0000      -0.906218       -24.6594
 109   2.0000      -0.904028       -24.5998
 110   2.0000      -0.887270       -24.1438
 111   2.0000      -0.882098       -24.0031
 112   2.0000      -0.880275       -23.9535
 113   2.0000      -0.866373       -23.5752
 114   2.0000      -0.863025       -23.4841
 115   2.0000      -0.855819       -23.2880
 116   2.0000      -0.848712       -23.0946
 117   2.0000      -0.837919       -22.8009
 118   2.0000      -0.829707       -22.5775
 119   2.0000      -0.828578       -22.5468
 120   2.0000      -0.824972       -22.4486
 121   2.0000      -0.821254       -22.3474
 122   2.0000      -0.819330       -22.2951
 123   2.0000      -0.814636       -22.1674
 124   2.0000      -0.804932       -21.9033
 125   2.0000      -0.800328       -21.7780
 126   2.0000      -0.794103       -21.6086
 127   2.0000      -0.785767       -21.3818
 128   2.0000      -0.780108       -21.2278
 129   2.0000      -0.772147       -21.0112
 130   2.0000      -0.760640       -20.6981
 131   2.0000      -0.756513       -20.5858
 132   2.0000      -0.752073       -20.4649
 133   2.0000      -0.744991       -20.2722
 134   2.0000      -0.730558       -19.8795
 135   2.0000      -0.726373       -19.7656
 136   2.0000      -0.711142       -19.3512
 137   2.0000      -0.710567       -19.3355
 138   2.0000      -0.709744       -19.3131
 139   2.0000      -0.705951       -19.2099
 140   2.0000      -0.693978       -18.8841
 141   2.0000      -0.689866       -18.7722
 142   2.0000      -0.688548       -18.7364
 143   2.0000      -0.674246       -18.3472
 144   2.0000      -0.667472       -18.1628
 145   2.0000      -0.658014       -17.9055
 146   2.0000      -0.652239       -17.7483
 147   2.0000      -0.651471       -17.7274
 148   2.0000      -0.648228       -17.6392
 149   2.0000      -0.644321       -17.5329
 150   2.0000      -0.642321       -17.4784
 151   2.0000      -0.635060       -17.2809
 152   2.0000      -0.634884       -17.2761
 153   2.0000      -0.629577       -17.1317
 154   2.0000      -0.616935       -16.7876
 155   2.0000      -0.610238       -16.6054
 156   2.0000      -0.605502       -16.4765
 157   2.0000      -0.603444       -16.4205
 158   2.0000      -0.597646       -16.2628
 159   2.0000      -0.592164       -16.1136
 160   2.0000      -0.584291       -15.8994
 161   2.0000      -0.581921       -15.8349
 162   2.0000      -0.575293       -15.6545
 163   2.0000      -0.570718       -15.5300
 164   2.0000      -0.566002       -15.4017
 165   2.0000      -0.563548       -15.3349
 166   2.0000      -0.561099       -15.2683
 167   2.0000      -0.558868       -15.2076
 168   2.0000      -0.555494       -15.1158
 169   2.0000      -0.554545       -15.0899
 170   2.0000      -0.550893       -14.9906
 171   2.0000      -0.549542       -14.9538
 172   2.0000      -0.546197       -14.8628
 173   2.0000      -0.544974       -14.8295
 174   2.0000      -0.543947       -14.8016
 175   2.0000      -0.539235       -14.6733
 176   2.0000      -0.534394       -14.5416
 177   2.0000      -0.532431       -14.4882
 178   2.0000      -0.528255       -14.3745
 179   2.0000      -0.524225       -14.2649
 180   2.0000      -0.522716       -14.2238
 181   2.0000      -0.518031       -14.0963
 182   2.0000      -0.514508       -14.0005
 183   2.0000      -0.512893       -13.9565
 184   2.0000      -0.509880       -13.8745
 185   2.0000      -0.508109       -13.8263
 186   2.0000      -0.504946       -13.7403
 187   2.0000      -0.504113       -13.7176
 188   2.0000      -0.499858       -13.6018
 189   2.0000      -0.498154       -13.5555
 190   2.0000      -0.496927       -13.5221
 191   2.0000      -0.495080       -13.4718
 192   2.0000      -0.493832       -13.4378
 193   2.0000      -0.492905       -13.4126
 194   2.0000      -0.490169       -13.3382
 195   2.0000      -0.489604       -13.3228
 196   2.0000      -0.488179       -13.2840
 197   2.0000      -0.486853       -13.2480
 198   2.0000      -0.481329       -13.0976
 199   2.0000      -0.479826       -13.0567
 200   2.0000      -0.472849       -12.8669
 201   2.0000      -0.471801       -12.8383
 202   2.0000      -0.468738       -12.7550
 203   2.0000      -0.467461       -12.7203
 204   2.0000      -0.466549       -12.6954
 205   2.0000      -0.459484       -12.5032
 206   2.0000      -0.456051       -12.4098
 207   2.0000      -0.454924       -12.3791
 208   2.0000      -0.451823       -12.2947
 209   2.0000      -0.450519       -12.2592
 210   2.0000      -0.449110       -12.2209
 211   2.0000      -0.445728       -12.1289
 212   2.0000      -0.445109       -12.1120
 213   2.0000      -0.442646       -12.0450
 214   2.0000      -0.442514       -12.0414
 215   2.0000      -0.439025       -11.9465
 216   2.0000      -0.437703       -11.9105
 217   2.0000      -0.434398       -11.8206
 218   2.0000      -0.433622       -11.7995
 219   2.0000      -0.428167       -11.6510
 220   2.0000      -0.427215       -11.6251
 221   2.0000      -0.426069       -11.5939
 222   2.0000      -0.425371       -11.5749
 223   2.0000      -0.424708       -11.5569
 224   2.0000      -0.424059       -11.5392
 225   2.0000      -0.422160       -11.4876
 226   2.0000      -0.416867       -11.3435
 227   2.0000      -0.416187       -11.3250
 228   2.0000      -0.411145       -11.1878
 229   2.0000      -0.409235       -11.1359
 230   2.0000      -0.408871       -11.1259
 231   2.0000      -0.405828       -11.0431
 232   2.0000      -0.403288       -10.9740
 233   2.0000      -0.401656       -10.9296
 234   2.0000      -0.399588       -10.8733
 235   2.0000      -0.398441       -10.8421
 236   2.0000      -0.397821       -10.8252
 237   2.0000      -0.396420       -10.7871
 238   2.0000      -0.393416       -10.7054
 239   2.0000      -0.391460       -10.6522
 240   2.0000      -0.384115       -10.4523
 241   2.0000      -0.381553       -10.3826
 242   2.0000      -0.380095       -10.3429
 243   2.0000      -0.379421       -10.3246
 244   2.0000      -0.376041       -10.2326
 245   2.0000      -0.372808       -10.1446
 246   2.0000      -0.371630       -10.1126
 247   2.0000      -0.361505        -9.8371
 248   2.0000      -0.354110        -9.6358
 249   2.0000      -0.352723        -9.5981
 250   2.0000      -0.347516        -9.4564
 251   2.0000      -0.331617        -9.0238
 252   2.0000      -0.326726        -8.8907
 253   2.0000      -0.325130        -8.8472
 254   2.0000      -0.317858        -8.6493
 255   2.0000      -0.311635        -8.4800
 256   2.0000      -0.307055        -8.3554
 257   2.0000      -0.305787        -8.3209
 258   2.0000      -0.303590        -8.2611
 259   2.0000      -0.296301        -8.0627
 260   2.0000      -0.289956        -7.8901
 261   2.0000      -0.280583        -7.6351
 262   2.0000      -0.277519        -7.5517
 263   2.0000      -0.272994        -7.4286
 264   2.0000      -0.264007        -7.1840
 265   2.0000      -0.258455        -7.0329
 266   2.0000      -0.229071        -6.2333
 267   2.0000      -0.208493        -5.6734
 268   2.0000      -0.203105        -5.5268
 269   0.0000      -0.066141        -1.7998
 270   0.0000      -0.038075        -1.0361
 271   0.0000      -0.035850        -0.9755
 272   0.0000      -0.018714        -0.5092
 273   0.0000      -0.013513        -0.3677

MULLIKEN ATOMIC CHARGES
-----------------------
   0 C :   -0.121117
   1 S :    0.088923
   2 C :   -0.116760
   3 C :   -0.080627
   4 C :   -0.058645
   5 C :    0.159126
   6 C :    0.042699
   7 C :    0.108878
   8 O :   -0.382210
   9 C :    0.189931
  10 C :    0.134420
  11 C :   -0.035394
  12 C :   -0.087187
  13 C :    0.057601
  14 C :    0.065624
  15 C :   -0.115615
  16 S :    0.084109
  17 C :   -0.119011
  18 C :    0.053553
  19 C :   -0.010486
  20 C :   -0.068757
  21 S :    0.118475
  22 C :    0.084970
  23 C :    0.010721
  24 C :   -0.029223
  25 C :    0.158734
  26 C :   -0.142752
  27 C :    0.029608
  28 C :   -0.088178
  29 C :   -0.003007
  30 C :    0.162419
  31 N :   -0.234790
  32 C :    0.106095
  33 N :   -0.195956
  34 C :    0.111856
  35 C :   -0.138684
  36 C :    0.122767
  37 C :   -0.035066
  38 C :    0.019041
  39 C :    0.012014
  40 C :    0.027656
  41 C :   -0.006647
  42 C :   -0.010694
  43 C :   -0.029248
  44 C :    0.049684
  45 C :   -0.086961
  46 C :   -0.027374
  47 C :    0.033133
  48 C :    0.072844
  49 C :   -0.140310
  50 S :    0.113690
  51 C :   -0.118585
  52 C :    0.051156
  53 C :   -0.003950
  54 C :   -0.070426
  55 S :    0.116275
  56 C :    0.090280
  57 C :   -0.022065
  58 C :    0.036791
  59 C :   -0.164188
  60 S :    0.087601
  61 C :   -0.141158
  62 C :   -0.066470
  63 C :   -0.047842
  64 C :    0.128576
  65 C :    0.021899
  66 C :    0.079685
  67 O :   -0.383082
  68 C :    0.186506
  69 C :    0.202547
  70 H :    0.009285
  71 H :    0.029755
  72 H :    0.000040
  73 H :    0.003979
  74 H :    0.003670
  75 H :   -0.018122
  76 H :    0.029035
  77 H :   -0.002478
  78 H :    0.006148
  79 H :    0.013973
  80 H :    0.023443
  81 H :   -0.003513
  82 H :    0.029454
  83 H :   -0.008735
  84 H :    0.020823
  85 H :   -0.046160
  86 H :   -0.060967
  87 H :   -0.043772
  88 H :   -0.019050
  89 H :   -0.025783
  90 H :   -0.010583
  91 H :    0.100479
  92 H :    0.092136
  93 H :    0.008822
  94 H :   -0.013734
  95 H :    0.098916
  96 H :    0.096238
  97 H :   -0.004578
  98 H :    0.015948
  99 H :   -0.009717
 100 H :   -0.037072
 101 H :   -0.038618
 102 H :   -0.035027
 103 H :    0.018928
 104 H :   -0.017043
 105 H :   -0.025383
 106 H :    0.028861
 107 H :   -0.014673
 108 H :    0.021186
 109 H :   -0.055459
 110 H :   -0.048989
 111 H :   -0.001039
 112 H :    0.020065
 113 H :    0.011401
 114 H :    0.000188
 115 H :   -0.006247
 116 H :   -0.027028
 117 H :    0.019258
 118 H :    0.016082
 119 H :    0.002917
 120 H :    0.010179
 121 H :    0.005136
Sum of atomic charges:   -0.0000000

LOEWDIN ATOMIC CHARGES
----------------------
   0 C :   -0.188488
   1 S :    0.430587
   2 C :   -0.192223
   3 C :   -0.056666
   4 C :   -0.058557
   5 C :   -0.023598
   6 C :   -0.030467
   7 C :    0.069980
   8 O :   -0.170051
   9 C :    0.067298
  10 C :   -0.053407
  11 C :   -0.173471
  12 C :   -0.039506
  13 C :   -0.020310
  14 C :   -0.047692
  15 C :   -0.149083
  16 S :    0.459499
  17 C :   -0.204918
  18 C :   -0.034555
  19 C :   -0.067048
  20 C :   -0.169360
  21 S :    0.415551
  22 C :   -0.054970
  23 C :   -0.017057
  24 C :   -0.036936
  25 C :   -0.016930
  26 C :   -0.046163
  27 C :   -0.030229
  28 C :   -0.052794
  29 C :   -0.037996
  30 C :    0.029301
  31 N :   -0.119048
  32 C :    0.022431
  33 N :   -0.106534
  34 C :   -0.017530
  35 C :    0.057682
  36 C :   -0.026702
  37 C :   -0.027251
  38 C :   -0.018920
  39 C :   -0.032597
  40 C :   -0.033764
  41 C :   -0.009124
  42 C :   -0.025950
  43 C :    0.005678
  44 C :   -0.057563
  45 C :   -0.176571
  46 C :   -0.017170
  47 C :   -0.028479
  48 C :   -0.049393
  49 C :   -0.146753
  50 S :    0.429060
  51 C :   -0.202603
  52 C :   -0.036612
  53 C :   -0.064796
  54 C :   -0.170400
  55 S :    0.413420
  56 C :   -0.047151
  57 C :   -0.027671
  58 C :   -0.050305
  59 C :   -0.177845
  60 S :    0.409592
  61 C :   -0.202796
  62 C :   -0.060203
  63 C :   -0.055110
  64 C :   -0.028720
  65 C :   -0.045942
  66 C :    0.067262
  67 O :   -0.172496
  68 C :    0.061893
  69 C :   -0.027427
  70 H :    0.021537
  71 H :    0.037908
  72 H :    0.028520
  73 H :    0.026651
  74 H :    0.024885
  75 H :    0.007386
  76 H :    0.024398
  77 H :    0.005753
  78 H :    0.004771
  79 H :    0.020610
  80 H :    0.031361
  81 H :    0.024151
  82 H :    0.033876
  83 H :    0.028659
  84 H :    0.021863
  85 H :    0.022767
  86 H :    0.023983
  87 H :    0.024093
  88 H :    0.027276
  89 H :   -0.002997
  90 H :    0.013525
  91 H :    0.054175
  92 H :    0.055568
  93 H :   -0.001143
  94 H :    0.017373
  95 H :    0.048785
  96 H :    0.056398
  97 H :    0.029463
  98 H :    0.047886
  99 H :    0.025651
 100 H :    0.029322
 101 H :    0.026594
 102 H :    0.023885
 103 H :    0.029077
 104 H :    0.023757
 105 H :    0.034951
 106 H :    0.032980
 107 H :    0.028627
 108 H :    0.021389
 109 H :    0.025887
 110 H :    0.020218
 111 H :    0.015809
 112 H :    0.027499
 113 H :    0.029740
 114 H :    0.016644
 115 H :    0.023317
 116 H :    0.001938
 117 H :    0.021762
 118 H :    0.006141
 119 H :    0.005624
 120 H :    0.034308
 121 H :    0.032059

  Mayer bond orders larger than 0.100000
B(  0-C ,  1-S ) :   1.1435 B(  0-C ,  4-C ) :   1.5855 B(  0-C , 70-H ) :   0.9706
B(  1-S ,  2-C ) :   1.1361 B(  2-C ,  3-C ) :   1.5242 B(  2-C , 11-C ) :   1.1210
B(  3-C ,  4-C ) :   1.2992 B(  3-C , 10-C ) :   1.0322 B(  4-C ,  5-C ) :   1.0276
B(  5-C ,  6-C ) :   1.0851 B(  5-C , 71-H ) :   0.9038 B(  5-C , 72-H ) :   0.9270
B(  6-C ,  7-C ) :   1.0504 B(  6-C , 73-H ) :   0.9278 B(  6-C , 74-H ) :   0.9442
B(  7-C ,  8-O ) :   1.0123 B(  7-C , 10-C ) :   1.0323 B(  7-C , 75-H ) :   0.9221
B(  8-O ,  9-C ) :   0.9996 B(  9-C , 76-H ) :   0.9815 B(  9-C , 77-H ) :   0.9643
B(  9-C , 78-H ) :   0.9643 B( 10-C , 79-H ) :   0.8995 B( 10-C , 80-H ) :   0.9063
B( 11-C , 12-C ) :   1.5496 B( 11-C , 16-S ) :   1.0482 B( 12-C , 13-C ) :   1.2261
B( 12-C , 81-H ) :   0.9561 B( 13-C , 14-C ) :   1.0464 B( 13-C , 22-C ) :   1.4008
B( 14-C , 15-C ) :   1.6188 B( 14-C , 17-C ) :   1.1757 B( 15-C , 16-S ) :   1.1249
B( 15-C , 82-H ) :   0.9384 B( 17-C , 18-C ) :   1.4573 B( 17-C , 21-S ) :   1.0725
B( 18-C , 19-C ) :   1.2111 B( 18-C , 22-C ) :   1.0685 B( 19-C , 20-C ) :   1.5852
B( 19-C , 83-H ) :   1.0001 B( 20-C , 21-S ) :   1.1554 B( 20-C , 84-H ) :   0.9639
B( 22-C , 23-C ) :   1.1674 B( 23-C , 24-C ) :   1.6159 B( 23-C , 85-H ) :   0.9528
B( 24-C , 25-C ) :   1.0925 B( 24-C , 86-H ) :   0.9939 B( 25-C , 26-C ) :   1.4790
B( 25-C , 42-C ) :   1.1100 B( 26-C , 27-C ) :   1.0916 B( 26-C , 87-H ) :   1.0067
B( 27-C , 28-C ) :   1.4600 B( 27-C , 40-C ) :   1.1260 B( 28-C , 29-C ) :   1.0496
B( 28-C , 34-C ) :   1.1199 B( 29-C , 30-C ) :   1.0529 B( 29-C , 32-C ) :   1.0311
B( 29-C , 88-H ) :   0.8717 B( 30-C , 31-N ) :   1.0791 B( 30-C , 89-H ) :   0.9345
B( 30-C , 90-H ) :   0.9371 B( 31-N , 91-H ) :   0.9607 B( 31-N , 92-H ) :   0.9670
B( 32-C , 33-N ) :   1.1008 B( 32-C , 93-H ) :   0.9254 B( 32-C , 94-H ) :   0.9347
B( 33-N , 95-H ) :   0.9490 B( 33-N , 96-H ) :   0.9582 B( 33-N ,114-H ) :   0.1157
B( 34-C , 35-C ) :   1.6440 B( 34-C , 39-C ) :   1.0484 B( 35-C , 36-C ) :   0.9754
B( 35-C , 97-H ) :   0.9671 B( 36-C , 37-C ) :   0.9888 B( 36-C , 43-C ) :   0.9536
B( 36-C , 98-H ) :   0.8879 B( 37-C , 38-C ) :   1.7142 B( 37-C , 99-H ) :   0.9732
B( 38-C , 39-C ) :   1.1298 B( 38-C ,100-H ) :   0.9890 B( 39-C , 40-C ) :   1.4378
B( 40-C , 41-C ) :   1.1298 B( 41-C , 42-C ) :   1.6254 B( 41-C ,101-H ) :   0.9867
B( 42-C ,102-H ) :   0.9845 B( 43-C , 44-C ) :   1.8310 B( 43-C ,103-H ) :   0.9465
B( 44-C , 45-C ) :   1.0547 B( 44-C ,104-H ) :   0.9630 B( 45-C , 46-C ) :   1.6006
B( 45-C , 50-S ) :   1.0368 B( 46-C , 47-C ) :   1.2232 B( 46-C ,105-H ) :   0.9618
B( 47-C , 48-C ) :   1.0383 B( 47-C , 56-C ) :   1.4124 B( 48-C , 49-C ) :   1.6191
B( 48-C , 51-C ) :   1.1790 B( 49-C , 50-S ) :   1.1282 B( 49-C ,106-H ) :   0.9407
B( 51-C , 52-C ) :   1.4526 B( 51-C , 55-S ) :   1.0721 B( 52-C , 53-C ) :   1.2128
B( 52-C , 56-C ) :   1.0714 B( 53-C , 54-C ) :   1.5858 B( 53-C ,107-H ) :   1.0013
B( 54-C , 55-S ) :   1.1527 B( 54-C ,108-H ) :   0.9646 B( 56-C , 57-C ) :   1.1680
B( 57-C , 58-C ) :   1.6654 B( 57-C ,109-H ) :   0.9470 B( 58-C , 59-C ) :   1.1042
B( 58-C ,110-H ) :   0.9573 B( 59-C , 60-S ) :   1.1219 B( 59-C , 63-C ) :   1.5209
B( 60-S , 61-C ) :   1.1457 B( 61-C , 62-C ) :   1.5632 B( 61-C ,111-H ) :   0.9727
B( 62-C , 63-C ) :   1.3099 B( 62-C , 69-C ) :   1.0147 B( 63-C , 64-C ) :   1.0518
B( 64-C , 65-C ) :   1.0647 B( 64-C ,112-H ) :   0.8854 B( 64-C ,113-H ) :   0.9186
B( 65-C , 66-C ) :   1.0430 B( 65-C ,114-H ) :   0.9013 B( 65-C ,115-H ) :   0.9329
B( 66-C , 67-O ) :   1.0152 B( 66-C , 69-C ) :   1.0505 B( 66-C ,116-H ) :   0.9251
B( 67-O , 68-C ) :   0.9974 B( 68-C ,117-H ) :   0.9742 B( 68-C ,118-H ) :   0.9613
B( 68-C ,119-H ) :   0.9613 B( 69-C ,120-H ) :   0.9101 B( 69-C ,121-H ) :   0.9136

-----------------------------------------------------------------------------
         ABSORPTION SPECTRUM VIA TRANSITION ELECTRIC DIPOLE MOMENTS
-----------------------------------------------------------------------------
State   Energy  Wavelength   fosc         T2         TX        TY        TZ
        (cm-1)    (nm)                  (au**2)     (au)      (au)      (au)
-----------------------------------------------------------------------------
   0   14559.8    686.8   0.173035891   3.91251   0.54453   0.80283   1.72379
   1   17557.0    569.6   0.056263369   1.05500   0.62452   0.71912  -0.38449
   2   19106.3    523.4   0.665780091  11.47173  -1.88515  -0.39839  -2.78554
   3   20534.3    487.0   0.174936625   2.80464  -0.25059  -1.40104   0.88257
   4   20823.5    480.2   0.036369347   0.57499   0.63097  -0.39765  -0.13690
   5   23118.6    432.6   0.270201449   3.84771  -1.04151  -1.64498  -0.23878
   6   23694.8    422.0   0.573780816   7.97202   0.85074  -0.68862   2.60270
   7   25163.2    397.4   0.196505244   2.57089   1.04308  -0.94257   0.77100
   8   27219.7    367.4   0.006881894   0.08323  -0.06672   0.04242  -0.27746
   9   27670.4    361.4   0.221543429   2.63584  -1.44623   0.73762   0.01324
  10   28367.9    352.5   0.292269378   3.39181   1.74539  -0.32558   0.48930
  11   29008.9    344.7   0.070961714   0.80532  -0.42635  -0.24139  -0.75185
  12   29364.7    340.5   0.022678110   0.25425  -0.36970  -0.31657  -0.13175
  13   30168.8    331.5   0.348886755   3.80717  -1.83013   0.20408  -0.64508
  14   31123.1    321.3   0.009940183   0.10514   0.27973  -0.04164  -0.15862
  15   31356.2    318.9   0.042894494   0.45035   0.51126  -0.25440   0.35249
  16   31683.3    315.6   0.030326495   0.31511  -0.18664   0.43881   0.29619
  17   32621.5    306.5   0.169231382   1.70786   0.59496  -0.33159   1.11532
  18   32903.3    303.9   0.564036940   5.64345   1.48238  -0.69507   1.72130
  19   33007.5    303.0   0.034118616   0.34029   0.33910  -0.40316   0.25054
  20   33399.9    299.4   0.235085090   2.31716  -0.85833   0.77538  -0.98955
  21   33792.9    295.9   0.037024197   0.36069  -0.20754  -0.30641  -0.47300
  22   33872.8    295.2   0.008197443   0.07967   0.03996   0.27314  -0.05892
  23   34199.1    292.4   0.216492516   2.08403   1.04291   0.00113   0.99818
  24   35066.5    285.2   0.171401705   1.60916  -0.70874   0.59727  -0.86609
  25   35228.2    283.9   0.627214332   5.86140   1.91210  -0.04349   1.48438
  26   35782.8    279.5   0.103950008   0.95637  -0.41190  -0.11684  -0.87924
  27   35958.1    278.1   0.436635306   3.99758   1.64307  -0.68031  -0.91382
  28   36317.6    275.3   0.043616015   0.39537   0.18923   0.35121   0.48602
  29   36423.4    274.5   0.440456081   3.98105   0.19170  -0.84948  -1.79518
  30   36702.0    272.5   0.271642898   2.43660  -1.40024  -0.51813   0.45548
  31   37118.5    269.4   0.293739182   2.60524   0.11415   1.59069  -0.24884
  32   37977.0    263.3   0.131261052   1.13786   0.32458  -0.55810  -0.84913
  33   38304.9    261.1   0.020473172   0.17596   0.18206  -0.17648   0.33417
  34   38380.3    260.6   0.195412284   1.67617   0.97922   0.83328   0.15149
  35   38540.4    259.5   0.123743267   1.05702  -0.09788   0.11325   1.01716
  36   39014.2    256.3   0.022259585   0.18783  -0.37674   0.18658  -0.10530
  37   39324.7    254.3   0.031033617   0.25980   0.49806   0.10171   0.03737
  38   39696.2    251.9   0.037969359   0.31489   0.08412   0.40653   0.37755
  39   40126.8    249.2   0.306858071   2.51756   0.95637   1.21228   0.36509
  40   40279.8    248.3   0.064355820   0.52599  -0.52952  -0.48231  -0.11389

FINAL SINGLE POINT ENERGY     -4962.612776447209

DIPOLE MOMENT
-------------
                                X             Y             Z
Electronic contribution:    -28.84037      -5.08925     -16.66588
Nuclear contribution   :     30.65141       6.48534      17.26956
                        -----------------------------------------
Total Dipole Moment    :      1.81103       1.39608       0.60367
                        -----------------------------------------
Magnitude (a.u.)       :      2.36502
Magnitude (Debye)      :      6.01140

Rotational constants in cm-1:     0.001320     0.000296     0.000279
Rotational constants in MHz :    39.572806     8.868195     8.356263

                             ****ORCA TERMINATED NORMALLY****
TOTAL RUN TIME: 0 days 0 hours 15 minutes 9 seconds 368 msec
