                         Program Version 4.2.0 -  RELEASE  -
|  1> # ORCA input file
|  2> # SCF done       -178.147924530094          0.000811624155
|  3> ! CAM-B3LYP def2-SVP def2/J RIJCOSX Grid4 TightSCF
|  4> %maxcore 5000
|  5> %tddft
|  6>     Mode sTDDFT
|  7>     Ethresh 5.0
|  8>     maxcore 5000
|  9> end
| 10>
| 11> %pal
| 12>   nprocs 6
| 13>   end
| 14> * xyz 0 1
| 15>    C       -5.71615         0.71652         4.46198
| 16>    S       -5.29067        -0.93303         4.36159
| 17>    C       -5.74210        -1.03216         2.69107
| 18>    C       -6.21549         0.20377         2.24051
| 19>    C       -6.19154         1.21132         3.26832
| 20>    C       -6.64536         2.52078         2.94819
| 21>    S       -6.64866         3.83532         4.13320
| 22>    C       -7.12030         2.78409         1.69341
| 23>    C       -7.15264         1.78523         0.70215
| 24>    C       -6.70436         0.52237         0.95654
| 25>    C       -5.62695        -2.23827         1.95002
| 26>    C       -5.21639        -3.41764         2.46165
| 27>    C       -5.10847        -4.67007         1.75679
| 28>    C       -4.86866        -5.83883         2.49970
| 29>    C       -4.80276        -7.05290         1.86394
| 30>    C       -4.95627        -7.13854         0.46951
| 31>    C       -5.16785        -5.99027        -0.28020
| 32>    C       -5.24435        -4.77360         0.36533
| 33>    C       -4.87007        -8.52838         0.07991
| 34>    C       -4.66698        -9.30554         1.23199
| 35>    C       -4.58821        -8.42593         2.45928
| 36>    C       -3.20886        -8.53198         3.13601
| 37>    C       -2.06085        -8.19379         2.19252
| 38>    C       -5.69055        -8.77513         3.47547
| 39>    C       -7.08931        -8.70406         2.87491
| 40>    C       -4.58639       -10.67432         1.15217
| 41>    C       -4.71250       -11.30741        -0.09471
| 42>    C       -4.89489       -10.51461        -1.23658
| 43>    C       -4.97520        -9.13998        -1.16083
| 44>    C       -4.69090       -12.74626        -0.21406
| 45>    N       -4.23747       -13.56914         0.79750
| 46>    C       -4.38041       -14.86385         0.40364
| 47>    C       -4.19973       -16.19139         0.79705
| 48>    C       -4.66843       -16.97409        -0.25806
| 49>    N       -5.11750       -16.14807        -1.27127
| 50>    C       -4.95355       -14.85635        -0.88513
| 51>    C       -5.14286       -13.52815        -1.27312
| 52>    C       -4.75128       -18.38888        -0.40638
| 53>    C       -4.38498       -19.29780         0.51949
| 54>    C       -4.48076       -20.73316         0.39997
| 55>    C       -4.13466       -21.52184         1.51009
| 56>    C       -4.22630       -22.88950         1.43813
| 57>    C       -4.66093       -23.51488         0.25790
| 58>    C       -4.99966       -22.75171        -0.84934
| 59>    C       -4.90734       -21.37731        -0.76977
| 60>    C       -4.66405       -24.94772         0.46754
| 61>    C       -4.22576       -25.20687         1.77633
| 62>    C       -3.91124       -23.91831         2.49935
| 63>    C       -2.43009       -23.86083         2.91621
| 64>    C       -1.47837       -23.98089         1.73261
| 65>    C       -4.80369       -23.73960         3.74110
| 66>    C       -6.29084       -23.79259         3.41258
| 67>    C       -4.14251       -26.49576         2.24531
| 68>    C       -4.48704       -27.55317         1.39457
| 69>    C       -4.94478       -27.28512         0.10325
| 70>    C       -5.02998       -25.99028        -0.37009
| 71>    C       -4.43698       -28.92381         1.87692
| 72>    S       -5.85370       -29.89681         1.72941
| 73>    C       -5.14221       -31.23189         2.56731
| 74>    C       -3.83019       -30.93465         2.93136
| 75>    C       -3.42121       -29.61725         2.52013
| 76>    C       -2.06722       -29.23112         2.72912
| 77>    S       -1.46173       -27.71070         2.06054
| 78>    C       -1.22159       -30.07648         3.39447
| 79>    C       -1.65596       -31.33379         3.85509
| 80>    C       -2.92378       -31.77175         3.61836
| 81>    C       -5.86997       -32.44000         2.81002
| 82>    C       -7.12180       -32.67329         2.41556
| 83>    H       -5.60197         1.21699         5.40368
| 84>    H       -5.83614         3.25929         5.01421
| 85>    H       -7.47281         3.77712         1.45940
| 86>    H       -7.53602         2.04040        -0.27406
| 87>    H       -6.72717        -0.23426         0.18814
| 88>    H       -5.91257        -2.16593         0.91070
| 89>    H       -4.96539        -3.45302         3.51591
| 90>    H       -4.75443        -5.76767         3.57251
| 91>    H       -5.27555        -6.04664        -1.35341
| 92>    H       -5.40517        -3.88123        -0.21992
| 93>    H       -3.08076        -9.54927         3.51337
| 94>    H       -3.18598        -7.85397         3.99202
| 95>    H       -2.05455        -8.86746         1.33832
| 96>    H       -1.10908        -8.28467         2.71133
| 97>    H       -2.15645        -7.17510         1.82349
| 98>    H       -5.62197        -8.08351         4.31801
| 99>    H       -5.51102        -9.78283         3.85716
|100>    H       -7.29731        -7.70180         2.50697
|101>    H       -7.83378        -8.95726         3.62645
|102>    H       -7.18602        -9.40042         2.04478
|103>    H       -4.45872       -11.25882         2.05232
|104>    H       -4.96938       -10.99650        -2.19860
|105>    H       -5.12137        -8.55157        -2.05455
|106>    H       -3.81001       -13.24840         1.64790
|107>    H       -3.78806       -16.55575         1.71640
|108>    H       -5.51341       -16.47541        -2.13529
|109>    H       -5.57673       -13.17211        -2.18544
|110>    H       -5.16076       -18.72043        -1.35216
|111>    H       -3.99030       -18.93875         1.46054
|112>    H       -3.80065       -21.03770         2.41737
|113>    H       -5.33051       -23.22419        -1.76276
|114>    H       -5.16807       -20.78906        -1.63612
|115>    H       -2.23432       -24.67319         3.61910
|116>    H       -2.24860       -22.91632         3.43421
|117>    H       -1.62941       -24.92610         1.21673
|118>    H       -0.44731       -23.93851         2.07652
|119>    H       -1.64025       -23.17143         1.02438
|120>    H       -4.56970       -22.77843         4.20418
|121>    H       -4.56244       -24.52474         4.46104
|122>    H       -6.55600       -23.00537         2.71025
|123>    H       -6.88001       -23.66067         4.31751
|124>    H       -6.55165       -24.75043         2.96782
|125>    H       -3.83749       -26.70448         3.26035
|126>    H       -5.22223       -28.11388        -0.53267
|127>    H       -5.37735       -25.79782        -1.37419
|128>    H       -0.18365       -27.95372         2.36414
|129>    H       -0.19228       -29.79032         3.55848
|130>    H       -0.95052       -31.95941         4.38088
|131>    H       -3.23819       -32.75141         3.94160
|132>    H       -5.32942       -33.20163         3.35598
|133>    H       -7.68552       -31.93705         1.86670
|134>    H       -7.61482       -33.60548         2.62488
|135> *
|136>
|137>                          ****END OF INPUT****

CARTESIAN COORDINATES (ANGSTROEM)
---------------------------------
  C     -5.716150    0.716520    4.461980
  S     -5.290670   -0.933030    4.361590
  C     -5.742100   -1.032160    2.691070
  C     -6.215490    0.203770    2.240510
  C     -6.191540    1.211320    3.268320
  C     -6.645360    2.520780    2.948190
  S     -6.648660    3.835320    4.133200
  C     -7.120300    2.784090    1.693410
  C     -7.152640    1.785230    0.702150
  C     -6.704360    0.522370    0.956540
  C     -5.626950   -2.238270    1.950020
  C     -5.216390   -3.417640    2.461650
  C     -5.108470   -4.670070    1.756790
  C     -4.868660   -5.838830    2.499700
  C     -4.802760   -7.052900    1.863940
  C     -4.956270   -7.138540    0.469510
  C     -5.167850   -5.990270   -0.280200
  C     -5.244350   -4.773600    0.365330
  C     -4.870070   -8.528380    0.079910
  C     -4.666980   -9.305540    1.231990
  C     -4.588210   -8.425930    2.459280
  C     -3.208860   -8.531980    3.136010
  C     -2.060850   -8.193790    2.192520
  C     -5.690550   -8.775130    3.475470
  C     -7.089310   -8.704060    2.874910
  C     -4.586390  -10.674320    1.152170
  C     -4.712500  -11.307410   -0.094710
  C     -4.894890  -10.514610   -1.236580
  C     -4.975200   -9.139980   -1.160830
  C     -4.690900  -12.746260   -0.214060
  N     -4.237470  -13.569140    0.797500
  C     -4.380410  -14.863850    0.403640
  C     -4.199730  -16.191390    0.797050
  C     -4.668430  -16.974090   -0.258060
  N     -5.117500  -16.148070   -1.271270
  C     -4.953550  -14.856350   -0.885130
  C     -5.142860  -13.528150   -1.273120
  C     -4.751280  -18.388880   -0.406380
  C     -4.384980  -19.297800    0.519490
  C     -4.480760  -20.733160    0.399970
  C     -4.134660  -21.521840    1.510090
  C     -4.226300  -22.889500    1.438130
  C     -4.660930  -23.514880    0.257900
  C     -4.999660  -22.751710   -0.849340
  C     -4.907340  -21.377310   -0.769770
  C     -4.664050  -24.947720    0.467540
  C     -4.225760  -25.206870    1.776330
  C     -3.911240  -23.918310    2.499350
  C     -2.430090  -23.860830    2.916210
  C     -1.478370  -23.980890    1.732610
  C     -4.803690  -23.739600    3.741100
  C     -6.290840  -23.792590    3.412580
  C     -4.142510  -26.495760    2.245310
  C     -4.487040  -27.553170    1.394570
  C     -4.944780  -27.285120    0.103250
  C     -5.029980  -25.990280   -0.370090
  C     -4.436980  -28.923810    1.876920
  S     -5.853700  -29.896810    1.729410
  C     -5.142210  -31.231890    2.567310
  C     -3.830190  -30.934650    2.931360
  C     -3.421210  -29.617250    2.520130
  C     -2.067220  -29.231120    2.729120
  S     -1.461730  -27.710700    2.060540
  C     -1.221590  -30.076480    3.394470
  C     -1.655960  -31.333790    3.855090
  C     -2.923780  -31.771750    3.618360
  C     -5.869970  -32.440000    2.810020
  C     -7.121800  -32.673290    2.415560
  H     -5.601970    1.216990    5.403680
  H     -5.836140    3.259290    5.014210
  H     -7.472810    3.777120    1.459400
  H     -7.536020    2.040400   -0.274060
  H     -6.727170   -0.234260    0.188140
  H     -5.912570   -2.165930    0.910700
  H     -4.965390   -3.453020    3.515910
  H     -4.754430   -5.767670    3.572510
  H     -5.275550   -6.046640   -1.353410
  H     -5.405170   -3.881230   -0.219920
  H     -3.080760   -9.549270    3.513370
  H     -3.185980   -7.853970    3.992020
  H     -2.054550   -8.867460    1.338320
  H     -1.109080   -8.284670    2.711330
  H     -2.156450   -7.175100    1.823490
  H     -5.621970   -8.083510    4.318010
  H     -5.511020   -9.782830    3.857160
  H     -7.297310   -7.701800    2.506970
  H     -7.833780   -8.957260    3.626450
  H     -7.186020   -9.400420    2.044780
  H     -4.458720  -11.258820    2.052320
  H     -4.969380  -10.996500   -2.198600
  H     -5.121370   -8.551570   -2.054550
  H     -3.810010  -13.248400    1.647900
  H     -3.788060  -16.555750    1.716400
  H     -5.513410  -16.475410   -2.135290
  H     -5.576730  -13.172110   -2.185440
  H     -5.160760  -18.720430   -1.352160
  H     -3.990300  -18.938750    1.460540
  H     -3.800650  -21.037700    2.417370
  H     -5.330510  -23.224190   -1.762760
  H     -5.168070  -20.789060   -1.636120
  H     -2.234320  -24.673190    3.619100
  H     -2.248600  -22.916320    3.434210
  H     -1.629410  -24.926100    1.216730
  H     -0.447310  -23.938510    2.076520
  H     -1.640250  -23.171430    1.024380
  H     -4.569700  -22.778430    4.204180
  H     -4.562440  -24.524740    4.461040
  H     -6.556000  -23.005370    2.710250
  H     -6.880010  -23.660670    4.317510
  H     -6.551650  -24.750430    2.967820
  H     -3.837490  -26.704480    3.260350
  H     -5.222230  -28.113880   -0.532670
  H     -5.377350  -25.797820   -1.374190
  H     -0.183650  -27.953720    2.364140
  H     -0.192280  -29.790320    3.558480
  H     -0.950520  -31.959410    4.380880
  H     -3.238190  -32.751410    3.941600
  H     -5.329420  -33.201630    3.355980
  H     -7.685520  -31.937050    1.866700
  H     -7.614820  -33.605480    2.624880

 Total Charge           Charge          ....    0
 Multiplicity           Mult            ....    1
 Number of Electrons    NEL             ....  502
 Basis Dimension        Dim             .... 1228

ORBITAL ENERGIES
----------------

  NO   OCC          E(Eh)            E(eV)
   0   2.0000     -88.959723     -2420.7171
   1   2.0000     -88.953458     -2420.5466
   2   2.0000     -88.923590     -2419.7339
   3   2.0000     -88.923009     -2419.7181
   4   2.0000     -14.442578      -393.0025
   5   2.0000     -14.442523      -393.0010
   6   2.0000     -10.299229      -280.2563
   7   2.0000     -10.298981      -280.2495
   8   2.0000     -10.294469      -280.1267
   9   2.0000     -10.294334      -280.1231
  10   2.0000     -10.291306      -280.0407
  11   2.0000     -10.289558      -279.9931
  12   2.0000     -10.288128      -279.9542
  13   2.0000     -10.286770      -279.9172
  14   2.0000     -10.278556      -279.6937
  15   2.0000     -10.275557      -279.6121
  16   2.0000     -10.274783      -279.5911
  17   2.0000     -10.274685      -279.5884
  18   2.0000     -10.274619      -279.5866
  19   2.0000     -10.274141      -279.5736
  20   2.0000     -10.274052      -279.5712
  21   2.0000     -10.273941      -279.5681
  22   2.0000     -10.272986      -279.5421
  23   2.0000     -10.271914      -279.5130
  24   2.0000     -10.271832      -279.5108
  25   2.0000     -10.271174      -279.4928
  26   2.0000     -10.268285      -279.4142
  27   2.0000     -10.267527      -279.3936
  28   2.0000     -10.267249      -279.3861
  29   2.0000     -10.266988      -279.3790
  30   2.0000     -10.265621      -279.3418
  31   2.0000     -10.264515      -279.3117
  32   2.0000     -10.264507      -279.3114
  33   2.0000     -10.264418      -279.3090
  34   2.0000     -10.264258      -279.3047
  35   2.0000     -10.264063      -279.2993
  36   2.0000     -10.264046      -279.2989
  37   2.0000     -10.263101      -279.2732
  38   2.0000     -10.262788      -279.2646
  39   2.0000     -10.262553      -279.2583
  40   2.0000     -10.262441      -279.2552
  41   2.0000     -10.262345      -279.2526
  42   2.0000     -10.261945      -279.2417
  43   2.0000     -10.261825      -279.2384
  44   2.0000     -10.261774      -279.2371
  45   2.0000     -10.261648      -279.2336
  46   2.0000     -10.261540      -279.2307
  47   2.0000     -10.261288      -279.2238
  48   2.0000     -10.260570      -279.2043
  49   2.0000     -10.260119      -279.1920
  50   2.0000     -10.260014      -279.1892
  51   2.0000     -10.259022      -279.1622
  52   2.0000     -10.258242      -279.1410
  53   2.0000     -10.258200      -279.1398
  54   2.0000     -10.258192      -279.1396
  55   2.0000     -10.257708      -279.1264
  56   2.0000     -10.257305      -279.1155
  57   2.0000     -10.257227      -279.1133
  58   2.0000     -10.256371      -279.0900
  59   2.0000     -10.256290      -279.0878
  60   2.0000     -10.253763      -279.0191
  61   2.0000     -10.251993      -278.9709
  62   2.0000     -10.248204      -278.8678
  63   2.0000     -10.247747      -278.8554
  64   2.0000     -10.241779      -278.6930
  65   2.0000     -10.240560      -278.6598
  66   2.0000     -10.237365      -278.5729
  67   2.0000     -10.235761      -278.5292
  68   2.0000      -8.055013      -219.1880
  69   2.0000      -8.048711      -219.0166
  70   2.0000      -8.018973      -218.2073
  71   2.0000      -8.017375      -218.1639
  72   2.0000      -6.023933      -163.9196
  73   2.0000      -6.019719      -163.8049
  74   2.0000      -6.018080      -163.7603
  75   2.0000      -6.017563      -163.7462
  76   2.0000      -6.013485      -163.6352
  77   2.0000      -6.011722      -163.5873
  78   2.0000      -5.989197      -162.9743
  79   2.0000      -5.987817      -162.9368
  80   2.0000      -5.985364      -162.8700
  81   2.0000      -5.983334      -162.8148
  82   2.0000      -5.979002      -162.6969
  83   2.0000      -5.977641      -162.6599
  84   2.0000      -1.073605       -29.2143
  85   2.0000      -1.037738       -28.2383
  86   2.0000      -0.989578       -26.9278
  87   2.0000      -0.989351       -26.9216
  88   2.0000      -0.979932       -26.6653
  89   2.0000      -0.976138       -26.5621
  90   2.0000      -0.938414       -25.5355
  91   2.0000      -0.936319       -25.4785
  92   2.0000      -0.929995       -25.3064
  93   2.0000      -0.928305       -25.2605
  94   2.0000      -0.911546       -24.8044
  95   2.0000      -0.910394       -24.7731
  96   2.0000      -0.887862       -24.1600
  97   2.0000      -0.885691       -24.1009
  98   2.0000      -0.880511       -23.9599
  99   2.0000      -0.877418       -23.8757
 100   2.0000      -0.864881       -23.5346
 101   2.0000      -0.863662       -23.5014
 102   2.0000      -0.857654       -23.3379
 103   2.0000      -0.847974       -23.0746
 104   2.0000      -0.842693       -22.9309
 105   2.0000      -0.832224       -22.6460
 106   2.0000      -0.827265       -22.5110
 107   2.0000      -0.826901       -22.5011
 108   2.0000      -0.824440       -22.4342
 109   2.0000      -0.823990       -22.4219
 110   2.0000      -0.822291       -22.3757
 111   2.0000      -0.822055       -22.3693
 112   2.0000      -0.820231       -22.3196
 113   2.0000      -0.816512       -22.2184
 114   2.0000      -0.806488       -21.9457
 115   2.0000      -0.793793       -21.6002
 116   2.0000      -0.787749       -21.4357
 117   2.0000      -0.772636       -21.0245
 118   2.0000      -0.762925       -20.7602
 119   2.0000      -0.755176       -20.5494
 120   2.0000      -0.751387       -20.4463
 121   2.0000      -0.748336       -20.3633
 122   2.0000      -0.729120       -19.8404
 123   2.0000      -0.715458       -19.4686
 124   2.0000      -0.712458       -19.3870
 125   2.0000      -0.706309       -19.2197
 126   2.0000      -0.699033       -19.0217
 127   2.0000      -0.689728       -18.7684
 128   2.0000      -0.686346       -18.6764
 129   2.0000      -0.680686       -18.5224
 130   2.0000      -0.677841       -18.4450
 131   2.0000      -0.671676       -18.2772
 132   2.0000      -0.669611       -18.2210
 133   2.0000      -0.669367       -18.2144
 134   2.0000      -0.665243       -18.1022
 135   2.0000      -0.664358       -18.0781
 136   2.0000      -0.660621       -17.9764
 137   2.0000      -0.657973       -17.9043
 138   2.0000      -0.654501       -17.8099
 139   2.0000      -0.647865       -17.6293
 140   2.0000      -0.642881       -17.4937
 141   2.0000      -0.632734       -17.2176
 142   2.0000      -0.623356       -16.9624
 143   2.0000      -0.613256       -16.6875
 144   2.0000      -0.605572       -16.4785
 145   2.0000      -0.602096       -16.3839
 146   2.0000      -0.598610       -16.2890
 147   2.0000      -0.593813       -16.1585
 148   2.0000      -0.585251       -15.9255
 149   2.0000      -0.583149       -15.8683
 150   2.0000      -0.579299       -15.7635
 151   2.0000      -0.570283       -15.5182
 152   2.0000      -0.565492       -15.3878
 153   2.0000      -0.556919       -15.1545
 154   2.0000      -0.553453       -15.0602
 155   2.0000      -0.548751       -14.9323
 156   2.0000      -0.546714       -14.8769
 157   2.0000      -0.545080       -14.8324
 158   2.0000      -0.539809       -14.6889
 159   2.0000      -0.537479       -14.6255
 160   2.0000      -0.535693       -14.5769
 161   2.0000      -0.533159       -14.5080
 162   2.0000      -0.531136       -14.4529
 163   2.0000      -0.525766       -14.3068
 164   2.0000      -0.521611       -14.1938
 165   2.0000      -0.519580       -14.1385
 166   2.0000      -0.517943       -14.0939
 167   2.0000      -0.515324       -14.0227
 168   2.0000      -0.513573       -13.9750
 169   2.0000      -0.512009       -13.9325
 170   2.0000      -0.510545       -13.8926
 171   2.0000      -0.509388       -13.8611
 172   2.0000      -0.508364       -13.8333
 173   2.0000      -0.507598       -13.8124
 174   2.0000      -0.506004       -13.7691
 175   2.0000      -0.504090       -13.7170
 176   2.0000      -0.500962       -13.6319
 177   2.0000      -0.498155       -13.5555
 178   2.0000      -0.494147       -13.4464
 179   2.0000      -0.492007       -13.3882
 180   2.0000      -0.487553       -13.2670
 181   2.0000      -0.485273       -13.2050
 182   2.0000      -0.482763       -13.1367
 183   2.0000      -0.479231       -13.0405
 184   2.0000      -0.478685       -13.0257
 185   2.0000      -0.476341       -12.9619
 186   2.0000      -0.473803       -12.8928
 187   2.0000      -0.471347       -12.8260
 188   2.0000      -0.467757       -12.7283
 189   2.0000      -0.465717       -12.6728
 190   2.0000      -0.465540       -12.6680
 191   2.0000      -0.464495       -12.6396
 192   2.0000      -0.460756       -12.5378
 193   2.0000      -0.457246       -12.4423
 194   2.0000      -0.454945       -12.3797
 195   2.0000      -0.451313       -12.2809
 196   2.0000      -0.448832       -12.2133
 197   2.0000      -0.444484       -12.0950
 198   2.0000      -0.442025       -12.0281
 199   2.0000      -0.440980       -11.9997
 200   2.0000      -0.437271       -11.8987
 201   2.0000      -0.435981       -11.8636
 202   2.0000      -0.434545       -11.8246
 203   2.0000      -0.432337       -11.7645
 204   2.0000      -0.431268       -11.7354
 205   2.0000      -0.430508       -11.7147
 206   2.0000      -0.427873       -11.6430
 207   2.0000      -0.424852       -11.5608
 208   2.0000      -0.424386       -11.5481
 209   2.0000      -0.422639       -11.5006
 210   2.0000      -0.421863       -11.4795
 211   2.0000      -0.419860       -11.4250
 212   2.0000      -0.415375       -11.3029
 213   2.0000      -0.415166       -11.2972
 214   2.0000      -0.414254       -11.2724
 215   2.0000      -0.409806       -11.1514
 216   2.0000      -0.407731       -11.0949
 217   2.0000      -0.406930       -11.0731
 218   2.0000      -0.404415       -11.0047
 219   2.0000      -0.402095       -10.9416
 220   2.0000      -0.397870       -10.8266
 221   2.0000      -0.394395       -10.7320
 222   2.0000      -0.393369       -10.7041
 223   2.0000      -0.392073       -10.6688
 224   2.0000      -0.385161       -10.4808
 225   2.0000      -0.385063       -10.4781
 226   2.0000      -0.381286       -10.3753
 227   2.0000      -0.380951       -10.3662
 228   2.0000      -0.376742       -10.2517
 229   2.0000      -0.376623       -10.2484
 230   2.0000      -0.373629       -10.1670
 231   2.0000      -0.371996       -10.1225
 232   2.0000      -0.371634       -10.1127
 233   2.0000      -0.354955        -9.6588
 234   2.0000      -0.349814        -9.5189
 235   2.0000      -0.338883        -9.2215
 236   2.0000      -0.319097        -8.6831
 237   2.0000      -0.314339        -8.5536
 238   2.0000      -0.310781        -8.4568
 239   2.0000      -0.309568        -8.4238
 240   2.0000      -0.308107        -8.3840
 241   2.0000      -0.306577        -8.3424
 242   2.0000      -0.303814        -8.2672
 243   2.0000      -0.298164        -8.1134
 244   2.0000      -0.287079        -7.8118
 245   2.0000      -0.276807        -7.5323
 246   2.0000      -0.273006        -7.4289
 247   2.0000      -0.261591        -7.1183
 248   2.0000      -0.231596        -6.3021
 249   2.0000      -0.227004        -6.1771
 250   2.0000      -0.204345        -5.5605
 251   0.0000      -0.047019        -1.2795
 252   0.0000      -0.038612        -1.0507
 253   0.0000      -0.021221        -0.5775
 254   0.0000      -0.000612        -0.0167
 255   0.0000       0.023469         0.6386

MULLIKEN ATOMIC CHARGES
-----------------------
   0 C :   -0.179316
   1 S :    0.141984
   2 C :   -0.125606
   3 C :    0.111145
   4 C :    0.119737
   5 C :   -0.075922
   6 S :    0.024561
   7 C :   -0.005587
   8 C :    0.026552
   9 C :   -0.028877
  10 C :    0.025166
  11 C :   -0.022814
  12 C :    0.130707
  13 C :   -0.113946
  14 C :    0.013146
  15 C :    0.113490
  16 C :   -0.049325
  17 C :   -0.016852
  18 C :    0.106318
  19 C :   -0.002244
  20 C :   -0.137494
  21 C :    0.074677
  22 C :    0.023921
  23 C :    0.068478
  24 C :    0.027417
  25 C :   -0.121135
  26 C :    0.143630
  27 C :   -0.029708
  28 C :   -0.039584
  29 C :    0.071108
  30 N :   -0.041356
  31 C :    0.104967
  32 C :   -0.180489
  33 C :    0.102996
  34 N :   -0.038221
  35 C :    0.107369
  36 C :   -0.181835
  37 C :    0.034981
  38 C :   -0.030653
  39 C :    0.141111
  40 C :   -0.117691
  41 C :    0.020577
  42 C :    0.100054
  43 C :   -0.042669
  44 C :   -0.018601
  45 C :    0.120076
  46 C :    0.004788
  47 C :   -0.141249
  48 C :    0.076748
  49 C :    0.020681
  50 C :    0.068290
  51 C :    0.027477
  52 C :   -0.054851
  53 C :    0.028263
  54 C :    0.008235
  55 C :   -0.056391
  56 C :   -0.191489
  57 S :    0.164238
  58 C :   -0.140725
  59 C :    0.099353
  60 C :    0.148792
  61 C :   -0.074677
  62 S :    0.027447
  63 C :   -0.027476
  64 C :    0.030970
  65 C :   -0.032229
  66 C :    0.007415
  67 C :   -0.035726
  68 H :    0.013980
  69 H :    0.053785
  70 H :   -0.022615
  71 H :   -0.017149
  72 H :   -0.031673
  73 H :   -0.019185
  74 H :   -0.024203
  75 H :   -0.044637
  76 H :   -0.038725
  77 H :   -0.035853
  78 H :   -0.010652
  79 H :   -0.003599
  80 H :    0.022248
  81 H :    0.005598
  82 H :    0.022695
  83 H :   -0.004142
  84 H :   -0.007617
  85 H :    0.021664
  86 H :    0.006965
  87 H :    0.023375
  88 H :   -0.067008
  89 H :   -0.033708
  90 H :   -0.039832
  91 H :    0.119653
  92 H :   -0.044272
  93 H :    0.115687
  94 H :   -0.044453
  95 H :   -0.042386
  96 H :   -0.033340
  97 H :   -0.047332
  98 H :   -0.042633
  99 H :   -0.040812
 100 H :   -0.003323
 101 H :   -0.007598
 102 H :    0.026245
 103 H :    0.000779
 104 H :    0.021273
 105 H :   -0.005807
 106 H :   -0.001927
 107 H :    0.021352
 108 H :    0.005682
 109 H :    0.020150
 110 H :   -0.024945
 111 H :   -0.027382
 112 H :   -0.038553
 113 H :    0.052294
 114 H :   -0.034394
 115 H :   -0.018642
 116 H :   -0.034032
 117 H :   -0.010943
 118 H :    0.017541
 119 H :    0.020275
Sum of atomic charges:   -0.0000000

LOEWDIN ATOMIC CHARGES
----------------------
   0 C :   -0.211584
   1 S :    0.481925
   2 C :   -0.179537
   3 C :   -0.042797
   4 C :   -0.069390
   5 C :   -0.141659
   6 S :    0.223452
   7 C :   -0.058884
   8 C :   -0.024114
   9 C :   -0.029916
  10 C :   -0.038538
  11 C :   -0.027216
  12 C :   -0.025649
  13 C :   -0.023593
  14 C :    0.000718
  15 C :   -0.017423
  16 C :   -0.019998
  17 C :   -0.016892
  18 C :   -0.027390
  19 C :    0.006467
  20 C :   -0.035084
  21 C :   -0.011507
  22 C :   -0.057792
  23 C :   -0.012227
  24 C :   -0.057494
  25 C :   -0.039467
  26 C :   -0.020164
  27 C :   -0.019021
  28 C :   -0.016294
  29 C :   -0.000293
  30 N :    0.065878
  31 C :   -0.026356
  32 C :   -0.098192
  33 C :   -0.007643
  34 N :    0.068266
  35 C :   -0.029607
  36 C :   -0.100540
  37 C :   -0.031656
  38 C :   -0.030495
  39 C :   -0.019255
  40 C :   -0.026684
  41 C :    0.004021
  42 C :   -0.025103
  43 C :   -0.017467
  44 C :   -0.022102
  45 C :   -0.012672
  46 C :    0.001329
  47 C :   -0.034812
  48 C :   -0.011345
  49 C :   -0.059930
  50 C :   -0.011952
  51 C :   -0.057753
  52 C :   -0.021978
  53 C :   -0.061410
  54 C :   -0.020844
  55 C :   -0.022233
  56 C :   -0.167670
  57 S :    0.489882
  58 C :   -0.193223
  59 C :   -0.037912
  60 C :   -0.071541
  61 C :   -0.137314
  62 S :    0.265102
  63 C :   -0.070794
  64 C :   -0.025151
  65 C :   -0.031288
  66 C :   -0.036909
  67 C :   -0.060773
  68 H :    0.015654
  69 H :   -0.029877
  70 H :    0.026412
  71 H :    0.029001
  72 H :    0.025297
  73 H :    0.029750
  74 H :    0.018075
  75 H :    0.022334
  76 H :    0.025807
  77 H :    0.023544
  78 H :    0.016769
  79 H :    0.019341
  80 H :    0.025655
  81 H :    0.022556
  82 H :    0.026289
  83 H :    0.019177
  84 H :    0.017524
  85 H :    0.025910
  86 H :    0.023099
  87 H :    0.026244
  88 H :    0.014221
  89 H :    0.025568
  90 H :    0.025741
  91 H :    0.083293
  92 H :    0.019925
  93 H :    0.085372
  94 H :    0.020156
  95 H :    0.021440
  96 H :    0.024346
  97 H :    0.021618
  98 H :    0.024822
  99 H :    0.021229
 100 H :    0.018792
 101 H :    0.017591
 102 H :    0.018931
 103 H :    0.020958
 104 H :    0.025088
 105 H :    0.018667
 106 H :    0.019877
 107 H :    0.025578
 108 H :    0.022643
 109 H :    0.025114
 110 H :    0.024012
 111 H :    0.023973
 112 H :    0.025647
 113 H :   -0.031525
 114 H :    0.021552
 115 H :    0.028469
 116 H :    0.025052
 117 H :    0.032746
 118 H :    0.015287
 119 H :    0.024745

  Mayer bond orders larger than 0.100000
B(  0-C ,  1-S ) :   1.1918 B(  0-C ,  2-C ) :   0.1079 B(  0-C ,  4-C ) :   1.4317
B(  0-C , 68-H ) :   0.9628 B(  1-S ,  2-C ) :   1.1611 B(  2-C ,  3-C ) :   1.3451
B(  2-C , 10-C ) :   1.1659 B(  3-C ,  4-C ) :   1.2107 B(  3-C ,  9-C ) :   1.2021
B(  4-C ,  5-C ) :   1.1803 B(  5-C ,  6-S ) :   1.0503 B(  5-C ,  7-C ) :   1.5721
B(  6-S , 69-H ) :   0.9497 B(  7-C ,  8-C ) :   1.2166 B(  7-C , 70-H ) :   0.9837
B(  8-C ,  9-C ) :   1.5563 B(  8-C , 71-H ) :   0.9830 B(  9-C , 72-H ) :   0.9914
B( 10-C , 11-C ) :   1.6749 B( 10-C , 73-H ) :   0.9624 B( 11-C , 12-C ) :   1.0771
B( 11-C , 74-H ) :   0.9812 B( 12-C , 13-C ) :   1.2825 B( 12-C , 17-C ) :   1.3438
B( 13-C , 14-C ) :   1.3800 B( 13-C , 75-H ) :   1.0130 B( 14-C , 15-C ) :   1.3702
B( 14-C , 20-C ) :   0.9123 B( 15-C , 16-C ) :   1.3285 B( 15-C , 18-C ) :   0.9986
B( 16-C , 17-C ) :   1.3986 B( 16-C , 76-H ) :   0.9897 B( 17-C , 77-H ) :   0.9843
B( 18-C , 19-C ) :   1.3688 B( 18-C , 28-C ) :   1.3290 B( 19-C , 20-C ) :   0.9132
B( 19-C , 25-C ) :   1.4175 B( 20-C , 21-C ) :   1.0353 B( 20-C , 23-C ) :   1.0411
B( 21-C , 22-C ) :   1.1004 B( 21-C , 78-H ) :   0.9386 B( 21-C , 79-H ) :   0.9392
B( 22-C , 80-H ) :   0.9645 B( 22-C , 81-H ) :   0.9640 B( 22-C , 82-H ) :   0.9645
B( 23-C , 24-C ) :   1.1028 B( 23-C , 83-H ) :   0.9381 B( 23-C , 84-H ) :   0.9380
B( 24-C , 85-H ) :   0.9642 B( 24-C , 86-H ) :   0.9638 B( 24-C , 87-H ) :   0.9638
B( 25-C , 26-C ) :   1.2815 B( 25-C , 88-H ) :   0.9932 B( 26-C , 27-C ) :   1.3606
B( 26-C , 29-C ) :   1.0063 B( 27-C , 28-C ) :   1.3885 B( 27-C , 89-H ) :   0.9875
B( 28-C , 90-H ) :   0.9908 B( 29-C , 30-N ) :   1.2068 B( 29-C , 36-C ) :   1.4472
B( 30-N , 31-C ) :   1.1545 B( 30-N , 91-H ) :   0.9328 B( 31-C , 32-C ) :   1.2458
B( 31-C , 35-C ) :   1.3402 B( 32-C , 33-C ) :   1.4246 B( 32-C , 92-H ) :   1.0316
B( 33-C , 34-N ) :   1.1720 B( 33-C , 37-C ) :   1.0918 B( 34-N , 35-C ) :   1.1652
B( 34-N , 93-H ) :   0.9371 B( 35-C , 36-C ) :   1.2268 B( 36-C , 94-H ) :   1.0283
B( 37-C , 38-C ) :   1.6951 B( 37-C , 95-H ) :   0.9523 B( 38-C , 39-C ) :   1.0724
B( 38-C , 96-H ) :   0.9872 B( 39-C , 40-C ) :   1.2821 B( 39-C , 44-C ) :   1.3401
B( 40-C , 41-C ) :   1.3741 B( 40-C , 97-H ) :   1.0144 B( 41-C , 42-C ) :   1.3726
B( 41-C , 47-C ) :   0.9148 B( 42-C , 43-C ) :   1.3306 B( 42-C , 45-C ) :   0.9921
B( 43-C , 44-C ) :   1.4022 B( 43-C , 98-H ) :   0.9876 B( 44-C , 99-H ) :   0.9822
B( 45-C , 46-C ) :   1.3709 B( 45-C , 55-C ) :   1.3412 B( 46-C , 47-C ) :   0.9159
B( 46-C , 52-C ) :   1.4050 B( 47-C , 48-C ) :   1.0384 B( 47-C , 50-C ) :   1.0399
B( 48-C , 49-C ) :   1.0997 B( 48-C ,100-H ) :   0.9367 B( 48-C ,101-H ) :   0.9380
B( 49-C ,102-H ) :   0.9635 B( 49-C ,103-H ) :   0.9631 B( 49-C ,104-H ) :   0.9616
B( 50-C , 51-C ) :   1.1012 B( 50-C ,105-H ) :   0.9384 B( 50-C ,106-H ) :   0.9394
B( 51-C ,107-H ) :   0.9646 B( 51-C ,108-H ) :   0.9638 B( 51-C ,109-H ) :   0.9641
B( 52-C , 53-C ) :   1.3208 B( 52-C ,110-H ) :   1.0010 B( 53-C , 54-C ) :   1.3708
B( 53-C , 56-C ) :   0.9785 B( 54-C , 55-C ) :   1.3711 B( 54-C ,111-H ) :   0.9885
B( 55-C ,112-H ) :   0.9907 B( 56-C , 57-S ) :   1.1977 B( 56-C , 58-C ) :   0.1203
B( 56-C , 60-C ) :   1.4377 B( 57-S , 58-C ) :   1.1355 B( 58-C , 59-C ) :   1.3792
B( 58-C , 66-C ) :   1.1344 B( 59-C , 60-C ) :   1.1966 B( 59-C , 65-C ) :   1.1877
B( 60-C , 61-C ) :   1.1922 B( 61-C , 62-S ) :   1.0522 B( 61-C , 63-C ) :   1.5573
B( 62-S ,113-H ) :   0.9461 B( 63-C , 64-C ) :   1.2187 B( 63-C ,114-H ) :   0.9778
B( 64-C , 65-C ) :   1.5617 B( 64-C ,115-H ) :   0.9803 B( 65-C ,116-H ) :   0.9919
B( 66-C , 67-C ) :   1.9140 B( 66-C ,117-H ) :   0.9596 B( 67-C ,118-H ) :   0.9570
B( 67-C ,119-H ) :   0.9487

-----------------------------------------------------------------------------
         ABSORPTION SPECTRUM VIA TRANSITION ELECTRIC DIPOLE MOMENTS
-----------------------------------------------------------------------------
State   Energy  Wavelength   fosc         T2         TX        TY        TZ
        (cm-1)    (nm)                  (au**2)     (au)      (au)      (au)
-----------------------------------------------------------------------------
   0   21682.3    461.2   3.586950110  54.46226   0.33383  -7.35097  -0.56041
   1   24320.7    411.2   0.339577571   4.59662   0.56114   1.46420  -1.46214
   2   26190.5    381.8   0.096434102   1.21217  -0.32088  -1.05237  -0.04133
   3   27169.0    368.1   0.084017761   1.01806   0.52491  -0.79304  -0.33707
   4   28832.1    346.8   0.245964294   2.80848   0.08208   1.67113  -0.09524
   5   31313.4    319.4   0.014204358   0.14934   0.21029   0.27070   0.17843
   6   32112.0    311.4   0.044538887   0.45661  -0.53579  -0.34414  -0.22607
   7   33086.0    302.2   0.139477415   1.38783   0.44958  -1.08199  -0.12245
   8   33233.8    300.9   0.029047708   0.28774   0.19441   0.49691  -0.05505
   9   34104.6    293.2   0.022637409   0.21852  -0.19486   0.29395  -0.30683
  10   34343.9    291.2   0.008002170   0.07671  -0.03882   0.27376  -0.01599
  11   35170.0    284.3   0.009009412   0.08433   0.25034  -0.10153   0.10655
  12   35347.0    282.9   0.037389506   0.34824   0.06837  -0.55049   0.20130
  13   36180.7    276.4   0.051049172   0.46450   0.32468  -0.54036   0.25902
  14   36758.7    272.0   0.028615623   0.25628  -0.12372   0.31395  -0.37738
  15   37059.3    269.8   0.056342725   0.50051  -0.25136   0.32535  -0.57574
  16   37721.3    265.1   0.026412565   0.23052  -0.07223   0.32636  -0.34465
  17   37989.4    263.2   0.005734776   0.04970  -0.00306   0.17569   0.13718
  18   38510.4    259.7   0.013242854   0.11321   0.22285   0.24265  -0.06832
  19   38856.2    257.4   0.028538168   0.24179   0.06362   0.47660   0.10297
  20   39350.5    254.1   0.021808253   0.18245   0.32222   0.12851   0.24923
  21   39657.4    252.2   0.011250279   0.09339   0.01407  -0.29784   0.06696

FINAL SINGLE POINT ENERGY     -4092.469603390190

DIPOLE MOMENT
-------------
                                X             Y             Z
Electronic contribution:     -6.47536      22.96610      -8.75295
Nuclear contribution   :      6.93322     -23.24890       8.90788
                        -----------------------------------------
Total Dipole Moment    :      0.45786      -0.28280       0.15493
                        -----------------------------------------
Magnitude (a.u.)       :      0.56002
Magnitude (Debye)      :      1.42345

Rotational constants in cm-1:     0.004314     0.000135     0.000134
Rotational constants in MHz :   129.317467     4.036161     4.004416

                             ****ORCA TERMINATED NORMALLY****
TOTAL RUN TIME: 0 days 0 hours 11 minutes 49 seconds 230 msec
