                         Program Version 4.2.0 -  RELEASE  -
|  1> # ORCA input file
|  2> # SCF done       -189.360895049868          0.000658491517
|  3> ! CAM-B3LYP def2-SVP def2/J RIJCOSX Grid4 TightSCF
|  4> %maxcore 5000
|  5> %tddft
|  6>     Mode sTDDFT
|  7>     Ethresh 5.0
|  8>     maxcore 5000
|  9> end
| 10>
| 11> %pal
| 12>   nprocs 6
| 13>   end
| 14> * xyz 0 1
| 15>    N        2.64794        12.40126         1.60251
| 16>    C        2.04048        12.22092         2.78454
| 17>    S        1.82134        13.54908         3.86748
| 18>    C        1.01961        12.48658         4.99599
| 19>    N        0.57727        13.04820         6.19534
| 20>    O        0.02678        12.31769         6.99710
| 21>    O        0.78326        14.24187         6.34616
| 22>    C        0.93034        11.19798         4.55328
| 23>    C        1.51129        11.01169         3.28063
| 24>    C        1.59614         9.78606         2.55905
| 25>    C        1.09723         8.58189         2.93356
| 26>    C        1.30373         7.44491         2.10833
| 27>    N        1.99251         7.53899         0.97276
| 28>    C        2.03819         6.29585         0.46558
| 29>    C        1.33830         5.33445         1.32751
| 30>    C        1.41681         3.98504         0.75006
| 31>    O        0.96748         2.94290         1.18591
| 32>    C        2.18420         4.20271        -0.48870
| 33>    C        2.54482         5.62285        -0.62459
| 34>    N        3.24980         5.83427        -1.76158
| 35>    C        3.34417         4.65169        -2.32773
| 36>    C        2.70140         3.59093        -1.58858
| 37>    C        0.84693         6.06304         2.38684
| 38>    C        0.07726         5.66020         3.51349
| 39>    C       -0.22529         4.36316         3.75643
| 40>    C       -0.97752         3.84377         4.86358
| 41>    C       -0.96382         2.47482         5.06801
| 42>    C       -1.64916         1.91440         6.15650
| 43>    C       -1.76667         0.59304         6.58594
| 44>    C       -1.14542        -0.59718         5.94123
| 45>    C       -0.21435        -1.35494         6.90885
| 46>    N        0.79456        -2.05658         6.14361
| 47>    C       -2.22434        -1.51873         5.34222
| 48>    N       -1.61174        -2.56267         4.53507
| 49>    C       -2.59495         0.61141         7.76530
| 50>    C       -3.01231        -0.37054         8.58854
| 51>    C       -3.90547        -0.08473         9.75057
| 52>    C       -4.17849         1.36315         9.99226
| 53>    C       -3.75239         2.33819         9.16468
| 54>    C       -2.96995         2.01143         8.03427
| 55>    C       -2.39600         2.78905         7.04652
| 56>    C       -2.42639         4.18037         6.79983
| 57>    C       -1.73178         4.68424         5.74669
| 58>    C       -5.17821        -0.83945         9.44844
| 59>    C       -6.23099        -0.25251         8.86175
| 60>    C       -7.45104        -0.92491         8.55724
| 61>    N       -7.66874        -2.20296         8.84064
| 62>    C       -8.92684        -2.46017         8.43596
| 63>    C       -9.55971        -1.26490         7.85962
| 64>    C      -10.93026        -1.55901         7.43031
| 65>    O      -11.73627        -0.80198         6.92035
| 66>    C      -11.07821        -2.98215         7.77120
| 67>    C       -9.83601        -3.49472         8.38165
| 68>    N       -9.96293        -4.80427         8.69686
| 69>    C      -11.18185        -5.12950         8.32770
| 70>    C      -11.93083        -4.04235         7.74278
| 71>    C       -8.61662        -0.27023         7.92498
| 72>    C       -8.65523         1.09384         7.52139
| 73>    C       -9.75480         1.66914         6.99401
| 74>    N       -9.88521         2.97235         6.59011
| 75>    C       -9.01688         4.01208         6.64162
| 76>    S       -7.45371         3.92681         7.38708
| 77>    C       -7.17997         5.60092         7.01697
| 78>    N       -5.96390         6.14700         7.39952
| 79>    O       -5.72828         7.30652         7.10522
| 80>    O       -5.19860         5.41056         8.01401
| 81>    C       -8.23571         6.18222         6.36187
| 82>    C       -9.29686         5.29488         6.13699
| 83>    C      -10.52799         5.64258         5.45147
| 84>    C      -10.92483         6.88076         5.17782
| 85>    H        3.02140        13.29946         1.35350
| 86>    H        2.80577        11.61997         0.98897
| 87>    H        0.46579        10.42494         5.13689
| 88>    H        2.11819         9.79496         1.61164
| 89>    H        0.55200         8.45794         3.85592
| 90>    H        3.86765         4.53853        -3.26135
| 91>    H        2.66488         2.55942        -1.87909
| 92>    H       -0.24807         6.43964         4.18786
| 93>    H        0.15444         3.61864         3.06848
| 94>    H       -0.40397         1.84422         4.39290
| 95>    H       -0.50998        -0.25365         5.11925
| 96>    H       -0.81655        -2.01888         7.55036
| 97>    H        0.29295        -0.63158         7.55666
| 98>    H        0.33460        -2.71627         5.52233
| 99>    H        1.42312        -2.56501         6.75510
|100>    H       -2.93356        -0.89277         4.77328
|101>    H       -2.78629        -2.00563         6.14386
|102>    H       -1.14601        -2.14913         3.73287
|103>    H       -2.32107        -3.19843         4.18611
|104>    H       -2.76172        -1.40786         8.42486
|105>    H       -3.46305        -0.52736        10.65343
|106>    H       -4.78488         1.58719        10.85662
|107>    H       -3.99626         3.37462         9.34438
|108>    H       -3.01167         4.81778         7.44466
|109>    H       -1.76099         5.74463         5.55025
|110>    H       -5.21746        -1.89116         9.69017
|111>    H       -6.17151         0.79764         8.61220
|112>    H      -11.54186        -6.13336         8.47246
|113>    H      -12.93777        -4.10155         7.37914
|114>    H       -7.74525         1.65355         7.65473
|115>    H      -10.65253         1.08039         6.85466
|116>    H      -10.78487         3.20476         6.18838
|117>    H       -8.21845         7.21046         6.05225
|118>    H      -11.15402         4.81682         5.13601
|119>    H      -10.35770         7.74713         5.46845
|120>    H      -11.84555         7.06681         4.65401
|121> *
|122>
|123>                          ****END OF INPUT****

CARTESIAN COORDINATES (ANGSTROEM)
---------------------------------
  N      2.647940   12.401260    1.602510
  C      2.040480   12.220920    2.784540
  S      1.821340   13.549080    3.867480
  C      1.019610   12.486580    4.995990
  N      0.577270   13.048200    6.195340
  O      0.026780   12.317690    6.997100
  O      0.783260   14.241870    6.346160
  C      0.930340   11.197980    4.553280
  C      1.511290   11.011690    3.280630
  C      1.596140    9.786060    2.559050
  C      1.097230    8.581890    2.933560
  C      1.303730    7.444910    2.108330
  N      1.992510    7.538990    0.972760
  C      2.038190    6.295850    0.465580
  C      1.338300    5.334450    1.327510
  C      1.416810    3.985040    0.750060
  O      0.967480    2.942900    1.185910
  C      2.184200    4.202710   -0.488700
  C      2.544820    5.622850   -0.624590
  N      3.249800    5.834270   -1.761580
  C      3.344170    4.651690   -2.327730
  C      2.701400    3.590930   -1.588580
  C      0.846930    6.063040    2.386840
  C      0.077260    5.660200    3.513490
  C     -0.225290    4.363160    3.756430
  C     -0.977520    3.843770    4.863580
  C     -0.963820    2.474820    5.068010
  C     -1.649160    1.914400    6.156500
  C     -1.766670    0.593040    6.585940
  C     -1.145420   -0.597180    5.941230
  C     -0.214350   -1.354940    6.908850
  N      0.794560   -2.056580    6.143610
  C     -2.224340   -1.518730    5.342220
  N     -1.611740   -2.562670    4.535070
  C     -2.594950    0.611410    7.765300
  C     -3.012310   -0.370540    8.588540
  C     -3.905470   -0.084730    9.750570
  C     -4.178490    1.363150    9.992260
  C     -3.752390    2.338190    9.164680
  C     -2.969950    2.011430    8.034270
  C     -2.396000    2.789050    7.046520
  C     -2.426390    4.180370    6.799830
  C     -1.731780    4.684240    5.746690
  C     -5.178210   -0.839450    9.448440
  C     -6.230990   -0.252510    8.861750
  C     -7.451040   -0.924910    8.557240
  N     -7.668740   -2.202960    8.840640
  C     -8.926840   -2.460170    8.435960
  C     -9.559710   -1.264900    7.859620
  C    -10.930260   -1.559010    7.430310
  O    -11.736270   -0.801980    6.920350
  C    -11.078210   -2.982150    7.771200
  C     -9.836010   -3.494720    8.381650
  N     -9.962930   -4.804270    8.696860
  C    -11.181850   -5.129500    8.327700
  C    -11.930830   -4.042350    7.742780
  C     -8.616620   -0.270230    7.924980
  C     -8.655230    1.093840    7.521390
  C     -9.754800    1.669140    6.994010
  N     -9.885210    2.972350    6.590110
  C     -9.016880    4.012080    6.641620
  S     -7.453710    3.926810    7.387080
  C     -7.179970    5.600920    7.016970
  N     -5.963900    6.147000    7.399520
  O     -5.728280    7.306520    7.105220
  O     -5.198600    5.410560    8.014010
  C     -8.235710    6.182220    6.361870
  C     -9.296860    5.294880    6.136990
  C    -10.527990    5.642580    5.451470
  C    -10.924830    6.880760    5.177820
  H      3.021400   13.299460    1.353500
  H      2.805770   11.619970    0.988970
  H      0.465790   10.424940    5.136890
  H      2.118190    9.794960    1.611640
  H      0.552000    8.457940    3.855920
  H      3.867650    4.538530   -3.261350
  H      2.664880    2.559420   -1.879090
  H     -0.248070    6.439640    4.187860
  H      0.154440    3.618640    3.068480
  H     -0.403970    1.844220    4.392900
  H     -0.509980   -0.253650    5.119250
  H     -0.816550   -2.018880    7.550360
  H      0.292950   -0.631580    7.556660
  H      0.334600   -2.716270    5.522330
  H      1.423120   -2.565010    6.755100
  H     -2.933560   -0.892770    4.773280
  H     -2.786290   -2.005630    6.143860
  H     -1.146010   -2.149130    3.732870
  H     -2.321070   -3.198430    4.186110
  H     -2.761720   -1.407860    8.424860
  H     -3.463050   -0.527360   10.653430
  H     -4.784880    1.587190   10.856620
  H     -3.996260    3.374620    9.344380
  H     -3.011670    4.817780    7.444660
  H     -1.760990    5.744630    5.550250
  H     -5.217460   -1.891160    9.690170
  H     -6.171510    0.797640    8.612200
  H    -11.541860   -6.133360    8.472460
  H    -12.937770   -4.101550    7.379140
  H     -7.745250    1.653550    7.654730
  H    -10.652530    1.080390    6.854660
  H    -10.784870    3.204760    6.188380
  H     -8.218450    7.210460    6.052250
  H    -11.154020    4.816820    5.136010
  H    -10.357700    7.747130    5.468450
  H    -11.845550    7.066810    4.654010

 Total Charge           Charge          ....    0
 Multiplicity           Mult            ....    1
 Number of Electrons    NEL             ....  498
 Basis Dimension        Dim             .... 1168

ORBITAL ENERGIES
----------------

  NO   OCC          E(Eh)            E(eV)
   0   2.0000     -88.990989     -2421.5679
   1   2.0000     -88.985790     -2421.4265
   2   2.0000     -19.240189      -523.5522
   3   2.0000     -19.239594      -523.5360
   4   2.0000     -19.234132      -523.3874
   5   2.0000     -19.233455      -523.3689
   6   2.0000     -19.210340      -522.7399
   7   2.0000     -19.194580      -522.3111
   8   2.0000     -14.651234      -398.6803
   9   2.0000     -14.646125      -398.5413
  10   2.0000     -14.493511      -394.3885
  11   2.0000     -14.474745      -393.8778
  12   2.0000     -14.406143      -392.0111
  13   2.0000     -14.399699      -391.8357
  14   2.0000     -14.393076      -391.6555
  15   2.0000     -14.386744      -391.4832
  16   2.0000     -14.384329      -391.4175
  17   2.0000     -14.351467      -390.5233
  18   2.0000     -10.383278      -282.5434
  19   2.0000     -10.375501      -282.3317
  20   2.0000     -10.369386      -282.1653
  21   2.0000     -10.354520      -281.7608
  22   2.0000     -10.341831      -281.4155
  23   2.0000     -10.341252      -281.3998
  24   2.0000     -10.341116      -281.3961
  25   2.0000     -10.336665      -281.2750
  26   2.0000     -10.331021      -281.1214
  27   2.0000     -10.329528      -281.0808
  28   2.0000     -10.317105      -280.7427
  29   2.0000     -10.316978      -280.7393
  30   2.0000     -10.315279      -280.6930
  31   2.0000     -10.313108      -280.6339
  32   2.0000     -10.311516      -280.5906
  33   2.0000     -10.309630      -280.5393
  34   2.0000     -10.308515      -280.5089
  35   2.0000     -10.305261      -280.4204
  36   2.0000     -10.303470      -280.3717
  37   2.0000     -10.302816      -280.3539
  38   2.0000     -10.302044      -280.3329
  39   2.0000     -10.299838      -280.2728
  40   2.0000     -10.299317      -280.2587
  41   2.0000     -10.298998      -280.2500
  42   2.0000     -10.298802      -280.2446
  43   2.0000     -10.290868      -280.0287
  44   2.0000     -10.286108      -279.8992
  45   2.0000     -10.285928      -279.8943
  46   2.0000     -10.284712      -279.8613
  47   2.0000     -10.283184      -279.8197
  48   2.0000     -10.283092      -279.8172
  49   2.0000     -10.281701      -279.7793
  50   2.0000     -10.281584      -279.7761
  51   2.0000     -10.281143      -279.7641
  52   2.0000     -10.272734      -279.5353
  53   2.0000     -10.269976      -279.4603
  54   2.0000     -10.269711      -279.4530
  55   2.0000     -10.268893      -279.4308
  56   2.0000     -10.268099      -279.4092
  57   2.0000     -10.267884      -279.4033
  58   2.0000     -10.267647      -279.3969
  59   2.0000     -10.267341      -279.3885
  60   2.0000     -10.266512      -279.3660
  61   2.0000     -10.266070      -279.3540
  62   2.0000     -10.262621      -279.2601
  63   2.0000     -10.258365      -279.1443
  64   2.0000     -10.257299      -279.1153
  65   2.0000     -10.257269      -279.1145
  66   2.0000     -10.257088      -279.1096
  67   2.0000     -10.255904      -279.0773
  68   2.0000     -10.255609      -279.0693
  69   2.0000     -10.255273      -279.0602
  70   2.0000      -8.085410      -220.0152
  71   2.0000      -8.082005      -219.9225
  72   2.0000      -6.055126      -164.7684
  73   2.0000      -6.051808      -164.6781
  74   2.0000      -6.050650      -164.6466
  75   2.0000      -6.047351      -164.5568
  76   2.0000      -6.046971      -164.5465
  77   2.0000      -6.043082      -164.4406
  78   2.0000      -1.318205       -35.8702
  79   2.0000      -1.315266       -35.7902
  80   2.0000      -1.136470       -30.9249
  81   2.0000      -1.134376       -30.8679
  82   2.0000      -1.122811       -30.5532
  83   2.0000      -1.108020       -30.1507
  84   2.0000      -1.094597       -29.7855
  85   2.0000      -1.073643       -29.2153
  86   2.0000      -1.070424       -29.1277
  87   2.0000      -1.061358       -28.8810
  88   2.0000      -1.053329       -28.6625
  89   2.0000      -1.039799       -28.2944
  90   2.0000      -1.007128       -27.4053
  91   2.0000      -0.995838       -27.0981
  92   2.0000      -0.980030       -26.6680
  93   2.0000      -0.966693       -26.3051
  94   2.0000      -0.947802       -25.7910
  95   2.0000      -0.932982       -25.3877
  96   2.0000      -0.931822       -25.3562
  97   2.0000      -0.928916       -25.2771
  98   2.0000      -0.925082       -25.1728
  99   2.0000      -0.916801       -24.9474
 100   2.0000      -0.910085       -24.7647
 101   2.0000      -0.908158       -24.7122
 102   2.0000      -0.892042       -24.2737
 103   2.0000      -0.886817       -24.1315
 104   2.0000      -0.880440       -23.9580
 105   2.0000      -0.877659       -23.8823
 106   2.0000      -0.864495       -23.5241
 107   2.0000      -0.856250       -23.2998
 108   2.0000      -0.850188       -23.1348
 109   2.0000      -0.842559       -22.9272
 110   2.0000      -0.840477       -22.8705
 111   2.0000      -0.835219       -22.7275
 112   2.0000      -0.834136       -22.6980
 113   2.0000      -0.827037       -22.5048
 114   2.0000      -0.820204       -22.3189
 115   2.0000      -0.796655       -21.6781
 116   2.0000      -0.791315       -21.5328
 117   2.0000      -0.789327       -21.4787
 118   2.0000      -0.763189       -20.7674
 119   2.0000      -0.755455       -20.5570
 120   2.0000      -0.749833       -20.4040
 121   2.0000      -0.748162       -20.3585
 122   2.0000      -0.739962       -20.1354
 123   2.0000      -0.732647       -19.9363
 124   2.0000      -0.723909       -19.6986
 125   2.0000      -0.716179       -19.4882
 126   2.0000      -0.713834       -19.4244
 127   2.0000      -0.704559       -19.1720
 128   2.0000      -0.698516       -19.0076
 129   2.0000      -0.690409       -18.7870
 130   2.0000      -0.683452       -18.5977
 131   2.0000      -0.679180       -18.4814
 132   2.0000      -0.674152       -18.3446
 133   2.0000      -0.667950       -18.1758
 134   2.0000      -0.659458       -17.9448
 135   2.0000      -0.656137       -17.8544
 136   2.0000      -0.648649       -17.6506
 137   2.0000      -0.646414       -17.5898
 138   2.0000      -0.642460       -17.4822
 139   2.0000      -0.642296       -17.4777
 140   2.0000      -0.634306       -17.2603
 141   2.0000      -0.631672       -17.1887
 142   2.0000      -0.631056       -17.1719
 143   2.0000      -0.628036       -17.0897
 144   2.0000      -0.627564       -17.0769
 145   2.0000      -0.624149       -16.9840
 146   2.0000      -0.619151       -16.8480
 147   2.0000      -0.616420       -16.7736
 148   2.0000      -0.608110       -16.5475
 149   2.0000      -0.602593       -16.3974
 150   2.0000      -0.600068       -16.3287
 151   2.0000      -0.594776       -16.1847
 152   2.0000      -0.592132       -16.1127
 153   2.0000      -0.590933       -16.0801
 154   2.0000      -0.586888       -15.9700
 155   2.0000      -0.579079       -15.7576
 156   2.0000      -0.576817       -15.6960
 157   2.0000      -0.575654       -15.6643
 158   2.0000      -0.569289       -15.4912
 159   2.0000      -0.566940       -15.4272
 160   2.0000      -0.559143       -15.2150
 161   2.0000      -0.556560       -15.1448
 162   2.0000      -0.554380       -15.0855
 163   2.0000      -0.549819       -14.9613
 164   2.0000      -0.549010       -14.9393
 165   2.0000      -0.544476       -14.8159
 166   2.0000      -0.541283       -14.7291
 167   2.0000      -0.539118       -14.6701
 168   2.0000      -0.538321       -14.6485
 169   2.0000      -0.535804       -14.5800
 170   2.0000      -0.532042       -14.4776
 171   2.0000      -0.529833       -14.4175
 172   2.0000      -0.526327       -14.3221
 173   2.0000      -0.524641       -14.2762
 174   2.0000      -0.524184       -14.2638
 175   2.0000      -0.523521       -14.2457
 176   2.0000      -0.517431       -14.0800
 177   2.0000      -0.513403       -13.9704
 178   2.0000      -0.509738       -13.8707
 179   2.0000      -0.506292       -13.7769
 180   2.0000      -0.502693       -13.6790
 181   2.0000      -0.502532       -13.6746
 182   2.0000      -0.499072       -13.5804
 183   2.0000      -0.495977       -13.4962
 184   2.0000      -0.491993       -13.3878
 185   2.0000      -0.490994       -13.3606
 186   2.0000      -0.489243       -13.3130
 187   2.0000      -0.487835       -13.2747
 188   2.0000      -0.483624       -13.1601
 189   2.0000      -0.480779       -13.0827
 190   2.0000      -0.479376       -13.0445
 191   2.0000      -0.476829       -12.9752
 192   2.0000      -0.471935       -12.8420
 193   2.0000      -0.470785       -12.8107
 194   2.0000      -0.469524       -12.7764
 195   2.0000      -0.468965       -12.7612
 196   2.0000      -0.464363       -12.6359
 197   2.0000      -0.463372       -12.6090
 198   2.0000      -0.461324       -12.5533
 199   2.0000      -0.457139       -12.4394
 200   2.0000      -0.455880       -12.4051
 201   2.0000      -0.455203       -12.3867
 202   2.0000      -0.454180       -12.3589
 203   2.0000      -0.451246       -12.2790
 204   2.0000      -0.448214       -12.1965
 205   2.0000      -0.441448       -12.0124
 206   2.0000      -0.437135       -11.8950
 207   2.0000      -0.431946       -11.7538
 208   2.0000      -0.431462       -11.7407
 209   2.0000      -0.426889       -11.6162
 210   2.0000      -0.425740       -11.5850
 211   2.0000      -0.419209       -11.4073
 212   2.0000      -0.406121       -11.0511
 213   2.0000      -0.405165       -11.0251
 214   2.0000      -0.402243       -10.9456
 215   2.0000      -0.402096       -10.9416
 216   2.0000      -0.393745       -10.7143
 217   2.0000      -0.392120       -10.6701
 218   2.0000      -0.388936       -10.5835
 219   2.0000      -0.384802       -10.4710
 220   2.0000      -0.382186       -10.3998
 221   2.0000      -0.380267       -10.3476
 222   2.0000      -0.376861       -10.2549
 223   2.0000      -0.375284       -10.2120
 224   2.0000      -0.374369       -10.1871
 225   2.0000      -0.367764       -10.0074
 226   2.0000      -0.362870        -9.8742
 227   2.0000      -0.360339        -9.8053
 228   2.0000      -0.357622        -9.7314
 229   2.0000      -0.348856        -9.4928
 230   2.0000      -0.347025        -9.4430
 231   2.0000      -0.346582        -9.4310
 232   2.0000      -0.337287        -9.1780
 233   2.0000      -0.336753        -9.1635
 234   2.0000      -0.330045        -8.9810
 235   2.0000      -0.328796        -8.9470
 236   2.0000      -0.327215        -8.9040
 237   2.0000      -0.319827        -8.7029
 238   2.0000      -0.314234        -8.5507
 239   2.0000      -0.313136        -8.5209
 240   2.0000      -0.312527        -8.5043
 241   2.0000      -0.310542        -8.4503
 242   2.0000      -0.306702        -8.3458
 243   2.0000      -0.299157        -8.1405
 244   2.0000      -0.279453        -7.6043
 245   2.0000      -0.269910        -7.3446
 246   2.0000      -0.261996        -7.1293
 247   2.0000      -0.258976        -7.0471
 248   2.0000      -0.214537        -5.8378
 249   0.0000      -0.110886        -3.0174
 250   0.0000      -0.100999        -2.7483
 251   0.0000      -0.066865        -1.8195
 252   0.0000      -0.062332        -1.6961
 253   0.0000      -0.047981        -1.3056

MULLIKEN ATOMIC CHARGES
-----------------------
   0 N :   -0.020635
   1 C :   -0.125841
   2 S :    0.166957
   3 C :   -0.021912
   4 N :    0.280005
   5 O :   -0.250300
   6 O :   -0.270577
   7 C :    0.029436
   8 C :    0.117527
   9 C :    0.016336
  10 C :   -0.054736
  11 C :    0.047955
  12 N :   -0.070966
  13 C :    0.061264
  14 C :   -0.171247
  15 C :    0.212812
  16 O :   -0.154519
  17 C :   -0.009372
  18 C :   -0.041099
  19 N :   -0.067298
  20 C :    0.079407
  21 C :   -0.105547
  22 C :    0.061270
  23 C :   -0.034715
  24 C :    0.006154
  25 C :    0.117654
  26 C :   -0.108905
  27 C :    0.065309
  28 C :   -0.018498
  29 C :   -0.062574
  30 C :    0.152105
  31 N :   -0.220334
  32 C :    0.139180
  33 N :   -0.217469
  34 C :    0.107038
  35 C :   -0.125433
  36 C :    0.155754
  37 C :   -0.065234
  38 C :    0.025387
  39 C :   -0.011818
  40 C :    0.041505
  41 C :   -0.005283
  42 C :   -0.015270
  43 C :   -0.038617
  44 C :   -0.014253
  45 C :    0.053313
  46 N :   -0.037428
  47 C :    0.085017
  48 C :   -0.185805
  49 C :    0.217154
  50 O :   -0.166356
  51 C :   -0.009922
  52 C :   -0.055619
  53 N :   -0.056761
  54 C :    0.084910
  55 C :   -0.097056
  56 C :    0.051452
  57 C :   -0.073969
  58 C :    0.064701
  59 N :   -0.004874
  60 C :   -0.095981
  61 S :    0.122210
  62 C :    0.004603
  63 N :    0.291758
  64 O :   -0.248989
  65 O :   -0.276822
  66 C :    0.017813
  67 C :    0.104890
  68 C :   -0.045687
  69 C :   -0.012800
  70 H :    0.142539
  71 H :    0.143015
  72 H :    0.016825
  73 H :   -0.005910
  74 H :   -0.018768
  75 H :   -0.003378
  76 H :   -0.015570
  77 H :   -0.038207
  78 H :    0.001670
  79 H :   -0.020475
  80 H :   -0.020174
  81 H :   -0.033442
  82 H :    0.000383
  83 H :    0.079782
  84 H :    0.080855
  85 H :   -0.002127
  86 H :   -0.017419
  87 H :    0.105041
  88 H :    0.096825
  89 H :   -0.001132
  90 H :    0.035348
  91 H :   -0.009468
  92 H :   -0.019666
  93 H :   -0.029359
  94 H :   -0.029809
  95 H :    0.031300
  96 H :    0.009552
  97 H :    0.004424
  98 H :   -0.010302
  99 H :   -0.003974
 100 H :    0.028994
 101 H :    0.146837
 102 H :    0.008528
 103 H :   -0.016703
 104 H :    0.022916
 105 H :    0.030692
Sum of atomic charges:   -0.0000000

LOEWDIN ATOMIC CHARGES
----------------------
   0 N :    0.020638
   1 C :   -0.069642
   2 S :    0.446044
   3 C :   -0.212639
   4 N :    0.273509
   5 O :   -0.216135
   6 O :   -0.236138
   7 C :    0.017962
   8 C :   -0.133352
   9 C :    0.058054
  10 C :   -0.067131
  11 C :    0.077345
  12 N :   -0.128604
  13 C :    0.051260
  14 C :   -0.062456
  15 C :    0.068668
  16 O :   -0.154253
  17 C :   -0.044408
  18 C :    0.000101
  19 N :   -0.105685
  20 C :    0.054598
  21 C :   -0.046600
  22 C :   -0.017301
  23 C :   -0.058007
  24 C :    0.033049
  25 C :   -0.031208
  26 C :    0.004525
  27 C :   -0.022089
  28 C :   -0.021898
  29 C :   -0.040544
  30 C :    0.030260
  31 N :   -0.126592
  32 C :    0.026298
  33 N :   -0.104620
  34 C :   -0.013565
  35 C :    0.063236
  36 C :   -0.030843
  37 C :   -0.044616
  38 C :   -0.010656
  39 C :   -0.041374
  40 C :   -0.022507
  41 C :   -0.005306
  42 C :   -0.026272
  43 C :    0.083152
  44 C :   -0.055742
  45 C :    0.076948
  46 N :   -0.108509
  47 C :    0.054285
  48 C :   -0.069723
  49 C :    0.070324
  50 O :   -0.163745
  51 C :   -0.043288
  52 C :    0.010099
  53 N :   -0.097389
  54 C :    0.064225
  55 C :   -0.038912
  56 C :   -0.014970
  57 C :   -0.109046
  58 C :    0.059574
  59 N :    0.050807
  60 C :   -0.094049
  61 S :    0.483131
  62 C :   -0.219252
  63 N :    0.280663
  64 O :   -0.215477
  65 O :   -0.242510
  66 C :    0.010595
  67 C :   -0.104809
  68 C :   -0.032703
  69 C :   -0.032032
  70 H :    0.089087
  71 H :    0.093478
  72 H :    0.047326
  73 H :    0.031859
  74 H :    0.027772
  75 H :    0.018150
  76 H :    0.030005
  77 H :    0.020740
  78 H :    0.033533
  79 H :    0.031441
  80 H :    0.027356
  81 H :   -0.007282
  82 H :    0.017938
  83 H :    0.035475
  84 H :    0.049107
  85 H :    0.004270
  86 H :    0.011919
  87 H :    0.058457
  88 H :    0.057488
  89 H :    0.026389
  90 H :    0.057616
  91 H :    0.024226
  92 H :    0.035353
  93 H :    0.026186
  94 H :    0.024424
  95 H :    0.038507
  96 H :    0.034445
  97 H :    0.021665
  98 H :    0.032415
  99 H :    0.007351
 100 H :    0.034743
 101 H :    0.101229
 102 H :    0.045515
 103 H :    0.024206
 104 H :    0.024763
 105 H :    0.030093

  Mayer bond orders larger than 0.100000
B(  0-N ,  1-C ) :   1.3680 B(  0-N , 70-H ) :   0.9350 B(  0-N , 71-H ) :   0.9426
B(  1-C ,  2-S ) :   1.1445 B(  1-C ,  8-C ) :   1.2796 B(  2-S ,  3-C ) :   1.0486
B(  3-C ,  4-N ) :   0.9783 B(  3-C ,  7-C ) :   1.5144 B(  4-N ,  5-O ) :   1.5314
B(  4-N ,  6-O ) :   1.5032 B(  5-O ,  6-O ) :   0.2550 B(  7-C ,  8-C ) :   1.2139
B(  7-C , 72-H ) :   1.0003 B(  8-C ,  9-C ) :   1.0758 B(  9-C , 10-C ) :   1.6465
B(  9-C , 73-H ) :   0.9704 B( 10-C , 11-C ) :   1.1665 B( 10-C , 74-H ) :   0.9631
B( 11-C , 12-N ) :   1.5498 B( 11-C , 13-C ) :   0.1053 B( 11-C , 22-C ) :   0.9857
B( 12-N , 13-C ) :   1.3771 B( 13-C , 14-C ) :   1.0572 B( 13-C , 18-C ) :   1.3893
B( 14-C , 15-C ) :   0.9044 B( 14-C , 22-C ) :   1.5362 B( 15-C , 16-O ) :   2.1667
B( 15-C , 17-C ) :   0.9400 B( 16-O , 78-H ) :   0.1105 B( 17-C , 18-C ) :   1.0850
B( 17-C , 21-C ) :   1.5754 B( 18-C , 19-N ) :   1.3247 B( 19-N , 20-C ) :   1.6417
B( 20-C , 21-C ) :   1.0941 B( 20-C , 75-H ) :   0.9891 B( 21-C , 76-H ) :   1.0119
B( 22-C , 23-C ) :   1.1376 B( 23-C , 24-C ) :   1.6253 B( 23-C , 77-H ) :   0.9602
B( 24-C , 25-C ) :   1.0821 B( 24-C , 78-H ) :   0.9671 B( 25-C , 26-C ) :   1.4850
B( 25-C , 42-C ) :   1.1113 B( 26-C , 27-C ) :   1.1190 B( 26-C , 79-H ) :   1.0105
B( 27-C , 28-C ) :   1.4869 B( 27-C , 40-C ) :   1.1058 B( 28-C , 29-C ) :   1.0325
B( 28-C , 34-C ) :   1.0836 B( 29-C , 30-C ) :   1.0232 B( 29-C , 32-C ) :   1.0459
B( 29-C , 80-H ) :   0.8788 B( 30-C , 31-N ) :   1.1134 B( 30-C , 81-H ) :   0.9219
B( 30-C , 82-H ) :   0.9476 B( 31-N , 83-H ) :   0.9438 B( 31-N , 84-H ) :   0.9671
B( 32-C , 33-N ) :   1.0838 B( 32-C , 85-H ) :   0.9465 B( 32-C , 86-H ) :   0.9320
B( 33-N , 87-H ) :   0.9619 B( 33-N , 88-H ) :   0.9675 B( 34-C , 35-C ) :   1.6797
B( 34-C , 39-C ) :   1.0387 B( 35-C , 36-C ) :   0.9658 B( 35-C , 89-H ) :   0.9549
B( 36-C , 37-C ) :   0.9978 B( 36-C , 43-C ) :   0.9427 B( 36-C , 90-H ) :   0.8690
B( 37-C , 38-C ) :   1.6897 B( 37-C , 91-H ) :   0.9781 B( 38-C , 39-C ) :   1.1454
B( 38-C , 92-H ) :   0.9928 B( 39-C , 40-C ) :   1.4465 B( 40-C , 41-C ) :   1.1400
B( 41-C , 42-C ) :   1.6190 B( 41-C , 93-H ) :   0.9834 B( 42-C , 94-H ) :   0.9852
B( 43-C , 44-C ) :   1.7727 B( 43-C , 95-H ) :   0.9770 B( 44-C , 45-C ) :   1.1163
B( 44-C , 96-H ) :   0.9402 B( 45-C , 46-N ) :   1.6027 B( 45-C , 47-C ) :   0.1123
B( 45-C , 56-C ) :   1.0134 B( 46-N , 47-C ) :   1.3516 B( 47-C , 48-C ) :   1.0460
B( 47-C , 52-C ) :   1.4093 B( 48-C , 49-C ) :   0.9141 B( 48-C , 56-C ) :   1.5377
B( 49-C , 50-O ) :   2.1511 B( 49-C , 51-C ) :   0.9402 B( 50-O ,100-H ) :   0.1199
B( 51-C , 52-C ) :   1.0816 B( 51-C , 55-C ) :   1.5840 B( 52-C , 53-N ) :   1.3204
B( 53-N , 54-C ) :   1.6472 B( 54-C , 55-C ) :   1.0838 B( 54-C , 97-H ) :   0.9898
B( 55-C , 98-H ) :   1.0106 B( 56-C , 57-C ) :   1.1874 B( 57-C , 58-C ) :   1.6595
B( 57-C , 99-H ) :   0.9275 B( 58-C , 59-N ) :   1.1505 B( 58-C ,100-H ) :   0.9245
B( 59-N , 60-C ) :   1.2288 B( 59-N ,101-H ) :   0.9070 B( 60-C , 61-S ) :   1.1411
B( 60-C , 67-C ) :   1.3601 B( 61-S , 62-C ) :   1.0794 B( 62-C , 63-N ) :   0.9964
B( 62-C , 66-C ) :   1.4601 B( 63-N , 64-O ) :   1.5305 B( 63-N , 65-O ) :   1.4502
B( 64-O , 65-O ) :   0.2434 B( 66-C , 67-C ) :   1.2785 B( 66-C ,102-H ) :   0.9993
B( 67-C , 68-C ) :   1.0502 B( 68-C , 69-C ) :   1.9769 B( 68-C ,103-H ) :   0.9598
B( 69-C ,104-H ) :   0.9555 B( 69-C ,105-H ) :   0.9473

-----------------------------------------------------------------------------
         ABSORPTION SPECTRUM VIA TRANSITION ELECTRIC DIPOLE MOMENTS
-----------------------------------------------------------------------------
State   Energy  Wavelength   fosc         T2         TX        TY        TZ
        (cm-1)    (nm)                  (au**2)     (au)      (au)      (au)
-----------------------------------------------------------------------------
   0    8714.8   1147.5   0.061560945   2.32553  -1.11703  -0.98748   0.32039
   1   11797.4    847.6   0.083364928   2.32633   0.54268   0.83068  -1.15836
   2   14519.7    688.7   0.086976878   1.97207   1.04675  -0.25920  -0.89956
   3   15893.8    629.2   0.160963871   3.33409  -0.60562  -1.69945   0.28137
   4   17605.7    568.0   0.019081644   0.35681   0.54316   0.08353  -0.23412
   5   18677.5    535.4   0.025549964   0.45035  -0.12687  -0.64945   0.11165
   6   19931.5    501.7   0.960164855  15.85924  -0.41469   3.35049   2.11222
   7   21728.0    460.2   0.207960698   3.15091   1.20184   1.03291  -0.79973
   8   22256.1    449.3   0.000402863   0.00596   0.04254   0.01153   0.06337
   9   22650.1    441.5   0.002339922   0.03401  -0.10147  -0.15062   0.03203
  10   24155.8    414.0   0.595210011   8.11192  -1.94867  -0.89727   1.87337
  11   24588.6    406.7   0.096344474   1.28994   0.75169   0.56608   0.63597
  12   24645.0    405.8   0.003285491   0.04389   0.10726  -0.17792  -0.02699
  13   24952.7    400.8   0.641665126   8.46576   1.07122   2.70390   0.08460
  14   25248.4    396.1   0.044157567   0.57577  -0.30137  -0.58818   0.37281
  15   25697.0    389.2   0.030805112   0.39465   0.28104   0.39343  -0.40110
  16   25862.1    386.7   0.704429731   8.96706   1.69807   2.14552  -1.21670
  17   25960.7    385.2   0.006514828   0.08262  -0.08270  -0.19717   0.19209
  18   26224.2    381.3   0.077870913   0.97757  -0.65443  -0.34449  -0.65622
  19   26338.4    379.7   0.058049815   0.72558   0.12600  -0.46129   0.70492
  20   26368.1    379.2   0.000868032   0.01084   0.03737  -0.00278  -0.09713
  21   26551.9    376.6   0.028001059   0.34718   0.44813   0.34813   0.15865
  22   27099.1    369.0   0.031090173   0.37770  -0.32817   0.00072   0.51961
  23   27178.6    367.9   0.028242590   0.34210  -0.12215  -0.39431  -0.41436
  24   27971.9    357.5   0.004160512   0.04897   0.09344   0.01977   0.19961
  25   28206.9    354.5   0.189054813   2.20652   1.20582   0.81227   0.30452
  26   28371.4    352.5   0.004474477   0.05192   0.20685   0.01380  -0.09456
  27   29349.0    340.7   0.025259057   0.28333   0.08771   0.52467   0.01910
  28   29588.2    338.0   0.006171145   0.06866  -0.18961   0.17803  -0.03188
  29   29613.4    337.7   0.001521081   0.01691  -0.12106   0.04747   0.00104
  30   29933.0    334.1   0.006432664   0.07075  -0.05174   0.03943  -0.25791
  31   30022.0    333.1   0.009476158   0.10391   0.19070  -0.16090  -0.20410
  32   30246.4    330.6   0.097137704   1.05728   0.00991  -0.85342   0.57346
  33   30484.2    328.0   0.194963932   2.10550   0.53791  -0.27414  -1.31947
  34   30793.2    324.7   0.140468438   1.50176  -0.26106  -1.05039   0.57471
  35   31124.3    321.3   0.204715644   2.16535   0.82966   0.14998  -1.20603
  36   31161.7    320.9   0.046122233   0.48726   0.37881   0.07031  -0.58209
  37   31400.9    318.5   0.011958304   0.12537  -0.08633  -0.21532   0.26750
  38   31747.1    315.0   0.082414110   0.85462  -0.40748  -0.73443   0.38626
  39   32117.0    311.4   0.137304445   1.40742   0.25679   1.15180  -0.12184
  40   32253.5    310.0   0.000970628   0.00991   0.00383   0.09945   0.00164
  41   32620.7    306.6   0.003849536   0.03885   0.16567   0.05655  -0.09058
  42   33403.3    299.4   0.015244735   0.15025  -0.38370  -0.05218  -0.01737
  43   33561.1    298.0   0.000387249   0.00380  -0.03956   0.01305   0.04542
  44   33664.5    297.0   0.278868850   2.72712   0.75033  -0.62126  -1.33348
  45   34380.7    290.9   0.000784364   0.00751   0.05341   0.06587   0.01786
  46   34695.1    288.2   0.026943746   0.25566  -0.31796   0.00706   0.39308
  47   34789.4    287.4   0.002615165   0.02475  -0.05002  -0.14266  -0.04349
  48   34882.3    286.7   0.061821713   0.58346   0.65348   0.38911   0.07087
  49   35137.9    284.6   0.007062656   0.06617  -0.05953   0.22081   0.11777
  50   35311.2    283.2   0.061805239   0.57622  -0.33640  -0.56622  -0.37742
  51   35883.2    278.7   0.108671742   0.99701   0.88708   0.01589  -0.45809
  52   36048.1    277.4   0.041820209   0.38193   0.23297  -0.15968  -0.54969
  53   36216.0    276.1   0.002250243   0.02046   0.04874   0.13268   0.02182
  54   36282.4    275.6   0.223615939   2.02900  -0.76446  -1.08169  -0.52398
  55   36417.6    274.6   0.018490947   0.16716  -0.00996  -0.16407  -0.37435
  56   36620.8    273.1   0.158133862   1.42159  -0.13839  -1.16979   0.18446
  57   36834.6    271.5   0.027002503   0.24134   0.34863  -0.28755   0.19263
  58   36866.9    271.2   0.118432117   1.05757   0.22611  -0.95013   0.32200
  59   37010.0    270.2   0.025534554   0.22714  -0.21323  -0.41947   0.07557
  60   37632.4    265.7   0.037957086   0.33205   0.45848   0.34038   0.07741
  61   37692.0    265.3   0.039268039   0.34298   0.57833   0.03229   0.08644
  62   37797.9    264.6   0.051214796   0.44607  -0.21820  -0.61323   0.14971
  63   38004.4    263.1   0.256451747   2.22150  -0.53443   1.17997  -0.73726
  64   38108.8    262.4   0.007623883   0.06586  -0.24314  -0.06039  -0.05566
  65   38383.6    260.5   0.101170265   0.86773   0.61689   0.41815  -0.55886
  66   38846.9    257.4   0.003892174   0.03298  -0.15523  -0.09425   0.00241
  67   38884.3    257.2   0.000512473   0.00434  -0.01162   0.05123  -0.03974
  68   39437.5    253.6   0.061738768   0.51538   0.34400   0.62695  -0.06306
  69   39512.9    253.1   0.022815566   0.19009  -0.31687  -0.24884   0.16662
  70   39870.8    250.8   0.058120134   0.47990  -0.34706   0.53203  -0.27638

FINAL SINGLE POINT ENERGY     -3794.014183723604

DIPOLE MOMENT
-------------
                                X             Y             Z
Electronic contribution:     -2.29108      45.72934      -2.98636
Nuclear contribution   :      0.53523     -45.46182       1.60356
                        -----------------------------------------
Total Dipole Moment    :     -1.75585       0.26752      -1.38280
                        -----------------------------------------
Magnitude (a.u.)       :      2.25094
Magnitude (Debye)      :      5.72143

Rotational constants in cm-1:     0.001176     0.000389     0.000333
Rotational constants in MHz :    35.251929    11.675570     9.970082

                             ****ORCA TERMINATED NORMALLY****
TOTAL RUN TIME: 0 days 0 hours 16 minutes 41 seconds 837 msec
