                         Program Version 4.2.0 -  RELEASE  -
|  1> # ORCA input file
|  2> # SCF done       -173.060086349613          0.000991028009
|  3> ! CAM-B3LYP def2-SVP def2/J RIJCOSX Grid4 TightSCF
|  4> %maxcore 5000
|  5> %tddft
|  6>     Mode sTDDFT
|  7>     Ethresh 5.0
|  8>     maxcore 5000
|  9> end
| 10>
| 11> %pal
| 12>   nprocs 6
| 13>   end
| 14> * xyz 0 1
| 15>    C        2.43196        -0.17879        -7.08989
| 16>    C        1.98237        -1.44968        -7.06682
| 17>    S        0.31890        -1.58720        -6.59525
| 18>    C        0.21295         0.13229        -6.40979
| 19>    C        1.43269         0.76732        -6.71385
| 20>    C        1.53613         2.15827        -6.63135
| 21>    C        0.45099         2.93320        -6.25905
| 22>    C       -0.77210         2.29480        -5.92106
| 23>    C       -0.87654         0.89536        -6.00917
| 24>    S       -2.45064         0.33108        -5.54144
| 25>    C       -2.94218         1.95049        -5.19479
| 26>    C       -1.97865         2.86882        -5.42791
| 27>    C        0.56718         4.37176        -6.23170
| 28>    C       -0.45964         5.31893        -6.66449
| 29>    N       -0.12622         6.57319        -6.53346
| 30>    C        1.12883         6.55958        -6.00825
| 31>    C        1.61880         5.17868        -5.86546
| 32>    C        2.92975         5.18658        -5.25860
| 33>    S        3.85115         3.87295        -4.87822
| 34>    C        3.21002         6.57770        -5.01751
| 35>    C        2.08126         7.39767        -5.48731
| 36>    N        2.28103         8.71206        -5.19343
| 37>    C        3.40619         8.75135        -4.53630
| 38>    C        4.05577         7.45469        -4.36317
| 39>    C        5.28938         7.22509        -3.66626
| 40>    C        6.09068         6.15303        -4.01015
| 41>    C        7.26871         5.89936        -3.29304
| 42>    C        8.20869         4.88042        -3.42130
| 43>    C        8.18339         3.80053        -4.44695
| 44>    C        9.47954         3.81535        -5.27693
| 45>    N        9.83086         5.19224        -5.57735
| 46>    C        7.92435         2.42972        -3.80113
| 47>    N        6.77814         2.52388        -2.91479
| 48>    C        9.18869         5.08773        -2.38293
| 49>    C       10.28747         4.39378        -2.03139
| 50>    C       11.14814         4.80898        -0.89404
| 51>    C       10.68632         6.03973        -0.17316
| 52>    C        9.59288         6.73161        -0.54475
| 53>    C        8.80546         6.29269        -1.63311
| 54>    C        7.63680         6.77607        -2.19415
| 55>    C        6.81885         7.88565        -1.88749
| 56>    C        5.68541         8.10168        -2.60607
| 57>    C       12.57568         5.06767        -1.30829
| 58>    C       12.97303         5.32432        -2.55942
| 59>    C       14.32813         5.63081        -2.90795
| 60>    C       15.43225         5.92296        -1.99009
| 61>    N       16.56259         6.20578        -2.57354
| 62>    C       16.30910         6.12763        -3.91051
| 63>    C       14.90265         5.76518        -4.15097
| 64>    C       14.66211         5.65678        -5.56762
| 65>    S       13.27121         5.17771        -6.30450
| 66>    C       15.92299         5.99657        -6.17726
| 67>    C       16.91925         6.27914        -5.12763
| 68>    N       18.12251         6.59888        -5.67999
| 69>    C       17.94992         6.50004        -6.96761
| 70>    C       16.60009         6.10086        -7.37083
| 71>    C       16.13739         5.95436        -8.72097
| 72>    C       14.84996         6.23355        -9.09233
| 73>    S       14.55188         6.07943       -10.77200
| 74>    C       16.19910         5.58110       -11.03850
| 75>    C       16.94009         5.54686        -9.84549
| 76>    C       18.26753         5.08790        -9.87190
| 77>    C       18.85600         4.73125       -11.05724
| 78>    C       18.13628         4.80512       -12.25941
| 79>    C       16.79259         5.22264       -12.24071
| 80>    S       16.09088         5.20368       -13.82783
| 81>    C       17.58762         4.64922       -14.49905
| 82>    C       18.56201         4.48218       -13.58056
| 83>    H        3.43462         0.10200        -7.35707
| 84>    H        2.51862        -2.34813        -7.30230
| 85>    H        2.47038         2.63122        -6.88885
| 86>    H       -3.93524         2.11816        -4.82662
| 87>    H       -2.10706         3.91834        -5.23368
| 88>    H       -1.39648         5.04924        -7.12000
| 89>    H        3.80894         9.69572        -4.21299
| 90>    H        5.80737         5.52099        -4.83611
| 91>    H        7.34652         4.00684        -5.12228
| 92>    H        9.33902         3.18379        -6.17114
| 93>    H       10.30250         3.38578        -4.70218
| 94>    H        9.14347         5.60696        -6.19791
| 95>    H       10.73311         5.23444        -6.03900
| 96>    H        8.78414         2.13117        -3.19408
| 97>    H        7.80546         1.68446        -4.60751
| 98>    H        5.96622         2.86266        -3.42196
| 99>    H        6.54521         1.61130        -2.53901
|100>    H       10.59698         3.50055        -2.55279
|101>    H       11.16869         3.97310        -0.17523
|102>    H       11.29555         6.35996         0.65841
|103>    H        9.29648         7.61979        -0.00551
|104>    H        7.09345         8.54711        -1.07890
|105>    H        5.04158         8.93367        -2.36356
|106>    H       13.28471         5.08810        -0.49266
|107>    H       12.26405         5.30455        -3.37733
|108>    H       15.36751         5.94053        -0.91647
|109>    H       18.74723         6.76287        -7.64016
|110>    H       14.05392         6.55930        -8.45186
|111>    H       18.81624         4.99557        -8.94820
|112>    H       19.87626         4.38004       -11.07853
|113>    H       17.64042         4.48147       -15.55692
|114>    H       19.55570         4.14416       -13.81359
|115> *
|116>
|117>                          ****END OF INPUT****

CARTESIAN COORDINATES (ANGSTROEM)
---------------------------------
  C      2.431960   -0.178790   -7.089890
  C      1.982370   -1.449680   -7.066820
  S      0.318900   -1.587200   -6.595250
  C      0.212950    0.132290   -6.409790
  C      1.432690    0.767320   -6.713850
  C      1.536130    2.158270   -6.631350
  C      0.450990    2.933200   -6.259050
  C     -0.772100    2.294800   -5.921060
  C     -0.876540    0.895360   -6.009170
  S     -2.450640    0.331080   -5.541440
  C     -2.942180    1.950490   -5.194790
  C     -1.978650    2.868820   -5.427910
  C      0.567180    4.371760   -6.231700
  C     -0.459640    5.318930   -6.664490
  N     -0.126220    6.573190   -6.533460
  C      1.128830    6.559580   -6.008250
  C      1.618800    5.178680   -5.865460
  C      2.929750    5.186580   -5.258600
  S      3.851150    3.872950   -4.878220
  C      3.210020    6.577700   -5.017510
  C      2.081260    7.397670   -5.487310
  N      2.281030    8.712060   -5.193430
  C      3.406190    8.751350   -4.536300
  C      4.055770    7.454690   -4.363170
  C      5.289380    7.225090   -3.666260
  C      6.090680    6.153030   -4.010150
  C      7.268710    5.899360   -3.293040
  C      8.208690    4.880420   -3.421300
  C      8.183390    3.800530   -4.446950
  C      9.479540    3.815350   -5.276930
  N      9.830860    5.192240   -5.577350
  C      7.924350    2.429720   -3.801130
  N      6.778140    2.523880   -2.914790
  C      9.188690    5.087730   -2.382930
  C     10.287470    4.393780   -2.031390
  C     11.148140    4.808980   -0.894040
  C     10.686320    6.039730   -0.173160
  C      9.592880    6.731610   -0.544750
  C      8.805460    6.292690   -1.633110
  C      7.636800    6.776070   -2.194150
  C      6.818850    7.885650   -1.887490
  C      5.685410    8.101680   -2.606070
  C     12.575680    5.067670   -1.308290
  C     12.973030    5.324320   -2.559420
  C     14.328130    5.630810   -2.907950
  C     15.432250    5.922960   -1.990090
  N     16.562590    6.205780   -2.573540
  C     16.309100    6.127630   -3.910510
  C     14.902650    5.765180   -4.150970
  C     14.662110    5.656780   -5.567620
  S     13.271210    5.177710   -6.304500
  C     15.922990    5.996570   -6.177260
  C     16.919250    6.279140   -5.127630
  N     18.122510    6.598880   -5.679990
  C     17.949920    6.500040   -6.967610
  C     16.600090    6.100860   -7.370830
  C     16.137390    5.954360   -8.720970
  C     14.849960    6.233550   -9.092330
  S     14.551880    6.079430  -10.772000
  C     16.199100    5.581100  -11.038500
  C     16.940090    5.546860   -9.845490
  C     18.267530    5.087900   -9.871900
  C     18.856000    4.731250  -11.057240
  C     18.136280    4.805120  -12.259410
  C     16.792590    5.222640  -12.240710
  S     16.090880    5.203680  -13.827830
  C     17.587620    4.649220  -14.499050
  C     18.562010    4.482180  -13.580560
  H      3.434620    0.102000   -7.357070
  H      2.518620   -2.348130   -7.302300
  H      2.470380    2.631220   -6.888850
  H     -3.935240    2.118160   -4.826620
  H     -2.107060    3.918340   -5.233680
  H     -1.396480    5.049240   -7.120000
  H      3.808940    9.695720   -4.212990
  H      5.807370    5.520990   -4.836110
  H      7.346520    4.006840   -5.122280
  H      9.339020    3.183790   -6.171140
  H     10.302500    3.385780   -4.702180
  H      9.143470    5.606960   -6.197910
  H     10.733110    5.234440   -6.039000
  H      8.784140    2.131170   -3.194080
  H      7.805460    1.684460   -4.607510
  H      5.966220    2.862660   -3.421960
  H      6.545210    1.611300   -2.539010
  H     10.596980    3.500550   -2.552790
  H     11.168690    3.973100   -0.175230
  H     11.295550    6.359960    0.658410
  H      9.296480    7.619790   -0.005510
  H      7.093450    8.547110   -1.078900
  H      5.041580    8.933670   -2.363560
  H     13.284710    5.088100   -0.492660
  H     12.264050    5.304550   -3.377330
  H     15.367510    5.940530   -0.916470
  H     18.747230    6.762870   -7.640160
  H     14.053920    6.559300   -8.451860
  H     18.816240    4.995570   -8.948200
  H     19.876260    4.380040  -11.078530
  H     17.640420    4.481470  -15.556920
  H     19.555700    4.144160  -13.813590

 Total Charge           Charge          ....    0
 Multiplicity           Mult            ....    1
 Number of Electrons    NEL             ....  506
 Basis Dimension        Dim             .... 1136

ORBITAL ENERGIES
----------------

  NO   OCC          E(Eh)            E(eV)
   0   2.0000     -88.960927     -2420.7499
   1   2.0000     -88.954596     -2420.5776
   2   2.0000     -88.951785     -2420.5011
   3   2.0000     -88.951247     -2420.4865
   4   2.0000     -88.900975     -2419.1185
   5   2.0000     -88.889687     -2418.8114
   6   2.0000     -14.415856      -392.2754
   7   2.0000     -14.414987      -392.2517
   8   2.0000     -14.406761      -392.0279
   9   2.0000     -14.405006      -391.9801
  10   2.0000     -14.369721      -391.0200
  11   2.0000     -14.365542      -390.9063
  12   2.0000     -10.344563      -281.4899
  13   2.0000     -10.334843      -281.2254
  14   2.0000     -10.334345      -281.2118
  15   2.0000     -10.333095      -281.1778
  16   2.0000     -10.328548      -281.0541
  17   2.0000     -10.327925      -281.0371
  18   2.0000     -10.324509      -280.9442
  19   2.0000     -10.321792      -280.8702
  20   2.0000     -10.319555      -280.8094
  21   2.0000     -10.316052      -280.7140
  22   2.0000     -10.308163      -280.4994
  23   2.0000     -10.307295      -280.4758
  24   2.0000     -10.305478      -280.4263
  25   2.0000     -10.304732      -280.4060
  26   2.0000     -10.303166      -280.3634
  27   2.0000     -10.302348      -280.3411
  28   2.0000     -10.301357      -280.3142
  29   2.0000     -10.298368      -280.2328
  30   2.0000     -10.296781      -280.1897
  31   2.0000     -10.296010      -280.1687
  32   2.0000     -10.295561      -280.1565
  33   2.0000     -10.295469      -280.1540
  34   2.0000     -10.294685      -280.1326
  35   2.0000     -10.294503      -280.1277
  36   2.0000     -10.294234      -280.1203
  37   2.0000     -10.292265      -280.0668
  38   2.0000     -10.290889      -280.0293
  39   2.0000     -10.290430      -280.0168
  40   2.0000     -10.287083      -279.9258
  41   2.0000     -10.282901      -279.8120
  42   2.0000     -10.282750      -279.8078
  43   2.0000     -10.282705      -279.8066
  44   2.0000     -10.281557      -279.7754
  45   2.0000     -10.281381      -279.7706
  46   2.0000     -10.279766      -279.7267
  47   2.0000     -10.279278      -279.7134
  48   2.0000     -10.278664      -279.6967
  49   2.0000     -10.278218      -279.6845
  50   2.0000     -10.277504      -279.6651
  51   2.0000     -10.275982      -279.6237
  52   2.0000     -10.275826      -279.6194
  53   2.0000     -10.274263      -279.5769
  54   2.0000     -10.273717      -279.5620
  55   2.0000     -10.272042      -279.5165
  56   2.0000     -10.271706      -279.5073
  57   2.0000     -10.268188      -279.4116
  58   2.0000     -10.267470      -279.3921
  59   2.0000     -10.266096      -279.3547
  60   2.0000     -10.265433      -279.3366
  61   2.0000     -10.264655      -279.3155
  62   2.0000     -10.263057      -279.2720
  63   2.0000     -10.262892      -279.2675
  64   2.0000     -10.261997      -279.2431
  65   2.0000     -10.254817      -279.0478
  66   2.0000     -10.252871      -278.9948
  67   2.0000     -10.252011      -278.9714
  68   2.0000      -8.056980      -219.2416
  69   2.0000      -8.050607      -219.0682
  70   2.0000      -8.047701      -218.9891
  71   2.0000      -8.047248      -218.9767
  72   2.0000      -7.996363      -217.5921
  73   2.0000      -7.985140      -217.2867
  74   2.0000      -6.026431      -163.9875
  75   2.0000      -6.022105      -163.8698
  76   2.0000      -6.020224      -163.8186
  77   2.0000      -6.018844      -163.7811
  78   2.0000      -6.017288      -163.7387
  79   2.0000      -6.016812      -163.7258
  80   2.0000      -6.015889      -163.7007
  81   2.0000      -6.012965      -163.6211
  82   2.0000      -6.012521      -163.6090
  83   2.0000      -6.012203      -163.6004
  84   2.0000      -6.009381      -163.5236
  85   2.0000      -6.008902      -163.5105
  86   2.0000      -5.965258      -162.3229
  87   2.0000      -5.964582      -162.3045
  88   2.0000      -5.955979      -162.0704
  89   2.0000      -5.954133      -162.0202
  90   2.0000      -5.953257      -161.9964
  91   2.0000      -5.944707      -161.7637
  92   2.0000      -1.082843       -29.4657
  93   2.0000      -1.073149       -29.2019
  94   2.0000      -1.063947       -28.9515
  95   2.0000      -1.054219       -28.6868
  96   2.0000      -1.006042       -27.3758
  97   2.0000      -1.000083       -27.2137
  98   2.0000      -0.978917       -26.6377
  99   2.0000      -0.974334       -26.5130
 100   2.0000      -0.966393       -26.2969
 101   2.0000      -0.961829       -26.1727
 102   2.0000      -0.957657       -26.0592
 103   2.0000      -0.951926       -25.9032
 104   2.0000      -0.944647       -25.7052
 105   2.0000      -0.943596       -25.6766
 106   2.0000      -0.919897       -25.0317
 107   2.0000      -0.917649       -24.9705
 108   2.0000      -0.911744       -24.8098
 109   2.0000      -0.896406       -24.3924
 110   2.0000      -0.895767       -24.3751
 111   2.0000      -0.868970       -23.6459
 112   2.0000      -0.868624       -23.6365
 113   2.0000      -0.860751       -23.4222
 114   2.0000      -0.853135       -23.2150
 115   2.0000      -0.849252       -23.1093
 116   2.0000      -0.848303       -23.0835
 117   2.0000      -0.841644       -22.9023
 118   2.0000      -0.834574       -22.7099
 119   2.0000      -0.831316       -22.6213
 120   2.0000      -0.830356       -22.5951
 121   2.0000      -0.826774       -22.4977
 122   2.0000      -0.820588       -22.3293
 123   2.0000      -0.799082       -21.7441
 124   2.0000      -0.794146       -21.6098
 125   2.0000      -0.791446       -21.5363
 126   2.0000      -0.790409       -21.5081
 127   2.0000      -0.786392       -21.3988
 128   2.0000      -0.772181       -21.0121
 129   2.0000      -0.766682       -20.8625
 130   2.0000      -0.753043       -20.4913
 131   2.0000      -0.741527       -20.1780
 132   2.0000      -0.732654       -19.9365
 133   2.0000      -0.720163       -19.5966
 134   2.0000      -0.709634       -19.3101
 135   2.0000      -0.706178       -19.2161
 136   2.0000      -0.699097       -19.0234
 137   2.0000      -0.693295       -18.8655
 138   2.0000      -0.690329       -18.7848
 139   2.0000      -0.688513       -18.7354
 140   2.0000      -0.685528       -18.6542
 141   2.0000      -0.683497       -18.5989
 142   2.0000      -0.674672       -18.3588
 143   2.0000      -0.670845       -18.2546
 144   2.0000      -0.666793       -18.1444
 145   2.0000      -0.660812       -17.9816
 146   2.0000      -0.654781       -17.8175
 147   2.0000      -0.650325       -17.6962
 148   2.0000      -0.637628       -17.3507
 149   2.0000      -0.634313       -17.2605
 150   2.0000      -0.628929       -17.1140
 151   2.0000      -0.623561       -16.9680
 152   2.0000      -0.611841       -16.6490
 153   2.0000      -0.611041       -16.6273
 154   2.0000      -0.609207       -16.5774
 155   2.0000      -0.602859       -16.4046
 156   2.0000      -0.590879       -16.0786
 157   2.0000      -0.585270       -15.9260
 158   2.0000      -0.583199       -15.8697
 159   2.0000      -0.573767       -15.6130
 160   2.0000      -0.570745       -15.5308
 161   2.0000      -0.569495       -15.4967
 162   2.0000      -0.565386       -15.3849
 163   2.0000      -0.559735       -15.2312
 164   2.0000      -0.551052       -14.9949
 165   2.0000      -0.550047       -14.9675
 166   2.0000      -0.549196       -14.9444
 167   2.0000      -0.548313       -14.9204
 168   2.0000      -0.545182       -14.8352
 169   2.0000      -0.543459       -14.7883
 170   2.0000      -0.542091       -14.7510
 171   2.0000      -0.538947       -14.6655
 172   2.0000      -0.535695       -14.5770
 173   2.0000      -0.530014       -14.4224
 174   2.0000      -0.526820       -14.3355
 175   2.0000      -0.523090       -14.2340
 176   2.0000      -0.520008       -14.1501
 177   2.0000      -0.517428       -14.0799
 178   2.0000      -0.514134       -13.9903
 179   2.0000      -0.510356       -13.8875
 180   2.0000      -0.510080       -13.8800
 181   2.0000      -0.509287       -13.8584
 182   2.0000      -0.507597       -13.8124
 183   2.0000      -0.503189       -13.6925
 184   2.0000      -0.502425       -13.6717
 185   2.0000      -0.498480       -13.5643
 186   2.0000      -0.492141       -13.3918
 187   2.0000      -0.490654       -13.3514
 188   2.0000      -0.488710       -13.2985
 189   2.0000      -0.488414       -13.2904
 190   2.0000      -0.487144       -13.2559
 191   2.0000      -0.483950       -13.1689
 192   2.0000      -0.481709       -13.1080
 193   2.0000      -0.480728       -13.0813
 194   2.0000      -0.478397       -13.0178
 195   2.0000      -0.476688       -12.9713
 196   2.0000      -0.474119       -12.9014
 197   2.0000      -0.469005       -12.7623
 198   2.0000      -0.466170       -12.6851
 199   2.0000      -0.464402       -12.6370
 200   2.0000      -0.460560       -12.5325
 201   2.0000      -0.458171       -12.4675
 202   2.0000      -0.451849       -12.2954
 203   2.0000      -0.450319       -12.2538
 204   2.0000      -0.449324       -12.2267
 205   2.0000      -0.447867       -12.1871
 206   2.0000      -0.445431       -12.1208
 207   2.0000      -0.443631       -12.0718
 208   2.0000      -0.438660       -11.9366
 209   2.0000      -0.435498       -11.8505
 210   2.0000      -0.434221       -11.8158
 211   2.0000      -0.433878       -11.8064
 212   2.0000      -0.431518       -11.7422
 213   2.0000      -0.428124       -11.6498
 214   2.0000      -0.425616       -11.5816
 215   2.0000      -0.424179       -11.5425
 216   2.0000      -0.419334       -11.4107
 217   2.0000      -0.415779       -11.3139
 218   2.0000      -0.407786       -11.0964
 219   2.0000      -0.405806       -11.0426
 220   2.0000      -0.405572       -11.0362
 221   2.0000      -0.403656       -10.9840
 222   2.0000      -0.400550       -10.8995
 223   2.0000      -0.398813       -10.8523
 224   2.0000      -0.391750       -10.6601
 225   2.0000      -0.390382       -10.6228
 226   2.0000      -0.378889       -10.3101
 227   2.0000      -0.375587       -10.2203
 228   2.0000      -0.358471        -9.7545
 229   2.0000      -0.354582        -9.6487
 230   2.0000      -0.353811        -9.6277
 231   2.0000      -0.352259        -9.5854
 232   2.0000      -0.347560        -9.4576
 233   2.0000      -0.345940        -9.4135
 234   2.0000      -0.342703        -9.3254
 235   2.0000      -0.339790        -9.2462
 236   2.0000      -0.334844        -9.1116
 237   2.0000      -0.322295        -8.7701
 238   2.0000      -0.321074        -8.7369
 239   2.0000      -0.319961        -8.7066
 240   2.0000      -0.313414        -8.5284
 241   2.0000      -0.304870        -8.2959
 242   2.0000      -0.298786        -8.1304
 243   2.0000      -0.292589        -7.9617
 244   2.0000      -0.290702        -7.9104
 245   2.0000      -0.287661        -7.8276
 246   2.0000      -0.282789        -7.6951
 247   2.0000      -0.280425        -7.6308
 248   2.0000      -0.278025        -7.5655
 249   2.0000      -0.269716        -7.3393
 250   2.0000      -0.267414        -7.2767
 251   2.0000      -0.262156        -7.1336
 252   2.0000      -0.211155        -5.7458
 253   0.0000      -0.109066        -2.9678
 254   0.0000      -0.102046        -2.7768
 255   0.0000      -0.079636        -2.1670
 256   0.0000      -0.072991        -1.9862
 257   0.0000      -0.053925        -1.4674

MULLIKEN ATOMIC CHARGES
-----------------------
   0 C :    0.036144
   1 C :   -0.062315
   2 S :    0.119905
   3 C :   -0.119139
   4 C :    0.085237
   5 C :   -0.030592
   6 C :    0.070399
   7 C :    0.058560
   8 C :   -0.135983
   9 S :    0.122701
  10 C :   -0.052068
  11 C :   -0.003948
  12 C :   -0.038003
  13 C :    0.031058
  14 N :   -0.028743
  15 C :    0.001598
  16 C :   -0.017793
  17 C :    0.013527
  18 S :   -0.182605
  19 C :   -0.022787
  20 C :    0.002415
  21 N :   -0.026480
  22 C :    0.047835
  23 C :    0.011993
  24 C :    0.060627
  25 C :   -0.049218
  26 C :    0.016419
  27 C :    0.098819
  28 C :   -0.106856
  29 C :    0.145019
  30 N :   -0.207839
  31 C :    0.161416
  32 N :   -0.214471
  33 C :    0.123516
  34 C :   -0.158895
  35 C :    0.176034
  36 C :   -0.046837
  37 C :    0.020636
  38 C :    0.009100
  39 C :    0.051649
  40 C :   -0.010038
  41 C :   -0.021464
  42 C :   -0.096598
  43 C :    0.010646
  44 C :    0.010675
  45 C :    0.050913
  46 N :   -0.027078
  47 C :    0.008543
  48 C :    0.001260
  49 C :    0.013789
  50 S :   -0.170849
  51 C :   -0.024366
  52 C :    0.004181
  53 N :   -0.025272
  54 C :    0.037876
  55 C :   -0.003207
  56 C :    0.064373
  57 C :   -0.080678
  58 S :    0.145771
  59 C :   -0.138255
  60 C :    0.107038
  61 C :   -0.053738
  62 C :   -0.008715
  63 C :    0.080567
  64 C :   -0.116790
  65 S :    0.119192
  66 C :   -0.060240
  67 C :    0.033257
  68 H :   -0.015561
  69 H :    0.027602
  70 H :   -0.036135
  71 H :    0.027550
  72 H :   -0.009103
  73 H :    0.012074
  74 H :    0.008633
  75 H :   -0.035897
  76 H :   -0.016941
  77 H :   -0.010478
  78 H :   -0.018574
  79 H :    0.088874
  80 H :    0.091936
  81 H :   -0.023909
  82 H :   -0.014869
  83 H :    0.092695
  84 H :    0.087270
  85 H :   -0.003898
  86 H :    0.036075
  87 H :   -0.018644
  88 H :   -0.038382
  89 H :   -0.039085
  90 H :   -0.033323
  91 H :    0.003116
  92 H :    0.022378
  93 H :    0.008679
  94 H :    0.015446
  95 H :    0.022168
  96 H :   -0.027036
  97 H :   -0.027045
  98 H :    0.030445
  99 H :   -0.016890
Sum of atomic charges:   -0.0000000

LOEWDIN ATOMIC CHARGES
----------------------
   0 C :   -0.051786
   1 C :   -0.165956
   2 S :    0.406420
   3 C :   -0.173294
   4 C :   -0.051735
   5 C :    0.008696
   6 C :   -0.035958
   7 C :   -0.042151
   8 C :   -0.178988
   9 S :    0.410308
  10 C :   -0.162774
  11 C :   -0.065510
  12 C :   -0.022331
  13 C :    0.072799
  14 N :   -0.082181
  15 C :    0.026736
  16 C :   -0.043087
  17 C :   -0.126761
  18 S :    0.044803
  19 C :   -0.058704
  20 C :    0.039643
  21 N :   -0.079831
  22 C :    0.084230
  23 C :   -0.017063
  24 C :   -0.048922
  25 C :    0.031772
  26 C :   -0.028773
  27 C :    0.029914
  28 C :   -0.044739
  29 C :    0.027891
  30 N :   -0.115156
  31 C :    0.028021
  32 N :   -0.118269
  33 C :    0.000138
  34 C :    0.068971
  35 C :   -0.031363
  36 C :   -0.039804
  37 C :   -0.012504
  38 C :   -0.040057
  39 C :   -0.022193
  40 C :   -0.011275
  41 C :   -0.029491
  42 C :    0.020252
  43 C :   -0.030882
  44 C :   -0.026050
  45 C :    0.086728
  46 N :   -0.078146
  47 C :    0.036643
  48 C :   -0.044676
  49 C :   -0.129558
  50 S :    0.051289
  51 C :   -0.044853
  52 C :    0.035478
  53 N :   -0.078854
  54 C :    0.080330
  55 C :   -0.020344
  56 C :   -0.073723
  57 C :   -0.136391
  58 S :    0.434596
  59 C :   -0.176015
  60 C :   -0.041623
  61 C :   -0.032127
  62 C :   -0.017239
  63 C :   -0.049762
  64 C :   -0.176925
  65 S :    0.405447
  66 C :   -0.163994
  67 C :   -0.056798
  68 H :    0.032592
  69 H :    0.024703
  70 H :    0.022223
  71 H :    0.025827
  72 H :    0.032053
  73 H :    0.025162
  74 H :    0.024720
  75 H :    0.012515
  76 H :    0.023742
  77 H :    0.000785
  78 H :    0.010460
  79 H :    0.053775
  80 H :    0.030067
  81 H :    0.009200
  82 H :   -0.002030
  83 H :    0.039412
  84 H :    0.053797
  85 H :    0.027192
  86 H :    0.058941
  87 H :    0.021097
  88 H :    0.029588
  89 H :    0.026523
  90 H :    0.023262
  91 H :    0.023879
  92 H :    0.036622
  93 H :    0.023705
  94 H :    0.026556
  95 H :    0.014899
  96 H :    0.027996
  97 H :    0.030640
  98 H :    0.025785
  99 H :    0.031825

  Mayer bond orders larger than 0.100000
B(  0-C ,  1-C ) :   1.6437 B(  0-C ,  4-C ) :   1.1624 B(  0-C , 68-H ) :   0.9983
B(  1-C ,  2-S ) :   1.1071 B(  1-C , 69-H ) :   0.9691 B(  2-S ,  3-C ) :   1.0879
B(  3-C ,  4-C ) :   1.3542 B(  3-C ,  8-C ) :   1.3846 B(  4-C ,  5-C ) :   1.2523
B(  5-C ,  6-C ) :   1.4530 B(  5-C , 70-H ) :   0.9850 B(  6-C ,  7-C ) :   1.2247
B(  6-C , 12-C ) :   0.9724 B(  7-C ,  8-C ) :   1.3832 B(  7-C , 11-C ) :   1.1923
B(  8-C ,  9-S ) :   1.0770 B(  9-S , 10-C ) :   1.1252 B( 10-C , 11-C ) :   1.6305
B( 10-C , 71-H ) :   0.9660 B( 11-C , 72-H ) :   0.9881 B( 12-C , 13-C ) :   1.0438
B( 12-C , 16-C ) :   1.5771 B( 13-C , 14-N ) :   1.7131 B( 13-C , 73-H ) :   0.9915
B( 14-N , 15-C ) :   1.2772 B( 15-C , 16-C ) :   1.0601 B( 15-C , 20-C ) :   1.5054
B( 16-C , 17-C ) :   1.0386 B( 17-C , 18-S ) :   1.6463 B( 17-C , 19-C ) :   1.0523
B( 19-C , 20-C ) :   1.0616 B( 19-C , 23-C ) :   1.5068 B( 20-C , 21-N ) :   1.2754
B( 21-N , 22-C ) :   1.7128 B( 22-C , 23-C ) :   1.0414 B( 22-C , 74-H ) :   0.9891
B( 23-C , 24-C ) :   1.0323 B( 24-C , 25-C ) :   1.4983 B( 24-C , 41-C ) :   1.1160
B( 25-C , 26-C ) :   1.1588 B( 25-C , 75-H ) :   0.9780 B( 26-C , 27-C ) :   1.4821
B( 26-C , 39-C ) :   1.1198 B( 27-C , 28-C ) :   1.0184 B( 27-C , 33-C ) :   1.0810
B( 28-C , 29-C ) :   1.0379 B( 28-C , 31-C ) :   1.0534 B( 28-C , 76-H ) :   0.8847
B( 29-C , 30-N ) :   1.1088 B( 29-C , 77-H ) :   0.9408 B( 29-C , 78-H ) :   0.9290
B( 30-N , 79-H ) :   0.9663 B( 30-N , 80-H ) :   0.9514 B( 31-C , 32-N ) :   1.1020
B( 31-C , 81-H ) :   0.9268 B( 31-C , 82-H ) :   0.9388 B( 32-N , 83-H ) :   0.9607
B( 32-N , 84-H ) :   0.9664 B( 33-C , 34-C ) :   1.6568 B( 33-C , 38-C ) :   1.0700
B( 34-C , 35-C ) :   0.9797 B( 34-C , 85-H ) :   0.9725 B( 35-C , 36-C ) :   0.9795
B( 35-C , 42-C ) :   0.9540 B( 35-C , 86-H ) :   0.8536 B( 36-C , 37-C ) :   1.7370
B( 36-C , 87-H ) :   0.9646 B( 37-C , 38-C ) :   1.1285 B( 37-C , 88-H ) :   0.9874
B( 38-C , 39-C ) :   1.4424 B( 39-C , 40-C ) :   1.1351 B( 40-C , 41-C ) :   1.6107
B( 40-C , 89-H ) :   0.9917 B( 41-C , 90-H ) :   0.9843 B( 42-C , 43-C ) :   1.8059
B( 42-C , 91-H ) :   0.9674 B( 43-C , 44-C ) :   1.0718 B( 43-C , 92-H ) :   0.9559
B( 44-C , 45-C ) :   1.0166 B( 44-C , 48-C ) :   1.5305 B( 45-C , 46-N ) :   1.7257
B( 45-C , 93-H ) :   0.9897 B( 46-N , 47-C ) :   1.2641 B( 47-C , 48-C ) :   1.0619
B( 47-C , 52-C ) :   1.5210 B( 48-C , 49-C ) :   1.0260 B( 49-C , 50-S ) :   1.6611
B( 49-C , 51-C ) :   1.0490 B( 51-C , 52-C ) :   1.0585 B( 51-C , 55-C ) :   1.5590
B( 52-C , 53-N ) :   1.2698 B( 53-N , 54-C ) :   1.7140 B( 54-C , 55-C ) :   1.0339
B( 54-C , 94-H ) :   0.9897 B( 55-C , 56-C ) :   1.0098 B( 56-C , 57-C ) :   1.5877
B( 56-C , 60-C ) :   1.1471 B( 57-C , 58-S ) :   1.1437 B( 57-C , 95-H ) :   0.9434
B( 58-S , 59-C ) :   1.0755 B( 59-C , 60-C ) :   1.3830 B( 59-C , 64-C ) :   1.3837
B( 60-C , 61-C ) :   1.2544 B( 61-C , 62-C ) :   1.4749 B( 61-C , 96-H ) :   0.9885
B( 62-C , 63-C ) :   1.2602 B( 62-C , 97-H ) :   0.9929 B( 63-C , 64-C ) :   1.3727
B( 63-C , 67-C ) :   1.1703 B( 64-C , 65-S ) :   1.0803 B( 65-S , 66-C ) :   1.1142
B( 66-C , 67-C ) :   1.6400 B( 66-C , 98-H ) :   0.9692 B( 67-C , 99-H ) :   0.9982

-----------------------------------------------------------------------------
         ABSORPTION SPECTRUM VIA TRANSITION ELECTRIC DIPOLE MOMENTS
-----------------------------------------------------------------------------
State   Energy  Wavelength   fosc         T2         TX        TY        TZ
        (cm-1)    (nm)                  (au**2)     (au)      (au)      (au)
-----------------------------------------------------------------------------
   0    8674.9   1152.8   0.091475611   3.47150  -1.81554   0.02315  -0.41804
   1    9766.2   1023.9   0.024561004   0.82793   0.80773   0.02970  -0.41788
   2   12817.7    780.2   0.006183471   0.15882  -0.08428   0.26710   0.28350
   3   14863.5    672.8   0.038935324   0.86238  -0.92387  -0.09282   0.01518
   4   15517.7    644.4   0.009526009   0.20210   0.24145  -0.32093   0.20199
   5   16048.4    623.1   0.152786067   3.13421   1.59700   0.71705   0.26387
   6   16225.2    616.3   0.152989367   3.10418  -0.77635  -0.43950  -1.51930
   7   17870.8    559.6   0.095391873   1.75729   0.89504   0.96078   0.18195
   8   18005.7    555.4   0.046442178   0.84914   0.26066  -0.12204  -0.87539
   9   18426.0    542.7   0.021444024   0.38313  -0.54991   0.01140  -0.28390
  10   18749.1    533.4   0.018034277   0.31666  -0.08096   0.02235   0.55642
  11   19736.9    506.7   0.010709429   0.17863  -0.38260  -0.06219   0.16848
  12   20447.7    489.1   0.017803206   0.28664  -0.42033   0.26727  -0.19629
  13   21942.3    455.7   0.009288044   0.13935   0.36476  -0.02913  -0.07384
  14   22705.9    440.4   0.002486812   0.03606   0.06773  -0.05145  -0.16977
  15   23354.1    428.2   0.218950558   3.08645  -0.72440  -0.12260   1.59583
  16   23827.4    419.7   0.295450804   4.08210  -1.42066  -1.28655  -0.63923
  17   24286.0    411.8   0.025250080   0.34228   0.06274  -0.58115   0.02469
  18   24340.6    410.8   0.012876607   0.17416   0.25464  -0.29790   0.14344
  19   24507.7    408.0   0.033242996   0.44655  -0.24241   0.04072   0.62140
  20   25005.4    399.9   0.001131848   0.01490   0.11446   0.01234  -0.04059
  21   25719.7    388.8   0.005283443   0.06763   0.18273   0.17174  -0.06887
  22   25814.5    387.4   0.066400331   0.84680  -0.79227  -0.26362  -0.38681
  23   26161.2    382.2   0.001152709   0.01451  -0.01630   0.06836  -0.09781
  24   26394.4    378.9   0.009190100   0.11463   0.23991   0.02738  -0.23732
  25   26720.5    374.2   0.229591261   2.82869  -1.65576  -0.00235  -0.29520
  26   26828.0    372.7   0.010498133   0.12882  -0.14944  -0.11564   0.30516
  27   27055.1    369.6   0.026446600   0.32181  -0.27587   0.45202   0.20342
  28   27154.9    368.3   0.025957074   0.31469   0.35468   0.41843   0.11750
  29   27490.5    363.8   0.067122476   0.80382   0.35870   0.06909  -0.81877
  30   27888.4    358.6   0.004058725   0.04791   0.12675  -0.12994  -0.12232
  31   28056.5    356.4   0.000983395   0.01154   0.09669  -0.03797  -0.02735
  32   28066.7    356.3   0.000525242   0.00616  -0.02006  -0.03625  -0.06667
  33   28205.2    354.5   0.003439644   0.04015  -0.05991  -0.01690   0.19045
  34   28596.2    349.7   0.003144124   0.03620  -0.13952  -0.12247  -0.04162
  35   29044.8    344.3   0.001005834   0.01140   0.00528   0.04718   0.09564
  36   29128.8    343.3   0.001628337   0.01840  -0.07763   0.01605   0.11009
  37   29650.2    337.3   0.149089110   1.65536   1.28335   0.06745  -0.06197
  38   29717.5    336.5   0.076131868   0.84339   0.86301   0.14531   0.27838
  39   30104.1    332.2   0.011097633   0.12136  -0.11589  -0.02350   0.32769
  40   30316.9    329.8   0.058575743   0.63608   0.77306   0.04938  -0.18978
  41   30616.6    326.6   0.033184071   0.35682   0.48716   0.34504  -0.02098
  42   30765.8    325.0   0.685554765   7.33583   1.15081  -0.02189  -2.45173
  43   31194.7    320.6   0.031127725   0.32850  -0.32662  -0.26598  -0.38869
  44   31233.3    320.2   0.006335056   0.06677  -0.08693   0.17644   0.16759
  45   31487.3    317.6   0.006777248   0.07086  -0.07263  -0.03674  -0.25344
  46   31745.5    315.0   0.012465467   0.12927   0.01675   0.04963  -0.35571
  47   32256.2    310.0   0.036190103   0.36936   0.41193   0.26120   0.36256
  48   32463.2    308.0   0.052932029   0.53679  -0.55088  -0.38111  -0.29677
  49   32590.7    306.8   0.044839061   0.45294   0.49831   0.35214   0.28393
  50   33001.9    303.0   0.089480586   0.89262  -0.57040  -0.15771  -0.73647
  51   33352.3    299.8   0.006908042   0.06819   0.21733   0.14078  -0.03367
  52   33477.8    298.7   0.022856752   0.22477  -0.30773   0.05731   0.35607
  53   33600.7    297.6   0.018979655   0.18596  -0.11859  -0.09787   0.40289
  54   34095.2    293.3   0.024580578   0.23734   0.04481   0.39988  -0.27464
  55   34162.8    292.7   0.051734099   0.49854  -0.40252   0.09682   0.57197
  56   34207.8    292.3   0.015579943   0.14994  -0.31817  -0.19376  -0.10565
  57   34324.4    291.3   0.024741854   0.23730  -0.28322   0.39559  -0.02445
  58   34514.7    289.7   0.016278627   0.15527  -0.34141   0.18792  -0.05830
  59   34590.2    289.1   0.048421160   0.46085   0.45140  -0.45355   0.22665
  60   34756.2    287.7   0.002653212   0.02513   0.14472   0.03614  -0.05369
  61   34895.1    286.6   0.017810370   0.16803  -0.29970  -0.24671  -0.13169
  62   35360.7    282.8   0.008389435   0.07811  -0.21203  -0.16846  -0.06908
  63   35530.8    281.4   0.007218451   0.06688   0.17632  -0.17425   0.07370
  64   35622.9    280.7   0.039008908   0.36050  -0.42057   0.35670  -0.23746
  65   35725.5    279.9   0.001766457   0.01628   0.06201  -0.07646  -0.08116
  66   35739.0    279.8   0.012774418   0.11767   0.26656  -0.18085   0.11795
  67   35993.0    277.8   0.178648846   1.63402   0.96919  -0.76676  -0.32676
  68   36059.4    277.3   0.003692552   0.03371  -0.18103   0.01386  -0.02735
  69   36163.9    276.5   0.162743473   1.48151  -0.37892  -0.01232  -1.15662
  70   36317.6    275.3   0.214870634   1.94776   0.75947   1.17085  -0.00912
  71   36468.7    274.2   0.033101400   0.29881   0.12288   0.18356  -0.50002
  72   36624.5    273.0   0.002761562   0.02482  -0.11253  -0.11026   0.00163
  73   36844.4    271.4   0.035690912   0.31891  -0.17938  -0.33834  -0.41503
  74   36926.1    270.8   0.038727854   0.34528  -0.49587  -0.15639  -0.27374
  75   37134.9    269.3   0.256631666   2.27512   1.27737   0.57616   0.55811
  76   37391.9    267.4   0.028585667   0.25168  -0.37162  -0.33632  -0.02149
  77   37511.5    266.6   0.197353837   1.73203   1.06035   0.13763   0.76730
  78   37802.5    264.5   0.144127826   1.25517   0.75633   0.59807   0.57049
  79   37805.1    264.5   0.135260272   1.17786   0.70509   0.63889   0.52205
  80   38165.4    262.0   0.009913080   0.08551   0.05170   0.27365   0.08919
  81   38549.0    259.4   0.116855433   0.99795   0.97956  -0.07275   0.18199
  82   38696.5    258.4   0.029425900   0.25034  -0.07568  -0.49432   0.01624
  83   38882.3    257.2   0.060065320   0.50857  -0.43355   0.56319  -0.05844
  84   39112.7    255.7   0.004454396   0.03749   0.11977  -0.11954   0.09411
  85   39269.1    254.7   0.005098479   0.04274   0.15105  -0.14036   0.01500
  86   39390.6    253.9   0.050923795   0.42560   0.40986  -0.47252   0.18532
  87   39471.8    253.3   0.249360626   2.07978   0.94994  -0.82473   0.70513
  88   39613.0    252.4   0.080392791   0.66812  -0.64829  -0.22842  -0.44234
  89   39958.2    250.3   0.095794977   0.78925   0.27857   0.05589   0.84174
  90   40100.2    249.4   0.000434136   0.00356   0.01476   0.00871   0.05719
  91   40227.1    248.6   0.017270286   0.14134   0.17005  -0.21635  -0.25615

FINAL SINGLE POINT ENERGY     -4866.778955740973

DIPOLE MOMENT
-------------
                                X             Y             Z
Electronic contribution:    -13.67194       3.95323     -25.49552
Nuclear contribution   :     15.00609      -5.49959      24.99679
                        -----------------------------------------
Total Dipole Moment    :      1.33416      -1.54636      -0.49873
                        -----------------------------------------
Magnitude (a.u.)       :      2.10236
Magnitude (Debye)      :      5.34378

Rotational constants in cm-1:     0.001234     0.000327     0.000290
Rotational constants in MHz :    36.996897     9.806819     8.691469

                             ****ORCA TERMINATED NORMALLY****
TOTAL RUN TIME: 0 days 0 hours 10 minutes 17 seconds 715 msec
