                         Program Version 4.2.0 -  RELEASE  -
|  1> # ORCA input file
|  2> # SCF done       -147.585927803079          0.000216706282
|  3> ! CAM-B3LYP def2-SVP def2/J RIJCOSX Grid4 TightSCF
|  4> %maxcore 5000
|  5> %tddft
|  6>     Mode sTDDFT
|  7>     Ethresh 5.0
|  8>     maxcore 5000
|  9> end
| 10>
| 11> %pal
| 12>   nprocs 6
| 13>   end
| 14> * xyz 0 1
| 15>    C        2.26983        -5.53834        -5.02413
| 16>    C        1.21310        -6.28264        -5.42077
| 17>    O        0.21575        -5.86927        -6.22818
| 18>    C       -0.80903        -6.79362        -6.50072
| 19>    S        1.27384        -7.90273        -4.75726
| 20>    C        2.76092        -7.52612        -3.93455
| 21>    O        3.41323        -8.42417        -3.16935
| 22>    C        2.82917        -9.69614        -3.04278
| 23>    C        3.17758        -6.23322        -4.16481
| 24>    C        4.37369        -5.70527        -3.58261
| 25>    C        4.86278        -4.46158        -3.79413
| 26>    C        6.04031        -3.94613        -3.20601
| 27>    C        6.61336        -2.68064        -3.40362
| 28>    C        7.80811        -2.48182        -2.64677
| 29>    C        8.49394        -1.25614        -2.74532
| 30>    C        8.00954        -0.27361        -3.56134
| 31>    C        6.83153        -0.46880        -4.30727
| 32>    C        6.14222        -1.64526        -4.23572
| 33>    C        8.15280        -3.59467        -1.86064
| 34>    S        6.98989        -4.86924        -2.08309
| 35>    C        9.25139        -3.72691        -0.99078
| 36>    C        9.50943        -4.82178        -0.22474
| 37>    C       10.60129        -4.95996         0.66226
| 38>    N       10.74846        -6.10380         1.42604
| 39>    C       11.86174        -5.97667         2.19515
| 40>    C       12.64358        -6.60822         3.15583
| 41>    C       13.69625        -5.72844         3.44241
| 42>    N       13.55549        -4.58970         2.66989
| 43>    C       12.44050        -4.71572         1.90328
| 44>    C       11.65481        -4.08078         0.94823
| 45>    C       14.77990        -5.85760         4.34104
| 46>    C       14.99529        -6.91291         5.17226
| 47>    C       16.08650        -7.02685         6.05547
| 48>    C       16.36543        -8.06996         6.95520
| 49>    C       17.56631        -7.86785         7.70820
| 50>    C       17.98787        -8.88336         8.59270
| 51>    C       17.22649       -10.00506         8.75709
| 52>    C       16.02239       -10.17734         8.04989
| 53>    C       15.60153        -9.23558         7.15539
| 54>    C       18.20153        -6.65387         7.40327
| 55>    S       17.32427        -5.81552         6.15765
| 56>    C       19.36549        -6.00996         7.89948
| 57>    C       20.03409        -6.29011         9.04011
| 58>    C       21.23739        -5.63813         9.47526
| 59>    C       22.08888        -4.92625         8.66323
| 60>    O       21.87874        -4.61762         7.36728
| 61>    C       22.98038        -4.13338         6.63857
| 62>    S       23.54645        -4.43402         9.48618
| 63>    C       23.00249        -5.21197        10.94750
| 64>    O       23.72440        -5.19376        12.08756
| 65>    C       24.98987        -4.58417        12.02893
| 66>    C       21.76698        -5.77810        10.81058
| 67>    C       21.11861        -6.41555        11.94559
| 68>    C       19.81414        -6.43107        12.18914
| 69>    H        2.39580        -4.51853        -5.33157
| 70>    H       -1.51293        -6.28162        -7.15349
| 71>    H       -1.31638        -7.10480        -5.58114
| 72>    H       -0.41565        -7.68256        -7.00573
| 73>    H        3.49426       -10.27420        -2.40448
| 74>    H        2.73374       -10.18572        -4.01819
| 75>    H        1.83711        -9.63149        -2.58266
| 76>    H        4.90715        -6.38106        -2.92780
| 77>    H        4.33954        -3.78835        -4.45763
| 78>    H        9.39778        -1.10029        -2.17608
| 79>    H        8.53056         0.66917        -3.64144
| 80>    H        6.47517         0.32894        -4.94240
| 81>    H        5.24019        -1.78775        -4.81126
| 82>    H        9.92094        -2.88104        -0.93743
| 83>    H        8.82620        -5.66089        -0.28258
| 84>    H       10.11511        -6.88390         1.40386
| 85>    H       12.49331        -7.57166         3.59904
| 86>    H       14.18373        -3.80568         2.69828
| 87>    H       11.80521        -3.11703         0.50583
| 88>    H       15.48839        -5.03766         4.36034
| 89>    H       14.29169        -7.73219         5.17248
| 90>    H       18.92238        -8.78670         9.11975
| 91>    H       17.55205       -10.78070         9.43480
| 92>    H       15.44067       -11.07322         8.20979
| 93>    H       14.68994        -9.37952         6.59552
| 94>    H       19.70477        -5.17595         7.30093
| 95>    H       19.67358        -7.05179         9.71185
| 96>    H       22.62508        -3.97502         5.62236
| 97>    H       23.80343        -4.85536         6.63572
| 98>    H       23.34099        -3.18659         7.05596
| 99>    H       25.41863        -4.67875        13.02446
|100>    H       24.90498        -3.52514        11.76189
|101>    H       25.63667        -5.08173        11.29816
|102>    H       21.80678        -6.85557        12.65641
|103>    H       19.09975        -5.94778        11.54501
|104>    H       19.41785        -6.91694        13.06446
|105> *
|106>
|107>                          ****END OF INPUT****

CARTESIAN COORDINATES (ANGSTROEM)
---------------------------------
  C      2.269830   -5.538340   -5.024130
  C      1.213100   -6.282640   -5.420770
  O      0.215750   -5.869270   -6.228180
  C     -0.809030   -6.793620   -6.500720
  S      1.273840   -7.902730   -4.757260
  C      2.760920   -7.526120   -3.934550
  O      3.413230   -8.424170   -3.169350
  C      2.829170   -9.696140   -3.042780
  C      3.177580   -6.233220   -4.164810
  C      4.373690   -5.705270   -3.582610
  C      4.862780   -4.461580   -3.794130
  C      6.040310   -3.946130   -3.206010
  C      6.613360   -2.680640   -3.403620
  C      7.808110   -2.481820   -2.646770
  C      8.493940   -1.256140   -2.745320
  C      8.009540   -0.273610   -3.561340
  C      6.831530   -0.468800   -4.307270
  C      6.142220   -1.645260   -4.235720
  C      8.152800   -3.594670   -1.860640
  S      6.989890   -4.869240   -2.083090
  C      9.251390   -3.726910   -0.990780
  C      9.509430   -4.821780   -0.224740
  C     10.601290   -4.959960    0.662260
  N     10.748460   -6.103800    1.426040
  C     11.861740   -5.976670    2.195150
  C     12.643580   -6.608220    3.155830
  C     13.696250   -5.728440    3.442410
  N     13.555490   -4.589700    2.669890
  C     12.440500   -4.715720    1.903280
  C     11.654810   -4.080780    0.948230
  C     14.779900   -5.857600    4.341040
  C     14.995290   -6.912910    5.172260
  C     16.086500   -7.026850    6.055470
  C     16.365430   -8.069960    6.955200
  C     17.566310   -7.867850    7.708200
  C     17.987870   -8.883360    8.592700
  C     17.226490  -10.005060    8.757090
  C     16.022390  -10.177340    8.049890
  C     15.601530   -9.235580    7.155390
  C     18.201530   -6.653870    7.403270
  S     17.324270   -5.815520    6.157650
  C     19.365490   -6.009960    7.899480
  C     20.034090   -6.290110    9.040110
  C     21.237390   -5.638130    9.475260
  C     22.088880   -4.926250    8.663230
  O     21.878740   -4.617620    7.367280
  C     22.980380   -4.133380    6.638570
  S     23.546450   -4.434020    9.486180
  C     23.002490   -5.211970   10.947500
  O     23.724400   -5.193760   12.087560
  C     24.989870   -4.584170   12.028930
  C     21.766980   -5.778100   10.810580
  C     21.118610   -6.415550   11.945590
  C     19.814140   -6.431070   12.189140
  H      2.395800   -4.518530   -5.331570
  H     -1.512930   -6.281620   -7.153490
  H     -1.316380   -7.104800   -5.581140
  H     -0.415650   -7.682560   -7.005730
  H      3.494260  -10.274200   -2.404480
  H      2.733740  -10.185720   -4.018190
  H      1.837110   -9.631490   -2.582660
  H      4.907150   -6.381060   -2.927800
  H      4.339540   -3.788350   -4.457630
  H      9.397780   -1.100290   -2.176080
  H      8.530560    0.669170   -3.641440
  H      6.475170    0.328940   -4.942400
  H      5.240190   -1.787750   -4.811260
  H      9.920940   -2.881040   -0.937430
  H      8.826200   -5.660890   -0.282580
  H     10.115110   -6.883900    1.403860
  H     12.493310   -7.571660    3.599040
  H     14.183730   -3.805680    2.698280
  H     11.805210   -3.117030    0.505830
  H     15.488390   -5.037660    4.360340
  H     14.291690   -7.732190    5.172480
  H     18.922380   -8.786700    9.119750
  H     17.552050  -10.780700    9.434800
  H     15.440670  -11.073220    8.209790
  H     14.689940   -9.379520    6.595520
  H     19.704770   -5.175950    7.300930
  H     19.673580   -7.051790    9.711850
  H     22.625080   -3.975020    5.622360
  H     23.803430   -4.855360    6.635720
  H     23.340990   -3.186590    7.055960
  H     25.418630   -4.678750   13.024460
  H     24.904980   -3.525140   11.761890
  H     25.636670   -5.081730   11.298160
  H     21.806780   -6.855570   12.656410
  H     19.099750   -5.947780   11.545010
  H     19.417850   -6.916940   13.064460

 Total Charge           Charge          ....    0
 Multiplicity           Mult            ....    1
 Number of Electrons    NEL             ....  410
 Basis Dimension        Dim             ....  952

ORBITAL ENERGIES
----------------

  NO   OCC          E(Eh)            E(eV)
   0   2.0000     -88.953167     -2420.5387
   1   2.0000     -88.952440     -2420.5190
   2   2.0000     -88.940168     -2420.1850
   3   2.0000     -88.939991     -2420.1802
   4   2.0000     -19.254033      -523.9289
   5   2.0000     -19.252258      -523.8806
   6   2.0000     -19.251087      -523.8487
   7   2.0000     -19.247732      -523.7574
   8   2.0000     -14.439272      -392.9126
   9   2.0000     -14.439181      -392.9101
  10   2.0000     -10.337931      -281.3094
  11   2.0000     -10.337376      -281.2943
  12   2.0000     -10.337285      -281.2918
  13   2.0000     -10.336789      -281.2783
  14   2.0000     -10.327341      -281.0212
  15   2.0000     -10.326800      -281.0065
  16   2.0000     -10.326406      -280.9958
  17   2.0000     -10.324862      -280.9538
  18   2.0000     -10.286880      -279.9202
  19   2.0000     -10.286815      -279.9185
  20   2.0000     -10.281243      -279.7668
  21   2.0000     -10.280782      -279.7543
  22   2.0000     -10.280779      -279.7542
  23   2.0000     -10.280545      -279.7479
  24   2.0000     -10.274173      -279.5745
  25   2.0000     -10.273712      -279.5619
  26   2.0000     -10.262684      -279.2618
  27   2.0000     -10.262457      -279.2557
  28   2.0000     -10.261568      -279.2315
  29   2.0000     -10.261341      -279.2253
  30   2.0000     -10.259906      -279.1862
  31   2.0000     -10.259656      -279.1794
  32   2.0000     -10.259347      -279.1710
  33   2.0000     -10.259075      -279.1636
  34   2.0000     -10.259014      -279.1620
  35   2.0000     -10.258719      -279.1539
  36   2.0000     -10.258393      -279.1451
  37   2.0000     -10.258318      -279.1430
  38   2.0000     -10.257042      -279.1083
  39   2.0000     -10.257019      -279.1077
  40   2.0000     -10.256777      -279.1011
  41   2.0000     -10.256696      -279.0989
  42   2.0000     -10.256512      -279.0939
  43   2.0000     -10.254307      -279.0339
  44   2.0000     -10.254047      -279.0268
  45   2.0000     -10.253833      -279.0210
  46   2.0000     -10.253496      -279.0118
  47   2.0000     -10.253339      -279.0075
  48   2.0000     -10.252884      -278.9952
  49   2.0000     -10.252222      -278.9771
  50   2.0000     -10.249750      -278.9099
  51   2.0000     -10.244652      -278.7712
  52   2.0000     -10.244617      -278.7702
  53   2.0000     -10.244487      -278.7667
  54   2.0000      -8.049450      -219.0367
  55   2.0000      -8.048776      -219.0183
  56   2.0000      -8.035459      -218.6559
  57   2.0000      -8.034923      -218.6414
  58   2.0000      -6.018823      -163.7805
  59   2.0000      -6.018189      -163.7632
  60   2.0000      -6.014954      -163.6752
  61   2.0000      -6.014306      -163.6576
  62   2.0000      -6.011011      -163.5679
  63   2.0000      -6.010255      -163.5474
  64   2.0000      -6.004325      -163.3860
  65   2.0000      -6.003840      -163.3728
  66   2.0000      -6.000478      -163.2813
  67   2.0000      -6.000037      -163.2693
  68   2.0000      -5.998279      -163.2215
  69   2.0000      -5.997657      -163.2045
  70   2.0000      -1.160357       -31.5749
  71   2.0000      -1.159029       -31.5388
  72   2.0000      -1.157052       -31.4850
  73   2.0000      -1.154527       -31.4163
  74   2.0000      -1.070303       -29.1244
  75   2.0000      -1.034085       -28.1389
  76   2.0000      -0.973004       -26.4768
  77   2.0000      -0.972216       -26.4554
  78   2.0000      -0.962436       -26.1892
  79   2.0000      -0.959898       -26.1202
  80   2.0000      -0.910117       -24.7655
  81   2.0000      -0.909275       -24.7426
  82   2.0000      -0.892163       -24.2770
  83   2.0000      -0.890615       -24.2349
  84   2.0000      -0.872877       -23.7522
  85   2.0000      -0.868998       -23.6466
  86   2.0000      -0.863627       -23.5005
  87   2.0000      -0.850585       -23.1456
  88   2.0000      -0.846983       -23.0476
  89   2.0000      -0.839425       -22.8419
  90   2.0000      -0.833520       -22.6812
  91   2.0000      -0.826911       -22.5014
  92   2.0000      -0.817597       -22.2479
  93   2.0000      -0.815670       -22.1955
  94   2.0000      -0.810179       -22.0461
  95   2.0000      -0.806047       -21.9337
  96   2.0000      -0.804942       -21.9036
  97   2.0000      -0.797765       -21.7083
  98   2.0000      -0.794007       -21.6060
  99   2.0000      -0.784152       -21.3379
 100   2.0000      -0.767574       -20.8867
 101   2.0000      -0.749739       -20.4014
 102   2.0000      -0.742788       -20.2123
 103   2.0000      -0.727003       -19.7828
 104   2.0000      -0.714688       -19.4477
 105   2.0000      -0.692375       -18.8405
 106   2.0000      -0.685414       -18.6511
 107   2.0000      -0.683815       -18.6075
 108   2.0000      -0.681012       -18.5313
 109   2.0000      -0.675231       -18.3740
 110   2.0000      -0.665494       -18.1090
 111   2.0000      -0.664486       -18.0816
 112   2.0000      -0.659027       -17.9330
 113   2.0000      -0.646509       -17.5924
 114   2.0000      -0.643842       -17.5198
 115   2.0000      -0.638929       -17.3861
 116   2.0000      -0.636994       -17.3335
 117   2.0000      -0.626664       -17.0524
 118   2.0000      -0.620377       -16.8813
 119   2.0000      -0.613172       -16.6852
 120   2.0000      -0.611785       -16.6475
 121   2.0000      -0.604123       -16.4390
 122   2.0000      -0.597632       -16.2624
 123   2.0000      -0.590830       -16.0773
 124   2.0000      -0.583353       -15.8738
 125   2.0000      -0.576961       -15.6999
 126   2.0000      -0.574159       -15.6237
 127   2.0000      -0.567456       -15.4413
 128   2.0000      -0.562484       -15.3060
 129   2.0000      -0.560806       -15.2603
 130   2.0000      -0.555511       -15.1162
 131   2.0000      -0.553926       -15.0731
 132   2.0000      -0.553144       -15.0518
 133   2.0000      -0.546994       -14.8845
 134   2.0000      -0.545192       -14.8354
 135   2.0000      -0.540646       -14.7117
 136   2.0000      -0.536838       -14.6081
 137   2.0000      -0.535115       -14.5612
 138   2.0000      -0.531799       -14.4710
 139   2.0000      -0.530685       -14.4407
 140   2.0000      -0.528756       -14.3882
 141   2.0000      -0.523473       -14.2444
 142   2.0000      -0.515757       -14.0345
 143   2.0000      -0.513799       -13.9812
 144   2.0000      -0.510206       -13.8834
 145   2.0000      -0.506962       -13.7951
 146   2.0000      -0.503844       -13.7103
 147   2.0000      -0.497562       -13.5393
 148   2.0000      -0.495291       -13.4775
 149   2.0000      -0.492855       -13.4113
 150   2.0000      -0.488106       -13.2820
 151   2.0000      -0.481683       -13.1073
 152   2.0000      -0.479371       -13.0443
 153   2.0000      -0.478110       -13.0100
 154   2.0000      -0.476835       -12.9753
 155   2.0000      -0.474658       -12.9161
 156   2.0000      -0.469545       -12.7770
 157   2.0000      -0.468867       -12.7585
 158   2.0000      -0.466545       -12.6953
 159   2.0000      -0.462235       -12.5781
 160   2.0000      -0.458600       -12.4791
 161   2.0000      -0.457753       -12.4561
 162   2.0000      -0.455052       -12.3826
 163   2.0000      -0.453516       -12.3408
 164   2.0000      -0.452042       -12.3007
 165   2.0000      -0.448617       -12.2075
 166   2.0000      -0.443398       -12.0655
 167   2.0000      -0.434454       -11.8221
 168   2.0000      -0.428192       -11.6517
 169   2.0000      -0.426911       -11.6168
 170   2.0000      -0.425356       -11.5745
 171   2.0000      -0.422959       -11.5093
 172   2.0000      -0.419795       -11.4232
 173   2.0000      -0.413055       -11.2398
 174   2.0000      -0.411366       -11.1938
 175   2.0000      -0.407987       -11.1019
 176   2.0000      -0.406540       -11.0625
 177   2.0000      -0.405222       -11.0267
 178   2.0000      -0.404118       -10.9966
 179   2.0000      -0.401852       -10.9350
 180   2.0000      -0.398826       -10.8526
 181   2.0000      -0.395195       -10.7538
 182   2.0000      -0.392410       -10.6780
 183   2.0000      -0.390359       -10.6222
 184   2.0000      -0.389298       -10.5933
 185   2.0000      -0.382888       -10.4189
 186   2.0000      -0.379870       -10.3368
 187   2.0000      -0.375265       -10.2115
 188   2.0000      -0.373551       -10.1648
 189   2.0000      -0.357053        -9.7159
 190   2.0000      -0.354619        -9.6497
 191   2.0000      -0.347530        -9.4568
 192   2.0000      -0.337074        -9.1722
 193   2.0000      -0.328225        -8.9315
 194   2.0000      -0.304852        -8.2954
 195   2.0000      -0.295606        -8.0438
 196   2.0000      -0.295144        -8.0313
 197   2.0000      -0.293637        -7.9903
 198   2.0000      -0.282596        -7.6898
 199   2.0000      -0.272266        -7.4087
 200   2.0000      -0.257215        -6.9992
 201   2.0000      -0.245965        -6.6930
 202   2.0000      -0.234666        -6.3856
 203   2.0000      -0.206592        -5.6217
 204   2.0000      -0.176145        -4.7931
 205   0.0000      -0.052409        -1.4261
 206   0.0000      -0.031811        -0.8656
 207   0.0000       0.018688         0.5085
 208   0.0000       0.031471         0.8564
 209   0.0000       0.034780         0.9464

MULLIKEN ATOMIC CHARGES
-----------------------
   0 C :   -0.029134
   1 C :    0.076268
   2 O :   -0.287085
   3 C :    0.173105
   4 S :   -0.003885
   5 C :   -0.007411
   6 O :   -0.288292
   7 C :    0.176315
   8 C :    0.076325
   9 C :   -0.013877
  10 C :   -0.007165
  11 C :   -0.083059
  12 C :    0.105914
  13 C :    0.107124
  14 C :   -0.033831
  15 C :    0.023414
  16 C :    0.022238
  17 C :   -0.033648
  18 C :   -0.082308
  19 S :    0.106828
  20 C :   -0.022604
  21 C :   -0.008444
  22 C :    0.111432
  23 N :   -0.040281
  24 C :    0.117502
  25 C :   -0.186562
  26 C :    0.111008
  27 N :   -0.040436
  28 C :    0.117755
  29 C :   -0.186769
  30 C :   -0.010722
  31 C :   -0.013698
  32 C :   -0.092546
  33 C :    0.102066
  34 C :    0.110258
  35 C :   -0.038117
  36 C :    0.020909
  37 C :    0.023405
  38 C :   -0.036117
  39 C :   -0.121990
  40 S :    0.116235
  41 C :    0.053758
  42 C :   -0.076126
  43 C :    0.111165
  44 C :   -0.027671
  45 O :   -0.290036
  46 C :    0.177914
  47 S :    0.002686
  48 C :    0.000924
  49 O :   -0.286773
  50 C :    0.174963
  51 C :    0.031278
  52 C :   -0.028478
  53 C :   -0.030563
  54 H :   -0.023635
  55 H :    0.044654
  56 H :    0.025555
  57 H :    0.025981
  58 H :    0.045210
  59 H :    0.027236
  60 H :    0.026771
  61 H :   -0.013264
  62 H :   -0.026758
  63 H :   -0.036294
  64 H :   -0.023587
  65 H :   -0.022767
  66 H :   -0.034244
  67 H :   -0.022214
  68 H :   -0.032475
  69 H :    0.115541
  70 H :   -0.044869
  71 H :    0.115465
  72 H :   -0.044836
  73 H :   -0.033427
  74 H :   -0.022008
  75 H :   -0.028604
  76 H :   -0.022258
  77 H :   -0.023753
  78 H :   -0.036462
  79 H :   -0.012779
  80 H :   -0.013222
  81 H :    0.045542
  82 H :    0.028724
  83 H :    0.027899
  84 H :    0.044944
  85 H :    0.027734
  86 H :    0.026122
  87 H :    0.000398
  88 H :    0.030247
  89 H :    0.016269
Sum of atomic charges:   -0.0000000

LOEWDIN ATOMIC CHARGES
----------------------
   0 C :   -0.094474
   1 C :   -0.105405
   2 O :   -0.105156
   3 C :    0.066456
   4 S :    0.366567
   5 C :   -0.113788
   6 O :   -0.100047
   7 C :    0.067149
   8 C :   -0.097635
   9 C :   -0.022171
  10 C :   -0.054632
  11 C :   -0.172927
  12 C :   -0.048590
  13 C :   -0.048063
  14 C :   -0.017342
  15 C :   -0.033605
  16 C :   -0.033440
  17 C :   -0.016877
  18 C :   -0.175196
  19 S :    0.452891
  20 C :   -0.047552
  21 C :   -0.049948
  22 C :   -0.002482
  23 N :    0.065428
  24 C :   -0.022216
  25 C :   -0.101696
  26 C :   -0.002736
  27 N :    0.065427
  28 C :   -0.022312
  29 C :   -0.101650
  30 C :   -0.049946
  31 C :   -0.047351
  32 C :   -0.180618
  33 C :   -0.046159
  34 C :   -0.048789
  35 C :   -0.016520
  36 C :   -0.032298
  37 C :   -0.033173
  38 C :   -0.017985
  39 C :   -0.172337
  40 S :    0.456101
  41 C :   -0.054470
  42 C :   -0.028552
  43 C :   -0.086782
  44 C :   -0.110339
  45 O :   -0.093176
  46 C :    0.067349
  47 S :    0.374528
  48 C :   -0.110509
  49 O :   -0.101994
  50 C :    0.066827
  51 C :   -0.097279
  52 C :   -0.015242
  53 C :   -0.054754
  54 H :    0.029902
  55 H :    0.031371
  56 H :    0.012041
  57 H :    0.011829
  58 H :    0.031424
  59 H :    0.012827
  60 H :    0.013169
  61 H :    0.021761
  62 H :    0.027563
  63 H :    0.024198
  64 H :    0.025340
  65 H :    0.025649
  66 H :    0.024693
  67 H :    0.029727
  68 H :    0.017201
  69 H :    0.086084
  70 H :    0.019624
  71 H :    0.086018
  72 H :    0.019615
  73 H :    0.016784
  74 H :    0.029436
  75 H :    0.027196
  76 H :    0.025899
  77 H :    0.025252
  78 H :    0.024145
  79 H :    0.023153
  80 H :    0.026233
  81 H :    0.031679
  82 H :    0.015265
  83 H :    0.011736
  84 H :    0.031516
  85 H :    0.012624
  86 H :    0.012510
  87 H :    0.030239
  88 H :    0.023591
  89 H :    0.022200

  Mayer bond orders larger than 0.100000
B(  0-C ,  1-C ) :   1.6049 B(  0-C ,  8-C ) :   1.1518 B(  0-C , 54-H ) :   1.0107
B(  1-C ,  2-O ) :   1.1365 B(  1-C ,  4-S ) :   1.0511 B(  2-O ,  3-C ) :   0.9588
B(  3-C , 55-H ) :   0.9824 B(  3-C , 56-H ) :   0.9660 B(  3-C , 57-H ) :   0.9653
B(  4-S ,  5-C ) :   1.0587 B(  5-C ,  6-O ) :   1.1467 B(  5-C ,  8-C ) :   1.5020
B(  6-O ,  7-C ) :   0.9558 B(  7-C , 58-H ) :   0.9820 B(  7-C , 59-H ) :   0.9646
B(  7-C , 60-H ) :   0.9656 B(  8-C ,  9-C ) :   1.1260 B(  9-C , 10-C ) :   1.6357
B(  9-C , 61-H ) :   0.9812 B( 10-C , 11-C ) :   1.1857 B( 10-C , 62-H ) :   0.9657
B( 11-C , 12-C ) :   1.3318 B( 11-C , 18-C ) :   0.1047 B( 11-C , 19-S ) :   1.1240
B( 12-C , 13-C ) :   1.2022 B( 12-C , 17-C ) :   1.2054 B( 13-C , 14-C ) :   1.2114
B( 13-C , 18-C ) :   1.3179 B( 14-C , 15-C ) :   1.5545 B( 14-C , 63-H ) :   0.9907
B( 15-C , 16-C ) :   1.2085 B( 15-C , 64-H ) :   0.9838 B( 16-C , 17-C ) :   1.5571
B( 16-C , 65-H ) :   0.9842 B( 17-C , 66-H ) :   0.9913 B( 18-C , 19-S ) :   1.1186
B( 18-C , 20-C ) :   1.2077 B( 20-C , 21-C ) :   1.6152 B( 20-C , 67-H ) :   0.9702
B( 21-C , 22-C ) :   1.1319 B( 21-C , 68-H ) :   0.9610 B( 22-C , 23-N ) :   1.1643
B( 22-C , 29-C ) :   1.3946 B( 23-N , 24-C ) :   1.1627 B( 23-N , 69-H ) :   0.9387
B( 24-C , 25-C ) :   1.2605 B( 24-C , 28-C ) :   1.3094 B( 25-C , 26-C ) :   1.3959
B( 25-C , 70-H ) :   1.0313 B( 26-C , 27-N ) :   1.1646 B( 26-C , 30-C ) :   1.1300
B( 27-N , 28-C ) :   1.1625 B( 27-N , 71-H ) :   0.9387 B( 28-C , 29-C ) :   1.2608
B( 29-C , 72-H ) :   1.0313 B( 30-C , 31-C ) :   1.6230 B( 30-C , 73-H ) :   0.9609
B( 31-C , 32-C ) :   1.1992 B( 31-C , 74-H ) :   0.9701 B( 32-C , 33-C ) :   1.3093
B( 32-C , 39-C ) :   0.1060 B( 32-C , 40-S ) :   1.1293 B( 33-C , 34-C ) :   1.2086
B( 33-C , 38-C ) :   1.2175 B( 34-C , 35-C ) :   1.1996 B( 34-C , 39-C ) :   1.3475
B( 35-C , 36-C ) :   1.5524 B( 35-C , 75-H ) :   0.9934 B( 36-C , 37-C ) :   1.2110
B( 36-C , 76-H ) :   0.9848 B( 37-C , 38-C ) :   1.5503 B( 37-C , 77-H ) :   0.9846
B( 38-C , 78-H ) :   0.9909 B( 39-C , 40-S ) :   1.1429 B( 39-C , 41-C ) :   1.1355
B( 41-C , 42-C ) :   1.6717 B( 41-C , 79-H ) :   0.9476 B( 42-C , 43-C ) :   1.1202
B( 42-C , 80-H ) :   0.9606 B( 43-C , 44-C ) :   1.5027 B( 43-C , 51-C ) :   1.1611
B( 44-C , 45-O ) :   1.1250 B( 44-C , 47-S ) :   1.0570 B( 45-O , 46-C ) :   0.9514
B( 46-C , 81-H ) :   0.9814 B( 46-C , 82-H ) :   0.9663 B( 46-C , 83-H ) :   0.9643
B( 47-S , 48-C ) :   1.0584 B( 48-C , 49-O ) :   1.1560 B( 48-C , 51-C ) :   1.5522
B( 49-O , 50-C ) :   0.9562 B( 50-C , 84-H ) :   0.9821 B( 50-C , 85-H ) :   0.9649
B( 50-C , 86-H ) :   0.9655 B( 51-C , 52-C ) :   1.0696 B( 52-C , 53-C ) :   1.9480
B( 52-C , 87-H ) :   0.9601 B( 53-C , 88-H ) :   0.9591 B( 53-C , 89-H ) :   0.9505

-----------------------------------------------------------------------------
         ABSORPTION SPECTRUM VIA TRANSITION ELECTRIC DIPOLE MOMENTS
-----------------------------------------------------------------------------
State   Energy  Wavelength   fosc         T2         TX        TY        TZ
        (cm-1)    (nm)                  (au**2)     (au)      (au)      (au)
-----------------------------------------------------------------------------
   0   13675.7    731.2   2.251645940  54.20348   5.69231  -0.61234   4.62883
   1   18666.8    535.7   0.032916115   0.58052  -0.36695   0.43411  -0.50736
   2   21365.8    468.0   0.018377795   0.28317   0.07698  -0.45310   0.26823
   3   25234.6    396.3   0.243374980   3.17508  -0.91181  -1.51274   0.23517
   4   27051.9    369.7   0.209300582   2.54712  -0.29958   1.25909  -0.93384
   5   28336.4    352.9   0.039930368   0.46391  -0.38536  -0.04095  -0.56012
   6   29104.9    343.6   0.169213365   1.91401  -0.69074   0.73938  -0.94351
   7   30763.0    325.1   0.032188700   0.34447  -0.11086   0.50185  -0.28342
   8   30986.4    322.7   0.138573717   1.47226  -0.96290  -0.72480  -0.14053
   9   31213.8    320.4   0.249746739   2.63408  -0.85906  -1.37312   0.10312
  10   32373.3    308.9   0.093426105   0.95007   0.47268   0.85142   0.04173
  11   32524.3    307.5   0.155219358   1.57113  -0.21055  -1.13063   0.49847
  12   33211.8    301.1   0.019941925   0.19767   0.09768  -0.39428   0.18077
  13   33768.3    296.1   0.013720633   0.13376   0.21111   0.09005   0.28476
  14   35738.0    279.8   0.108483772   0.99933  -0.75652  -0.47084  -0.45312
  15   36782.4    271.9   0.001891549   0.01693   0.04995   0.03822   0.11390
  16   37094.4    269.6   0.034972251   0.31038   0.18215   0.50601  -0.14544
  17   37470.5    266.9   0.267261740   2.34813   0.58388   1.37471  -0.34262
  18   37692.4    265.3   0.063462896   0.55430  -0.55881  -0.36017  -0.33512
  19   37953.2    263.5   0.264683166   2.29591  -0.14040   1.28510  -0.79039
  20   38503.6    259.7   0.002196532   0.01878   0.01698  -0.01998  -0.13451
  21   39033.6    256.2   0.003122449   0.02633  -0.14115   0.03586  -0.07160

FINAL SINGLE POINT ENERGY     -3698.219557154967

DIPOLE MOMENT
-------------
                                X             Y             Z
Electronic contribution:     -5.60100       3.79168      -8.86006
Nuclear contribution   :      6.00659      -4.30080       8.49277
                        -----------------------------------------
Total Dipole Moment    :      0.40560      -0.50913      -0.36729
                        -----------------------------------------
Magnitude (a.u.)       :      0.74741
Magnitude (Debye)      :      1.89977

Rotational constants in cm-1:     0.003664     0.000237     0.000224
Rotational constants in MHz :   109.846358     7.095910     6.717081

                             ****ORCA TERMINATED NORMALLY****
TOTAL RUN TIME: 0 days 0 hours 6 minutes 27 seconds 100 msec
