                         Program Version 4.2.0 -  RELEASE  -
|  1> # ORCA input file
|  2> # SCF done       -158.531910655344          0.000660602794
|  3> ! CAM-B3LYP def2-SVP def2/J RIJCOSX Grid4 TightSCF
|  4> %maxcore 5000
|  5> %tddft
|  6>     Mode sTDDFT
|  7>     Ethresh 5.0
|  8>     maxcore 5000
|  9> end
| 10>
| 11> %pal
| 12>   nprocs 6
| 13>   end
| 14> * xyz 0 1
| 15>    C        2.54354        -0.10210         4.32043
| 16>    C        2.63307        -0.13274         2.94855
| 17>    N        2.47119        -1.21644         2.18624
| 18>    C        2.19921        -2.38651         2.73320
| 19>    C        2.07511        -2.49610         4.14559
| 20>    C        2.25440        -1.32095         4.95157
| 21>    N        2.10945        -1.58918         6.25214
| 22>    S        1.78375        -3.15011         6.42654
| 23>    N        1.80738        -3.57604         4.87283
| 24>    C        2.04258        -3.52553         1.88196
| 25>    C        2.15659        -3.54195         0.50303
| 26>    C        1.95989        -4.81909        -0.01389
| 27>    C        1.69275        -5.77668         0.98844
| 28>    S        1.68493        -5.09989         2.55569
| 29>    C        1.52190        -7.04191         0.37783
| 30>    C        1.68224        -6.88408        -1.01474
| 31>    C        1.95952        -5.48547        -1.30487
| 32>    C        2.17931        -4.92658        -2.52970
| 33>    C        2.16256        -5.68623        -3.71863
| 34>    N        2.15268        -6.29047        -4.69355
| 35>    C        2.44324        -3.55073        -2.69744
| 36>    N        2.65895        -2.43499        -2.85075
| 37>    C        1.54839        -8.07719        -1.71023
| 38>    C        1.28833        -9.14661        -0.86087
| 39>    S        1.20078        -8.66522         0.82424
| 40>    C        1.12510       -10.50500        -1.22895
| 41>    C        0.88410       -11.49782        -0.24782
| 42>    C        0.76139       -12.89386        -0.55075
| 43>    N        0.52949       -13.76073         0.45367
| 44>    C        0.42921       -13.31400         1.67455
| 45>    C        0.55993       -11.94378         1.97312
| 46>    N        0.77894       -11.07654         1.02501
| 47>    C        0.88582       -13.36839        -1.88422
| 48>    C        1.09105       -12.37461        -2.86498
| 49>    C        1.20891       -10.97038        -2.55814
| 50>    N        1.40623       -10.24516        -3.66095
| 51>    S        1.43958       -11.20959        -4.93844
| 52>    N        1.20957       -12.60413        -4.17442
| 53>    C        0.83994       -14.73972        -2.25091
| 54>    C        0.68216       -15.84512        -1.42332
| 55>    C        0.72625       -17.03782        -2.13019
| 56>    C        0.91631       -16.85027        -3.51476
| 57>    S        1.03659       -15.19939        -3.93858
| 58>    C        0.96813       -18.12511        -4.12908
| 59>    C        0.81334       -19.11491        -3.13979
| 60>    C        0.65101       -18.46437        -1.85226
| 61>    C        0.47135       -19.05964        -0.63779
| 62>    C        0.41671       -20.46114        -0.48420
| 63>    N        0.37034       -21.59841        -0.34433
| 64>    C        0.32938       -18.31542         0.55240
| 65>    N        0.21128       -17.72454         1.52822
| 66>    C        0.87119       -20.41065        -3.65343
| 67>    C        1.06650       -20.41932        -5.01949
| 68>    S        1.17741       -18.79369        -5.68492
| 69>    C        1.18693       -21.56502        -5.87100
| 70>    C        1.35445       -21.47075        -7.24735
| 71>    N        1.47892       -22.49619        -8.09017
| 72>    C        1.44989       -23.72418        -7.64663
| 73>    C        1.28604       -23.99193        -6.27507
| 74>    C        1.14989       -22.88988        -5.36073
| 75>    N        1.00564       -23.30625        -4.10313
| 76>    S        1.03802       -24.91217        -4.08088
| 77>    N        1.23542       -25.17031        -5.64959
| 78>    H        2.68572         0.79993         4.89057
| 79>    H        2.85231         0.76819         2.39187
| 80>    H        2.37455        -2.65142        -0.05704
| 81>    H        1.63255        -8.20308        -2.77399
| 82>    H        0.23933       -14.05107         2.44214
| 83>    H        0.48198       -11.56133         2.98068
| 84>    H        0.54917       -15.74173        -0.36282
| 85>    H        0.78249       -21.31746        -3.08338
| 86>    H        1.39249       -20.49594        -7.71686
| 87>    H        1.55638       -24.52159        -8.36666
| 88> *
| 89>
| 90>                          ****END OF INPUT****

CARTESIAN COORDINATES (ANGSTROEM)
---------------------------------
  C      2.543540   -0.102100    4.320430
  C      2.633070   -0.132740    2.948550
  N      2.471190   -1.216440    2.186240
  C      2.199210   -2.386510    2.733200
  C      2.075110   -2.496100    4.145590
  C      2.254400   -1.320950    4.951570
  N      2.109450   -1.589180    6.252140
  S      1.783750   -3.150110    6.426540
  N      1.807380   -3.576040    4.872830
  C      2.042580   -3.525530    1.881960
  C      2.156590   -3.541950    0.503030
  C      1.959890   -4.819090   -0.013890
  C      1.692750   -5.776680    0.988440
  S      1.684930   -5.099890    2.555690
  C      1.521900   -7.041910    0.377830
  C      1.682240   -6.884080   -1.014740
  C      1.959520   -5.485470   -1.304870
  C      2.179310   -4.926580   -2.529700
  C      2.162560   -5.686230   -3.718630
  N      2.152680   -6.290470   -4.693550
  C      2.443240   -3.550730   -2.697440
  N      2.658950   -2.434990   -2.850750
  C      1.548390   -8.077190   -1.710230
  C      1.288330   -9.146610   -0.860870
  S      1.200780   -8.665220    0.824240
  C      1.125100  -10.505000   -1.228950
  C      0.884100  -11.497820   -0.247820
  C      0.761390  -12.893860   -0.550750
  N      0.529490  -13.760730    0.453670
  C      0.429210  -13.314000    1.674550
  C      0.559930  -11.943780    1.973120
  N      0.778940  -11.076540    1.025010
  C      0.885820  -13.368390   -1.884220
  C      1.091050  -12.374610   -2.864980
  C      1.208910  -10.970380   -2.558140
  N      1.406230  -10.245160   -3.660950
  S      1.439580  -11.209590   -4.938440
  N      1.209570  -12.604130   -4.174420
  C      0.839940  -14.739720   -2.250910
  C      0.682160  -15.845120   -1.423320
  C      0.726250  -17.037820   -2.130190
  C      0.916310  -16.850270   -3.514760
  S      1.036590  -15.199390   -3.938580
  C      0.968130  -18.125110   -4.129080
  C      0.813340  -19.114910   -3.139790
  C      0.651010  -18.464370   -1.852260
  C      0.471350  -19.059640   -0.637790
  C      0.416710  -20.461140   -0.484200
  N      0.370340  -21.598410   -0.344330
  C      0.329380  -18.315420    0.552400
  N      0.211280  -17.724540    1.528220
  C      0.871190  -20.410650   -3.653430
  C      1.066500  -20.419320   -5.019490
  S      1.177410  -18.793690   -5.684920
  C      1.186930  -21.565020   -5.871000
  C      1.354450  -21.470750   -7.247350
  N      1.478920  -22.496190   -8.090170
  C      1.449890  -23.724180   -7.646630
  C      1.286040  -23.991930   -6.275070
  C      1.149890  -22.889880   -5.360730
  N      1.005640  -23.306250   -4.103130
  S      1.038020  -24.912170   -4.080880
  N      1.235420  -25.170310   -5.649590
  H      2.685720    0.799930    4.890570
  H      2.852310    0.768190    2.391870
  H      2.374550   -2.651420   -0.057040
  H      1.632550   -8.203080   -2.773990
  H      0.239330  -14.051070    2.442140
  H      0.481980  -11.561330    2.980680
  H      0.549170  -15.741730   -0.362820
  H      0.782490  -21.317460   -3.083380
  H      1.392490  -20.495940   -7.716860
  H      1.556380  -24.521590   -8.366660

 Total Charge           Charge          ....    0
 Multiplicity           Mult            ....    1
 Number of Electrons    NEL             ....  472
 Basis Dimension        Dim             ....  960

ORBITAL ENERGIES
----------------

  NO   OCC          E(Eh)            E(eV)
   0   2.0000     -89.045697     -2423.0566
   1   2.0000     -89.036009     -2422.7930
   2   2.0000     -89.035788     -2422.7870
   3   2.0000     -88.983578     -2421.3663
   4   2.0000     -88.979317     -2421.2503
   5   2.0000     -88.977789     -2421.2087
   6   2.0000     -88.975253     -2421.1397
   7   2.0000     -14.454078      -393.3155
   8   2.0000     -14.454024      -393.3140
   9   2.0000     -14.453746      -393.3064
  10   2.0000     -14.450140      -393.2083
  11   2.0000     -14.447530      -393.1373
  12   2.0000     -14.446793      -393.1172
  13   2.0000     -14.445153      -393.0726
  14   2.0000     -14.440986      -392.9592
  15   2.0000     -14.424428      -392.5086
  16   2.0000     -14.422685      -392.4612
  17   2.0000     -14.420421      -392.3996
  18   2.0000     -14.419285      -392.3687
  19   2.0000     -14.417741      -392.3267
  20   2.0000     -14.412961      -392.1966
  21   2.0000     -10.356335      -281.8102
  22   2.0000     -10.352935      -281.7177
  23   2.0000     -10.344124      -281.4779
  24   2.0000     -10.341297      -281.4010
  25   2.0000     -10.341213      -281.3987
  26   2.0000     -10.340956      -281.3917
  27   2.0000     -10.340116      -281.3689
  28   2.0000     -10.339626      -281.3555
  29   2.0000     -10.338688      -281.3300
  30   2.0000     -10.336627      -281.2739
  31   2.0000     -10.336418      -281.2682
  32   2.0000     -10.335527      -281.2440
  33   2.0000     -10.331926      -281.1460
  34   2.0000     -10.330587      -281.1096
  35   2.0000     -10.328475      -281.0521
  36   2.0000     -10.327514      -281.0259
  37   2.0000     -10.325325      -280.9664
  38   2.0000     -10.323287      -280.9109
  39   2.0000     -10.321697      -280.8676
  40   2.0000     -10.321227      -280.8549
  41   2.0000     -10.321142      -280.8525
  42   2.0000     -10.319780      -280.8155
  43   2.0000     -10.318942      -280.7927
  44   2.0000     -10.318250      -280.7739
  45   2.0000     -10.317383      -280.7503
  46   2.0000     -10.316055      -280.7141
  47   2.0000     -10.315086      -280.6878
  48   2.0000     -10.314699      -280.6772
  49   2.0000     -10.314537      -280.6728
  50   2.0000     -10.313124      -280.6344
  51   2.0000     -10.312515      -280.6178
  52   2.0000     -10.310536      -280.5639
  53   2.0000     -10.310047      -280.5506
  54   2.0000     -10.295115      -280.1443
  55   2.0000     -10.293030      -280.0876
  56   2.0000     -10.292426      -280.0711
  57   2.0000     -10.291906      -280.0570
  58   2.0000     -10.290262      -280.0123
  59   2.0000     -10.289797      -279.9996
  60   2.0000     -10.287856      -279.9468
  61   2.0000     -10.286276      -279.9038
  62   2.0000     -10.285812      -279.8912
  63   2.0000      -8.136632      -221.4090
  64   2.0000      -8.127677      -221.1653
  65   2.0000      -8.127508      -221.1607
  66   2.0000      -8.078106      -219.8164
  67   2.0000      -8.072994      -219.6773
  68   2.0000      -8.070938      -219.6214
  69   2.0000      -8.067312      -219.5227
  70   2.0000      -6.107737      -166.2000
  71   2.0000      -6.099913      -165.9871
  72   2.0000      -6.099451      -165.9745
  73   2.0000      -6.098802      -165.9568
  74   2.0000      -6.098601      -165.9514
  75   2.0000      -6.091082      -165.7468
  76   2.0000      -6.090738      -165.7374
  77   2.0000      -6.090229      -165.7236
  78   2.0000      -6.090216      -165.7232
  79   2.0000      -6.047336      -164.5564
  80   2.0000      -6.043169      -164.4430
  81   2.0000      -6.042261      -164.4183
  82   2.0000      -6.040519      -164.3709
  83   2.0000      -6.040367      -164.3668
  84   2.0000      -6.037810      -164.2972
  85   2.0000      -6.036939      -164.2734
  86   2.0000      -6.035759      -164.2413
  87   2.0000      -6.035594      -164.2369
  88   2.0000      -6.033384      -164.1767
  89   2.0000      -6.032045      -164.1403
  90   2.0000      -6.029815      -164.0796
  91   2.0000      -1.142341       -31.0847
  92   2.0000      -1.135429       -30.8966
  93   2.0000      -1.135341       -30.8942
  94   2.0000      -1.102168       -29.9915
  95   2.0000      -1.049622       -28.5617
  96   2.0000      -1.047855       -28.5136
  97   2.0000      -1.036210       -28.1967
  98   2.0000      -1.032558       -28.0973
  99   2.0000      -1.026194       -27.9242
 100   2.0000      -1.014952       -27.6182
 101   2.0000      -1.010936       -27.5090
 102   2.0000      -1.001453       -27.2509
 103   2.0000      -1.000359       -27.2211
 104   2.0000      -0.997363       -27.1396
 105   2.0000      -0.993124       -27.0243
 106   2.0000      -0.990317       -26.9479
 107   2.0000      -0.985698       -26.8222
 108   2.0000      -0.979401       -26.6509
 109   2.0000      -0.967140       -26.3172
 110   2.0000      -0.949510       -25.8375
 111   2.0000      -0.943848       -25.6834
 112   2.0000      -0.917745       -24.9731
 113   2.0000      -0.906935       -24.6790
 114   2.0000      -0.902583       -24.5605
 115   2.0000      -0.897286       -24.4164
 116   2.0000      -0.885417       -24.0934
 117   2.0000      -0.880860       -23.9694
 118   2.0000      -0.870449       -23.6861
 119   2.0000      -0.866777       -23.5862
 120   2.0000      -0.856337       -23.3021
 121   2.0000      -0.848200       -23.0807
 122   2.0000      -0.843389       -22.9498
 123   2.0000      -0.842007       -22.9122
 124   2.0000      -0.815005       -22.1774
 125   2.0000      -0.796815       -21.6824
 126   2.0000      -0.790793       -21.5186
 127   2.0000      -0.777919       -21.1683
 128   2.0000      -0.770546       -20.9676
 129   2.0000      -0.766608       -20.8605
 130   2.0000      -0.761857       -20.7312
 131   2.0000      -0.753568       -20.5056
 132   2.0000      -0.739196       -20.1145
 133   2.0000      -0.724596       -19.7173
 134   2.0000      -0.723943       -19.6995
 135   2.0000      -0.716661       -19.5013
 136   2.0000      -0.715781       -19.4774
 137   2.0000      -0.701595       -19.0914
 138   2.0000      -0.694474       -18.8976
 139   2.0000      -0.680865       -18.5273
 140   2.0000      -0.676174       -18.3996
 141   2.0000      -0.675729       -18.3875
 142   2.0000      -0.669036       -18.2054
 143   2.0000      -0.655557       -17.8386
 144   2.0000      -0.650033       -17.6883
 145   2.0000      -0.648155       -17.6372
 146   2.0000      -0.636379       -17.3167
 147   2.0000      -0.631130       -17.1739
 148   2.0000      -0.625145       -17.0111
 149   2.0000      -0.621536       -16.9129
 150   2.0000      -0.615962       -16.7612
 151   2.0000      -0.608397       -16.5553
 152   2.0000      -0.605290       -16.4708
 153   2.0000      -0.603289       -16.4163
 154   2.0000      -0.600694       -16.3457
 155   2.0000      -0.593968       -16.1627
 156   2.0000      -0.591941       -16.1075
 157   2.0000      -0.574335       -15.6284
 158   2.0000      -0.571716       -15.5572
 159   2.0000      -0.567339       -15.4381
 160   2.0000      -0.562339       -15.3020
 161   2.0000      -0.561103       -15.2684
 162   2.0000      -0.559988       -15.2380
 163   2.0000      -0.559358       -15.2209
 164   2.0000      -0.551832       -15.0161
 165   2.0000      -0.547461       -14.8972
 166   2.0000      -0.540633       -14.7114
 167   2.0000      -0.538501       -14.6534
 168   2.0000      -0.537336       -14.6217
 169   2.0000      -0.534571       -14.5464
 170   2.0000      -0.529547       -14.4097
 171   2.0000      -0.518591       -14.1116
 172   2.0000      -0.513608       -13.9760
 173   2.0000      -0.503688       -13.7061
 174   2.0000      -0.501871       -13.6566
 175   2.0000      -0.499097       -13.5811
 176   2.0000      -0.497412       -13.5353
 177   2.0000      -0.497362       -13.5339
 178   2.0000      -0.493104       -13.4180
 179   2.0000      -0.488591       -13.2952
 180   2.0000      -0.487342       -13.2612
 181   2.0000      -0.486858       -13.2481
 182   2.0000      -0.485143       -13.2014
 183   2.0000      -0.482503       -13.1296
 184   2.0000      -0.480491       -13.0748
 185   2.0000      -0.476291       -12.9605
 186   2.0000      -0.475870       -12.9491
 187   2.0000      -0.472908       -12.8685
 188   2.0000      -0.468415       -12.7462
 189   2.0000      -0.466563       -12.6958
 190   2.0000      -0.464244       -12.6327
 191   2.0000      -0.456501       -12.4220
 192   2.0000      -0.456108       -12.4113
 193   2.0000      -0.452102       -12.3023
 194   2.0000      -0.451261       -12.2794
 195   2.0000      -0.449579       -12.2337
 196   2.0000      -0.447867       -12.1871
 197   2.0000      -0.444685       -12.1005
 198   2.0000      -0.440529       -11.9874
 199   2.0000      -0.439900       -11.9703
 200   2.0000      -0.439183       -11.9508
 201   2.0000      -0.434198       -11.8151
 202   2.0000      -0.432024       -11.7560
 203   2.0000      -0.430518       -11.7150
 204   2.0000      -0.428812       -11.6686
 205   2.0000      -0.427331       -11.6283
 206   2.0000      -0.421663       -11.4740
 207   2.0000      -0.421115       -11.4591
 208   2.0000      -0.418669       -11.3926
 209   2.0000      -0.417398       -11.3580
 210   2.0000      -0.406572       -11.0634
 211   2.0000      -0.405550       -11.0356
 212   2.0000      -0.403823       -10.9886
 213   2.0000      -0.399212       -10.8631
 214   2.0000      -0.396250       -10.7825
 215   2.0000      -0.382513       -10.4087
 216   2.0000      -0.377089       -10.2611
 217   2.0000      -0.375736       -10.2243
 218   2.0000      -0.375675       -10.2226
 219   2.0000      -0.371516       -10.1095
 220   2.0000      -0.369089       -10.0434
 221   2.0000      -0.358816        -9.7639
 222   2.0000      -0.356114        -9.6904
 223   2.0000      -0.350020        -9.5245
 224   2.0000      -0.342118        -9.3095
 225   2.0000      -0.341567        -9.2945
 226   2.0000      -0.339969        -9.2510
 227   2.0000      -0.338237        -9.2039
 228   2.0000      -0.334670        -9.1068
 229   2.0000      -0.332461        -9.0467
 230   2.0000      -0.323507        -8.8031
 231   2.0000      -0.313651        -8.5349
 232   2.0000      -0.310633        -8.4528
 233   2.0000      -0.294493        -8.0136
 234   2.0000      -0.265265        -7.2182
 235   2.0000      -0.229951        -6.2573
 236   0.0000      -0.120991        -3.2923
 237   0.0000      -0.095624        -2.6021
 238   0.0000      -0.088942        -2.4202
 239   0.0000      -0.073910        -2.0112
 240   0.0000      -0.073607        -2.0029

MULLIKEN ATOMIC CHARGES
-----------------------
   0 C :   -0.037879
   1 C :    0.033562
   2 N :   -0.055333
   3 C :    0.034812
   4 C :   -0.049433
   5 C :    0.090159
   6 N :   -0.266739
   7 S :    0.521958
   8 N :   -0.297800
   9 C :   -0.099093
  10 C :   -0.055632
  11 C :    0.029631
  12 C :   -0.088656
  13 S :    0.216545
  14 C :   -0.066824
  15 C :    0.036688
  16 C :    0.306669
  17 C :   -0.307294
  18 C :   -0.190355
  19 N :    0.167757
  20 C :   -0.197339
  21 N :    0.178588
  22 C :   -0.071732
  23 C :   -0.169762
  24 S :    0.196668
  25 C :    0.171955
  26 C :   -0.047270
  27 C :   -0.069925
  28 N :   -0.021856
  29 C :    0.036072
  30 C :    0.052637
  31 N :   -0.091382
  32 C :    0.200033
  33 C :   -0.027574
  34 C :   -0.004982
  35 N :   -0.277922
  36 S :    0.565369
  37 N :   -0.340733
  38 C :   -0.186373
  39 C :   -0.067972
  40 C :    0.040928
  41 C :   -0.072304
  42 S :    0.203605
  43 C :   -0.091816
  44 C :    0.021135
  45 C :    0.316142
  46 C :   -0.310275
  47 C :   -0.191930
  48 N :    0.171672
  49 C :   -0.188344
  50 N :    0.166365
  51 C :   -0.052570
  52 C :   -0.106384
  53 S :    0.168954
  54 C :    0.109291
  55 C :   -0.064490
  56 N :   -0.037052
  57 C :   -0.005059
  58 C :    0.014272
  59 C :    0.012876
  60 N :   -0.283483
  61 S :    0.536988
  62 N :   -0.256237
  63 H :   -0.006451
  64 H :    0.012026
  65 H :    0.017235
  66 H :    0.018447
  67 H :    0.033430
  68 H :    0.019390
  69 H :    0.019143
  70 H :    0.020654
  71 H :    0.007921
  72 H :    0.006679
Sum of atomic charges:    0.0000000

LOEWDIN ATOMIC CHARGES
----------------------
   0 C :   -0.053334
   1 C :    0.024196
   2 N :   -0.075196
   3 C :    0.002859
   4 C :   -0.076064
   5 C :   -0.041603
   6 N :   -0.284801
   7 S :    0.656531
   8 N :   -0.295050
   9 C :   -0.185060
  10 C :    0.005244
  11 C :   -0.072718
  12 C :   -0.175671
  13 S :    0.510787
  14 C :   -0.186379
  15 C :   -0.072768
  16 C :    0.082120
  17 C :   -0.107525
  18 C :   -0.015835
  19 N :   -0.039462
  20 C :   -0.019043
  21 N :   -0.034294
  22 C :   -0.014209
  23 C :   -0.164004
  24 S :    0.505260
  25 C :   -0.042472
  26 C :   -0.016567
  27 C :   -0.007335
  28 N :   -0.018005
  29 C :    0.019851
  30 C :    0.021867
  31 N :   -0.050385
  32 C :   -0.046767
  33 C :   -0.048255
  34 C :   -0.040166
  35 N :   -0.270983
  36 S :    0.685547
  37 N :   -0.308656
  38 C :   -0.162244
  39 C :   -0.014135
  40 C :   -0.073939
  41 C :   -0.185986
  42 S :    0.508238
  43 C :   -0.171713
  44 C :   -0.072460
  45 C :    0.083966
  46 C :   -0.106876
  47 C :   -0.017753
  48 N :   -0.035566
  49 C :   -0.013393
  50 N :   -0.042331
  51 C :   -0.017986
  52 C :   -0.164227
  53 S :    0.473944
  54 C :   -0.057816
  55 C :   -0.000515
  56 N :   -0.056323
  57 C :    0.030159
  58 C :   -0.076219
  59 C :   -0.035534
  60 N :   -0.282357
  61 S :    0.672069
  62 N :   -0.270656
  63 H :    0.039647
  64 H :    0.027917
  65 H :    0.046040
  66 H :    0.037273
  67 H :    0.035085
  68 H :    0.030619
  69 H :    0.035659
  70 H :    0.039347
  71 H :    0.016531
  72 H :    0.029883

  Mayer bond orders larger than 0.100000
B(  0-C ,  1-C ) :   1.4910 B(  0-C ,  5-C ) :   1.2388 B(  0-C , 63-H ) :   0.9913
B(  1-C ,  2-N ) :   1.3959 B(  1-C , 64-H ) :   0.9735 B(  2-N ,  3-C ) :   1.7190
B(  3-C ,  4-C ) :   1.1165 B(  3-C ,  9-C ) :   1.1198 B(  4-C ,  5-C ) :   1.1859
B(  4-C ,  8-N ) :   1.5191 B(  5-C ,  6-N ) :   1.5004 B(  6-N ,  7-S ) :   1.2851
B(  6-N ,  8-N ) :   0.1522 B(  7-S ,  8-N ) :   1.2629 B(  9-C , 10-C ) :   1.4232
B(  9-C , 13-S ) :   1.1137 B( 10-C , 11-C ) :   1.2603 B( 10-C , 65-H ) :   1.0140
B( 11-C , 12-C ) :   1.4014 B( 11-C , 16-C ) :   0.9913 B( 12-C , 13-S ) :   1.1153
B( 12-C , 14-C ) :   1.2028 B( 14-C , 15-C ) :   1.4061 B( 14-C , 24-S ) :   1.0699
B( 15-C , 16-C ) :   0.9894 B( 15-C , 22-C ) :   1.2775 B( 16-C , 17-C ) :   1.7085
B( 17-C , 18-C ) :   1.1404 B( 17-C , 20-C ) :   1.1339 B( 18-C , 19-N ) :   2.9866
B( 20-C , 21-N ) :   3.0023 B( 22-C , 23-C ) :   1.4158 B( 22-C , 66-H ) :   0.9842
B( 23-C , 24-S ) :   1.0872 B( 23-C , 25-C ) :   1.2025 B( 25-C , 26-C ) :   1.2661
B( 25-C , 32-C ) :   0.1306 B( 25-C , 34-C ) :   1.2094 B( 26-C , 27-C ) :   1.1270
B( 26-C , 31-N ) :   1.3902 B( 27-C , 28-N ) :   1.4686 B( 27-C , 32-C ) :   1.2710
B( 28-N , 29-C ) :   1.6679 B( 29-C , 30-C ) :   1.1937 B( 29-C , 67-H ) :   0.9751
B( 30-C , 31-N ) :   1.6508 B( 30-C , 68-H ) :   0.9738 B( 32-C , 33-C ) :   1.1959
B( 32-C , 38-C ) :   1.1914 B( 33-C , 34-C ) :   1.1089 B( 33-C , 37-N ) :   1.4634
B( 34-C , 35-N ) :   1.5068 B( 35-N , 36-S ) :   1.2907 B( 35-N , 37-N ) :   0.1538
B( 36-S , 37-N ) :   1.2697 B( 38-C , 39-C ) :   1.4101 B( 38-C , 42-S ) :   1.0970
B( 39-C , 40-C ) :   1.2627 B( 39-C , 69-H ) :   0.9810 B( 40-C , 41-C ) :   1.4031
B( 40-C , 45-C ) :   0.9914 B( 41-C , 42-S ) :   1.0968 B( 41-C , 43-C ) :   1.1909
B( 43-C , 44-C ) :   1.4308 B( 43-C , 53-S ) :   1.1255 B( 44-C , 45-C ) :   0.9981
B( 44-C , 51-C ) :   1.2414 B( 45-C , 46-C ) :   1.7030 B( 46-C , 47-C ) :   1.1370
B( 46-C , 49-C ) :   1.1402 B( 47-C , 48-N ) :   2.9900 B( 49-C , 50-N ) :   2.9892
B( 51-C , 52-C ) :   1.4908 B( 51-C , 70-H ) :   0.9848 B( 52-C , 53-S ) :   1.0889
B( 52-C , 54-C ) :   1.1027 B( 54-C , 55-C ) :   1.4554 B( 54-C , 57-C ) :   0.1049
B( 54-C , 59-C ) :   1.2038 B( 55-C , 56-N ) :   1.4340 B( 55-C , 71-H ) :   0.9804
B( 56-N , 57-C ) :   1.6987 B( 57-C , 58-C ) :   1.1806 B( 57-C , 72-H ) :   0.9925
B( 58-C , 59-C ) :   1.1879 B( 58-C , 62-N ) :   1.4907 B( 59-C , 60-N ) :   1.5153
B( 60-N , 61-S ) :   1.2602 B( 60-N , 62-N ) :   0.1503 B( 61-S , 62-N ) :   1.3056

-----------------------------------------------------------------------------
         ABSORPTION SPECTRUM VIA TRANSITION ELECTRIC DIPOLE MOMENTS
-----------------------------------------------------------------------------
State   Energy  Wavelength   fosc         T2         TX        TY        TZ
        (cm-1)    (nm)                  (au**2)     (au)      (au)      (au)
-----------------------------------------------------------------------------
   0    8917.5   1121.4   0.855506725  31.58313   0.35784   5.30546   1.81855
   1   12514.0    799.1   0.002868496   0.07546  -0.15500  -0.21336  -0.07691
   2   13636.6    733.3   0.004922675   0.11884  -0.00143   0.28220  -0.19799
   3   17609.2    567.9   0.003288560   0.06148  -0.20939  -0.06294  -0.11694
   4   20543.9    486.8   0.597054007   9.56765  -0.19655  -2.42840  -1.90575
   5   21194.4    471.8   0.206208276   3.20303   0.18694  -1.60897  -0.76111
   6   22521.6    444.0   0.103316447   1.51024   0.04133  -0.75534  -0.96850
   7   23631.4    423.2   0.001570476   0.02188   0.13557  -0.03483   0.04780
   8   24086.4    415.2   0.024617918   0.33648  -0.02536   0.34849   0.46302
   9   25151.4    397.6   0.123905635   1.62183   0.11030   1.24139   0.26194
  10   25953.5    385.3   0.015377116   0.19505  -0.05755   0.14574   0.41292
  11   26420.2    378.5   0.018695771   0.23296   0.07575   0.19783  -0.43369
  12   26850.7    372.4   0.017786414   0.21808   0.03846   0.10077  -0.45436
  13   29245.7    341.9   0.193720662   2.18067   0.12384   0.77883  -1.24850
  14   29487.0    339.1   0.002828701   0.03158   0.00140   0.13679  -0.11343
  15   29715.0    336.5   0.154314294   1.70965   0.21889   1.28887  -0.02350
  16   30070.3    332.6   0.000999929   0.01095   0.10177  -0.01222   0.02099
  17   30139.6    331.8   0.066048999   0.72145   0.03874  -0.28430  -0.79945
  18   30231.2    330.8   0.047129195   0.51323  -0.06225   0.48179   0.52652
  19   30440.6    328.5   0.000712302   0.00770   0.07338   0.04811  -0.00187
  20   30785.6    324.8   1.059568217  11.33072  -0.26508  -3.32876  -0.42403
  21   31282.1    319.7   0.085455665   0.89933   0.13966   0.93620   0.05793
  22   31570.3    316.8   0.000150026   0.00156   0.02881   0.02644  -0.00597
  23   31760.8    314.9   0.153617186   1.59230   0.05960  -0.62050  -1.09714
  24   31982.7    312.7   0.223272011   2.29824   0.13136  -0.43224  -1.44712
  25   32144.1    311.1   0.008853591   0.09068  -0.10467   0.24094   0.14721
  26   32411.2    308.5   0.443752675   4.50735  -0.29220  -0.46771   2.05018
  27   33758.3    296.2   0.004466231   0.04355   0.06645  -0.19408   0.03837
  28   34278.1    291.7   0.022661867   0.21765   0.03603  -0.21410   0.41293
  29   34316.8    291.4   0.155928039   1.49587   0.32827   0.16935  -1.16594
  30   34483.4    290.0   0.206910275   1.97536  -0.36487  -1.05253   0.85698
  31   35029.3    285.5   0.032886853   0.30908   0.04686   0.35260  -0.42726
  32   35301.7    283.3   0.202186355   1.88552  -0.12101   0.67172   1.19150
  33   35702.9    280.1   0.000632320   0.00583   0.05543   0.03441   0.03968
  34   36019.5    277.6   0.307442331   2.80997  -0.20988  -0.53737   1.57390
  35   36061.2    277.3   0.125062070   1.14173   0.06979   0.33067  -1.01366
  36   36169.7    276.5   0.050778909   0.46218   0.11183  -0.02982  -0.66992
  37   36245.5    275.9   0.048131300   0.43717  -0.08746   0.13990   0.64027
  38   36552.9    273.6   0.000478886   0.00431  -0.03242   0.04122  -0.03954
  39   36630.9    273.0   0.009556605   0.08589   0.00421  -0.29131  -0.03175
  40   37026.5    270.1   0.019656383   0.17477   0.01320  -0.37408   0.18618
  41   37161.6    269.1   0.000340688   0.00302   0.03221  -0.01642   0.04137
  42   37250.3    268.5   0.023359861   0.20645   0.09261  -0.42900  -0.11760
  43   37319.5    268.0   0.000529440   0.00467  -0.01486  -0.06100  -0.02698
  44   37539.0    266.4   0.135445496   1.18784   0.01791   0.50488   0.96572
  45   37641.6    265.7   0.249424533   2.18146   0.12826   0.03864  -1.47089
  46   37835.9    264.3   0.008448954   0.07351   0.01766   0.21527  -0.16389
  47   38156.9    262.1   0.034402741   0.29682  -0.02847   0.48086   0.25453
  48   38876.0    257.2   0.117615815   0.99600  -0.07233  -0.18563   0.97791
  49   38991.0    256.5   0.002978139   0.02515   0.01247  -0.09741  -0.12450
  50   39713.4    251.8   0.008171750   0.06774  -0.02777   0.23862   0.10016
  51   40198.7    248.8   0.090601082   0.74199  -0.11049  -0.84051   0.15273

FINAL SINGLE POINT ENERGY     -5156.359211099074

DIPOLE MOMENT
-------------
                                X             Y             Z
Electronic contribution:     -1.17092      -4.88943      -1.75550
Nuclear contribution   :      0.96026       4.56448       3.14448
                        -----------------------------------------
Total Dipole Moment    :     -0.21066      -0.32496       1.38899
                        -----------------------------------------
Magnitude (a.u.)       :      1.44196
Magnitude (Debye)      :      3.66518

Rotational constants in cm-1:     0.003103     0.000286     0.000263
Rotational constants in MHz :    93.017976     8.576835     7.879541

                             ****ORCA TERMINATED NORMALLY****
TOTAL RUN TIME: 0 days 0 hours 6 minutes 8 seconds 964 msec
