                         Program Version 4.2.0 -  RELEASE  -
|  1> # ORCA input file
|  2> # SCF done       -167.550327514501          0.000842734623
|  3> ! CAM-B3LYP def2-SVP def2/J RIJCOSX Grid4 TightSCF
|  4> %maxcore 5000
|  5> %tddft
|  6>     Mode sTDDFT
|  7>     Ethresh 5.0
|  8>     maxcore 5000
|  9> end
| 10>
| 11> %pal
| 12>   nprocs 6
| 13>   end
| 14> * xyz 0 1
| 15>    C        2.89854         1.14611        -2.65224
| 16>    C        2.64730         0.66054        -1.39008
| 17>    N        2.42671        -0.61975        -1.08402
| 18>    C        2.43775        -1.54550        -2.02421
| 19>    C        2.68618        -1.18038        -3.37539
| 20>    C        2.92093         0.20134        -3.68871
| 21>    N        3.13622         0.37950        -4.99521
| 22>    S        3.05006        -1.04069        -5.73395
| 23>    N        2.73641        -1.96185        -4.44996
| 24>    C        2.19449        -2.90673        -1.65446
| 25>    C        1.93533        -3.37667        -0.37892
| 26>    C        1.73950        -4.75452        -0.36931
| 27>    C        1.85406        -5.32814        -1.65393
| 28>    S        2.20075        -4.17099        -2.86164
| 29>    C        1.63571        -6.72125        -1.54822
| 30>    C        1.38093        -7.03313        -0.19541
| 31>    C        1.44429        -5.80768         0.58790
| 32>    C        1.27027        -5.68134         1.93398
| 33>    C        1.00169        -6.79317         2.76214
| 34>    N        0.78896        -7.69166         3.44137
| 35>    C        1.35467        -4.43629         2.59320
| 36>    N        1.42067        -3.43039         3.13929
| 37>    C        1.13979        -8.38324         0.01248
| 38>    C        1.20857        -9.11653        -1.16776
| 39>    S        1.58738        -8.09776        -2.55519
| 40>    C        1.01310       -10.50916        -1.36572
| 41>    C        0.65135       -11.42928        -0.34564
| 42>    C        0.46071       -12.83757        -0.61267
| 43>    N        0.03642       -13.64232         0.37271
| 44>    C       -0.16637       -13.16218         1.57308
| 45>    C        0.09090       -11.78162         1.85513
| 46>    N        0.47387       -10.97005         0.90253
| 47>    C       -0.09231       -11.28918         3.17276
| 48>    N       -0.26374       -10.95044         4.25293
| 49>    C       -0.67290       -14.01349         2.58816
| 50>    N       -1.10177       -14.65768         3.43213
| 51>    C        0.66219       -13.39993        -1.90070
| 52>    C        0.99400       -12.47469        -2.91258
| 53>    C        1.16358       -11.07132        -2.65225
| 54>    N        1.47683       -10.40116        -3.76161
| 55>    S        1.55035       -11.42077        -4.99981
| 56>    N        1.19123       -12.76506        -4.19901
| 57>    C        0.52735       -14.78048        -2.20293
| 58>    C        0.36484       -15.85076        -1.33032
| 59>    C        0.25082       -17.05908        -2.00192
| 60>    C        0.31684       -16.91855        -3.40454
| 61>    S        0.55791       -15.29976        -3.88615
| 62>    C        0.15781       -18.19682        -3.99054
| 63>    C       -0.00765       -19.14564        -2.96211
| 64>    C        0.06378       -18.46578        -1.67978
| 65>    C       -0.00009       -19.02543        -0.43788
| 66>    C       -0.18583       -20.41150        -0.25240
| 67>    N       -0.33928       -21.53834        -0.10526
| 68>    C        0.14703       -18.25878         0.73858
| 69>    N        0.29080       -17.64333         1.69480
| 70>    C       -0.18473       -20.43983        -3.44720
| 71>    C       -0.15902       -20.48268        -4.82947
| 72>    S        0.09334       -18.90112        -5.54488
| 73>    C       -0.31566       -21.62443        -5.67995
| 74>    C       -0.51339       -22.92317        -5.22134
| 75>    N       -0.66657       -23.99753        -5.99605
| 76>    C       -0.64010       -23.89890        -7.29790
| 77>    C       -0.44715       -22.65143        -7.92020
| 78>    C       -0.28116       -21.49153        -7.09043
| 79>    N       -0.10839       -20.38207        -7.80644
| 80>    S       -0.15196       -20.76901        -9.36852
| 81>    N       -0.38927       -22.34508        -9.21841
| 82>    H        3.07009         2.19077        -2.84764
| 83>    H        2.61438         1.32855        -0.54032
| 84>    H        1.89844        -2.71889         0.46972
| 85>    H        0.92134        -8.84183         0.95866
| 86>    H        0.33020       -15.72287        -0.26483
| 87>    H       -0.32938       -21.30748        -2.83058
| 88>    H       -0.55396       -23.13049        -4.16200
| 89>    H       -0.77097       -24.80322        -7.87287
| 90> *
| 91>
| 92>                          ****END OF INPUT****

CARTESIAN COORDINATES (ANGSTROEM)
---------------------------------
  C      2.898540    1.146110   -2.652240
  C      2.647300    0.660540   -1.390080
  N      2.426710   -0.619750   -1.084020
  C      2.437750   -1.545500   -2.024210
  C      2.686180   -1.180380   -3.375390
  C      2.920930    0.201340   -3.688710
  N      3.136220    0.379500   -4.995210
  S      3.050060   -1.040690   -5.733950
  N      2.736410   -1.961850   -4.449960
  C      2.194490   -2.906730   -1.654460
  C      1.935330   -3.376670   -0.378920
  C      1.739500   -4.754520   -0.369310
  C      1.854060   -5.328140   -1.653930
  S      2.200750   -4.170990   -2.861640
  C      1.635710   -6.721250   -1.548220
  C      1.380930   -7.033130   -0.195410
  C      1.444290   -5.807680    0.587900
  C      1.270270   -5.681340    1.933980
  C      1.001690   -6.793170    2.762140
  N      0.788960   -7.691660    3.441370
  C      1.354670   -4.436290    2.593200
  N      1.420670   -3.430390    3.139290
  C      1.139790   -8.383240    0.012480
  C      1.208570   -9.116530   -1.167760
  S      1.587380   -8.097760   -2.555190
  C      1.013100  -10.509160   -1.365720
  C      0.651350  -11.429280   -0.345640
  C      0.460710  -12.837570   -0.612670
  N      0.036420  -13.642320    0.372710
  C     -0.166370  -13.162180    1.573080
  C      0.090900  -11.781620    1.855130
  N      0.473870  -10.970050    0.902530
  C     -0.092310  -11.289180    3.172760
  N     -0.263740  -10.950440    4.252930
  C     -0.672900  -14.013490    2.588160
  N     -1.101770  -14.657680    3.432130
  C      0.662190  -13.399930   -1.900700
  C      0.994000  -12.474690   -2.912580
  C      1.163580  -11.071320   -2.652250
  N      1.476830  -10.401160   -3.761610
  S      1.550350  -11.420770   -4.999810
  N      1.191230  -12.765060   -4.199010
  C      0.527350  -14.780480   -2.202930
  C      0.364840  -15.850760   -1.330320
  C      0.250820  -17.059080   -2.001920
  C      0.316840  -16.918550   -3.404540
  S      0.557910  -15.299760   -3.886150
  C      0.157810  -18.196820   -3.990540
  C     -0.007650  -19.145640   -2.962110
  C      0.063780  -18.465780   -1.679780
  C     -0.000090  -19.025430   -0.437880
  C     -0.185830  -20.411500   -0.252400
  N     -0.339280  -21.538340   -0.105260
  C      0.147030  -18.258780    0.738580
  N      0.290800  -17.643330    1.694800
  C     -0.184730  -20.439830   -3.447200
  C     -0.159020  -20.482680   -4.829470
  S      0.093340  -18.901120   -5.544880
  C     -0.315660  -21.624430   -5.679950
  C     -0.513390  -22.923170   -5.221340
  N     -0.666570  -23.997530   -5.996050
  C     -0.640100  -23.898900   -7.297900
  C     -0.447150  -22.651430   -7.920200
  C     -0.281160  -21.491530   -7.090430
  N     -0.108390  -20.382070   -7.806440
  S     -0.151960  -20.769010   -9.368520
  N     -0.389270  -22.345080   -9.218410
  H      3.070090    2.190770   -2.847640
  H      2.614380    1.328550   -0.540320
  H      1.898440   -2.718890    0.469720
  H      0.921340   -8.841830    0.958660
  H      0.330200  -15.722870   -0.264830
  H     -0.329380  -21.307480   -2.830580
  H     -0.553960  -23.130490   -4.162000
  H     -0.770970  -24.803220   -7.872870

 Total Charge           Charge          ....    0
 Multiplicity           Mult            ....    1
 Number of Electrons    NEL             ....  496
 Basis Dimension        Dim             .... 1006

ORBITAL ENERGIES
----------------

  NO   OCC          E(Eh)            E(eV)
   0   2.0000     -89.061364     -2423.4829
   1   2.0000     -89.046915     -2423.0897
   2   2.0000     -89.041119     -2422.9320
   3   2.0000     -88.986747     -2421.4525
   4   2.0000     -88.986405     -2421.4432
   5   2.0000     -88.986122     -2421.4355
   6   2.0000     -88.984918     -2421.4027
   7   2.0000     -14.470236      -393.7551
   8   2.0000     -14.469702      -393.7406
   9   2.0000     -14.464706      -393.6047
  10   2.0000     -14.464488      -393.5987
  11   2.0000     -14.461067      -393.5056
  12   2.0000     -14.458941      -393.4478
  13   2.0000     -14.458404      -393.4332
  14   2.0000     -14.450190      -393.2097
  15   2.0000     -14.427848      -392.6017
  16   2.0000     -14.425931      -392.5495
  17   2.0000     -14.425128      -392.5277
  18   2.0000     -14.424985      -392.5238
  19   2.0000     -14.424182      -392.5019
  20   2.0000     -14.423762      -392.4905
  21   2.0000     -14.422576      -392.4582
  22   2.0000     -14.418837      -392.3565
  23   2.0000     -10.384511      -282.5769
  24   2.0000     -10.383838      -282.5586
  25   2.0000     -10.361479      -281.9502
  26   2.0000     -10.359091      -281.8852
  27   2.0000     -10.356689      -281.8198
  28   2.0000     -10.356302      -281.8093
  29   2.0000     -10.355276      -281.7814
  30   2.0000     -10.355008      -281.7741
  31   2.0000     -10.349014      -281.6110
  32   2.0000     -10.346233      -281.5353
  33   2.0000     -10.344888      -281.4987
  34   2.0000     -10.343708      -281.4666
  35   2.0000     -10.337768      -281.3050
  36   2.0000     -10.336889      -281.2811
  37   2.0000     -10.335663      -281.2477
  38   2.0000     -10.329921      -281.0914
  39   2.0000     -10.329577      -281.0821
  40   2.0000     -10.329567      -281.0818
  41   2.0000     -10.329398      -281.0772
  42   2.0000     -10.328289      -281.0470
  43   2.0000     -10.327662      -281.0300
  44   2.0000     -10.327193      -281.0172
  45   2.0000     -10.326979      -281.0114
  46   2.0000     -10.326864      -281.0083
  47   2.0000     -10.326755      -281.0053
  48   2.0000     -10.326603      -281.0012
  49   2.0000     -10.324815      -280.9525
  50   2.0000     -10.323765      -280.9239
  51   2.0000     -10.323477      -280.9161
  52   2.0000     -10.322307      -280.8843
  53   2.0000     -10.318092      -280.7695
  54   2.0000     -10.317979      -280.7665
  55   2.0000     -10.317450      -280.7521
  56   2.0000     -10.317326      -280.7487
  57   2.0000     -10.316765      -280.7334
  58   2.0000     -10.303216      -280.3648
  59   2.0000     -10.302392      -280.3423
  60   2.0000     -10.300646      -280.2948
  61   2.0000     -10.299870      -280.2737
  62   2.0000     -10.298950      -280.2487
  63   2.0000     -10.298348      -280.2323
  64   2.0000     -10.298256      -280.2298
  65   2.0000     -10.296125      -280.1718
  66   2.0000     -10.291283      -280.0401
  67   2.0000      -8.152182      -221.8322
  68   2.0000      -8.138519      -221.4604
  69   2.0000      -8.132838      -221.3058
  70   2.0000      -8.080294      -219.8760
  71   2.0000      -8.079865      -219.8643
  72   2.0000      -8.079689      -219.8595
  73   2.0000      -8.078226      -219.8197
  74   2.0000      -6.123315      -166.6239
  75   2.0000      -6.115586      -166.4135
  76   2.0000      -6.114876      -166.3942
  77   2.0000      -6.109615      -166.2511
  78   2.0000      -6.103954      -166.0970
  79   2.0000      -6.101871      -166.0403
  80   2.0000      -6.101140      -166.0205
  81   2.0000      -6.096200      -165.8860
  82   2.0000      -6.095397      -165.8642
  83   2.0000      -6.049638      -164.6190
  84   2.0000      -6.049265      -164.6089
  85   2.0000      -6.048983      -164.6012
  86   2.0000      -6.047624      -164.5642
  87   2.0000      -6.045107      -164.4957
  88   2.0000      -6.044717      -164.4851
  89   2.0000      -6.044522      -164.4798
  90   2.0000      -6.043089      -164.4408
  91   2.0000      -6.042787      -164.4326
  92   2.0000      -6.042275      -164.4187
  93   2.0000      -6.042273      -164.4186
  94   2.0000      -6.040637      -164.3741
  95   2.0000      -1.158453       -31.5231
  96   2.0000      -1.146121       -31.1875
  97   2.0000      -1.140579       -31.0367
  98   2.0000      -1.124753       -30.6061
  99   2.0000      -1.055422       -28.7195
 100   2.0000      -1.054743       -28.7010
 101   2.0000      -1.051412       -28.6104
 102   2.0000      -1.042040       -28.3553
 103   2.0000      -1.039125       -28.2760
 104   2.0000      -1.019790       -27.7499
 105   2.0000      -1.017517       -27.6881
 106   2.0000      -1.014715       -27.6118
 107   2.0000      -1.012075       -27.5400
 108   2.0000      -1.004853       -27.3434
 109   2.0000      -1.003261       -27.3001
 110   2.0000      -1.000703       -27.2305
 111   2.0000      -0.999056       -27.1857
 112   2.0000      -0.997802       -27.1516
 113   2.0000      -0.993737       -27.0410
 114   2.0000      -0.987318       -26.8663
 115   2.0000      -0.978285       -26.6205
 116   2.0000      -0.956000       -26.0141
 117   2.0000      -0.951287       -25.8858
 118   2.0000      -0.925008       -25.1707
 119   2.0000      -0.916536       -24.9402
 120   2.0000      -0.915028       -24.8992
 121   2.0000      -0.907794       -24.7023
 122   2.0000      -0.904689       -24.6178
 123   2.0000      -0.891404       -24.2563
 124   2.0000      -0.880155       -23.9502
 125   2.0000      -0.874567       -23.7982
 126   2.0000      -0.863923       -23.5085
 127   2.0000      -0.855524       -23.2800
 128   2.0000      -0.853148       -23.2153
 129   2.0000      -0.850886       -23.1538
 130   2.0000      -0.842661       -22.9300
 131   2.0000      -0.813982       -22.1496
 132   2.0000      -0.811371       -22.0785
 133   2.0000      -0.795903       -21.6576
 134   2.0000      -0.785910       -21.3857
 135   2.0000      -0.774257       -21.0686
 136   2.0000      -0.771771       -21.0009
 137   2.0000      -0.764772       -20.8105
 138   2.0000      -0.751469       -20.4485
 139   2.0000      -0.740619       -20.1533
 140   2.0000      -0.735277       -20.0079
 141   2.0000      -0.730084       -19.8666
 142   2.0000      -0.724562       -19.7163
 143   2.0000      -0.710409       -19.3312
 144   2.0000      -0.708336       -19.2748
 145   2.0000      -0.698590       -19.0096
 146   2.0000      -0.698275       -19.0010
 147   2.0000      -0.687283       -18.7019
 148   2.0000      -0.678164       -18.4538
 149   2.0000      -0.675231       -18.3740
 150   2.0000      -0.671889       -18.2830
 151   2.0000      -0.665632       -18.1128
 152   2.0000      -0.651686       -17.7333
 153   2.0000      -0.647009       -17.6060
 154   2.0000      -0.636263       -17.3136
 155   2.0000      -0.632571       -17.2131
 156   2.0000      -0.630828       -17.1657
 157   2.0000      -0.630004       -17.1433
 158   2.0000      -0.618361       -16.8265
 159   2.0000      -0.613320       -16.6893
 160   2.0000      -0.611646       -16.6437
 161   2.0000      -0.609241       -16.5783
 162   2.0000      -0.607777       -16.5385
 163   2.0000      -0.602155       -16.3855
 164   2.0000      -0.593215       -16.1422
 165   2.0000      -0.589380       -16.0378
 166   2.0000      -0.575704       -15.6657
 167   2.0000      -0.570462       -15.5231
 168   2.0000      -0.568556       -15.4712
 169   2.0000      -0.566903       -15.4262
 170   2.0000      -0.566238       -15.4081
 171   2.0000      -0.563740       -15.3402
 172   2.0000      -0.554824       -15.0975
 173   2.0000      -0.551156       -14.9977
 174   2.0000      -0.546807       -14.8794
 175   2.0000      -0.544612       -14.8197
 176   2.0000      -0.542326       -14.7574
 177   2.0000      -0.535647       -14.5757
 178   2.0000      -0.522138       -14.2081
 179   2.0000      -0.518622       -14.1124
 180   2.0000      -0.509926       -13.8758
 181   2.0000      -0.507482       -13.8093
 182   2.0000      -0.505019       -13.7423
 183   2.0000      -0.502677       -13.6785
 184   2.0000      -0.502248       -13.6669
 185   2.0000      -0.501756       -13.6535
 186   2.0000      -0.498504       -13.5650
 187   2.0000      -0.496103       -13.4996
 188   2.0000      -0.494824       -13.4649
 189   2.0000      -0.491930       -13.3861
 190   2.0000      -0.491601       -13.3771
 191   2.0000      -0.486481       -13.2378
 192   2.0000      -0.485091       -13.2000
 193   2.0000      -0.484038       -13.1713
 194   2.0000      -0.478002       -13.0071
 195   2.0000      -0.474713       -12.9176
 196   2.0000      -0.472604       -12.8602
 197   2.0000      -0.471933       -12.8420
 198   2.0000      -0.467009       -12.7080
 199   2.0000      -0.461986       -12.5713
 200   2.0000      -0.459576       -12.5057
 201   2.0000      -0.457184       -12.4406
 202   2.0000      -0.456237       -12.4148
 203   2.0000      -0.454784       -12.3753
 204   2.0000      -0.451375       -12.2825
 205   2.0000      -0.450735       -12.2651
 206   2.0000      -0.449801       -12.2397
 207   2.0000      -0.448676       -12.2091
 208   2.0000      -0.447259       -12.1705
 209   2.0000      -0.445460       -12.1216
 210   2.0000      -0.438184       -11.9236
 211   2.0000      -0.437190       -11.8966
 212   2.0000      -0.435925       -11.8621
 213   2.0000      -0.435191       -11.8422
 214   2.0000      -0.433292       -11.7905
 215   2.0000      -0.431357       -11.7378
 216   2.0000      -0.429142       -11.6776
 217   2.0000      -0.428333       -11.6555
 218   2.0000      -0.424064       -11.5394
 219   2.0000      -0.421523       -11.4702
 220   2.0000      -0.420785       -11.4501
 221   2.0000      -0.420507       -11.4426
 222   2.0000      -0.416220       -11.3259
 223   2.0000      -0.411912       -11.2087
 224   2.0000      -0.407729       -11.0949
 225   2.0000      -0.405983       -11.0474
 226   2.0000      -0.403617       -10.9830
 227   2.0000      -0.401716       -10.9312
 228   2.0000      -0.385326       -10.4852
 229   2.0000      -0.384175       -10.4539
 230   2.0000      -0.381785       -10.3889
 231   2.0000      -0.377894       -10.2830
 232   2.0000      -0.377367       -10.2687
 233   2.0000      -0.365982        -9.9589
 234   2.0000      -0.363886        -9.9018
 235   2.0000      -0.360521        -9.8103
 236   2.0000      -0.356438        -9.6992
 237   2.0000      -0.351882        -9.5752
 238   2.0000      -0.347495        -9.4558
 239   2.0000      -0.345183        -9.3929
 240   2.0000      -0.344832        -9.3834
 241   2.0000      -0.341180        -9.2840
 242   2.0000      -0.330413        -8.9910
 243   2.0000      -0.318845        -8.6762
 244   2.0000      -0.316689        -8.6176
 245   2.0000      -0.303197        -8.2504
 246   2.0000      -0.273147        -7.4327
 247   2.0000      -0.239036        -6.5045
 248   0.0000      -0.136037        -3.7017
 249   0.0000      -0.101540        -2.7630
 250   0.0000      -0.098205        -2.6723
 251   0.0000      -0.082432        -2.2431
 252   0.0000      -0.079050        -2.1511

MULLIKEN ATOMIC CHARGES
-----------------------
   0 C :   -0.038368
   1 C :    0.031707
   2 N :   -0.047651
   3 C :    0.030301
   4 C :   -0.049775
   5 C :    0.092600
   6 N :   -0.266220
   7 S :    0.526128
   8 N :   -0.297519
   9 C :   -0.096758
  10 C :   -0.057989
  11 C :    0.031773
  12 C :   -0.086741
  13 S :    0.219762
  14 C :   -0.067058
  15 C :    0.047553
  16 C :    0.304235
  17 C :   -0.298223
  18 C :   -0.197358
  19 N :    0.189412
  20 C :   -0.193410
  21 N :    0.179411
  22 C :   -0.067150
  23 C :   -0.179932
  24 S :    0.197750
  25 C :    0.209964
  26 C :   -0.075797
  27 C :   -0.074616
  28 N :    0.037700
  29 C :   -0.125388
  30 C :   -0.114805
  31 N :    0.045909
  32 C :   -0.214609
  33 N :    0.255761
  34 C :   -0.211755
  35 N :    0.251901
  36 C :    0.199014
  37 C :   -0.018696
  38 C :   -0.018200
  39 N :   -0.331760
  40 S :    0.565166
  41 N :   -0.327333
  42 C :   -0.179094
  43 C :   -0.050721
  44 C :    0.034990
  45 C :   -0.069866
  46 S :    0.201369
  47 C :   -0.089737
  48 C :    0.022326
  49 C :    0.304720
  50 C :   -0.296618
  51 C :   -0.188037
  52 N :    0.169542
  53 C :   -0.193615
  54 N :    0.186824
  55 C :   -0.050743
  56 C :   -0.085718
  57 S :    0.213976
  58 C :    0.100953
  59 C :   -0.039545
  60 N :   -0.036132
  61 C :   -0.003147
  62 C :    0.023400
  63 C :   -0.004700
  64 N :   -0.322316
  65 S :    0.533619
  66 N :   -0.250843
  67 H :   -0.002581
  68 H :    0.015626
  69 H :    0.020472
  70 H :    0.023508
  71 H :    0.022886
  72 H :    0.008668
  73 H :    0.012909
  74 H :    0.008691
Sum of atomic charges:   -0.0000000

LOEWDIN ATOMIC CHARGES
----------------------
   0 C :   -0.049947
   1 C :    0.024534
   2 N :   -0.071368
   3 C :    0.001470
   4 C :   -0.076053
   5 C :   -0.041439
   6 N :   -0.283368
   7 S :    0.659936
   8 N :   -0.295873
   9 C :   -0.180199
  10 C :    0.004394
  11 C :   -0.066725
  12 C :   -0.180725
  13 S :    0.512585
  14 C :   -0.177796
  15 C :   -0.070173
  16 C :    0.077162
  17 C :   -0.099081
  18 C :   -0.020397
  19 N :   -0.022012
  20 C :   -0.018384
  21 N :   -0.029135
  22 C :   -0.008323
  23 C :   -0.164805
  24 S :    0.505707
  25 C :   -0.042722
  26 C :   -0.004819
  27 C :   -0.005563
  28 N :    0.007304
  29 C :   -0.020575
  30 C :   -0.017841
  31 N :    0.006515
  32 C :   -0.041526
  33 N :    0.015170
  34 C :   -0.039671
  35 N :    0.010384
  36 C :   -0.040823
  37 C :   -0.047436
  38 C :   -0.046394
  39 N :   -0.299834
  40 S :    0.682154
  41 N :   -0.298762
  42 C :   -0.166488
  43 C :   -0.005185
  44 C :   -0.073385
  45 C :   -0.173867
  46 S :    0.506372
  47 C :   -0.187783
  48 C :   -0.064325
  49 C :    0.079214
  50 C :   -0.101218
  51 C :   -0.015902
  52 N :   -0.034826
  53 C :   -0.019710
  54 N :   -0.023252
  55 C :   -0.022038
  56 C :   -0.160310
  57 S :    0.513215
  58 C :   -0.061404
  59 C :    0.022576
  60 N :   -0.052985
  61 C :    0.033504
  62 C :   -0.075302
  63 C :   -0.046418
  64 N :   -0.310321
  65 S :    0.667165
  66 N :   -0.265605
  67 H :    0.040906
  68 H :    0.029045
  69 H :    0.047033
  70 H :    0.037747
  71 H :    0.038435
  72 H :    0.040076
  73 H :    0.028419
  74 H :    0.031070

  Mayer bond orders larger than 0.100000
B(  0-C ,  1-C ) :   1.4905 B(  0-C ,  5-C ) :   1.2380 B(  0-C , 67-H ) :   0.9916
B(  1-C ,  2-N ) :   1.3950 B(  1-C , 68-H ) :   0.9739 B(  2-N ,  3-C ) :   1.7238
B(  3-C ,  4-C ) :   1.1189 B(  3-C ,  9-C ) :   1.1162 B(  4-C ,  5-C ) :   1.1862
B(  4-C ,  8-N ) :   1.5179 B(  5-C ,  6-N ) :   1.4988 B(  6-N ,  7-S ) :   1.2879
B(  6-N ,  8-N ) :   0.1525 B(  7-S ,  8-N ) :   1.2638 B(  9-C , 10-C ) :   1.4214
B(  9-C , 13-S ) :   1.1207 B( 10-C , 11-C ) :   1.2607 B( 10-C , 69-H ) :   1.0150
B( 11-C , 12-C ) :   1.4023 B( 11-C , 16-C ) :   0.9890 B( 12-C , 13-S ) :   1.1092
B( 12-C , 14-C ) :   1.2022 B( 14-C , 15-C ) :   1.3936 B( 14-C , 24-S ) :   1.1022
B( 15-C , 16-C ) :   0.9930 B( 15-C , 22-C ) :   1.2727 B( 16-C , 17-C ) :   1.7186
B( 17-C , 18-C ) :   1.1341 B( 17-C , 20-C ) :   1.1325 B( 18-C , 19-N ) :   2.9949
B( 20-C , 21-N ) :   2.9998 B( 22-C , 23-C ) :   1.3966 B( 22-C , 70-H ) :   0.9855
B( 23-C , 24-S ) :   1.0904 B( 23-C , 25-C ) :   1.2028 B( 25-C , 26-C ) :   1.2463
B( 25-C , 36-C ) :   0.1206 B( 25-C , 38-C ) :   1.1911 B( 26-C , 27-C ) :   1.1038
B( 26-C , 31-N ) :   1.4502 B( 27-C , 28-N ) :   1.4494 B( 27-C , 36-C ) :   1.2466
B( 28-N , 29-C ) :   1.7243 B( 29-C , 30-C ) :   1.2081 B( 29-C , 34-C ) :   1.1536
B( 30-C , 31-N ) :   1.7317 B( 30-C , 32-C ) :   1.1523 B( 32-C , 33-N ) :   3.0227
B( 34-C , 35-N ) :   3.0340 B( 36-C , 37-C ) :   1.1933 B( 36-C , 42-C ) :   1.2004
B( 37-C , 38-C ) :   1.1220 B( 37-C , 41-N ) :   1.4745 B( 38-C , 39-N ) :   1.4697
B( 39-N , 40-S ) :   1.2746 B( 39-N , 41-N ) :   0.1516 B( 40-S , 41-N ) :   1.2753
B( 42-C , 43-C ) :   1.3964 B( 42-C , 46-S ) :   1.0887 B( 43-C , 44-C ) :   1.2843
B( 43-C , 71-H ) :   0.9870 B( 44-C , 45-C ) :   1.3949 B( 44-C , 49-C ) :   0.9911
B( 45-C , 46-S ) :   1.1086 B( 45-C , 47-C ) :   1.1980 B( 47-C , 48-C ) :   1.4155
B( 47-C , 57-S ) :   1.0957 B( 48-C , 49-C ) :   0.9957 B( 48-C , 55-C ) :   1.3004
B( 49-C , 50-C ) :   1.7129 B( 50-C , 51-C ) :   1.1352 B( 50-C , 53-C ) :   1.1335
B( 51-C , 52-N ) :   2.9879 B( 53-C , 54-N ) :   2.9928 B( 55-C , 56-C ) :   1.4553
B( 55-C , 72-H ) :   0.9891 B( 56-C , 57-S ) :   1.1199 B( 56-C , 58-C ) :   1.0862
B( 58-C , 59-C ) :   1.4640 B( 58-C , 61-C ) :   0.1036 B( 58-C , 63-C ) :   1.1859
B( 59-C , 60-N ) :   1.4257 B( 59-C , 73-H ) :   0.9830 B( 60-N , 61-C ) :   1.6976
B( 61-C , 62-C ) :   1.1773 B( 61-C , 74-H ) :   0.9942 B( 62-C , 63-C ) :   1.1916
B( 62-C , 66-N ) :   1.4915 B( 63-C , 64-N ) :   1.4906 B( 64-N , 65-S ) :   1.2504
B( 64-N , 66-N ) :   0.1519 B( 65-S , 66-N ) :   1.3112

-----------------------------------------------------------------------------
         ABSORPTION SPECTRUM VIA TRANSITION ELECTRIC DIPOLE MOMENTS
-----------------------------------------------------------------------------
State   Energy  Wavelength   fosc         T2         TX        TY        TZ
        (cm-1)    (nm)                  (au**2)     (au)      (au)      (au)
-----------------------------------------------------------------------------
   0    7619.5   1312.4   0.674430402  29.13987   0.67681   5.27551   0.92235
   1   13417.4    745.3   0.031198370   0.76549  -0.00673   0.39748   0.77939
   2   13922.9    718.2   0.053940029   1.27543  -0.22482  -1.06270   0.30912
   3   16298.5    613.6   0.036945787   0.74627   0.15101   0.06396  -0.84816
   4   20773.4    481.4   0.540210754   8.56114   0.33864   2.61676   1.26452
   5   21167.4    472.4   0.402374122   6.25802   0.48468   1.99193  -1.43364
   6   22587.0    442.7   0.167504769   2.44143  -0.27890  -1.52751  -0.17423
   7   23580.9    424.1   0.034830986   0.48627  -0.00700  -0.69697  -0.02155
   8   23772.7    420.7   0.013391816   0.18545   0.02674  -0.30282  -0.30502
   9   23884.1    418.7   0.026245037   0.36175   0.01920  -0.06307   0.59784
  10   24083.3    415.2   0.004818340   0.06587   0.13071  -0.05936  -0.21273
  11   24675.7    405.3   0.000293163   0.00391  -0.04812  -0.01427  -0.03731
  12   25244.9    396.1   0.017918346   0.23367   0.11091   0.41872   0.21458
  13   25651.1    389.8   0.002063668   0.02649  -0.13005   0.09137   0.03498
  14   28851.9    346.6   0.114546256   1.30702  -0.06349  -0.41474   1.06347
  15   29207.5    342.4   0.003450602   0.03889   0.15430  -0.10587   0.06226
  16   29317.7    341.1   0.000321103   0.00361   0.05978   0.00406  -0.00399
  17   29534.5    338.6   0.239971448   2.67489   0.12447   1.55311   0.49724
  18   29635.1    337.4   0.096604838   1.07317  -0.27661  -0.38494   0.92113
  19   29775.1    335.9   0.001479458   0.01636   0.12689  -0.00656  -0.01459
  20   30003.8    333.3   0.183482081   2.01323   0.02687   1.03051   0.97496
  21   30428.0    328.6   0.398136672   4.30759  -0.20876  -1.94519  -0.69301
  22   30529.4    327.6   0.590377733   6.36631   0.36114   2.49161   0.16665
  23   31032.0    322.2   0.074712857   0.79261  -0.27554  -0.07584   0.84317
  24   31263.1    319.9   0.048540752   0.51115  -0.05327   0.57479   0.42182
  25   31521.2    317.2   0.007536330   0.07871  -0.15407   0.14337  -0.18553
  26   32142.9    311.1   0.013484759   0.13811  -0.20172   0.23276  -0.20795
  27   32697.5    305.8   1.447820029  14.57727   0.56908   0.77653  -3.69465
  28   33111.5    302.0   0.003799052   0.03777  -0.06854  -0.02863   0.17960
  29   33716.0    296.6   0.059428357   0.58027  -0.07066   0.07648   0.75461
  30   33844.2    295.5   0.043279339   0.42099   0.12405   0.62974   0.09504
  31   34073.3    293.5   0.173500237   1.67634   0.10140   1.20122   0.47237
  32   34714.0    288.1   0.098911109   0.93803   0.23361   0.19663  -0.91912
  33   35045.9    285.3   0.114824588   1.07863  -0.02524  -0.20528   1.01777
  34   35284.5    283.4   0.110420338   1.03025  -0.27275  -0.43880   0.87368
  35   35469.6    281.9   0.197566213   1.83371   0.09963   0.10173  -1.34664
  36   36160.5    276.5   0.000272135   0.00248  -0.00944  -0.03373   0.03536
  37   36368.1    275.0   0.001029135   0.00932   0.00590  -0.06685   0.06937
  38   36454.4    274.3   0.001695935   0.01532   0.05153   0.07796  -0.08113
  39   36898.9    271.0   0.003721117   0.03320   0.00033  -0.03317   0.17916
  40   36982.5    270.4   0.000309538   0.00276  -0.04757  -0.01866   0.01203
  41   37262.6    268.4   0.000631428   0.00558   0.00853  -0.02142   0.07104
  42   37508.9    266.6   0.075121428   0.65933   0.12990   0.60184   0.52938
  43   37707.2    265.2   0.010838701   0.09463   0.03555  -0.09230  -0.29128
  44   37905.1    263.8   0.035116673   0.30499  -0.08744  -0.49628  -0.22595
  45   38031.9    262.9   0.116016318   1.00426   0.14809   0.70946  -0.69209
  46   38437.2    260.2   0.061752058   0.52890   0.13363   0.71335   0.04663
  47   38550.0    259.4   0.007867560   0.06719   0.03927   0.25376  -0.03535
  48   39122.2    255.6   0.003083585   0.02595  -0.02973  -0.08438  -0.13395
  49   39152.7    255.4   0.003837612   0.03227   0.10899   0.14136   0.02014
  50   39264.4    254.7   0.078143946   0.65520   0.03250   0.61479   0.52552
  51   39274.2    254.6   0.003684342   0.03088  -0.03612  -0.14266  -0.09605
  52   39842.2    251.0   0.002668749   0.02205   0.03520  -0.05872  -0.13177
  53   39888.9    250.7   0.002227939   0.01839  -0.07488  -0.04200  -0.10496
  54   40025.5    249.8   0.000287373   0.00236  -0.00234   0.03937  -0.02843
  55   40122.4    249.2   0.001811772   0.01487   0.01388  -0.12062   0.01110
  56   40294.3    248.2   0.002578309   0.02107   0.03267   0.09868  -0.10129

FINAL SINGLE POINT ENERGY     -5340.591489861352

DIPOLE MOMENT
-------------
                                X             Y             Z
Electronic contribution:      1.04949      -0.07908      -9.22696
Nuclear contribution   :      0.03108       1.38754       2.41468
                        -----------------------------------------
Total Dipole Moment    :      1.08056       1.30846      -6.81228
                        -----------------------------------------
Magnitude (a.u.)       :      7.02046
Magnitude (Debye)      :     17.84460

Rotational constants in cm-1:     0.001796     0.000310     0.000265
Rotational constants in MHz :    53.843394     9.289123     7.939539

                             ****ORCA TERMINATED NORMALLY****
TOTAL RUN TIME: 0 days 0 hours 7 minutes 26 seconds 789 msec
