                         Program Version 4.2.0 -  RELEASE  -
|  1> # ORCA input file
|  2> # SCF done       -166.986245410684          0.000329210067
|  3> ! CAM-B3LYP def2-SVP def2/J RIJCOSX Grid4 TightSCF
|  4> %maxcore 5000
|  5> %tddft
|  6>     Mode sTDDFT
|  7>     Ethresh 5.0
|  8>     maxcore 5000
|  9> end
| 10>
| 11> %pal
| 12>   nprocs 6
| 13>   end
| 14> * xyz 0 1
| 15>    C        0.02367         0.05778         3.95838
| 16>    C       -0.46431        -1.21010         4.16532
| 17>    N       -0.16776        -2.27477         3.41759
| 18>    C        0.64944        -2.17339         2.38679
| 19>    C        1.22687        -0.91615         2.05571
| 20>    C        0.89607         0.22103         2.87190
| 21>    N        1.50633         1.33011         2.44604
| 22>    S        2.39463         0.96944         1.16018
| 23>    N        2.06128        -0.60011         1.06852
| 24>    C        0.91858        -3.36361         1.64121
| 25>    C        1.74326        -3.53323         0.54653
| 26>    C        1.74324        -4.85660         0.10934
| 27>    C        0.90604        -5.68784         0.88442
| 28>    S        0.12773        -4.84185         2.14495
| 29>    C        0.97535        -7.00618         0.37031
| 30>    C        1.85977        -7.00636        -0.72920
| 31>    C        2.36729        -5.65738        -0.92839
| 32>    C        3.24436        -5.23930        -1.88647
| 33>    C        3.78697        -6.12010        -2.84580
| 34>    N        4.23477        -6.82597        -3.63098
| 35>    C        3.67173        -3.89831        -1.98574
| 36>    N        4.02845        -2.81247        -2.07875
| 37>    C        2.00540        -8.26097        -1.30230
| 38>    C        1.23844        -9.22284        -0.65323
| 39>    S        0.32089        -8.55288         0.68494
| 40>    C        1.16972       -10.60413        -0.97275
| 41>    C        0.34148       -11.49624        -0.25437
| 42>    C        0.26182       -12.90327        -0.53408
| 43>    N       -0.54633       -13.67200         0.22589
| 44>    C       -1.23608       -13.13525         1.17870
| 45>    C       -1.16752       -11.74325         1.44642
| 46>    N       -0.39953       -10.97562         0.74478
| 47>    F       -1.88196       -11.18895         2.42036
| 48>    F       -2.01105       -13.92975         1.90767
| 49>    C        1.02534       -13.49556        -1.56899
| 50>    C        1.85281       -12.60373        -2.28937
| 51>    C        1.92772       -11.19137        -2.01227
| 52>    N        2.77964       -10.57919        -2.83599
| 53>    S        3.41632       -11.64695        -3.84483
| 54>    N        2.65260       -12.95062        -3.29843
| 55>    C        1.01732       -14.88081        -1.88924
| 56>    C        0.22284       -15.89231        -1.36204
| 57>    C        0.52734       -17.13322        -1.90517
| 58>    C        1.56976       -17.07511        -2.85370
| 59>    S        2.14980       -15.48829        -3.09218
| 60>    C        1.82178       -18.38823        -3.31804
| 61>    C        0.94323       -19.27641        -2.67051
| 62>    C        0.09161       -18.51594        -1.77134
| 63>    C       -0.90985       -18.99860        -0.98193
| 64>    C       -1.23977       -20.37025        -0.93853
| 65>    N       -1.51884       -21.48154        -0.89431
| 66>    C       -1.69904       -18.16465        -0.16048
| 67>    N       -2.35725       -17.50362         0.50578
| 68>    C        1.13381       -20.60393        -3.05402
| 69>    C        2.14764       -20.73525        -3.98183
| 70>    S        2.87586       -19.18868        -4.39508
| 71>    C        2.62402       -21.94697        -4.58014
| 72>    C        3.66387       -21.97668        -5.50162
| 73>    N        4.15760       -23.06863        -6.08571
| 74>    C        3.66409       -24.24606        -5.81084
| 75>    C        2.60359       -24.38831        -4.89715
| 76>    C        2.06647       -23.21397        -4.26356
| 77>    N        1.07219       -23.51417        -3.42859
| 78>    S        0.84299       -25.10370        -3.44433
| 79>    N        1.98025       -25.50013        -4.49998
| 80>    H       -0.24035         0.89062         4.58730
| 81>    H       -1.14269        -1.41589         4.98189
| 82>    H        2.30068        -2.72197         0.11451
| 83>    H        2.62738        -8.50130        -2.14460
| 84>    H       -0.52705       -15.70110        -0.61813
| 85>    H        0.58072       -21.45037        -2.68965
| 86>    H        4.14413       -21.05263        -5.79761
| 87>    H        4.09767       -25.10121        -6.30724
| 88> *
| 89>
| 90>                          ****END OF INPUT****

CARTESIAN COORDINATES (ANGSTROEM)
---------------------------------
  C      0.023670    0.057780    3.958380
  C     -0.464310   -1.210100    4.165320
  N     -0.167760   -2.274770    3.417590
  C      0.649440   -2.173390    2.386790
  C      1.226870   -0.916150    2.055710
  C      0.896070    0.221030    2.871900
  N      1.506330    1.330110    2.446040
  S      2.394630    0.969440    1.160180
  N      2.061280   -0.600110    1.068520
  C      0.918580   -3.363610    1.641210
  C      1.743260   -3.533230    0.546530
  C      1.743240   -4.856600    0.109340
  C      0.906040   -5.687840    0.884420
  S      0.127730   -4.841850    2.144950
  C      0.975350   -7.006180    0.370310
  C      1.859770   -7.006360   -0.729200
  C      2.367290   -5.657380   -0.928390
  C      3.244360   -5.239300   -1.886470
  C      3.786970   -6.120100   -2.845800
  N      4.234770   -6.825970   -3.630980
  C      3.671730   -3.898310   -1.985740
  N      4.028450   -2.812470   -2.078750
  C      2.005400   -8.260970   -1.302300
  C      1.238440   -9.222840   -0.653230
  S      0.320890   -8.552880    0.684940
  C      1.169720  -10.604130   -0.972750
  C      0.341480  -11.496240   -0.254370
  C      0.261820  -12.903270   -0.534080
  N     -0.546330  -13.672000    0.225890
  C     -1.236080  -13.135250    1.178700
  C     -1.167520  -11.743250    1.446420
  N     -0.399530  -10.975620    0.744780
  F     -1.881960  -11.188950    2.420360
  F     -2.011050  -13.929750    1.907670
  C      1.025340  -13.495560   -1.568990
  C      1.852810  -12.603730   -2.289370
  C      1.927720  -11.191370   -2.012270
  N      2.779640  -10.579190   -2.835990
  S      3.416320  -11.646950   -3.844830
  N      2.652600  -12.950620   -3.298430
  C      1.017320  -14.880810   -1.889240
  C      0.222840  -15.892310   -1.362040
  C      0.527340  -17.133220   -1.905170
  C      1.569760  -17.075110   -2.853700
  S      2.149800  -15.488290   -3.092180
  C      1.821780  -18.388230   -3.318040
  C      0.943230  -19.276410   -2.670510
  C      0.091610  -18.515940   -1.771340
  C     -0.909850  -18.998600   -0.981930
  C     -1.239770  -20.370250   -0.938530
  N     -1.518840  -21.481540   -0.894310
  C     -1.699040  -18.164650   -0.160480
  N     -2.357250  -17.503620    0.505780
  C      1.133810  -20.603930   -3.054020
  C      2.147640  -20.735250   -3.981830
  S      2.875860  -19.188680   -4.395080
  C      2.624020  -21.946970   -4.580140
  C      3.663870  -21.976680   -5.501620
  N      4.157600  -23.068630   -6.085710
  C      3.664090  -24.246060   -5.810840
  C      2.603590  -24.388310   -4.897150
  C      2.066470  -23.213970   -4.263560
  N      1.072190  -23.514170   -3.428590
  S      0.842990  -25.103700   -3.444330
  N      1.980250  -25.500130   -4.499980
  H     -0.240350    0.890620    4.587300
  H     -1.142690   -1.415890    4.981890
  H      2.300680   -2.721970    0.114510
  H      2.627380   -8.501300   -2.144600
  H     -0.527050  -15.701100   -0.618130
  H      0.580720  -21.450370   -2.689650
  H      4.144130  -21.052630   -5.797610
  H      4.097670  -25.101210   -6.307240

 Total Charge           Charge          ....    0
 Multiplicity           Mult            ....    1
 Number of Electrons    NEL             ....  488
 Basis Dimension        Dim             ....  978

ORBITAL ENERGIES
----------------

  NO   OCC          E(Eh)            E(eV)
   0   2.0000     -89.049192     -2423.1517
   1   2.0000     -89.036913     -2422.8176
   2   2.0000     -89.033310     -2422.7195
   3   2.0000     -88.985512     -2421.4189
   4   2.0000     -88.980883     -2421.2929
   5   2.0000     -88.980724     -2421.2886
   6   2.0000     -88.980290     -2421.2768
   7   2.0000     -24.823488      -675.4814
   8   2.0000     -24.816928      -675.3030
   9   2.0000     -14.464362      -393.5953
  10   2.0000     -14.459379      -393.4597
  11   2.0000     -14.458350      -393.4317
  12   2.0000     -14.457784      -393.4163
  13   2.0000     -14.451321      -393.2404
  14   2.0000     -14.450244      -393.2111
  15   2.0000     -14.447811      -393.1449
  16   2.0000     -14.442589      -393.0028
  17   2.0000     -14.423698      -392.4888
  18   2.0000     -14.423539      -392.4844
  19   2.0000     -14.423350      -392.4793
  20   2.0000     -14.422688      -392.4613
  21   2.0000     -14.419065      -392.3627
  22   2.0000     -14.416618      -392.2961
  23   2.0000     -10.439562      -284.0749
  24   2.0000     -10.436013      -283.9783
  25   2.0000     -10.357986      -281.8551
  26   2.0000     -10.356285      -281.8088
  27   2.0000     -10.352401      -281.7032
  28   2.0000     -10.350809      -281.6598
  29   2.0000     -10.346461      -281.5415
  30   2.0000     -10.345426      -281.5134
  31   2.0000     -10.345321      -281.5105
  32   2.0000     -10.344446      -281.4867
  33   2.0000     -10.341076      -281.3950
  34   2.0000     -10.336709      -281.2762
  35   2.0000     -10.330882      -281.1176
  36   2.0000     -10.330399      -281.1044
  37   2.0000     -10.329655      -281.0842
  38   2.0000     -10.328566      -281.0546
  39   2.0000     -10.326259      -280.9918
  40   2.0000     -10.324382      -280.9407
  41   2.0000     -10.324077      -280.9324
  42   2.0000     -10.323646      -280.9207
  43   2.0000     -10.323234      -280.9095
  44   2.0000     -10.323166      -280.9076
  45   2.0000     -10.322187      -280.8810
  46   2.0000     -10.321884      -280.8727
  47   2.0000     -10.321690      -280.8675
  48   2.0000     -10.321438      -280.8606
  49   2.0000     -10.320458      -280.8339
  50   2.0000     -10.320434      -280.8333
  51   2.0000     -10.319275      -280.8017
  52   2.0000     -10.317790      -280.7613
  53   2.0000     -10.314773      -280.6793
  54   2.0000     -10.311881      -280.6006
  55   2.0000     -10.311628      -280.5937
  56   2.0000     -10.297377      -280.2059
  57   2.0000     -10.295424      -280.1527
  58   2.0000     -10.295072      -280.1431
  59   2.0000     -10.294578      -280.1297
  60   2.0000     -10.293456      -280.0992
  61   2.0000     -10.292144      -280.0635
  62   2.0000     -10.291732      -280.0523
  63   2.0000     -10.291277      -280.0399
  64   2.0000     -10.287103      -279.9263
  65   2.0000      -8.140175      -221.5054
  66   2.0000      -8.128665      -221.1922
  67   2.0000      -8.125079      -221.0946
  68   2.0000      -8.079927      -219.8660
  69   2.0000      -8.074741      -219.7249
  70   2.0000      -8.074065      -219.7065
  71   2.0000      -8.073037      -219.6785
  72   2.0000      -6.111286      -166.2966
  73   2.0000      -6.103492      -166.0845
  74   2.0000      -6.102923      -166.0690
  75   2.0000      -6.099740      -165.9824
  76   2.0000      -6.096186      -165.8856
  77   2.0000      -6.091882      -165.7685
  78   2.0000      -6.091392      -165.7552
  79   2.0000      -6.088339      -165.6721
  80   2.0000      -6.087738      -165.6558
  81   2.0000      -6.049192      -164.6069
  82   2.0000      -6.044960      -164.4917
  83   2.0000      -6.043938      -164.4639
  84   2.0000      -6.043484      -164.4516
  85   2.0000      -6.042501      -164.4248
  86   2.0000      -6.042381      -164.4215
  87   2.0000      -6.039620      -164.3464
  88   2.0000      -6.038894      -164.3267
  89   2.0000      -6.037797      -164.2968
  90   2.0000      -6.037367      -164.2851
  91   2.0000      -6.036512      -164.2619
  92   2.0000      -6.035554      -164.2358
  93   2.0000      -1.349593       -36.7243
  94   2.0000      -1.334329       -36.3089
  95   2.0000      -1.146918       -31.2092
  96   2.0000      -1.136538       -30.9268
  97   2.0000      -1.133161       -30.8349
  98   2.0000      -1.121224       -30.5101
  99   2.0000      -1.053240       -28.6601
 100   2.0000      -1.049339       -28.5540
 101   2.0000      -1.047570       -28.5058
 102   2.0000      -1.037659       -28.2361
 103   2.0000      -1.034582       -28.1524
 104   2.0000      -1.015620       -27.6364
 105   2.0000      -1.014434       -27.6041
 106   2.0000      -1.006012       -27.3750
 107   2.0000      -1.001013       -27.2390
 108   2.0000      -1.000659       -27.2293
 109   2.0000      -0.996295       -27.1106
 110   2.0000      -0.990860       -26.9627
 111   2.0000      -0.985933       -26.8286
 112   2.0000      -0.982233       -26.7279
 113   2.0000      -0.972562       -26.4648
 114   2.0000      -0.952104       -25.9081
 115   2.0000      -0.947610       -25.7858
 116   2.0000      -0.919690       -25.0260
 117   2.0000      -0.910944       -24.7880
 118   2.0000      -0.901801       -24.5393
 119   2.0000      -0.899525       -24.4773
 120   2.0000      -0.892153       -24.2767
 121   2.0000      -0.885393       -24.0928
 122   2.0000      -0.872364       -23.7382
 123   2.0000      -0.869596       -23.6629
 124   2.0000      -0.859370       -23.3847
 125   2.0000      -0.852084       -23.1864
 126   2.0000      -0.846676       -23.0392
 127   2.0000      -0.845668       -23.0118
 128   2.0000      -0.822885       -22.3918
 129   2.0000      -0.809091       -22.0165
 130   2.0000      -0.794355       -21.6155
 131   2.0000      -0.781942       -21.2777
 132   2.0000      -0.776583       -21.1319
 133   2.0000      -0.770755       -20.9733
 134   2.0000      -0.766819       -20.8662
 135   2.0000      -0.757618       -20.6158
 136   2.0000      -0.753943       -20.5158
 137   2.0000      -0.737615       -20.0715
 138   2.0000      -0.725374       -19.7384
 139   2.0000      -0.723943       -19.6995
 140   2.0000      -0.718924       -19.5629
 141   2.0000      -0.704530       -19.1712
 142   2.0000      -0.698090       -18.9960
 143   2.0000      -0.688410       -18.7326
 144   2.0000      -0.685462       -18.6524
 145   2.0000      -0.682852       -18.5814
 146   2.0000      -0.677892       -18.4464
 147   2.0000      -0.672322       -18.2948
 148   2.0000      -0.667603       -18.1664
 149   2.0000      -0.662227       -18.0201
 150   2.0000      -0.648184       -17.6380
 151   2.0000      -0.642494       -17.4831
 152   2.0000      -0.633710       -17.2441
 153   2.0000      -0.631099       -17.1731
 154   2.0000      -0.626758       -17.0550
 155   2.0000      -0.625043       -17.0083
 156   2.0000      -0.624431       -16.9916
 157   2.0000      -0.613633       -16.6978
 158   2.0000      -0.610309       -16.6074
 159   2.0000      -0.607399       -16.5282
 160   2.0000      -0.606485       -16.5033
 161   2.0000      -0.601924       -16.3792
 162   2.0000      -0.595789       -16.2122
 163   2.0000      -0.590085       -16.0570
 164   2.0000      -0.575657       -15.6644
 165   2.0000      -0.572995       -15.5920
 166   2.0000      -0.567737       -15.4489
 167   2.0000      -0.562986       -15.3196
 168   2.0000      -0.561239       -15.2721
 169   2.0000      -0.559156       -15.2154
 170   2.0000      -0.556990       -15.1565
 171   2.0000      -0.553910       -15.0726
 172   2.0000      -0.551551       -15.0085
 173   2.0000      -0.541650       -14.7391
 174   2.0000      -0.540247       -14.7009
 175   2.0000      -0.539690       -14.6857
 176   2.0000      -0.539103       -14.6697
 177   2.0000      -0.526600       -14.3295
 178   2.0000      -0.526305       -14.3215
 179   2.0000      -0.518134       -14.0991
 180   2.0000      -0.515948       -14.0397
 181   2.0000      -0.513333       -13.9685
 182   2.0000      -0.503501       -13.7010
 183   2.0000      -0.501745       -13.6532
 184   2.0000      -0.500725       -13.6254
 185   2.0000      -0.500044       -13.6069
 186   2.0000      -0.496265       -13.5041
 187   2.0000      -0.491876       -13.3846
 188   2.0000      -0.489567       -13.3218
 189   2.0000      -0.488669       -13.2974
 190   2.0000      -0.487753       -13.2724
 191   2.0000      -0.486223       -13.2308
 192   2.0000      -0.483302       -13.1513
 193   2.0000      -0.478164       -13.0115
 194   2.0000      -0.477868       -13.0034
 195   2.0000      -0.470677       -12.8078
 196   2.0000      -0.470232       -12.7957
 197   2.0000      -0.468963       -12.7611
 198   2.0000      -0.468260       -12.7420
 199   2.0000      -0.464137       -12.6298
 200   2.0000      -0.455361       -12.3910
 201   2.0000      -0.455140       -12.3850
 202   2.0000      -0.453185       -12.3318
 203   2.0000      -0.452540       -12.3142
 204   2.0000      -0.450430       -12.2568
 205   2.0000      -0.449003       -12.2180
 206   2.0000      -0.441238       -12.0067
 207   2.0000      -0.440510       -11.9869
 208   2.0000      -0.438529       -11.9330
 209   2.0000      -0.434006       -11.8099
 210   2.0000      -0.433604       -11.7990
 211   2.0000      -0.432767       -11.7762
 212   2.0000      -0.432003       -11.7554
 213   2.0000      -0.431145       -11.7320
 214   2.0000      -0.421977       -11.4826
 215   2.0000      -0.421389       -11.4666
 216   2.0000      -0.420856       -11.4521
 217   2.0000      -0.420674       -11.4471
 218   2.0000      -0.408775       -11.1233
 219   2.0000      -0.407635       -11.0923
 220   2.0000      -0.405168       -11.0252
 221   2.0000      -0.401088       -10.9142
 222   2.0000      -0.400277       -10.8921
 223   2.0000      -0.399791       -10.8789
 224   2.0000      -0.378544       -10.3007
 225   2.0000      -0.378213       -10.2917
 226   2.0000      -0.377833       -10.2814
 227   2.0000      -0.374451       -10.1893
 228   2.0000      -0.370270       -10.0756
 229   2.0000      -0.368604       -10.0302
 230   2.0000      -0.358241        -9.7482
 231   2.0000      -0.357704        -9.7336
 232   2.0000      -0.349033        -9.4977
 233   2.0000      -0.345878        -9.4118
 234   2.0000      -0.343643        -9.3510
 235   2.0000      -0.341329        -9.2880
 236   2.0000      -0.340501        -9.2655
 237   2.0000      -0.338480        -9.2105
 238   2.0000      -0.325822        -8.8661
 239   2.0000      -0.315726        -8.5913
 240   2.0000      -0.313673        -8.5355
 241   2.0000      -0.297397        -8.0926
 242   2.0000      -0.268083        -7.2949
 243   2.0000      -0.235074        -6.3967
 244   0.0000      -0.123598        -3.3633
 245   0.0000      -0.097625        -2.6565
 246   0.0000      -0.091931        -2.5016
 247   0.0000      -0.074734        -2.0336
 248   0.0000      -0.073720        -2.0060

MULLIKEN ATOMIC CHARGES
-----------------------
   0 C :   -0.033309
   1 C :    0.033190
   2 N :   -0.084853
   3 C :    0.049323
   4 C :   -0.037097
   5 C :    0.080440
   6 N :   -0.269055
   7 S :    0.530924
   8 N :   -0.260578
   9 C :   -0.124566
  10 C :   -0.044527
  11 C :    0.005654
  12 C :   -0.092276
  13 S :    0.235732
  14 C :   -0.071678
  15 C :    0.039362
  16 C :    0.315107
  17 C :   -0.310194
  18 C :   -0.189457
  19 N :    0.166282
  20 C :   -0.190577
  21 N :    0.173450
  22 C :   -0.068491
  23 C :   -0.180813
  24 S :    0.206462
  25 C :    0.179387
  26 C :   -0.063127
  27 C :   -0.073045
  28 N :    0.006147
  29 C :    0.146274
  30 C :    0.155096
  31 N :   -0.053094
  32 F :   -0.133878
  33 F :   -0.129416
  34 C :    0.202686
  35 C :   -0.028629
  36 C :   -0.004060
  37 N :   -0.280658
  38 S :    0.568880
  39 N :   -0.339483
  40 C :   -0.184546
  41 C :   -0.066849
  42 C :    0.041082
  43 C :   -0.071960
  44 S :    0.203294
  45 C :   -0.091466
  46 C :    0.023299
  47 C :    0.312643
  48 C :   -0.309774
  49 C :   -0.189350
  50 N :    0.171646
  51 C :   -0.193522
  52 N :    0.179734
  53 C :   -0.052875
  54 C :   -0.103929
  55 S :    0.169782
  56 C :    0.108977
  57 C :   -0.064753
  58 N :   -0.036474
  59 C :   -0.002285
  60 C :    0.013261
  61 C :    0.013767
  62 N :   -0.283629
  63 S :    0.539084
  64 N :   -0.256953
  65 H :   -0.005309
  66 H :    0.010501
  67 H :    0.017631
  68 H :    0.019443
  69 H :    0.022467
  70 H :    0.021376
  71 H :    0.008002
  72 H :    0.006151
Sum of atomic charges:    0.0000000

LOEWDIN ATOMIC CHARGES
----------------------
   0 C :   -0.049830
   1 C :    0.020580
   2 N :   -0.094762
   3 C :    0.003464
   4 C :   -0.066553
   5 C :   -0.042193
   6 N :   -0.286889
   7 S :    0.666663
   8 N :   -0.271153
   9 C :   -0.180736
  10 C :   -0.009556
  11 C :   -0.074659
  12 C :   -0.171690
  13 S :    0.513818
  14 C :   -0.183823
  15 C :   -0.071624
  16 C :    0.082252
  17 C :   -0.107326
  18 C :   -0.015919
  19 N :   -0.039365
  20 C :   -0.018040
  21 N :   -0.035162
  22 C :   -0.013483
  23 C :   -0.167654
  24 S :    0.510893
  25 C :   -0.043441
  26 C :   -0.016781
  27 C :   -0.008323
  28 N :   -0.027783
  29 C :    0.061357
  30 C :    0.064577
  31 N :   -0.058511
  32 F :   -0.023715
  33 F :   -0.018728
  34 C :   -0.046512
  35 C :   -0.047827
  36 C :   -0.038714
  37 N :   -0.269610
  38 S :    0.686302
  39 N :   -0.306628
  40 C :   -0.165392
  41 C :   -0.012919
  42 C :   -0.073381
  43 C :   -0.183014
  44 S :    0.510660
  45 C :   -0.174887
  46 C :   -0.069241
  47 C :    0.081170
  48 C :   -0.103038
  49 C :   -0.017018
  50 N :   -0.034059
  51 C :   -0.018617
  52 N :   -0.031774
  53 C :   -0.018481
  54 C :   -0.162382
  55 S :    0.474554
  56 C :   -0.058360
  57 C :    0.000386
  58 N :   -0.056383
  59 C :    0.031509
  60 C :   -0.076397
  61 C :   -0.035473
  62 N :   -0.282286
  63 S :    0.673819
  64 N :   -0.270362
  65 H :    0.040125
  66 H :    0.027009
  67 H :    0.040783
  68 H :    0.037030
  69 H :    0.037433
  70 H :    0.039568
  71 H :    0.016512
  72 H :    0.029985

  Mayer bond orders larger than 0.100000
B(  0-C ,  1-C ) :   1.5003 B(  0-C ,  3-C ) :   0.1028 B(  0-C ,  5-C ) :   1.2353
B(  0-C , 65-H ) :   0.9895 B(  1-C ,  2-N ) :   1.3879 B(  1-C , 66-H ) :   0.9724
B(  2-N ,  3-C ) :   1.7147 B(  3-C ,  4-C ) :   1.1541 B(  3-C ,  9-C ) :   1.1179
B(  4-C ,  5-C ) :   1.1797 B(  4-C ,  8-N ) :   1.5435 B(  5-C ,  6-N ) :   1.5006
B(  6-N ,  7-S ) :   1.2837 B(  6-N ,  8-N ) :   0.1504 B(  7-S ,  8-N ) :   1.2735
B(  9-C , 10-C ) :   1.4853 B(  9-C , 13-S ) :   1.0905 B( 10-C , 11-C ) :   1.2608
B( 10-C , 67-H ) :   0.9826 B( 11-C , 12-C ) :   1.4182 B( 11-C , 16-C ) :   0.9982
B( 12-C , 13-S ) :   1.1275 B( 12-C , 14-C ) :   1.1958 B( 14-C , 15-C ) :   1.4080
B( 14-C , 24-S ) :   1.0908 B( 15-C , 16-C ) :   0.9872 B( 15-C , 22-C ) :   1.2790
B( 16-C , 17-C ) :   1.7046 B( 17-C , 18-C ) :   1.1404 B( 17-C , 20-C ) :   1.1351
B( 18-C , 19-N ) :   2.9849 B( 20-C , 21-N ) :   2.9927 B( 22-C , 23-C ) :   1.4154
B( 22-C , 68-H ) :   0.9824 B( 23-C , 24-S ) :   1.0894 B( 23-C , 25-C ) :   1.1922
B( 25-C , 26-C ) :   1.2942 B( 25-C , 34-C ) :   0.1271 B( 25-C , 36-C ) :   1.1995
B( 26-C , 27-C ) :   1.1112 B( 26-C , 31-N ) :   1.3777 B( 27-C , 28-N ) :   1.4391
B( 27-C , 34-C ) :   1.2985 B( 28-N , 29-C ) :   1.6608 B( 29-C , 30-C ) :   1.1052
B( 29-C , 33-F ) :   1.1846 B( 30-C , 31-N ) :   1.6520 B( 30-C , 32-F ) :   1.1902
B( 34-C , 35-C ) :   1.1879 B( 34-C , 40-C ) :   1.1835 B( 35-C , 36-C ) :   1.1111
B( 35-C , 39-N ) :   1.4695 B( 36-C , 37-N ) :   1.5114 B( 37-N , 38-S ) :   1.2868
B( 37-N , 39-N ) :   0.1513 B( 38-S , 39-N ) :   1.2680 B( 40-C , 41-C ) :   1.4089
B( 40-C , 44-S ) :   1.0965 B( 41-C , 42-C ) :   1.2719 B( 41-C , 69-H ) :   0.9890
B( 42-C , 43-C ) :   1.4031 B( 42-C , 47-C ) :   0.9875 B( 43-C , 44-S ) :   1.1011
B( 43-C , 45-C ) :   1.1909 B( 45-C , 46-C ) :   1.4342 B( 45-C , 55-S ) :   1.1233
B( 46-C , 47-C ) :   0.9979 B( 46-C , 53-C ) :   1.2423 B( 47-C , 48-C ) :   1.7077
B( 48-C , 49-C ) :   1.1369 B( 48-C , 51-C ) :   1.1400 B( 49-C , 50-N ) :   2.9883
B( 51-C , 52-N ) :   2.9924 B( 53-C , 54-C ) :   1.4905 B( 53-C , 70-H ) :   0.9839
B( 54-C , 55-S ) :   1.0918 B( 54-C , 56-C ) :   1.1020 B( 56-C , 57-C ) :   1.4566
B( 56-C , 59-C ) :   0.1048 B( 56-C , 61-C ) :   1.2034 B( 57-C , 58-N ) :   1.4354
B( 57-C , 71-H ) :   0.9800 B( 58-N , 59-C ) :   1.6995 B( 59-C , 60-C ) :   1.1794
B( 59-C , 72-H ) :   0.9929 B( 60-C , 61-C ) :   1.1872 B( 60-C , 64-N ) :   1.4907
B( 61-C , 62-N ) :   1.5153 B( 62-N , 63-S ) :   1.2611 B( 62-N , 64-N ) :   0.1502
B( 63-S , 64-N ) :   1.3065

-----------------------------------------------------------------------------
         ABSORPTION SPECTRUM VIA TRANSITION ELECTRIC DIPOLE MOMENTS
-----------------------------------------------------------------------------
State   Energy  Wavelength   fosc         T2         TX        TY        TZ
        (cm-1)    (nm)                  (au**2)     (au)      (au)      (au)
-----------------------------------------------------------------------------
   0    9357.5   1068.7   0.887013630  31.20665  -0.04686   5.40641   1.40543
   1   13035.6    767.1   0.001752717   0.04426  -0.19524  -0.07175   0.03158
   2   13921.2    718.3   0.003268106   0.07729   0.10541   0.24756  -0.06991
   3   17747.5    563.5   0.003948942   0.07325  -0.24338  -0.10925   0.04562
   4   21574.4    463.5   0.830911477  12.67917  -0.53517   3.26737   1.31037
   5   21915.1    456.3   0.040596521   0.60985  -0.27363  -0.69027  -0.24186
   6   22962.4    435.5   0.138909067   1.99154  -0.35975   1.20974   0.63138
   7   24242.5    412.5   0.013522495   0.18363  -0.02349   0.37900   0.19861
   8   25120.3    398.1   0.082070772   1.07557   0.13434   1.02508   0.08210
   9   25943.5    385.5   0.001918550   0.02435  -0.04649  -0.14661  -0.02627
  10   26345.0    379.6   0.022731616   0.28406   0.29486  -0.19985  -0.39645
  11   26651.7    375.2   0.028852471   0.35640  -0.44060  -0.01012   0.40270
  12   29458.8    339.5   0.068673347   0.76745  -0.50643  -0.36611   0.61395
  13   30028.2    333.0   0.274390667   3.00826  -0.73025  -1.52753   0.37636
  14   30151.9    331.7   0.058431802   0.63798   0.51651   0.54452  -0.27331
  15   30395.4    329.0   0.245385840   2.65777  -0.37675   1.33877   0.85061
  16   30447.6    328.4   0.000597631   0.00646  -0.07407   0.02844  -0.01291
  17   30622.3    326.6   0.005499989   0.05913  -0.18415   0.12285   0.10063
  18   30900.2    323.6   0.010183044   0.10849  -0.02843  -0.32729   0.02373
  19   30994.4    322.6   0.064156556   0.68145  -0.21942  -0.79528   0.02883
  20   31149.8    321.0   0.245326526   2.59278   0.31119   1.57544  -0.11806
  21   31310.3    319.4   0.423594129   4.45388   0.48986   2.04888   0.12653
  22   31646.1    316.0   0.232832923   2.42214  -0.30203   1.41416   0.57540
  23   31841.9    314.1   0.020634899   0.21334  -0.18001   0.04641   0.42283
  24   32030.8    312.2   0.356444253   3.66353  -1.04655   0.97077   1.27509
  25   32376.0    308.9   0.012156398   0.12361  -0.01989  -0.29773  -0.18593
  26   32717.2    305.6   0.454041115   4.56872   1.48354   0.12998  -1.53328
  27   33760.9    296.2   0.000700237   0.00683   0.00758  -0.08096  -0.01468
  28   34475.2    290.1   0.429889973   4.10513  -1.46095  -0.52148   1.30339
  29   34714.0    288.1   0.058060573   0.55062  -0.44323  -0.57127   0.16679
  30   35093.0    285.0   0.131987006   1.23819  -0.22284   1.01053   0.40909
  31   35602.3    280.9   0.041816537   0.38667  -0.30723   0.27955   0.46275
  32   36127.5    276.8   0.002282505   0.02080  -0.09329  -0.02351   0.10744
  33   36159.8    276.6   0.202626021   1.84478  -0.84912  -0.34882   1.00105
  34   36368.8    275.0   0.121682321   1.10147   0.75338  -0.17051  -0.71050
  35   36657.0    272.8   0.107570145   0.96607  -0.60513   0.14434   0.76096
  36   36724.3    272.3   0.117928401   1.05716  -0.69253  -0.29730   0.69941
  37   37003.3    270.2   0.000326823   0.00291  -0.03896  -0.00934   0.03609
  38   37352.4    267.7   0.026648592   0.23487  -0.18112  -0.36407   0.26367
  39   37362.0    267.7   0.069199433   0.60974   0.34933   0.57079  -0.40238
  40   37431.4    267.2   0.000408620   0.00359  -0.03938  -0.00863   0.04437
  41   37708.8    265.2   0.086014156   0.75094  -0.41532   0.43308   0.62521
  42   37934.2    263.6   0.112982256   0.98052  -0.30479   0.73041   0.59508
  43   38219.3    261.6   0.016932926   0.14586  -0.25202  -0.16952   0.23153
  44   38521.0    259.6   0.035656490   0.30473  -0.04278   0.54847   0.04567
  45   38611.4    259.0   0.037024674   0.31568  -0.24091   0.38392   0.33204
  46   38966.2    256.6   0.083013043   0.70135   0.57076   0.13274  -0.59830
  47   39195.7    255.1   0.007172355   0.06024  -0.20125   0.13413   0.04186
  48   39804.2    251.2   0.082067055   0.67876   0.52200   0.29599  -0.56451
  49   40059.6    249.6   0.028042167   0.23045  -0.02739   0.43210   0.20734
  50   40157.1    249.0   0.038179860   0.31300  -0.20917   0.38478   0.34813

FINAL SINGLE POINT ENERGY     -5354.656099379871

DIPOLE MOMENT
-------------
                                X             Y             Z
Electronic contribution:     -7.27888      -2.03419       5.16838
Nuclear contribution   :      7.55709       2.38390      -5.01339
                        -----------------------------------------
Total Dipole Moment    :      0.27821       0.34970       0.15499
                        -----------------------------------------
Magnitude (a.u.)       :      0.47299
Magnitude (Debye)      :      1.20224

Rotational constants in cm-1:     0.003166     0.000273     0.000252
Rotational constants in MHz :    94.905437     8.171651     7.540507

                             ****ORCA TERMINATED NORMALLY****
TOTAL RUN TIME: 0 days 0 hours 6 minutes 26 seconds 705 msec
