                         Program Version 4.2.0 -  RELEASE  -
|  1> # ORCA input file
|  2> # SCF done       -149.491172140069          0.000801192725
|  3> ! CAM-B3LYP def2-SVP def2/J RIJCOSX Grid4 TightSCF
|  4> %maxcore 5000
|  5> %tddft
|  6>     Mode sTDDFT
|  7>     Ethresh 5.0
|  8>     maxcore 5000
|  9> end
| 10>
| 11> %pal
| 12>   nprocs 6
| 13>   end
| 14> * xyz 0 1
| 15>    N       -3.55688         0.95908        -0.56261
| 16>    C       -2.45856         0.66737        -0.42774
| 17>    C       -1.08294         0.37109        -0.31535
| 18>    C       -0.12713         1.36496        -0.20321
| 19>    C       -0.37371         2.79516        -0.09170
| 20>    C       -1.31460         3.30240         0.80912
| 21>    F       -1.93860         2.46538         1.64318
| 22>    C       -1.57299         4.66395         0.89234
| 23>    F       -2.45027         5.09959         1.79366
| 24>    C       -0.89368         5.57747         0.08623
| 25>    C       -1.16686         7.02103         0.18153
| 26>    N       -2.41135         7.42337         0.15588
| 27>    C       -2.70919         8.72650         0.22302
| 28>    C       -1.78532         9.73779         0.31730
| 29>    C       -0.43829         9.35062         0.36843
| 30>    N        0.65511        10.10870         0.49044
| 31>    S        1.94023         9.15436         0.53482
| 32>    N        1.20396         7.73746         0.40603
| 33>    C       -0.10866         7.95172         0.30632
| 34>    C        0.05448         5.07625        -0.80490
| 35>    F        0.69745         5.90372        -1.63198
| 36>    C        0.31309         3.71640        -0.88639
| 37>    F        1.21660         3.26981        -1.76870
| 38>    S        1.47044         0.71763        -0.21746
| 39>    C        0.87560        -0.90637        -0.36482
| 40>    C        1.75263        -2.03403        -0.44280
| 41>    C        3.08278        -1.93797        -0.26567
| 42>    C        4.04262        -3.01701        -0.32627
| 43>    C        3.80679        -4.27901        -0.88829
| 44>    F        2.62678        -4.55716        -1.45381
| 45>    C        4.78378        -5.26282        -0.91103
| 46>    F        4.50593        -6.42286        -1.51393
| 47>    C        6.05307        -5.05330        -0.36925
| 48>    C        7.06586        -6.11161        -0.37404
| 49>    C        8.36479        -5.91394        -0.80159
| 50>    N        9.30864        -6.86050        -0.84756
| 51>    C        9.04422        -8.08117        -0.47474
| 52>    C        7.76537        -8.43518        -0.00596
| 53>    N        7.31791        -9.61128         0.44059
| 54>    S        5.79247        -9.44033         0.89374
| 55>    N        5.60668        -7.88372         0.56072
| 56>    C        6.75005        -7.41960         0.05416
| 57>    C        6.30367        -3.79285         0.17487
| 58>    F        7.50104        -3.53258         0.71575
| 59>    C        5.33052        -2.80875         0.19147
| 60>    F        5.62361        -1.61983         0.73717
| 61>    C       -0.50598        -0.91915        -0.40750
| 62>    C       -1.28933        -2.18867        -0.53477
| 63>    F       -2.60743        -2.01079        -0.46826
| 64>    F       -1.04153        -2.81634        -1.70009
| 65>    F       -0.97170        -3.06986         0.43407
| 66>    H       -3.76805         8.93939         0.18919
| 67>    H       -2.06486        10.77694         0.35696
| 68>    H        1.28179        -2.98387        -0.64165
| 69>    H        3.50768        -0.97149        -0.02310
| 70>    H        8.68534        -4.94295        -1.15160
| 71>    H        9.84230        -8.80674        -0.53217
| 72> *
| 73>
| 74>                          ****END OF INPUT****

CARTESIAN COORDINATES (ANGSTROEM)
---------------------------------
  N     -3.556880    0.959080   -0.562610
  C     -2.458560    0.667370   -0.427740
  C     -1.082940    0.371090   -0.315350
  C     -0.127130    1.364960   -0.203210
  C     -0.373710    2.795160   -0.091700
  C     -1.314600    3.302400    0.809120
  F     -1.938600    2.465380    1.643180
  C     -1.572990    4.663950    0.892340
  F     -2.450270    5.099590    1.793660
  C     -0.893680    5.577470    0.086230
  C     -1.166860    7.021030    0.181530
  N     -2.411350    7.423370    0.155880
  C     -2.709190    8.726500    0.223020
  C     -1.785320    9.737790    0.317300
  C     -0.438290    9.350620    0.368430
  N      0.655110   10.108700    0.490440
  S      1.940230    9.154360    0.534820
  N      1.203960    7.737460    0.406030
  C     -0.108660    7.951720    0.306320
  C      0.054480    5.076250   -0.804900
  F      0.697450    5.903720   -1.631980
  C      0.313090    3.716400   -0.886390
  F      1.216600    3.269810   -1.768700
  S      1.470440    0.717630   -0.217460
  C      0.875600   -0.906370   -0.364820
  C      1.752630   -2.034030   -0.442800
  C      3.082780   -1.937970   -0.265670
  C      4.042620   -3.017010   -0.326270
  C      3.806790   -4.279010   -0.888290
  F      2.626780   -4.557160   -1.453810
  C      4.783780   -5.262820   -0.911030
  F      4.505930   -6.422860   -1.513930
  C      6.053070   -5.053300   -0.369250
  C      7.065860   -6.111610   -0.374040
  C      8.364790   -5.913940   -0.801590
  N      9.308640   -6.860500   -0.847560
  C      9.044220   -8.081170   -0.474740
  C      7.765370   -8.435180   -0.005960
  N      7.317910   -9.611280    0.440590
  S      5.792470   -9.440330    0.893740
  N      5.606680   -7.883720    0.560720
  C      6.750050   -7.419600    0.054160
  C      6.303670   -3.792850    0.174870
  F      7.501040   -3.532580    0.715750
  C      5.330520   -2.808750    0.191470
  F      5.623610   -1.619830    0.737170
  C     -0.505980   -0.919150   -0.407500
  C     -1.289330   -2.188670   -0.534770
  F     -2.607430   -2.010790   -0.468260
  F     -1.041530   -2.816340   -1.700090
  F     -0.971700   -3.069860    0.434070
  H     -3.768050    8.939390    0.189190
  H     -2.064860   10.776940    0.356960
  H      1.281790   -2.983870   -0.641650
  H      3.507680   -0.971490   -0.023100
  H      8.685340   -4.942950   -1.151600
  H      9.842300   -8.806740   -0.532170

 Total Charge           Charge          ....    0
 Multiplicity           Mult            ....    1
 Number of Electrons    NEL             ....  382
 Basis Dimension        Dim             ....  756

ORBITAL ENERGIES
----------------

  NO   OCC          E(Eh)            E(eV)
   0   2.0000     -89.039938     -2422.8999
   1   2.0000     -89.039217     -2422.8803
   2   2.0000     -88.994228     -2421.6560
   3   2.0000     -24.811142      -675.1455
   4   2.0000     -24.809696      -675.1061
   5   2.0000     -24.809363      -675.0971
   6   2.0000     -24.808249      -675.0668
   7   2.0000     -24.807032      -675.0337
   8   2.0000     -24.805957      -675.0044
   9   2.0000     -24.805054      -674.9798
  10   2.0000     -24.802400      -674.9076
  11   2.0000     -24.802125      -674.9001
  12   2.0000     -24.801776      -674.8906
  13   2.0000     -24.800230      -674.8486
  14   2.0000     -14.453555      -393.3012
  15   2.0000     -14.452792      -393.2805
  16   2.0000     -14.447867      -393.1464
  17   2.0000     -14.447554      -393.1379
  18   2.0000     -14.424905      -392.5216
  19   2.0000     -14.421483      -392.4285
  20   2.0000     -14.409677      -392.1072
  21   2.0000     -10.528591      -286.4975
  22   2.0000     -10.389902      -282.7236
  23   2.0000     -10.388780      -282.6931
  24   2.0000     -10.388392      -282.6825
  25   2.0000     -10.387211      -282.6504
  26   2.0000     -10.387147      -282.6486
  27   2.0000     -10.386916      -282.6424
  28   2.0000     -10.386530      -282.6319
  29   2.0000     -10.385588      -282.6062
  30   2.0000     -10.349357      -281.6203
  31   2.0000     -10.348054      -281.5849
  32   2.0000     -10.341298      -281.4010
  33   2.0000     -10.337768      -281.3050
  34   2.0000     -10.337583      -281.2999
  35   2.0000     -10.336669      -281.2751
  36   2.0000     -10.334608      -281.2190
  37   2.0000     -10.332646      -281.1656
  38   2.0000     -10.331858      -281.1442
  39   2.0000     -10.330568      -281.1090
  40   2.0000     -10.325051      -280.9589
  41   2.0000     -10.324107      -280.9332
  42   2.0000     -10.323313      -280.9116
  43   2.0000     -10.322277      -280.8834
  44   2.0000     -10.321118      -280.8519
  45   2.0000     -10.319369      -280.8043
  46   2.0000     -10.314211      -280.6639
  47   2.0000     -10.311117      -280.5798
  48   2.0000     -10.310768      -280.5703
  49   2.0000     -10.308347      -280.5044
  50   2.0000     -10.297896      -280.2200
  51   2.0000      -8.131740      -221.2759
  52   2.0000      -8.131000      -221.2558
  53   2.0000      -8.089712      -220.1323
  54   2.0000      -6.102756      -166.0644
  55   2.0000      -6.102035      -166.0448
  56   2.0000      -6.094919      -165.8512
  57   2.0000      -6.094597      -165.8424
  58   2.0000      -6.094202      -165.8317
  59   2.0000      -6.093819      -165.8213
  60   2.0000      -6.058783      -164.8679
  61   2.0000      -6.054675      -164.7561
  62   2.0000      -6.052068      -164.6852
  63   2.0000      -1.395691       -37.9787
  64   2.0000      -1.332636       -36.2629
  65   2.0000      -1.331902       -36.2429
  66   2.0000      -1.331003       -36.2184
  67   2.0000      -1.328594       -36.1529
  68   2.0000      -1.316212       -35.8159
  69   2.0000      -1.315568       -35.7984
  70   2.0000      -1.313093       -35.7311
  71   2.0000      -1.312267       -35.7086
  72   2.0000      -1.300062       -35.3765
  73   2.0000      -1.292881       -35.1811
  74   2.0000      -1.139288       -31.0016
  75   2.0000      -1.138761       -30.9873
  76   2.0000      -1.059356       -28.8266
  77   2.0000      -1.053178       -28.6584
  78   2.0000      -1.034158       -28.1409
  79   2.0000      -1.001108       -27.2415
  80   2.0000      -0.997187       -27.1348
  81   2.0000      -0.991478       -26.9795
  82   2.0000      -0.988888       -26.9090
  83   2.0000      -0.988015       -26.8853
  84   2.0000      -0.941458       -25.6184
  85   2.0000      -0.925827       -25.1930
  86   2.0000      -0.911651       -24.8073
  87   2.0000      -0.907740       -24.7009
  88   2.0000      -0.895121       -24.3575
  89   2.0000      -0.891020       -24.2459
  90   2.0000      -0.873803       -23.7774
  91   2.0000      -0.860758       -23.4224
  92   2.0000      -0.859821       -23.3969
  93   2.0000      -0.855511       -23.2796
  94   2.0000      -0.837628       -22.7930
  95   2.0000      -0.799364       -21.7518
  96   2.0000      -0.792784       -21.5728
  97   2.0000      -0.772564       -21.0225
  98   2.0000      -0.760824       -20.7031
  99   2.0000      -0.753798       -20.5119
 100   2.0000      -0.744430       -20.2570
 101   2.0000      -0.742587       -20.2068
 102   2.0000      -0.728586       -19.8258
 103   2.0000      -0.727545       -19.7975
 104   2.0000      -0.719327       -19.5739
 105   2.0000      -0.715508       -19.4700
 106   2.0000      -0.702575       -19.1180
 107   2.0000      -0.699751       -19.0412
 108   2.0000      -0.698994       -19.0206
 109   2.0000      -0.684259       -18.6196
 110   2.0000      -0.677228       -18.4283
 111   2.0000      -0.676730       -18.4148
 112   2.0000      -0.675211       -18.3734
 113   2.0000      -0.662690       -18.0327
 114   2.0000      -0.656278       -17.8582
 115   2.0000      -0.652443       -17.7539
 116   2.0000      -0.650335       -17.6965
 117   2.0000      -0.634483       -17.2652
 118   2.0000      -0.627287       -17.0693
 119   2.0000      -0.626921       -17.0594
 120   2.0000      -0.624220       -16.9859
 121   2.0000      -0.619601       -16.8602
 122   2.0000      -0.615183       -16.7400
 123   2.0000      -0.611475       -16.6391
 124   2.0000      -0.605831       -16.4855
 125   2.0000      -0.599710       -16.3190
 126   2.0000      -0.595160       -16.1951
 127   2.0000      -0.592426       -16.1207
 128   2.0000      -0.586730       -15.9657
 129   2.0000      -0.583255       -15.8712
 130   2.0000      -0.582369       -15.8471
 131   2.0000      -0.577329       -15.7099
 132   2.0000      -0.571396       -15.5485
 133   2.0000      -0.566540       -15.4163
 134   2.0000      -0.560500       -15.2520
 135   2.0000      -0.560410       -15.2495
 136   2.0000      -0.558502       -15.1976
 137   2.0000      -0.557687       -15.1754
 138   2.0000      -0.556832       -15.1522
 139   2.0000      -0.554417       -15.0865
 140   2.0000      -0.553875       -15.0717
 141   2.0000      -0.553250       -15.0547
 142   2.0000      -0.551073       -14.9955
 143   2.0000      -0.549700       -14.9581
 144   2.0000      -0.535989       -14.5850
 145   2.0000      -0.530198       -14.4274
 146   2.0000      -0.529565       -14.4102
 147   2.0000      -0.526180       -14.3181
 148   2.0000      -0.525627       -14.3030
 149   2.0000      -0.515043       -14.0150
 150   2.0000      -0.509202       -13.8561
 151   2.0000      -0.506918       -13.7939
 152   2.0000      -0.503657       -13.7052
 153   2.0000      -0.499505       -13.5922
 154   2.0000      -0.499000       -13.5785
 155   2.0000      -0.493475       -13.4281
 156   2.0000      -0.491892       -13.3850
 157   2.0000      -0.489319       -13.3151
 158   2.0000      -0.486304       -13.2330
 159   2.0000      -0.482950       -13.1417
 160   2.0000      -0.479483       -13.0474
 161   2.0000      -0.477606       -12.9963
 162   2.0000      -0.472939       -12.8693
 163   2.0000      -0.472197       -12.8491
 164   2.0000      -0.471923       -12.8417
 165   2.0000      -0.464581       -12.6419
 166   2.0000      -0.461591       -12.5605
 167   2.0000      -0.447754       -12.1840
 168   2.0000      -0.443161       -12.0590
 169   2.0000      -0.440377       -11.9833
 170   2.0000      -0.435543       -11.8517
 171   2.0000      -0.427468       -11.6320
 172   2.0000      -0.423455       -11.5228
 173   2.0000      -0.415103       -11.2955
 174   2.0000      -0.413722       -11.2580
 175   2.0000      -0.411733       -11.2038
 176   2.0000      -0.405443       -11.0327
 177   2.0000      -0.383149       -10.4260
 178   2.0000      -0.381592       -10.3836
 179   2.0000      -0.375749       -10.2246
 180   2.0000      -0.361738        -9.8434
 181   2.0000      -0.360675        -9.8145
 182   2.0000      -0.350981        -9.5507
 183   2.0000      -0.350834        -9.5467
 184   2.0000      -0.348887        -9.4937
 185   2.0000      -0.343344        -9.3429
 186   2.0000      -0.325505        -8.8574
 187   2.0000      -0.324857        -8.8398
 188   2.0000      -0.323739        -8.8094
 189   2.0000      -0.314903        -8.5690
 190   2.0000      -0.286847        -7.8055
 191   0.0000      -0.084280        -2.2934
 192   0.0000      -0.078029        -2.1233
 193   0.0000      -0.065118        -1.7720
 194   0.0000      -0.031766        -0.8644
 195   0.0000       0.004604         0.1253

MULLIKEN ATOMIC CHARGES
-----------------------
   0 N :    0.175074
   1 C :   -0.261003
   2 C :   -0.000185
   3 C :   -0.080403
   4 C :   -0.109565
   5 C :    0.185406
   6 F :   -0.155103
   7 C :    0.234882
   8 F :   -0.146677
   9 C :   -0.119658
  10 C :   -0.048418
  11 N :   -0.035805
  12 C :    0.027401
  13 C :   -0.009339
  14 C :    0.064630
  15 N :   -0.266899
  16 S :    0.528040
  17 N :   -0.253005
  18 C :    0.004493
  19 C :    0.226954
  20 F :   -0.158365
  21 C :    0.184827
  22 F :   -0.163800
  23 S :    0.200324
  24 C :   -0.123482
  25 C :    0.049117
  26 C :   -0.019212
  27 C :   -0.046707
  28 C :    0.174514
  29 F :   -0.163893
  30 C :    0.224936
  31 F :   -0.159436
  32 C :   -0.105895
  33 C :    0.011992
  34 C :    0.000994
  35 N :   -0.044874
  36 C :    0.007422
  37 C :    0.007869
  38 N :   -0.256120
  39 S :    0.529503
  40 N :   -0.269650
  41 C :    0.026471
  42 C :    0.199175
  43 F :   -0.163235
  44 C :    0.179873
  45 F :   -0.170223
  46 C :   -0.052030
  47 C :    0.521021
  48 F :   -0.131174
  49 F :   -0.162369
  50 F :   -0.166168
  51 H :    0.017786
  52 H :    0.001139
  53 H :    0.028942
  54 H :    0.009320
  55 H :    0.008986
  56 H :    0.011601
Sum of atomic charges:   -0.0000000

LOEWDIN ATOMIC CHARGES
----------------------
   0 N :   -0.033120
   1 C :   -0.045957
   2 C :   -0.079721
   3 C :   -0.139715
   4 C :   -0.090456
   5 C :    0.067661
   6 F :   -0.031419
   7 C :    0.076724
   8 F :   -0.029562
   9 C :   -0.062489
  10 C :    0.016528
  11 N :   -0.048921
  12 C :    0.019820
  13 C :   -0.029149
  14 C :   -0.044025
  15 N :   -0.287034
  16 S :    0.672465
  17 N :   -0.276732
  18 C :   -0.071066
  19 C :    0.068331
  20 F :   -0.036261
  21 C :    0.059306
  22 F :   -0.047319
  23 S :    0.508095
  24 C :   -0.141018
  25 C :   -0.022666
  26 C :   -0.013071
  27 C :   -0.067508
  28 C :    0.065402
  29 F :   -0.036124
  30 C :    0.068968
  31 F :   -0.037190
  32 C :   -0.057762
  33 C :   -0.048206
  34 C :    0.033260
  35 N :   -0.060292
  36 C :    0.045937
  37 C :   -0.079137
  38 N :   -0.272640
  39 S :    0.673563
  40 N :   -0.288980
  41 C :   -0.040324
  42 C :    0.061409
  43 F :   -0.043432
  44 C :    0.061446
  45 F :   -0.046873
  46 C :   -0.099499
  47 C :    0.169495
  48 F :   -0.029094
  49 F :   -0.062138
  50 F :   -0.063007
  51 H :    0.029477
  52 H :    0.042811
  53 H :    0.034517
  54 H :    0.027262
  55 H :    0.027448
  56 H :    0.031982

  Mayer bond orders larger than 0.100000
B(  0-N ,  1-C ) :   3.0323 B(  1-C ,  2-C ) :   1.1111 B(  2-C ,  3-C ) :   1.5657
B(  2-C , 46-C ) :   1.3001 B(  3-C ,  4-C ) :   0.9951 B(  3-C , 23-S ) :   1.1591
B(  4-C ,  5-C ) :   1.3292 B(  4-C ,  9-C ) :   0.1271 B(  4-C , 21-C ) :   1.3212
B(  5-C ,  6-F ) :   1.1771 B(  5-C ,  7-C ) :   1.2736 B(  7-C ,  8-F ) :   1.2021
B(  7-C ,  9-C ) :   1.3403 B(  9-C , 10-C ) :   0.9304 B(  9-C , 19-C ) :   1.3485
B( 10-C , 11-N ) :   1.7582 B( 10-C , 13-C ) :   0.1087 B( 10-C , 18-C ) :   1.1686
B( 11-N , 12-C ) :   1.3777 B( 12-C , 13-C ) :   1.5084 B( 12-C , 51-H ) :   0.9757
B( 13-C , 14-C ) :   1.2416 B( 13-C , 52-H ) :   0.9908 B( 14-C , 15-N ) :   1.4958
B( 14-C , 18-C ) :   1.1884 B( 15-N , 16-S ) :   1.2917 B( 15-N , 17-N ) :   0.1551
B( 16-S , 17-N ) :   1.2939 B( 17-N , 18-C ) :   1.5260 B( 19-C , 20-F ) :   1.1813
B( 19-C , 21-C ) :   1.2874 B( 21-C , 22-F ) :   1.1807 B( 23-S , 24-C ) :   1.1452
B( 24-C , 25-C ) :   1.1383 B( 24-C , 46-C ) :   1.5118 B( 25-C , 26-C ) :   1.6875
B( 25-C , 53-H ) :   0.9514 B( 26-C , 27-C ) :   1.1028 B( 26-C , 54-H ) :   0.9732
B( 27-C , 28-C ) :   1.2814 B( 27-C , 32-C ) :   0.1286 B( 27-C , 44-C ) :   1.2922
B( 28-C , 29-F ) :   1.1380 B( 28-C , 30-C ) :   1.3029 B( 30-C , 31-F ) :   1.1748
B( 30-C , 32-C ) :   1.3386 B( 32-C , 33-C ) :   0.9274 B( 32-C , 42-C ) :   1.3354
B( 33-C , 34-C ) :   1.5232 B( 33-C , 36-C ) :   0.1083 B( 33-C , 41-C ) :   1.2454
B( 34-C , 35-N ) :   1.4077 B( 34-C , 55-H ) :   0.9860 B( 35-N , 36-C ) :   1.7120
B( 36-C , 37-C ) :   1.1778 B( 36-C , 56-H ) :   0.9926 B( 37-C , 38-N ) :   1.4877
B( 37-C , 41-C ) :   1.1950 B( 38-N , 39-S ) :   1.3100 B( 38-N , 40-N ) :   0.1536
B( 39-S , 40-N ) :   1.2747 B( 40-N , 41-C ) :   1.5171 B( 42-C , 43-F ) :   1.1740
B( 42-C , 44-C ) :   1.2932 B( 44-C , 45-F ) :   1.1519 B( 46-C , 47-C ) :   0.9310
B( 47-C , 48-F ) :   1.1834 B( 47-C , 49-F ) :   1.1617 B( 47-C , 50-F ) :   1.1535

-----------------------------------------------------------------------------
         ABSORPTION SPECTRUM VIA TRANSITION ELECTRIC DIPOLE MOMENTS
-----------------------------------------------------------------------------
State   Energy  Wavelength   fosc         T2         TX        TY        TZ
        (cm-1)    (nm)                  (au**2)     (au)      (au)      (au)
-----------------------------------------------------------------------------
   0   28644.6    349.1   1.452858995  16.69770  -2.38743   3.31317   0.14408
   1   30909.0    323.5   0.119325560   1.27094  -0.16114  -1.11524  -0.03474
   2   32108.7    311.4   0.085021563   0.87173  -0.90818  -0.21016  -0.05263
   3   32738.6    305.4   0.040636587   0.40863  -0.46273  -0.08340   0.43308
   4   33185.8    301.3   0.059169660   0.58698  -0.75064   0.10964  -0.10720
   5   33479.0    298.7   0.054460811   0.53553  -0.71516   0.06031  -0.14298
   6   33627.0    297.4   0.030181129   0.29548   0.14160   0.46048   0.25176
   7   35771.0    279.6   0.144123784   1.32642  -0.21907  -1.13040  -0.02488
   8   37059.8    269.8   0.017922465   0.15921  -0.22888   0.16853   0.28004
   9   37426.9    267.2   0.106691386   0.93847  -0.66001   0.69652   0.13309
  10   37645.4    265.6   0.012781663   0.11178   0.26306   0.12922   0.16086
  11   39634.6    252.3   0.068730286   0.57089  -0.66229  -0.31898  -0.17466
  12   40163.2    249.0   0.070082189   0.57445  -0.73770   0.00127   0.17392

FINAL SINGLE POINT ENERGY     -3819.434717955737

DIPOLE MOMENT
-------------
                                X             Y             Z
Electronic contribution:    -11.45856      -7.45061      -0.35741
Nuclear contribution   :     13.22093       8.21792       0.78368
                        -----------------------------------------
Total Dipole Moment    :      1.76237       0.76730       0.42627
                        -----------------------------------------
Magnitude (a.u.)       :      1.96886
Magnitude (Debye)      :      5.00444

Rotational constants in cm-1:     0.003649     0.000532     0.000478
Rotational constants in MHz :   109.408166    15.951891    14.327067

                             ****ORCA TERMINATED NORMALLY****
TOTAL RUN TIME: 0 days 0 hours 4 minutes 4 seconds 60 msec
