                         Program Version 4.2.0 -  RELEASE  -
|  1> # ORCA input file
|  2> # SCF done       -180.149991075369          0.000659314187
|  3> ! CAM-B3LYP def2-SVP def2/J RIJCOSX Grid4 TightSCF
|  4> %maxcore 5000
|  5> %tddft
|  6>     Mode sTDDFT
|  7>     Ethresh 5.0
|  8>     maxcore 5000
|  9> end
| 10>
| 11> %pal
| 12>   nprocs 6
| 13>   end
| 14> * xyz 0 1
| 15>    C        1.91102        -0.26751        -1.53370
| 16>    S        1.37826        -0.90273         0.11298
| 17>    C        2.29100         0.54329         0.43807
| 18>    C        2.59682         0.87084        -0.83521
| 19>    C        3.33794         1.96575        -1.43802
| 20>    O        3.48774         2.12709        -2.62613
| 21>    O        3.84989         2.78320        -0.49567
| 22>    C        4.56482         3.93067        -0.96824
| 23>    C        3.64638         5.01883        -1.41908
| 24>    C        3.50747         5.43780        -2.69797
| 25>    C        2.54769         6.53322        -2.72665
| 26>    C        2.12269         7.24920        -3.84726
| 27>    N        1.76868         7.90147        -4.72590
| 28>    C        2.14387         6.78999        -1.44766
| 29>    C        2.82093         5.87275        -0.56230
| 30>    C        2.69843         5.85305         0.80705
| 31>    C        2.08728         6.92767         1.63188
| 32>    C        1.90965         6.42467         2.88863
| 33>    C        2.43172         5.07886         2.91830
| 34>    C        2.95038         4.75667         1.68596
| 35>    C        2.40253         4.23853         4.03835
| 36>    N        2.37211         3.54541         4.95355
| 37>    C        1.87157         8.25042         1.15113
| 38>    C        0.99175         9.14419         1.65984
| 39>    C        0.69139        10.41911         1.07286
| 40>    C        1.11433        10.76960        -0.20027
| 41>    C        0.72865        11.99230        -0.75917
| 42>    C        1.00108        12.54676        -2.01307
| 43>    C        1.84757        11.94418        -3.07626
| 44>    C        1.04435        11.68476        -4.36980
| 45>    N        0.13003        10.58222        -4.15147
| 46>    C        3.09853        12.80483        -3.34209
| 47>    N        3.93356        12.79462        -2.15718
| 48>    C        0.36126        13.84168        -2.04120
| 49>    C        0.32555        14.81874        -2.97226
| 50>    C       -0.25400        16.14985        -2.66424
| 51>    C       -1.10064        16.19400        -1.43131
| 52>    C       -1.08053        15.20401        -0.51536
| 53>    C       -0.32627        14.03395        -0.75327
| 54>    C       -0.09919        12.90200         0.01179
| 55>    C       -0.51248        12.53320         1.30979
| 56>    C       -0.13625        11.32640         1.80836
| 57>    C        0.85661        17.12622        -2.29921
| 58>    C        2.01836        16.73259        -1.76681
| 59>    C        3.07610        17.58166        -1.30580
| 60>    C        3.29674        18.89948        -1.57809
| 61>    C        4.57190        19.27742        -1.01134
| 62>    C        5.11369        20.56605        -1.04786
| 63>    N        5.56630        21.62191        -1.07146
| 64>    C        5.15449        18.17659        -0.43203
| 65>    C        4.23928        17.08253        -0.54636
| 66>    C        4.39182        15.85041         0.05294
| 67>    C        5.66488        15.28790         0.53102
| 68>    C        5.38798        14.13642         1.19942
| 69>    C        3.95375        13.92713         1.18202
| 70>    C        3.36324        14.93830         0.46357
| 71>    C        3.30425        12.85239         1.79360
| 72>    N        2.77221        11.96173         2.28881
| 73>    C        6.96615        15.81155         0.19445
| 74>    C        8.03869        15.73716         0.98522
| 75>    C        9.34536        16.30964         0.61948
| 76>    S       10.80243        15.17664         0.96671
| 77>    C       11.03956        16.58174         1.96709
| 78>    C        9.94369        17.27964         1.61147
| 79>    C        9.44565        18.58110         2.02955
| 80>    O        9.97241        19.28301         2.85922
| 81>    O        8.32334        18.91195         1.35727
| 82>    C        7.74685        20.17564         1.66370
| 83>    H        1.06779         0.00531        -2.16189
| 84>    H        2.56388        -0.96469        -2.05127
| 85>    H        2.49780         0.97537         1.39749
| 86>    H        5.20155         3.62793        -1.80616
| 87>    H        5.18101         4.24976        -0.12369
| 88>    H        3.99889         5.03855        -3.56500
| 89>    H        1.36775         7.47404        -1.16353
| 90>    H        1.51719         6.93668         3.74648
| 91>    H        3.35494         3.80533         1.40416
| 92>    H        2.47795         8.53696         0.30459
| 93>    H        0.42873         8.88046         2.54518
| 94>    H        1.72309        10.10093        -0.78702
| 95>    H        2.20929        10.97513        -2.72207
| 96>    H        1.76244        11.49896        -5.18506
| 97>    H        0.45639        12.56811        -4.62827
| 98>    H        0.63616         9.70048        -4.14569
| 99>    H       -0.55322        10.52997        -4.89769
|100>    H        2.79675        13.81664        -3.65834
|101>    H        3.67456        12.35453        -4.15524
|102>    H        3.45033        13.21862        -1.37170
|103>    H        4.79891        13.29801        -2.31234
|104>    H        0.79613        14.71667        -3.93947
|105>    H       -0.79421        16.54307        -3.53195
|106>    H       -1.66274        17.09994        -1.26625
|107>    H       -1.65059        15.28452         0.39862
|108>    H       -1.12319        13.20885         1.89022
|109>    H       -0.44737        11.03111         2.79923
|110>    H        0.60642        18.17135        -2.39704
|111>    H        2.21066        15.67340        -1.67907
|112>    H        2.67020        19.56491        -2.14118
|113>    H        6.07618        18.16759         0.11722
|114>    H        6.09098        13.45428         1.63812
|115>    H        2.30482        15.08617         0.35685
|116>    H        7.04980        16.30238        -0.76728
|117>    H        7.97471        15.28935         1.96679
|118>    H        9.38114        16.65117        -0.41478
|119>    H       11.85492        16.76892         2.63764
|120>    H        7.34034        20.58339         0.73963
|121>    H        8.50772        20.84114         2.07511
|122>    H        6.94878        20.04347         2.39748
|123> *
|124>
|125>                          ****END OF INPUT****

CARTESIAN COORDINATES (ANGSTROEM)
---------------------------------
  C      1.911020   -0.267510   -1.533700
  S      1.378260   -0.902730    0.112980
  C      2.291000    0.543290    0.438070
  C      2.596820    0.870840   -0.835210
  C      3.337940    1.965750   -1.438020
  O      3.487740    2.127090   -2.626130
  O      3.849890    2.783200   -0.495670
  C      4.564820    3.930670   -0.968240
  C      3.646380    5.018830   -1.419080
  C      3.507470    5.437800   -2.697970
  C      2.547690    6.533220   -2.726650
  C      2.122690    7.249200   -3.847260
  N      1.768680    7.901470   -4.725900
  C      2.143870    6.789990   -1.447660
  C      2.820930    5.872750   -0.562300
  C      2.698430    5.853050    0.807050
  C      2.087280    6.927670    1.631880
  C      1.909650    6.424670    2.888630
  C      2.431720    5.078860    2.918300
  C      2.950380    4.756670    1.685960
  C      2.402530    4.238530    4.038350
  N      2.372110    3.545410    4.953550
  C      1.871570    8.250420    1.151130
  C      0.991750    9.144190    1.659840
  C      0.691390   10.419110    1.072860
  C      1.114330   10.769600   -0.200270
  C      0.728650   11.992300   -0.759170
  C      1.001080   12.546760   -2.013070
  C      1.847570   11.944180   -3.076260
  C      1.044350   11.684760   -4.369800
  N      0.130030   10.582220   -4.151470
  C      3.098530   12.804830   -3.342090
  N      3.933560   12.794620   -2.157180
  C      0.361260   13.841680   -2.041200
  C      0.325550   14.818740   -2.972260
  C     -0.254000   16.149850   -2.664240
  C     -1.100640   16.194000   -1.431310
  C     -1.080530   15.204010   -0.515360
  C     -0.326270   14.033950   -0.753270
  C     -0.099190   12.902000    0.011790
  C     -0.512480   12.533200    1.309790
  C     -0.136250   11.326400    1.808360
  C      0.856610   17.126220   -2.299210
  C      2.018360   16.732590   -1.766810
  C      3.076100   17.581660   -1.305800
  C      3.296740   18.899480   -1.578090
  C      4.571900   19.277420   -1.011340
  C      5.113690   20.566050   -1.047860
  N      5.566300   21.621910   -1.071460
  C      5.154490   18.176590   -0.432030
  C      4.239280   17.082530   -0.546360
  C      4.391820   15.850410    0.052940
  C      5.664880   15.287900    0.531020
  C      5.387980   14.136420    1.199420
  C      3.953750   13.927130    1.182020
  C      3.363240   14.938300    0.463570
  C      3.304250   12.852390    1.793600
  N      2.772210   11.961730    2.288810
  C      6.966150   15.811550    0.194450
  C      8.038690   15.737160    0.985220
  C      9.345360   16.309640    0.619480
  S     10.802430   15.176640    0.966710
  C     11.039560   16.581740    1.967090
  C      9.943690   17.279640    1.611470
  C      9.445650   18.581100    2.029550
  O      9.972410   19.283010    2.859220
  O      8.323340   18.911950    1.357270
  C      7.746850   20.175640    1.663700
  H      1.067790    0.005310   -2.161890
  H      2.563880   -0.964690   -2.051270
  H      2.497800    0.975370    1.397490
  H      5.201550    3.627930   -1.806160
  H      5.181010    4.249760   -0.123690
  H      3.998890    5.038550   -3.565000
  H      1.367750    7.474040   -1.163530
  H      1.517190    6.936680    3.746480
  H      3.354940    3.805330    1.404160
  H      2.477950    8.536960    0.304590
  H      0.428730    8.880460    2.545180
  H      1.723090   10.100930   -0.787020
  H      2.209290   10.975130   -2.722070
  H      1.762440   11.498960   -5.185060
  H      0.456390   12.568110   -4.628270
  H      0.636160    9.700480   -4.145690
  H     -0.553220   10.529970   -4.897690
  H      2.796750   13.816640   -3.658340
  H      3.674560   12.354530   -4.155240
  H      3.450330   13.218620   -1.371700
  H      4.798910   13.298010   -2.312340
  H      0.796130   14.716670   -3.939470
  H     -0.794210   16.543070   -3.531950
  H     -1.662740   17.099940   -1.266250
  H     -1.650590   15.284520    0.398620
  H     -1.123190   13.208850    1.890220
  H     -0.447370   11.031110    2.799230
  H      0.606420   18.171350   -2.397040
  H      2.210660   15.673400   -1.679070
  H      2.670200   19.564910   -2.141180
  H      6.076180   18.167590    0.117220
  H      6.090980   13.454280    1.638120
  H      2.304820   15.086170    0.356850
  H      7.049800   16.302380   -0.767280
  H      7.974710   15.289350    1.966790
  H      9.381140   16.651170   -0.414780
  H     11.854920   16.768920    2.637640
  H      7.340340   20.583390    0.739630
  H      8.507720   20.841140    2.075110
  H      6.948780   20.043470    2.397480

 Total Charge           Charge          ....    0
 Multiplicity           Mult            ....    1
 Number of Electrons    NEL             ....  482
 Basis Dimension        Dim             .... 1160

ORBITAL ENERGIES
----------------

  NO   OCC          E(Eh)            E(eV)
   0   2.0000     -88.942233     -2420.2412
   1   2.0000     -88.937011     -2420.0991
   2   2.0000     -19.264439      -524.2120
   3   2.0000     -19.258852      -524.0600
   4   2.0000     -19.204870      -522.5911
   5   2.0000     -19.197323      -522.3857
   6   2.0000     -14.418518      -392.3478
   7   2.0000     -14.417457      -392.3189
   8   2.0000     -14.414913      -392.2497
   9   2.0000     -14.410588      -392.1320
  10   2.0000     -14.377921      -391.2431
  11   2.0000     -14.359287      -390.7361
  12   2.0000     -10.402401      -283.0637
  13   2.0000     -10.398025      -282.9446
  14   2.0000     -10.339901      -281.3630
  15   2.0000     -10.326114      -280.9879
  16   2.0000     -10.325799      -280.9793
  17   2.0000     -10.325173      -280.9623
  18   2.0000     -10.325120      -280.9608
  19   2.0000     -10.322694      -280.8948
  20   2.0000     -10.320257      -280.8285
  21   2.0000     -10.320166      -280.8260
  22   2.0000     -10.319719      -280.8138
  23   2.0000     -10.319155      -280.7985
  24   2.0000     -10.318251      -280.7739
  25   2.0000     -10.317631      -280.7570
  26   2.0000     -10.317225      -280.7460
  27   2.0000     -10.316786      -280.7340
  28   2.0000     -10.313810      -280.6530
  29   2.0000     -10.312383      -280.6142
  30   2.0000     -10.308588      -280.5109
  31   2.0000     -10.307423      -280.4792
  32   2.0000     -10.306685      -280.4592
  33   2.0000     -10.301914      -280.3293
  34   2.0000     -10.299971      -280.2765
  35   2.0000     -10.299738      -280.2701
  36   2.0000     -10.299571      -280.2656
  37   2.0000     -10.299174      -280.2548
  38   2.0000     -10.298570      -280.2383
  39   2.0000     -10.297236      -280.2020
  40   2.0000     -10.296785      -280.1898
  41   2.0000     -10.296551      -280.1834
  42   2.0000     -10.293526      -280.1011
  43   2.0000     -10.292155      -280.0638
  44   2.0000     -10.291851      -280.0555
  45   2.0000     -10.290526      -280.0194
  46   2.0000     -10.290509      -280.0190
  47   2.0000     -10.288915      -279.9756
  48   2.0000     -10.286322      -279.9051
  49   2.0000     -10.285870      -279.8928
  50   2.0000     -10.284335      -279.8510
  51   2.0000     -10.282914      -279.8123
  52   2.0000     -10.282517      -279.8015
  53   2.0000     -10.280631      -279.7502
  54   2.0000     -10.279468      -279.7185
  55   2.0000     -10.276306      -279.6325
  56   2.0000     -10.276284      -279.6319
  57   2.0000     -10.276219      -279.6301
  58   2.0000     -10.275353      -279.6066
  59   2.0000     -10.273675      -279.5609
  60   2.0000     -10.269213      -279.4395
  61   2.0000     -10.267013      -279.3796
  62   2.0000     -10.266347      -279.3615
  63   2.0000     -10.266208      -279.3577
  64   2.0000     -10.265533      -279.3394
  65   2.0000     -10.264813      -279.3198
  66   2.0000     -10.264320      -279.3064
  67   2.0000     -10.260467      -279.2015
  68   2.0000      -8.038592      -218.7412
  69   2.0000      -8.033816      -218.6113
  70   2.0000      -6.008167      -163.4905
  71   2.0000      -6.005248      -163.4111
  72   2.0000      -6.003536      -163.3645
  73   2.0000      -6.000384      -163.2787
  74   2.0000      -5.998599      -163.2302
  75   2.0000      -5.993716      -163.0973
  76   2.0000      -1.192392       -32.4466
  77   2.0000      -1.184324       -32.2271
  78   2.0000      -1.098607       -29.8946
  79   2.0000      -1.091197       -29.6930
  80   2.0000      -1.017155       -27.6782
  81   2.0000      -1.011792       -27.5323
  82   2.0000      -1.006018       -27.3751
  83   2.0000      -1.001922       -27.2637
  84   2.0000      -0.993751       -27.0413
  85   2.0000      -0.990828       -26.9618
  86   2.0000      -0.990313       -26.9478
  87   2.0000      -0.987590       -26.8737
  88   2.0000      -0.983214       -26.7546
  89   2.0000      -0.981049       -26.6957
  90   2.0000      -0.975515       -26.5451
  91   2.0000      -0.962066       -26.1792
  92   2.0000      -0.951327       -25.8869
  93   2.0000      -0.942093       -25.6356
  94   2.0000      -0.920889       -25.0587
  95   2.0000      -0.904538       -24.6137
  96   2.0000      -0.892034       -24.2735
  97   2.0000      -0.884508       -24.0687
  98   2.0000      -0.880290       -23.9539
  99   2.0000      -0.878615       -23.9083
 100   2.0000      -0.869878       -23.6706
 101   2.0000      -0.861886       -23.4531
 102   2.0000      -0.839352       -22.8399
 103   2.0000      -0.838681       -22.8217
 104   2.0000      -0.836203       -22.7542
 105   2.0000      -0.832358       -22.6496
 106   2.0000      -0.828046       -22.5323
 107   2.0000      -0.820231       -22.3196
 108   2.0000      -0.808944       -22.0125
 109   2.0000      -0.801469       -21.8091
 110   2.0000      -0.795406       -21.6441
 111   2.0000      -0.784983       -21.3605
 112   2.0000      -0.774754       -21.0821
 113   2.0000      -0.774524       -21.0759
 114   2.0000      -0.769105       -20.9284
 115   2.0000      -0.768194       -20.9036
 116   2.0000      -0.760193       -20.6859
 117   2.0000      -0.748375       -20.3643
 118   2.0000      -0.727972       -19.8091
 119   2.0000      -0.721395       -19.6302
 120   2.0000      -0.716344       -19.4927
 121   2.0000      -0.710832       -19.3427
 122   2.0000      -0.704305       -19.1651
 123   2.0000      -0.694844       -18.9077
 124   2.0000      -0.687579       -18.7100
 125   2.0000      -0.684221       -18.6186
 126   2.0000      -0.673738       -18.3334
 127   2.0000      -0.671844       -18.2818
 128   2.0000      -0.667492       -18.1634
 129   2.0000      -0.653576       -17.7847
 130   2.0000      -0.648995       -17.6600
 131   2.0000      -0.643333       -17.5060
 132   2.0000      -0.640802       -17.4371
 133   2.0000      -0.640412       -17.4265
 134   2.0000      -0.634906       -17.2767
 135   2.0000      -0.630790       -17.1647
 136   2.0000      -0.627808       -17.0835
 137   2.0000      -0.618648       -16.8343
 138   2.0000      -0.617427       -16.8011
 139   2.0000      -0.611204       -16.6317
 140   2.0000      -0.608517       -16.5586
 141   2.0000      -0.607917       -16.5423
 142   2.0000      -0.597249       -16.2520
 143   2.0000      -0.595997       -16.2179
 144   2.0000      -0.591504       -16.0956
 145   2.0000      -0.580495       -15.7961
 146   2.0000      -0.572775       -15.5860
 147   2.0000      -0.569939       -15.5088
 148   2.0000      -0.567139       -15.4327
 149   2.0000      -0.565186       -15.3795
 150   2.0000      -0.557529       -15.1711
 151   2.0000      -0.557235       -15.1631
 152   2.0000      -0.555292       -15.1103
 153   2.0000      -0.553586       -15.0638
 154   2.0000      -0.551001       -14.9935
 155   2.0000      -0.540972       -14.7206
 156   2.0000      -0.540319       -14.7028
 157   2.0000      -0.537714       -14.6319
 158   2.0000      -0.530569       -14.4375
 159   2.0000      -0.530255       -14.4290
 160   2.0000      -0.527472       -14.3532
 161   2.0000      -0.525093       -14.2885
 162   2.0000      -0.521422       -14.1886
 163   2.0000      -0.520254       -14.1568
 164   2.0000      -0.516636       -14.0584
 165   2.0000      -0.515266       -14.0211
 166   2.0000      -0.513770       -13.9804
 167   2.0000      -0.513325       -13.9683
 168   2.0000      -0.508303       -13.8316
 169   2.0000      -0.507543       -13.8109
 170   2.0000      -0.504652       -13.7323
 171   2.0000      -0.502942       -13.6857
 172   2.0000      -0.502114       -13.6632
 173   2.0000      -0.500395       -13.6164
 174   2.0000      -0.498807       -13.5732
 175   2.0000      -0.497041       -13.5252
 176   2.0000      -0.495166       -13.4742
 177   2.0000      -0.494016       -13.4429
 178   2.0000      -0.493106       -13.4181
 179   2.0000      -0.490476       -13.3465
 180   2.0000      -0.487009       -13.2522
 181   2.0000      -0.485413       -13.2088
 182   2.0000      -0.484025       -13.1710
 183   2.0000      -0.479703       -13.0534
 184   2.0000      -0.477102       -12.9826
 185   2.0000      -0.475831       -12.9480
 186   2.0000      -0.472306       -12.8521
 187   2.0000      -0.462182       -12.5766
 188   2.0000      -0.460674       -12.5356
 189   2.0000      -0.455078       -12.3833
 190   2.0000      -0.452614       -12.3163
 191   2.0000      -0.450418       -12.2565
 192   2.0000      -0.448690       -12.2095
 193   2.0000      -0.447144       -12.1674
 194   2.0000      -0.446552       -12.1513
 195   2.0000      -0.445504       -12.1228
 196   2.0000      -0.443526       -12.0690
 197   2.0000      -0.439273       -11.9532
 198   2.0000      -0.438437       -11.9305
 199   2.0000      -0.437525       -11.9057
 200   2.0000      -0.436943       -11.8898
 201   2.0000      -0.434731       -11.8296
 202   2.0000      -0.432782       -11.7766
 203   2.0000      -0.430340       -11.7101
 204   2.0000      -0.429080       -11.6759
 205   2.0000      -0.425628       -11.5819
 206   2.0000      -0.422674       -11.5016
 207   2.0000      -0.419618       -11.4184
 208   2.0000      -0.418322       -11.3831
 209   2.0000      -0.415834       -11.3154
 210   2.0000      -0.415152       -11.2969
 211   2.0000      -0.412751       -11.2315
 212   2.0000      -0.409597       -11.1457
 213   2.0000      -0.407969       -11.1014
 214   2.0000      -0.405806       -11.0425
 215   2.0000      -0.401852       -10.9349
 216   2.0000      -0.395539       -10.7632
 217   2.0000      -0.391850       -10.6628
 218   2.0000      -0.390707       -10.6317
 219   2.0000      -0.386729       -10.5234
 220   2.0000      -0.384122       -10.4525
 221   2.0000      -0.379330       -10.3221
 222   2.0000      -0.372351       -10.1322
 223   2.0000      -0.369567       -10.0564
 224   2.0000      -0.367634       -10.0038
 225   2.0000      -0.361549        -9.8382
 226   2.0000      -0.356999        -9.7144
 227   2.0000      -0.346909        -9.4399
 228   2.0000      -0.331584        -9.0228
 229   2.0000      -0.328888        -8.9495
 230   2.0000      -0.325696        -8.8626
 231   2.0000      -0.313520        -8.5313
 232   2.0000      -0.309857        -8.4316
 233   2.0000      -0.304202        -8.2778
 234   2.0000      -0.299505        -8.1500
 235   2.0000      -0.290943        -7.9170
 236   2.0000      -0.287453        -7.8220
 237   2.0000      -0.285695        -7.7742
 238   2.0000      -0.282670        -7.6918
 239   2.0000      -0.265206        -7.2166
 240   2.0000      -0.217932        -5.9302
 241   0.0000      -0.129242        -3.5168
 242   0.0000      -0.121350        -3.3021
 243   0.0000      -0.075047        -2.0421
 244   0.0000      -0.016336        -0.4445
 245   0.0000      -0.013413        -0.3650

MULLIKEN ATOMIC CHARGES
-----------------------
   0 C :    0.059961
   1 S :   -0.010692
   2 C :   -0.011565
   3 C :   -0.159863
   4 C :    0.218098
   5 O :   -0.207480
   6 O :   -0.326176
   7 C :    0.380210
   8 C :   -0.126723
   9 C :    0.027338
  10 C :   -0.124627
  11 C :   -0.064079
  12 N :    0.084030
  13 C :   -0.051395
  14 C :    0.053592
  15 C :    0.047762
  16 C :    0.096490
  17 C :   -0.033901
  18 C :   -0.089330
  19 C :   -0.052728
  20 C :   -0.132207
  21 N :    0.140060
  22 C :   -0.032470
  23 C :    0.002600
  24 C :    0.146120
  25 C :   -0.079557
  26 C :    0.068690
  27 C :   -0.027821
  28 C :   -0.043487
  29 C :    0.170621
  30 N :   -0.223224
  31 C :    0.151347
  32 N :   -0.234541
  33 C :    0.072518
  34 C :   -0.129254
  35 C :    0.133928
  36 C :   -0.021470
  37 C :    0.009522
  38 C :    0.006824
  39 C :    0.034619
  40 C :   -0.017786
  41 C :    0.016970
  42 C :   -0.077601
  43 C :    0.011963
  44 C :    0.119843
  45 C :   -0.046422
  46 C :   -0.098779
  47 C :   -0.099934
  48 N :    0.116437
  49 C :   -0.058227
  50 C :    0.046920
  51 C :    0.053581
  52 C :    0.069342
  53 C :   -0.009972
  54 C :   -0.129918
  55 C :   -0.060345
  56 C :   -0.114692
  57 N :    0.157736
  58 C :   -0.013931
  59 C :    0.080583
  60 C :   -0.083975
  61 S :    0.035795
  62 C :   -0.016686
  63 C :   -0.042109
  64 C :    0.187802
  65 O :   -0.201371
  66 O :   -0.323961
  67 C :    0.159664
  68 H :    0.078228
  69 H :    0.076940
  70 H :    0.033975
  71 H :    0.019603
  72 H :    0.025340
  73 H :   -0.003618
  74 H :    0.029365
  75 H :   -0.010952
  76 H :   -0.005225
  77 H :    0.019906
  78 H :   -0.017914
  79 H :   -0.055457
  80 H :   -0.020867
  81 H :   -0.016915
  82 H :   -0.026700
  83 H :    0.083387
  84 H :    0.087373
  85 H :   -0.030719
  86 H :   -0.007997
  87 H :    0.118473
  88 H :    0.092000
  89 H :    0.013429
  90 H :    0.017358
  91 H :   -0.010509
  92 H :   -0.034283
  93 H :   -0.039062
  94 H :   -0.030140
  95 H :    0.004372
  96 H :   -0.002856
  97 H :   -0.013727
  98 H :    0.006071
  99 H :   -0.006571
 100 H :    0.013948
 101 H :    0.008736
 102 H :    0.002194
 103 H :    0.054629
 104 H :    0.034550
 105 H :    0.045181
 106 H :    0.052733
 107 H :    0.033060
Sum of atomic charges:   -0.0000000

LOEWDIN ATOMIC CHARGES
----------------------
   0 C :   -0.068285
   1 S :    0.283494
   2 C :   -0.083640
   3 C :   -0.146744
   4 C :    0.079181
   5 O :   -0.183602
   6 O :   -0.096522
   7 C :    0.093369
   8 C :   -0.058315
   9 C :    0.029686
  10 C :   -0.071699
  11 C :   -0.008026
  12 N :   -0.062863
  13 C :    0.015452
  14 C :    0.022882
  15 C :    0.049363
  16 C :   -0.016377
  17 C :   -0.015949
  18 C :   -0.040121
  19 C :   -0.024572
  20 C :   -0.028933
  21 N :   -0.045475
  22 C :   -0.030477
  23 C :    0.020592
  24 C :   -0.023208
  25 C :    0.010884
  26 C :   -0.016864
  27 C :   -0.010950
  28 C :   -0.038849
  29 C :    0.029214
  30 N :   -0.121600
  31 C :    0.027326
  32 N :   -0.113645
  33 C :   -0.020489
  34 C :    0.067877
  35 C :   -0.029402
  36 C :   -0.028230
  37 C :   -0.021198
  38 C :   -0.046530
  39 C :   -0.023383
  40 C :   -0.016590
  41 C :   -0.006603
  42 C :    0.022601
  43 C :   -0.042421
  44 C :   -0.024131
  45 C :   -0.005434
  46 C :   -0.050995
  47 C :   -0.024183
  48 N :   -0.049949
  49 C :   -0.011314
  50 C :    0.039557
  51 C :    0.033306
  52 C :   -0.029523
  53 C :    0.009929
  54 C :   -0.049022
  55 C :   -0.014709
  56 C :   -0.021960
  57 N :   -0.033241
  58 C :   -0.029713
  59 C :   -0.017580
  60 C :   -0.065046
  61 S :    0.279708
  62 C :   -0.071428
  63 C :   -0.133330
  64 C :    0.076122
  65 O :   -0.179581
  66 O :   -0.106216
  67 C :    0.075152
  68 H :    0.038700
  69 H :    0.038169
  70 H :    0.024998
  71 H :    0.032143
  72 H :    0.032125
  73 H :    0.037072
  74 H :    0.039570
  75 H :    0.030788
  76 H :    0.027370
  77 H :    0.030793
  78 H :    0.029103
  79 H :    0.022359
  80 H :    0.027457
  81 H :   -0.000537
  82 H :    0.009625
  83 H :    0.041784
  84 H :    0.053802
  85 H :   -0.007736
  86 H :    0.016133
  87 H :    0.042741
  88 H :    0.053062
  89 H :    0.028972
  90 H :    0.046759
  91 H :    0.024375
  92 H :    0.030374
  93 H :    0.026532
  94 H :    0.026253
  95 H :    0.026348
  96 H :    0.027775
  97 H :    0.029748
  98 H :    0.034630
  99 H :    0.034044
 100 H :    0.037441
 101 H :    0.031782
 102 H :    0.029804
 103 H :    0.037150
 104 H :    0.027895
 105 H :    0.024714
 106 H :    0.026554
 107 H :    0.022547

  Mayer bond orders larger than 0.100000
B(  0-C ,  1-S ) :   1.0010 B(  0-C ,  3-C ) :   1.0478 B(  0-C , 68-H ) :   0.9353
B(  0-C , 69-H ) :   0.9356 B(  1-S ,  2-C ) :   1.1020 B(  1-S ,  3-C ) :   0.1188
B(  2-C ,  3-C ) :   1.6670 B(  2-C , 70-H ) :   1.0084 B(  3-C ,  4-C ) :   1.0056
B(  4-C ,  5-O ) :   2.1322 B(  4-C ,  6-O ) :   1.1715 B(  6-O ,  7-C ) :   0.9027
B(  7-C ,  8-C ) :   1.0842 B(  7-C , 71-H ) :   0.9059 B(  7-C , 72-H ) :   0.9260
B(  8-C ,  9-C ) :   1.6794 B(  8-C , 14-C ) :   1.0933 B(  9-C , 10-C ) :   1.0665
B(  9-C , 73-H ) :   1.0174 B( 10-C , 11-C ) :   1.0712 B( 10-C , 13-C ) :   1.6467
B( 11-C , 12-N ) :   2.9143 B( 13-C , 14-C ) :   1.0729 B( 13-C , 74-H ) :   1.0145
B( 14-C , 15-C ) :   1.4816 B( 15-C , 16-C ) :   1.0248 B( 15-C , 19-C ) :   1.1019
B( 16-C , 17-C ) :   1.6064 B( 16-C , 22-C ) :   1.0774 B( 17-C , 18-C ) :   1.1015
B( 17-C , 75-H ) :   1.0173 B( 18-C , 19-C ) :   1.5931 B( 18-C , 20-C ) :   1.0605
B( 19-C , 76-H ) :   1.0111 B( 20-C , 21-N ) :   3.0378 B( 22-C , 23-C ) :   1.6889
B( 22-C , 77-H ) :   0.9527 B( 23-C , 24-C ) :   1.0781 B( 23-C , 78-H ) :   0.9867
B( 24-C , 25-C ) :   1.4847 B( 24-C , 41-C ) :   1.1162 B( 25-C , 26-C ) :   1.1822
B( 25-C , 79-H ) :   0.9822 B( 26-C , 27-C ) :   1.4503 B( 26-C , 39-C ) :   1.1161
B( 27-C , 28-C ) :   1.0370 B( 27-C , 33-C ) :   1.0889 B( 28-C , 29-C ) :   1.0319
B( 28-C , 31-C ) :   1.0291 B( 28-C , 80-H ) :   0.8793 B( 29-C , 30-N ) :   1.0997
B( 29-C , 81-H ) :   0.9334 B( 29-C , 82-H ) :   0.9351 B( 30-N , 83-H ) :   0.9657
B( 30-N , 84-H ) :   0.9666 B( 31-C , 32-N ) :   1.0959 B( 31-C , 85-H ) :   0.9305
B( 31-C , 86-H ) :   0.9294 B( 32-N , 87-H ) :   0.9750 B( 32-N , 88-H ) :   0.9643
B( 33-C , 34-C ) :   1.6431 B( 33-C , 38-C ) :   1.0516 B( 34-C , 35-C ) :   1.0001
B( 34-C , 89-H ) :   0.9714 B( 35-C , 36-C ) :   0.9791 B( 35-C , 42-C ) :   0.9533
B( 35-C , 90-H ) :   0.8864 B( 36-C , 37-C ) :   1.7157 B( 36-C , 91-H ) :   0.9632
B( 37-C , 38-C ) :   1.1486 B( 37-C , 92-H ) :   0.9864 B( 38-C , 39-C ) :   1.4074
B( 39-C , 40-C ) :   1.1474 B( 40-C , 41-C ) :   1.5967 B( 40-C , 93-H ) :   0.9932
B( 41-C , 94-H ) :   0.9891 B( 42-C , 43-C ) :   1.8094 B( 42-C , 95-H ) :   0.9721
B( 43-C , 44-C ) :   1.0700 B( 43-C , 96-H ) :   0.9380 B( 44-C , 45-C ) :   1.6079
B( 44-C , 50-C ) :   1.0488 B( 45-C , 46-C ) :   1.0924 B( 45-C , 97-H ) :   1.0155
B( 46-C , 47-C ) :   1.0681 B( 46-C , 49-C ) :   1.6080 B( 47-C , 48-N ) :   2.9577
B( 49-C , 50-C ) :   1.0970 B( 49-C , 98-H ) :   1.0102 B( 50-C , 51-C ) :   1.4570
B( 51-C , 52-C ) :   1.0652 B( 51-C , 55-C ) :   1.0711 B( 52-C , 53-C ) :   1.6390
B( 52-C , 58-C ) :   1.0199 B( 53-C , 54-C ) :   1.0815 B( 53-C , 99-H ) :   1.0178
B( 54-C , 55-C ) :   1.6163 B( 54-C , 56-C ) :   1.0933 B( 55-C ,100-H ) :   1.0215
B( 56-C , 57-N ) :   2.9847 B( 58-C , 59-C ) :   1.8155 B( 58-C ,101-H ) :   0.9573
B( 59-C , 60-C ) :   0.9772 B( 59-C ,102-H ) :   0.9708 B( 60-C , 61-S ) :   0.9893
B( 60-C , 63-C ) :   0.9445 B( 60-C ,103-H ) :   0.9207 B( 61-S , 62-C ) :   1.0886
B( 62-C , 63-C ) :   1.6895 B( 62-C ,104-H ) :   1.0056 B( 63-C , 64-C ) :   0.9880
B( 64-C , 65-O ) :   2.1523 B( 64-C , 66-O ) :   1.2041 B( 66-O , 67-C ) :   0.8935
B( 67-C ,105-H ) :   0.9754 B( 67-C ,106-H ) :   0.9616 B( 67-C ,107-H ) :   0.9809

-----------------------------------------------------------------------------
         ABSORPTION SPECTRUM VIA TRANSITION ELECTRIC DIPOLE MOMENTS
-----------------------------------------------------------------------------
State   Energy  Wavelength   fosc         T2         TX        TY        TZ
        (cm-1)    (nm)                  (au**2)     (au)      (au)      (au)
-----------------------------------------------------------------------------
   0    3520.7   2840.3   0.039810411   3.72255  -1.14115  -1.54363  -0.19373
   1    6498.0   1538.9   0.071273263   3.61096  -0.59917   1.79267  -0.19573
   2   12044.1    830.3   0.050669583   1.38500   0.46974  -0.80648  -0.71689
   3   13372.0    747.8   0.036614578   0.90143  -0.72984   0.56860  -0.21323
   4   13821.0    723.5   0.008149481   0.19412   0.32138  -0.22316   0.20257
   5   14706.5    680.0   0.011399901   0.25519   0.46621   0.10726   0.16228
   6   16080.8    621.9   0.006805316   0.13932  -0.06802   0.34774   0.11736
   7   18140.9    551.2   0.012241459   0.22215   0.20126  -0.36149  -0.22576
   8   19726.2    506.9   0.004550917   0.07595  -0.09076   0.19501   0.17229
   9   19940.2    501.5   0.001460435   0.02411   0.04722  -0.13233  -0.06611
  10   20930.5    477.8   0.000123312   0.00194   0.00577   0.03836  -0.02084
  11   21422.6    466.8   0.004342831   0.06674   0.21709   0.13941   0.01327
  12   21720.6    460.4   0.000587161   0.00890  -0.04089   0.01569   0.08355
  13   23621.4    423.3   0.154138684   2.14824  -0.11105   1.22847  -0.79169
  14   24047.2    415.8   0.006928721   0.09486   0.14495  -0.25558   0.09231
  15   24587.6    406.7   0.011199807   0.14996  -0.08199  -0.24562   0.28793
  16   25186.4    397.0   0.040097350   0.52411  -0.15838   0.57091  -0.41604
  17   25306.3    395.2   0.006538841   0.08506  -0.15052  -0.20643  -0.14069
  18   25932.0    385.6   0.008279905   0.10511  -0.02985   0.31382  -0.07576
  19   26144.1    382.5   0.097964351   1.23359   0.14902  -1.09884   0.06263
  20   26305.9    380.1   0.012168866   0.15229   0.09896   0.29036   0.24123
  21   27728.7    360.6   0.349702728   4.15189  -0.28297   2.01750  -0.03875
  22   28349.1    352.7   0.159251333   1.84935  -0.40640   1.25634   0.32525
  23   28380.1    352.4   0.016601342   0.19258   0.06756  -0.43359   0.00280
  24   28666.8    348.8   0.159894479   1.83624  -0.10478   1.35084   0.02190
  25   28802.8    347.2   0.046567669   0.53226  -0.21777   0.68884  -0.10168
  26   29132.6    343.3   0.558866855   6.31545   0.33506   1.66723  -1.85028
  27   29497.5    339.0   0.001619324   0.01807  -0.01469  -0.11364   0.07031
  28   30100.4    332.2   0.000371171   0.00406  -0.05889   0.02410   0.00337
  29   30377.8    329.2   0.278225826   3.01520   0.25662  -1.03663   1.36921
  30   30494.4    327.9   0.027722902   0.29929  -0.38166   0.37634   0.10952
  31   31129.0    321.2   0.764997554   8.09040  -0.06926   1.30458  -2.52659
  32   31586.9    316.6   0.009987062   0.10409   0.17173   0.18726  -0.19883
  33   32297.3    309.6   0.034958365   0.35634  -0.07655  -0.15204   0.57215
  34   32475.5    307.9   0.048973231   0.49645  -0.38046   0.32045  -0.49902
  35   32863.6    304.3   0.057247839   0.57348  -0.52138   0.39986  -0.37651
  36   33082.6    302.3   0.000884506   0.00880  -0.05743  -0.03143   0.06720
  37   33944.5    294.6   0.015775828   0.15300   0.29234  -0.24226   0.09406
  38   34377.5    290.9   0.001521580   0.01457  -0.04188   0.02988   0.10920
  39   34789.0    287.4   0.014662951   0.13876   0.13831   0.15224  -0.31056
  40   34882.7    286.7   0.011740899   0.11081  -0.13225  -0.05630   0.30024
  41   35302.0    283.3   0.019188996   0.17895   0.21505   0.23003  -0.28247
  42   35644.1    280.6   0.010317018   0.09529   0.07230  -0.00253   0.30009
  43   35693.9    280.2   0.005033979   0.04643  -0.03753  -0.20927   0.03503
  44   35813.6    279.2   0.021993984   0.20218   0.08102   0.12464  -0.42436
  45   35849.3    278.9   0.040562148   0.37249  -0.10467  -0.35151   0.48783
  46   35899.1    278.6   0.009632451   0.08833  -0.04490  -0.06221   0.28714
  47   36315.2    275.4   0.008777271   0.07957   0.01276  -0.26341  -0.10010
  48   36875.7    271.2   0.002846171   0.02541   0.02351   0.05843  -0.14643
  49   37386.6    267.5   0.135254879   1.19100   0.34695  -0.81686   0.63511
  50   38251.1    261.4   0.013884930   0.11950  -0.06551   0.32665  -0.09224
  51   38391.0    260.5   0.004494692   0.03854  -0.08209   0.14506  -0.10374
  52   38676.0    258.6   0.000688947   0.00586  -0.04256   0.05885   0.02427
  53   39312.7    254.4   0.809458268   6.77856  -0.65220   2.19142  -1.24534
  54   39687.4    252.0   0.004684076   0.03885   0.08250  -0.15170   0.09505
  55   40144.4    249.1   0.073161675   0.59998   0.08752   0.61284  -0.46556

FINAL SINGLE POINT ENERGY     -3579.681462928074

DIPOLE MOMENT
-------------
                                X             Y             Z
Electronic contribution:     13.60599     -25.93522      21.15469
Nuclear contribution   :    -13.97260      26.53131     -22.56156
                        -----------------------------------------
Total Dipole Moment    :     -0.36661       0.59609      -1.40688
                        -----------------------------------------
Magnitude (a.u.)       :      1.57131
Magnitude (Debye)      :      3.99396

Rotational constants in cm-1:     0.001530     0.000436     0.000385
Rotational constants in MHz :    45.853553    13.067646    11.538274

                             ****ORCA TERMINATED NORMALLY****
TOTAL RUN TIME: 0 days 0 hours 13 minutes 15 seconds 280 msec
