                         Program Version 4.2.0 -  RELEASE  -
|  1> # ORCA input file
|  2> # SCF done       -207.734213617494          0.000598571892
|  3> ! CAM-B3LYP def2-SVP def2/J RIJCOSX Grid4 TightSCF
|  4> %maxcore 5000
|  5> %tddft
|  6>     Mode sTDDFT
|  7>     Ethresh 5.0
|  8>     maxcore 5000
|  9> end
| 10>
| 11> %pal
| 12>   nprocs 6
| 13>   end
| 14> * xyz 0 1
| 15>    C        1.05351        -4.64649         3.21595
| 16>    C        0.37472        -5.15331         4.27512
| 17>    C       -0.85370        -5.98878         4.24037
| 18>    F       -1.25074        -6.22322         2.98240
| 19>    F       -0.68554        -7.19085         4.82054
| 20>    F       -1.89424        -5.41720         4.87241
| 21>    S        1.09531        -4.72457         5.79837
| 22>    C        2.33761        -3.84418         4.97119
| 23>    O        3.30997        -3.20714         5.60280
| 24>    C        3.32067        -3.25063         7.01379
| 25>    C        2.19492        -3.88439         3.58610
| 26>    C        3.10786        -3.22352         2.71005
| 27>    C        3.03227        -3.20869         1.35727
| 28>    C        3.98532        -2.51204         0.56958
| 29>    N        4.99720        -1.84858         1.11732
| 30>    C        5.67724        -1.30248         0.09583
| 31>    C        5.05879        -1.63192        -1.20200
| 32>    C        5.81719        -1.01320        -2.29987
| 33>    O        5.59196        -1.05122        -3.49260
| 34>    C        6.91218        -0.32733        -1.59312
| 35>    C        6.78736        -0.52594        -0.13612
| 36>    N        7.79317         0.10205         0.52061
| 37>    C        8.51696         0.66239        -0.41928
| 38>    C        8.02535         0.43410        -1.76059
| 39>    C        3.97393        -2.41938        -0.91414
| 40>    C        3.02040        -3.04516        -1.77099
| 41>    C        3.03345        -2.90173        -3.11236
| 42>    C        2.10729        -3.49873        -4.04663
| 43>    C        2.12114        -3.04314        -5.36537
| 44>    C        1.23456        -3.58141        -6.29223
| 45>    C        1.03769        -3.28742        -7.67761
| 46>    C        1.75974        -2.22554        -8.42762
| 47>    C        2.66076        -2.81669        -9.53390
| 48>    N        3.74651        -1.89743        -9.79132
| 49>    C        0.76780        -1.18896        -8.98989
| 50>    N        1.48444        -0.04829        -9.53984
| 51>    C        0.02699        -4.13791        -8.15582
| 52>    C       -0.44132        -4.37836        -9.43370
| 53>    C       -1.54391        -5.24424        -9.63988
| 54>    C       -2.10224        -6.02871        -8.47789
| 55>    C       -1.39066        -5.92834        -7.21342
| 56>    C       -0.45077        -4.97650        -7.04438
| 57>    C        0.33790        -4.61444        -5.89600
| 58>    C        0.33149        -5.07527        -4.58877
| 59>    C        1.20472        -4.51684        -3.67923
| 60>    C       -2.88691        -4.79717        -8.89771
| 61>    C       -4.09891        -4.86095        -9.62269
| 62>    C       -4.98954        -3.80728        -9.60218
| 63>    N       -4.73726        -2.66772        -8.90598
| 64>    C       -5.80135        -1.89960        -9.07514
| 65>    C       -6.82807        -2.55013        -9.91018
| 66>    C       -7.98486        -1.65500       -10.09602
| 67>    O       -9.00480        -1.87084       -10.72553
| 68>    C       -7.59505        -0.46085        -9.34664
| 69>    C       -6.27209        -0.63562        -8.73626
| 70>    N       -5.90332         0.46686        -8.05771
| 71>    C       -6.91044         1.31375        -8.20768
| 72>    C       -7.98907         0.80281        -8.99839
| 73>    C       -6.31167        -3.76472       -10.26795
| 74>    C       -6.84852        -4.79829       -11.09813
| 75>    C       -8.12929        -4.80435       -11.50557
| 76>    C       -8.74149        -5.78968       -12.36469
| 77>    C       -8.40928        -7.12532       -12.41936
| 78>    C       -7.45381        -7.90266       -11.59916
| 79>    F       -7.44580        -7.55372       -10.29977
| 80>    F       -7.71052        -9.21999       -11.62981
| 81>    F       -6.16045        -7.78896       -12.00328
| 82>    S       -9.36338        -8.00744       -13.56460
| 83>    C      -10.22662        -6.55913       -13.98407
| 84>    O      -11.18594        -6.57264       -14.91529
| 85>    C      -11.48121        -7.80952       -15.52171
| 86>    C       -9.80623        -5.45765       -13.27007
| 87>    C      -10.33443        -4.11257       -13.41447
| 88>    C      -11.30162        -3.73733       -14.24426
| 89>    H        0.74675        -4.81246         2.19999
| 90>    H        2.40765        -2.80908         7.42448
| 91>    H        4.18635        -2.67155         7.32713
| 92>    H        3.41110        -4.28073         7.37155
| 93>    H        3.92433        -2.69026         3.17620
| 94>    H        2.23531        -3.72354         0.84255
| 95>    H        9.39198         1.23373        -0.16155
| 96>    H        8.47346         0.80411        -2.66155
| 97>    H        2.26164        -3.64697        -1.29100
| 98>    H        3.79121        -2.26685        -3.55316
| 99>    H        2.82209        -2.27268        -5.64956
|100>    H        2.43309        -1.70417        -7.74100
|101>    H        2.04754        -3.03521       -10.42331
|102>    H        3.08986        -3.76090        -9.18069
|103>    H        3.36020        -1.01116       -10.10452
|104>    H        4.36909        -2.25891       -10.50438
|105>    H        0.06480        -0.91165        -8.18632
|106>    H        0.18245        -1.63377        -9.79835
|107>    H        1.96454         0.44985        -8.79621
|108>    H        0.83097         0.59799        -9.96944
|109>    H        0.01890        -3.91617       -10.29278
|110>    H       -1.71985        -5.61421       -10.64013
|111>    H       -2.57939        -6.97511        -8.69794
|112>    H       -1.66185        -6.60803        -6.42005
|113>    H       -0.34654        -5.85893        -4.28538
|114>    H        1.20619        -4.88446        -2.66498
|115>    H       -2.77336        -3.91332        -8.28295
|116>    H       -4.32318        -5.74316       -10.20425
|117>    H       -6.86626         2.28773        -7.75190
|118>    H       -8.89302         1.32514        -9.24268
|119>    H       -6.15854        -5.56646       -11.41200
|120>    H       -8.76874        -3.98786       -11.19968
|121>    H      -10.60777        -8.20625       -16.04965
|122>    H      -12.28410        -7.61615       -16.23016
|123>    H      -11.81030        -8.54330       -14.77878
|124>    H       -9.88065        -3.37057       -12.77419
|125>    H      -11.79500        -4.42083       -14.91091
|126>    H      -11.62760        -2.71198       -14.27214
|127> *
|128>
|129>                          ****END OF INPUT****

CARTESIAN COORDINATES (ANGSTROEM)
---------------------------------
  C      1.053510   -4.646490    3.215950
  C      0.374720   -5.153310    4.275120
  C     -0.853700   -5.988780    4.240370
  F     -1.250740   -6.223220    2.982400
  F     -0.685540   -7.190850    4.820540
  F     -1.894240   -5.417200    4.872410
  S      1.095310   -4.724570    5.798370
  C      2.337610   -3.844180    4.971190
  O      3.309970   -3.207140    5.602800
  C      3.320670   -3.250630    7.013790
  C      2.194920   -3.884390    3.586100
  C      3.107860   -3.223520    2.710050
  C      3.032270   -3.208690    1.357270
  C      3.985320   -2.512040    0.569580
  N      4.997200   -1.848580    1.117320
  C      5.677240   -1.302480    0.095830
  C      5.058790   -1.631920   -1.202000
  C      5.817190   -1.013200   -2.299870
  O      5.591960   -1.051220   -3.492600
  C      6.912180   -0.327330   -1.593120
  C      6.787360   -0.525940   -0.136120
  N      7.793170    0.102050    0.520610
  C      8.516960    0.662390   -0.419280
  C      8.025350    0.434100   -1.760590
  C      3.973930   -2.419380   -0.914140
  C      3.020400   -3.045160   -1.770990
  C      3.033450   -2.901730   -3.112360
  C      2.107290   -3.498730   -4.046630
  C      2.121140   -3.043140   -5.365370
  C      1.234560   -3.581410   -6.292230
  C      1.037690   -3.287420   -7.677610
  C      1.759740   -2.225540   -8.427620
  C      2.660760   -2.816690   -9.533900
  N      3.746510   -1.897430   -9.791320
  C      0.767800   -1.188960   -8.989890
  N      1.484440   -0.048290   -9.539840
  C      0.026990   -4.137910   -8.155820
  C     -0.441320   -4.378360   -9.433700
  C     -1.543910   -5.244240   -9.639880
  C     -2.102240   -6.028710   -8.477890
  C     -1.390660   -5.928340   -7.213420
  C     -0.450770   -4.976500   -7.044380
  C      0.337900   -4.614440   -5.896000
  C      0.331490   -5.075270   -4.588770
  C      1.204720   -4.516840   -3.679230
  C     -2.886910   -4.797170   -8.897710
  C     -4.098910   -4.860950   -9.622690
  C     -4.989540   -3.807280   -9.602180
  N     -4.737260   -2.667720   -8.905980
  C     -5.801350   -1.899600   -9.075140
  C     -6.828070   -2.550130   -9.910180
  C     -7.984860   -1.655000  -10.096020
  O     -9.004800   -1.870840  -10.725530
  C     -7.595050   -0.460850   -9.346640
  C     -6.272090   -0.635620   -8.736260
  N     -5.903320    0.466860   -8.057710
  C     -6.910440    1.313750   -8.207680
  C     -7.989070    0.802810   -8.998390
  C     -6.311670   -3.764720  -10.267950
  C     -6.848520   -4.798290  -11.098130
  C     -8.129290   -4.804350  -11.505570
  C     -8.741490   -5.789680  -12.364690
  C     -8.409280   -7.125320  -12.419360
  C     -7.453810   -7.902660  -11.599160
  F     -7.445800   -7.553720  -10.299770
  F     -7.710520   -9.219990  -11.629810
  F     -6.160450   -7.788960  -12.003280
  S     -9.363380   -8.007440  -13.564600
  C    -10.226620   -6.559130  -13.984070
  O    -11.185940   -6.572640  -14.915290
  C    -11.481210   -7.809520  -15.521710
  C     -9.806230   -5.457650  -13.270070
  C    -10.334430   -4.112570  -13.414470
  C    -11.301620   -3.737330  -14.244260
  H      0.746750   -4.812460    2.199990
  H      2.407650   -2.809080    7.424480
  H      4.186350   -2.671550    7.327130
  H      3.411100   -4.280730    7.371550
  H      3.924330   -2.690260    3.176200
  H      2.235310   -3.723540    0.842550
  H      9.391980    1.233730   -0.161550
  H      8.473460    0.804110   -2.661550
  H      2.261640   -3.646970   -1.291000
  H      3.791210   -2.266850   -3.553160
  H      2.822090   -2.272680   -5.649560
  H      2.433090   -1.704170   -7.741000
  H      2.047540   -3.035210  -10.423310
  H      3.089860   -3.760900   -9.180690
  H      3.360200   -1.011160  -10.104520
  H      4.369090   -2.258910  -10.504380
  H      0.064800   -0.911650   -8.186320
  H      0.182450   -1.633770   -9.798350
  H      1.964540    0.449850   -8.796210
  H      0.830970    0.597990   -9.969440
  H      0.018900   -3.916170  -10.292780
  H     -1.719850   -5.614210  -10.640130
  H     -2.579390   -6.975110   -8.697940
  H     -1.661850   -6.608030   -6.420050
  H     -0.346540   -5.858930   -4.285380
  H      1.206190   -4.884460   -2.664980
  H     -2.773360   -3.913320   -8.282950
  H     -4.323180   -5.743160  -10.204250
  H     -6.866260    2.287730   -7.751900
  H     -8.893020    1.325140   -9.242680
  H     -6.158540   -5.566460  -11.412000
  H     -8.768740   -3.987860  -11.199680
  H    -10.607770   -8.206250  -16.049650
  H    -12.284100   -7.616150  -16.230160
  H    -11.810300   -8.543300  -14.778780
  H     -9.880650   -3.370570  -12.774190
  H    -11.795000   -4.420830  -14.910910
  H    -11.627600   -2.711980  -14.272140

 Total Charge           Charge          ....    0
 Multiplicity           Mult            ....    1
 Number of Electrons    NEL             ....  534
 Basis Dimension        Dim             .... 1234

ORBITAL ENERGIES
----------------

  NO   OCC          E(Eh)            E(eV)
   0   2.0000     -88.995063     -2421.6788
   1   2.0000     -88.958193     -2420.6755
   2   2.0000     -24.810721      -675.1340
   3   2.0000     -24.803524      -674.9382
   4   2.0000     -24.803020      -674.9245
   5   2.0000     -24.790407      -674.5813
   6   2.0000     -24.783348      -674.3892
   7   2.0000     -24.783189      -674.3849
   8   2.0000     -19.299679      -525.1710
   9   2.0000     -19.263577      -524.1886
  10   2.0000     -19.206011      -522.6221
  11   2.0000     -19.173866      -521.7474
  12   2.0000     -14.399479      -391.8297
  13   2.0000     -14.397868      -391.7859
  14   2.0000     -14.395489      -391.7212
  15   2.0000     -14.368667      -390.9913
  16   2.0000     -14.364148      -390.8683
  17   2.0000     -14.355468      -390.6322
  18   2.0000     -10.531842      -286.5860
  19   2.0000     -10.509243      -285.9711
  20   2.0000     -10.396535      -282.9041
  21   2.0000     -10.365676      -282.0644
  22   2.0000     -10.357950      -281.8542
  23   2.0000     -10.351267      -281.6723
  24   2.0000     -10.337548      -281.2990
  25   2.0000     -10.333059      -281.1768
  26   2.0000     -10.331648      -281.1384
  27   2.0000     -10.327821      -281.0343
  28   2.0000     -10.327096      -281.0146
  29   2.0000     -10.325219      -280.9635
  30   2.0000     -10.320585      -280.8374
  31   2.0000     -10.318801      -280.7889
  32   2.0000     -10.317237      -280.7463
  33   2.0000     -10.312821      -280.6261
  34   2.0000     -10.312344      -280.6131
  35   2.0000     -10.311921      -280.6016
  36   2.0000     -10.310434      -280.5612
  37   2.0000     -10.310096      -280.5520
  38   2.0000     -10.308936      -280.5204
  39   2.0000     -10.301263      -280.3116
  40   2.0000     -10.300803      -280.2991
  41   2.0000     -10.300634      -280.2945
  42   2.0000     -10.299619      -280.2669
  43   2.0000     -10.296867      -280.1920
  44   2.0000     -10.295837      -280.1640
  45   2.0000     -10.294554      -280.1291
  46   2.0000     -10.293742      -280.1070
  47   2.0000     -10.292345      -280.0689
  48   2.0000     -10.291572      -280.0479
  49   2.0000     -10.291109      -280.0353
  50   2.0000     -10.290862      -280.0286
  51   2.0000     -10.290234      -280.0115
  52   2.0000     -10.289939      -280.0035
  53   2.0000     -10.289310      -279.9864
  54   2.0000     -10.287436      -279.9354
  55   2.0000     -10.286004      -279.8964
  56   2.0000     -10.283323      -279.8234
  57   2.0000     -10.283245      -279.8213
  58   2.0000     -10.283062      -279.8164
  59   2.0000     -10.282603      -279.8038
  60   2.0000     -10.279294      -279.7138
  61   2.0000     -10.278116      -279.6818
  62   2.0000     -10.270933      -279.4863
  63   2.0000     -10.269281      -279.4413
  64   2.0000     -10.266575      -279.3677
  65   2.0000     -10.264465      -279.3103
  66   2.0000     -10.263032      -279.2713
  67   2.0000     -10.262045      -279.2444
  68   2.0000     -10.258293      -279.1423
  69   2.0000     -10.253760      -279.0190
  70   2.0000     -10.246725      -278.8276
  71   2.0000     -10.237495      -278.5764
  72   2.0000     -10.236310      -278.5442
  73   2.0000     -10.232706      -278.4461
  74   2.0000      -8.091125      -220.1707
  75   2.0000      -8.054084      -219.1628
  76   2.0000      -6.060463      -164.9136
  77   2.0000      -6.056434      -164.8039
  78   2.0000      -6.052845      -164.7063
  79   2.0000      -6.023493      -163.9076
  80   2.0000      -6.019354      -163.7949
  81   2.0000      -6.015852      -163.6996
  82   2.0000      -1.396450       -37.9993
  83   2.0000      -1.375058       -37.4172
  84   2.0000      -1.301017       -35.4025
  85   2.0000      -1.294810       -35.2336
  86   2.0000      -1.279691       -34.8222
  87   2.0000      -1.271759       -34.6063
  88   2.0000      -1.210666       -32.9439
  89   2.0000      -1.171911       -31.8893
  90   2.0000      -1.119831       -30.4721
  91   2.0000      -1.086800       -29.5733
  92   2.0000      -1.069430       -29.1007
  93   2.0000      -1.048747       -28.5378
  94   2.0000      -1.034113       -28.1396
  95   2.0000      -1.024385       -27.8749
  96   2.0000      -1.013265       -27.5723
  97   2.0000      -1.007357       -27.4116
  98   2.0000      -0.995996       -27.1024
  99   2.0000      -0.982891       -26.7458
 100   2.0000      -0.978132       -26.6163
 101   2.0000      -0.951504       -25.8917
 102   2.0000      -0.946431       -25.7537
 103   2.0000      -0.934020       -25.4160
 104   2.0000      -0.916942       -24.9513
 105   2.0000      -0.909322       -24.7439
 106   2.0000      -0.899022       -24.4636
 107   2.0000      -0.893981       -24.3265
 108   2.0000      -0.890586       -24.2341
 109   2.0000      -0.881177       -23.9781
 110   2.0000      -0.876328       -23.8461
 111   2.0000      -0.874667       -23.8009
 112   2.0000      -0.863446       -23.4956
 113   2.0000      -0.859226       -23.3807
 114   2.0000      -0.851174       -23.1616
 115   2.0000      -0.848570       -23.0908
 116   2.0000      -0.844171       -22.9711
 117   2.0000      -0.837926       -22.8011
 118   2.0000      -0.835716       -22.7410
 119   2.0000      -0.817796       -22.2533
 120   2.0000      -0.814210       -22.1558
 121   2.0000      -0.809358       -22.0238
 122   2.0000      -0.801526       -21.8106
 123   2.0000      -0.788031       -21.4434
 124   2.0000      -0.786120       -21.3914
 125   2.0000      -0.782352       -21.2889
 126   2.0000      -0.764982       -20.8162
 127   2.0000      -0.753716       -20.5096
 128   2.0000      -0.742835       -20.2136
 129   2.0000      -0.740962       -20.1626
 130   2.0000      -0.735075       -20.0024
 131   2.0000      -0.726751       -19.7759
 132   2.0000      -0.723972       -19.7003
 133   2.0000      -0.716882       -19.5074
 134   2.0000      -0.708354       -19.2753
 135   2.0000      -0.704366       -19.1668
 136   2.0000      -0.703497       -19.1431
 137   2.0000      -0.694957       -18.9108
 138   2.0000      -0.690358       -18.7856
 139   2.0000      -0.689809       -18.7707
 140   2.0000      -0.678445       -18.4614
 141   2.0000      -0.677638       -18.4395
 142   2.0000      -0.675165       -18.3722
 143   2.0000      -0.673483       -18.3264
 144   2.0000      -0.667010       -18.1503
 145   2.0000      -0.664637       -18.0857
 146   2.0000      -0.660648       -17.9771
 147   2.0000      -0.657820       -17.9002
 148   2.0000      -0.653306       -17.7774
 149   2.0000      -0.649842       -17.6831
 150   2.0000      -0.646114       -17.5817
 151   2.0000      -0.638403       -17.3718
 152   2.0000      -0.631283       -17.1781
 153   2.0000      -0.625181       -17.0121
 154   2.0000      -0.619585       -16.8598
 155   2.0000      -0.613856       -16.7039
 156   2.0000      -0.613388       -16.6911
 157   2.0000      -0.607834       -16.5400
 158   2.0000      -0.603599       -16.4248
 159   2.0000      -0.598465       -16.2851
 160   2.0000      -0.594540       -16.1783
 161   2.0000      -0.592585       -16.1251
 162   2.0000      -0.588493       -16.0137
 163   2.0000      -0.583229       -15.8705
 164   2.0000      -0.579460       -15.7679
 165   2.0000      -0.579215       -15.7612
 166   2.0000      -0.574327       -15.6282
 167   2.0000      -0.572509       -15.5788
 168   2.0000      -0.567529       -15.4433
 169   2.0000      -0.566574       -15.4173
 170   2.0000      -0.565004       -15.3746
 171   2.0000      -0.564583       -15.3631
 172   2.0000      -0.558678       -15.2024
 173   2.0000      -0.555563       -15.1176
 174   2.0000      -0.555287       -15.1101
 175   2.0000      -0.551883       -15.0175
 176   2.0000      -0.549068       -14.9409
 177   2.0000      -0.542144       -14.7525
 178   2.0000      -0.539303       -14.6752
 179   2.0000      -0.538376       -14.6500
 180   2.0000      -0.537046       -14.6138
 181   2.0000      -0.535768       -14.5790
 182   2.0000      -0.534359       -14.5406
 183   2.0000      -0.529890       -14.4190
 184   2.0000      -0.527835       -14.3631
 185   2.0000      -0.527280       -14.3480
 186   2.0000      -0.524279       -14.2664
 187   2.0000      -0.521664       -14.1952
 188   2.0000      -0.519989       -14.1496
 189   2.0000      -0.517368       -14.0783
 190   2.0000      -0.516444       -14.0532
 191   2.0000      -0.511841       -13.9279
 192   2.0000      -0.510853       -13.9010
 193   2.0000      -0.508419       -13.8348
 194   2.0000      -0.505207       -13.7474
 195   2.0000      -0.503806       -13.7093
 196   2.0000      -0.503507       -13.7011
 197   2.0000      -0.501347       -13.6424
 198   2.0000      -0.497579       -13.5398
 199   2.0000      -0.495860       -13.4930
 200   2.0000      -0.494620       -13.4593
 201   2.0000      -0.492196       -13.3933
 202   2.0000      -0.491185       -13.3658
 203   2.0000      -0.489884       -13.3304
 204   2.0000      -0.487207       -13.2576
 205   2.0000      -0.484381       -13.1807
 206   2.0000      -0.482828       -13.1384
 207   2.0000      -0.481649       -13.1063
 208   2.0000      -0.480412       -13.0727
 209   2.0000      -0.476417       -12.9640
 210   2.0000      -0.474876       -12.9220
 211   2.0000      -0.474418       -12.9096
 212   2.0000      -0.472016       -12.8442
 213   2.0000      -0.471766       -12.8374
 214   2.0000      -0.471604       -12.8330
 215   2.0000      -0.466254       -12.6874
 216   2.0000      -0.465011       -12.6536
 217   2.0000      -0.462214       -12.5775
 218   2.0000      -0.461292       -12.5524
 219   2.0000      -0.458202       -12.4683
 220   2.0000      -0.456912       -12.4332
 221   2.0000      -0.455649       -12.3988
 222   2.0000      -0.451487       -12.2856
 223   2.0000      -0.449130       -12.2214
 224   2.0000      -0.446163       -12.1407
 225   2.0000      -0.442780       -12.0487
 226   2.0000      -0.442378       -12.0377
 227   2.0000      -0.437950       -11.9172
 228   2.0000      -0.436718       -11.8837
 229   2.0000      -0.434193       -11.8150
 230   2.0000      -0.433531       -11.7970
 231   2.0000      -0.431968       -11.7545
 232   2.0000      -0.428938       -11.6720
 233   2.0000      -0.428012       -11.6468
 234   2.0000      -0.421276       -11.4635
 235   2.0000      -0.418078       -11.3765
 236   2.0000      -0.414979       -11.2921
 237   2.0000      -0.412612       -11.2277
 238   2.0000      -0.411610       -11.2005
 239   2.0000      -0.409262       -11.1366
 240   2.0000      -0.405608       -11.0372
 241   2.0000      -0.389509       -10.5991
 242   2.0000      -0.380355       -10.3500
 243   2.0000      -0.374884       -10.2011
 244   2.0000      -0.367908       -10.0113
 245   2.0000      -0.357685        -9.7331
 246   2.0000      -0.353828        -9.6282
 247   2.0000      -0.352680        -9.5969
 248   2.0000      -0.344907        -9.3854
 249   2.0000      -0.339349        -9.2342
 250   2.0000      -0.331422        -9.0185
 251   2.0000      -0.326234        -8.8773
 252   2.0000      -0.323334        -8.7984
 253   2.0000      -0.322548        -8.7770
 254   2.0000      -0.322066        -8.7639
 255   2.0000      -0.321201        -8.7403
 256   2.0000      -0.313128        -8.5207
 257   2.0000      -0.308372        -8.3912
 258   2.0000      -0.298044        -8.1102
 259   2.0000      -0.294499        -8.0137
 260   2.0000      -0.290070        -7.8932
 261   2.0000      -0.283955        -7.7268
 262   2.0000      -0.280428        -7.6308
 263   2.0000      -0.268147        -7.2966
 264   2.0000      -0.258169        -7.0251
 265   2.0000      -0.256116        -6.9693
 266   2.0000      -0.217705        -5.9240
 267   0.0000      -0.112820        -3.0700
 268   0.0000      -0.107724        -2.9313
 269   0.0000      -0.058070        -1.5802
 270   0.0000      -0.040525        -1.1027
 271   0.0000      -0.029827        -0.8116

MULLIKEN ATOMIC CHARGES
-----------------------
   0 C :    0.038742
   1 C :   -0.244698
   2 C :    0.545242
   3 F :   -0.155475
   4 F :   -0.162631
   5 F :   -0.162028
   6 S :    0.131202
   7 C :    0.028424
   8 O :   -0.253023
   9 C :    0.161051
  10 C :    0.054719
  11 C :    0.062711
  12 C :   -0.052777
  13 C :    0.043891
  14 N :   -0.045618
  15 C :    0.069585
  16 C :   -0.166809
  17 C :    0.218154
  18 O :   -0.152376
  19 C :   -0.009888
  20 C :   -0.046987
  21 N :   -0.057969
  22 C :    0.081228
  23 C :   -0.102198
  24 C :    0.052100
  25 C :   -0.014403
  26 C :    0.003043
  27 C :    0.123435
  28 C :   -0.113934
  29 C :    0.076343
  30 C :    0.012986
  31 C :   -0.073046
  32 C :    0.153870
  33 N :   -0.220804
  34 C :    0.138933
  35 N :   -0.220309
  36 C :    0.007428
  37 C :    0.031455
  38 C :   -0.016881
  39 C :    0.074645
  40 C :   -0.025192
  41 C :    0.077598
  42 C :    0.078732
  43 C :   -0.026017
  44 C :   -0.003285
  45 C :   -0.012432
  46 C :   -0.066071
  47 C :    0.077615
  48 N :   -0.079821
  49 C :    0.052189
  50 C :   -0.162355
  51 C :    0.205411
  52 O :   -0.169906
  53 C :   -0.025048
  54 C :   -0.085362
  55 N :   -0.077094
  56 C :    0.060892
  57 C :   -0.104092
  58 C :    0.028717
  59 C :   -0.026220
  60 C :   -0.039897
  61 C :    0.139755
  62 C :   -0.323489
  63 C :    0.536238
  64 F :   -0.160281
  65 F :   -0.163963
  66 F :   -0.180870
  67 S :    0.098316
  68 C :   -0.025496
  69 O :   -0.272220
  70 C :    0.170872
  71 C :    0.082615
  72 C :   -0.035337
  73 C :   -0.018385
  74 H :    0.005030
  75 H :    0.044517
  76 H :    0.064900
  77 H :    0.044104
  78 H :    0.026248
  79 H :   -0.027899
  80 H :    0.002030
  81 H :   -0.011970
  82 H :   -0.040854
  83 H :    0.004090
  84 H :   -0.006715
  85 H :   -0.010796
  86 H :   -0.022772
  87 H :    0.002695
  88 H :    0.086426
  89 H :    0.087365
  90 H :    0.018166
  91 H :   -0.004761
  92 H :    0.107377
  93 H :    0.106773
  94 H :    0.003068
  95 H :    0.031175
  96 H :    0.028315
  97 H :   -0.004197
  98 H :   -0.030584
  99 H :   -0.022412
 100 H :    0.067768
 101 H :   -0.020407
 102 H :   -0.022897
 103 H :   -0.032335
 104 H :   -0.020857
 105 H :    0.034699
 106 H :    0.034828
 107 H :    0.050737
 108 H :    0.035995
 109 H :    0.002998
 110 H :    0.012938
 111 H :    0.013768
Sum of atomic charges:   -0.0000000

LOEWDIN ATOMIC CHARGES
----------------------
   0 C :   -0.002675
   1 C :   -0.254415
   2 C :    0.148748
   3 F :   -0.054430
   4 F :   -0.066030
   5 F :   -0.065253
   6 S :    0.445990
   7 C :   -0.063599
   8 O :   -0.063615
   9 C :    0.076136
  10 C :   -0.121757
  11 C :    0.077345
  12 C :   -0.073139
  13 C :    0.075133
  14 N :   -0.115841
  15 C :    0.049857
  16 C :   -0.049210
  17 C :    0.068749
  18 O :   -0.151232
  19 C :   -0.044198
  20 C :    0.008088
  21 N :   -0.099367
  22 C :    0.061061
  23 C :   -0.042495
  24 C :   -0.023228
  25 C :   -0.040599
  26 C :    0.022046
  27 C :   -0.023459
  28 C :    0.006771
  29 C :   -0.023125
  30 C :    0.052216
  31 C :   -0.043499
  32 C :    0.036100
  33 N :   -0.122875
  34 C :    0.032731
  35 N :   -0.101743
  36 C :   -0.048845
  37 C :    0.078567
  38 C :   -0.001823
  39 C :   -0.007934
  40 C :    0.042534
  41 C :   -0.022731
  42 C :    0.002842
  43 C :   -0.010712
  44 C :    0.003482
  45 C :    0.067918
  46 C :   -0.074012
  47 C :    0.043946
  48 N :   -0.151014
  49 C :    0.040411
  50 C :   -0.043343
  51 C :    0.067534
  52 O :   -0.172593
  53 C :   -0.066525
  54 C :   -0.026073
  55 N :   -0.116358
  56 C :    0.024234
  57 C :   -0.064090
  58 C :   -0.025445
  59 C :   -0.020685
  60 C :   -0.001253
  61 C :   -0.013532
  62 C :   -0.278672
  63 C :    0.154308
  64 F :   -0.060741
  65 F :   -0.065029
  66 F :   -0.084975
  67 S :    0.430357
  68 C :   -0.081800
  69 O :   -0.076200
  70 C :    0.068665
  71 C :   -0.096454
  72 C :   -0.024823
  73 C :   -0.050307
  74 H :    0.038459
  75 H :    0.021883
  76 H :    0.040767
  77 H :    0.021610
  78 H :    0.045994
  79 H :    0.023190
  80 H :    0.020430
  81 H :    0.031572
  82 H :    0.020586
  83 H :    0.033998
  84 H :    0.036671
  85 H :    0.029956
  86 H :   -0.003407
  87 H :    0.018895
  88 H :    0.038252
  89 H :    0.052939
  90 H :    0.011814
  91 H :    0.017132
  92 H :    0.060114
  93 H :    0.063603
  94 H :    0.036755
  95 H :    0.043421
  96 H :    0.043586
  97 H :    0.038488
  98 H :    0.030623
  99 H :    0.027985
 100 H :    0.047766
 101 H :    0.024759
 102 H :    0.010168
 103 H :    0.023383
 104 H :    0.017677
 105 H :    0.036579
 106 H :    0.016430
 107 H :    0.034022
 108 H :    0.016942
 109 H :    0.036175
 110 H :    0.014431
 111 H :    0.022337

  Mayer bond orders larger than 0.100000
B(  0-C ,  1-C ) :   1.6386 B(  0-C , 10-C ) :   1.1938 B(  0-C , 74-H ) :   1.0015
B(  1-C ,  2-C ) :   0.9638 B(  1-C ,  6-S ) :   1.0662 B(  2-C ,  3-F ) :   1.1691
B(  2-C ,  4-F ) :   1.1764 B(  2-C ,  5-F ) :   1.1766 B(  6-S ,  7-C ) :   1.1473
B(  7-C ,  8-O ) :   1.2328 B(  7-C , 10-C ) :   1.4025 B(  8-O ,  9-C ) :   0.9245
B(  9-C , 75-H ) :   0.9672 B(  9-C , 76-H ) :   0.9810 B(  9-C , 77-H ) :   0.9668
B( 10-C , 11-C ) :   1.0911 B( 11-C , 12-C ) :   1.6153 B( 11-C , 78-H ) :   0.9896
B( 12-C , 13-C ) :   1.1656 B( 12-C , 79-H ) :   0.9563 B( 13-C , 14-N ) :   1.5724
B( 13-C , 15-C ) :   0.1121 B( 13-C , 24-C ) :   0.9898 B( 14-N , 15-C ) :   1.3774
B( 15-C , 16-C ) :   1.0519 B( 15-C , 20-C ) :   1.3975 B( 16-C , 17-C ) :   0.8948
B( 16-C , 24-C ) :   1.5645 B( 17-C , 18-O ) :   2.1676 B( 17-C , 19-C ) :   0.9414
B( 18-O , 83-H ) :   0.1123 B( 19-C , 20-C ) :   1.0792 B( 19-C , 23-C ) :   1.5785
B( 20-C , 21-N ) :   1.3235 B( 21-N , 22-C ) :   1.6456 B( 22-C , 23-C ) :   1.0885
B( 22-C , 80-H ) :   0.9894 B( 23-C , 81-H ) :   1.0123 B( 24-C , 25-C ) :   1.1192
B( 25-C , 26-C ) :   1.6777 B( 25-C , 82-H ) :   0.9582 B( 26-C , 27-C ) :   1.0487
B( 26-C , 83-H ) :   0.9663 B( 27-C , 28-C ) :   1.3580 B( 27-C , 44-C ) :   1.2865
B( 28-C , 29-C ) :   1.2515 B( 28-C , 84-H ) :   1.0115 B( 29-C , 30-C ) :   1.1840
B( 29-C , 42-C ) :   1.2705 B( 30-C , 31-C ) :   1.0265 B( 30-C , 36-C ) :   1.3464
B( 31-C , 32-C ) :   1.0128 B( 31-C , 34-C ) :   1.0389 B( 31-C , 85-H ) :   0.8829
B( 32-C , 33-N ) :   1.1196 B( 32-C , 86-H ) :   0.9226 B( 32-C , 87-H ) :   0.9472
B( 33-N , 88-H ) :   0.9412 B( 33-N , 89-H ) :   0.9658 B( 34-C , 35-N ) :   1.0890
B( 34-C , 90-H ) :   0.9504 B( 34-C , 91-H ) :   0.9310 B( 35-N , 92-H ) :   0.9619
B( 35-N , 93-H ) :   0.9656 B( 36-C , 37-C ) :   1.3392 B( 36-C , 41-C ) :   1.0322
B( 37-C , 38-C ) :   1.2318 B( 37-C , 94-H ) :   0.9884 B( 38-C , 39-C ) :   0.8618
B( 38-C , 45-C ) :   0.6762 B( 38-C , 95-H ) :   0.9488 B( 39-C , 40-C ) :   1.0443
B( 39-C , 45-C ) :   0.8168 B( 39-C , 96-H ) :   0.9412 B( 40-C , 41-C ) :   1.6662
B( 40-C , 97-H ) :   0.9900 B( 41-C , 42-C ) :   1.0484 B( 42-C , 43-C ) :   1.3338
B( 43-C , 44-C ) :   1.4198 B( 43-C , 98-H ) :   0.9949 B( 44-C , 99-H ) :   0.9844
B( 45-C , 46-C ) :   1.2246 B( 45-C ,100-H ) :   0.9465 B( 46-C , 47-C ) :   1.4445
B( 46-C ,101-H ) :   0.9432 B( 47-C , 48-N ) :   1.3666 B( 47-C , 49-C ) :   0.1048
B( 47-C , 58-C ) :   0.9891 B( 48-N , 49-C ) :   1.5310 B( 49-C , 50-C ) :   1.0514
B( 49-C , 54-C ) :   1.2640 B( 50-C , 51-C ) :   0.8894 B( 50-C , 58-C ) :   1.5859
B( 51-C , 52-O ) :   2.1421 B( 51-C , 53-C ) :   0.9608 B( 53-C , 54-C ) :   1.1285
B( 53-C , 57-C ) :   1.4853 B( 54-C , 55-N ) :   1.3979 B( 55-N , 56-C ) :   1.5676
B( 56-C , 57-C ) :   1.1711 B( 56-C ,102-H ) :   0.9895 B( 57-C ,103-H ) :   1.0107
B( 58-C , 59-C ) :   1.1084 B( 59-C , 60-C ) :   1.7336 B( 59-C ,104-H ) :   0.9483
B( 60-C , 61-C ) :   1.0671 B( 60-C ,105-H ) :   0.9372 B( 61-C , 62-C ) :   1.5428
B( 61-C , 71-C ) :   1.2185 B( 62-C , 63-C ) :   0.9835 B( 62-C , 67-S ) :   1.0706
B( 63-C , 64-F ) :   1.1676 B( 63-C , 65-F ) :   1.1607 B( 63-C , 66-F ) :   1.1069
B( 67-S , 68-C ) :   1.1202 B( 68-C , 69-O ) :   1.1667 B( 68-C , 71-C ) :   1.4588
B( 69-O , 70-C ) :   0.9424 B( 70-C ,106-H ) :   0.9654 B( 70-C ,107-H ) :   0.9810
B( 70-C ,108-H ) :   0.9653 B( 71-C , 72-C ) :   1.0949 B( 72-C , 73-C ) :   1.9612
B( 72-C ,109-H ) :   0.9486 B( 73-C ,110-H ) :   0.9460 B( 73-C ,111-H ) :   0.9407

-----------------------------------------------------------------------------
         ABSORPTION SPECTRUM VIA TRANSITION ELECTRIC DIPOLE MOMENTS
-----------------------------------------------------------------------------
State   Energy  Wavelength   fosc         T2         TX        TY        TZ
        (cm-1)    (nm)                  (au**2)     (au)      (au)      (au)
-----------------------------------------------------------------------------
   0    9977.4   1002.3   0.744844951  24.57675  -4.47019   1.39626  -1.62621
   1   14806.6    675.4   0.002209438   0.04913   0.10953  -0.06172   0.18253
   2   15792.0    633.2   0.004534543   0.09453  -0.00437  -0.28070  -0.12538
   3   18140.3    551.3   0.100097103   1.81658   0.74667   0.56385   0.97012
   4   18954.4    527.6   0.013341739   0.23173  -0.06187  -0.34575   0.32917
   5   20317.4    492.2   0.020665098   0.33485  -0.14440   0.36037  -0.42910
   6   20619.3    485.0   0.000755354   0.01206  -0.02626  -0.04461  -0.09685
   7   20884.2    478.8   0.000716391   0.01129   0.09052  -0.00045   0.05566
   8   21033.4    475.4   0.966251709  15.12366   2.59897   1.89892  -2.18246
   9   21415.7    466.9   0.010789486   0.16586   0.22719   0.03591   0.33609
  10   22399.5    446.4   0.008957259   0.13165  -0.21374   0.01053   0.29300
  11   22528.7    443.9   0.000632641   0.00924   0.00328  -0.08493   0.04496
  12   22572.8    443.0   0.065543330   0.95592  -0.31956  -0.92155  -0.06740
  13   23405.0    427.3   0.002285489   0.03215  -0.07437  -0.10091  -0.12819
  14   24750.5    404.0   0.306655070   4.07888  -0.84342  -1.11414  -1.45816
  15   25580.8    390.9   0.019891083   0.25599   0.16492   0.13592  -0.45860
  16   25619.6    390.3   0.011227551   0.14427   0.24039   0.18028  -0.23235
  17   26137.4    382.6   0.000013132   0.00017  -0.00311   0.01245  -0.00079
  18   26427.8    378.4   0.047451583   0.59111  -0.44156  -0.17308  -0.60513
  19   26497.2    377.4   0.014790611   0.18376   0.14726   0.00047   0.40259
  20   27181.4    367.9   0.050607313   0.61294   0.32531   0.06847   0.70882
  21   27486.4    363.8   0.000001044   0.00001  -0.00138  -0.00136  -0.00296
  22   28021.6    356.9   0.209515510   2.46150   0.93825   0.49298   1.15678
  23   28155.0    355.2   0.544174904   6.36296   1.77210   0.42565   1.74398
  24   28545.8    350.3   0.345170367   3.98077  -0.56696  -1.16500  -1.51727
  25   28635.6    349.2   0.016145273   0.18562  -0.30925   0.23328   0.18857
  26   29400.2    340.1   0.465731036   5.21508   0.82379   1.73445   1.23618
  27   29996.4    333.4   0.083127221   0.91233  -0.07972   0.79562   0.52246
  28   30084.7    332.4   0.005162744   0.05649   0.11617   0.02135   0.20626
  29   30425.1    328.7   0.016140843   0.17465  -0.04419   0.27957   0.30747
  30   30533.0    327.5   0.017080134   0.18416  -0.13899  -0.14102  -0.38073
  31   30637.7    326.4   0.010874702   0.11685  -0.07525  -0.10461  -0.31662
  32   30835.9    324.3   0.066517032   0.71015  -0.12272   0.81718   0.16527
  33   31471.2    317.8   0.048966944   0.51223   0.54759   0.35972   0.28806
  34   31672.0    315.7   0.047719964   0.49602  -0.30726  -0.24997   0.58235
  35   31715.0    315.3   0.019903753   0.20661   0.20051   0.13995  -0.38316
  36   31931.8    313.2   0.234356934   2.41618   1.24283   0.89442  -0.26749
  37   32395.5    308.7   0.001930269   0.01962  -0.01371  -0.04454   0.13208
  38   32629.9    306.5   0.010229817   0.10321   0.24609   0.19826   0.05783
  39   32711.5    305.7   0.001241298   0.01249  -0.08003  -0.07750   0.00901
  40   33751.7    296.3   0.307348927   2.99786  -1.55077  -0.72741  -0.25267
  41   34460.4    290.2   0.030979355   0.29596  -0.14930   0.28465  -0.43891
  42   34501.4    289.8   0.002090192   0.01994   0.10907   0.06519   0.06164
  43   34584.4    289.1   0.273498456   2.60346  -0.53098  -1.26752   0.84552
  44   34987.1    285.8   0.177209340   1.66745  -0.02241   0.21245   1.27351
  45   35156.2    284.4   0.005287217   0.04951   0.09046  -0.12656  -0.15909
  46   35279.9    283.4   0.703405772   6.56378  -0.00964  -1.96352  -1.64569
  47   35897.3    278.6   0.001262007   0.01157   0.05638   0.02653  -0.08770
  48   36158.1    276.6   0.000416356   0.00379  -0.01578   0.04710  -0.03638
  49   36207.4    276.2   0.033895556   0.30819   0.14676  -0.44732   0.29420
  50   36317.6    275.3   0.000340003   0.00308   0.03507   0.03337  -0.02717
  51   36423.7    274.5   0.015783868   0.14266   0.04241   0.07500   0.36775
  52   36594.3    273.3   0.001657746   0.01491  -0.00934   0.02040   0.12004
  53   36917.4    270.9   0.005457397   0.04867   0.04509  -0.11261  -0.18426
  54   37078.4    269.7   0.003318128   0.02946  -0.02258  -0.07371  -0.15336
  55   37130.9    269.3   0.010056815   0.08917  -0.07454  -0.09733   0.27228
  56   37622.8    265.8   0.000115986   0.00101   0.00776   0.00973  -0.02933
  57   37894.9    263.9   0.017723201   0.15397  -0.02605   0.24321  -0.30682
  58   38400.4    260.4   0.010298253   0.08829  -0.06223  -0.16933   0.23610
  59   38633.3    258.8   0.023834365   0.20310  -0.33323   0.29775  -0.05835
  60   38705.8    258.4   0.019664852   0.16726   0.30652  -0.27071   0.00443
  61   38904.7    257.0   0.001656342   0.01402  -0.03877  -0.11186   0.00011
  62   38943.6    256.8   0.014574572   0.12321   0.27888  -0.21116  -0.02905
  63   39144.4    255.5   0.055244084   0.46461  -0.31077   0.44457  -0.41279
  64   39508.8    253.1   0.016730727   0.13941   0.23380  -0.27014  -0.10852
  65   39527.0    253.0   0.008678211   0.07228  -0.09744   0.15095   0.20000
  66   39675.6    252.0   0.002338212   0.01940   0.07892  -0.01561  -0.11371
  67   40233.3    248.6   0.007180156   0.05875  -0.21794  -0.00283  -0.10605
  68   40260.7    248.4   0.019115349   0.15631   0.25488  -0.29461   0.06744
  69   40326.9    248.0   0.018965512   0.15483  -0.37260   0.08996  -0.08889

FINAL SINGLE POINT ENERGY     -4177.058131267700

DIPOLE MOMENT
-------------
                                X             Y             Z
Electronic contribution:    -26.53877     -40.65806      60.18273
Nuclear contribution   :     29.80349      38.34340     -58.35954
                        -----------------------------------------
Total Dipole Moment    :      3.26473      -2.31466       1.82319
                        -----------------------------------------
Magnitude (a.u.)       :      4.39774
Magnitude (Debye)      :     11.17817

Rotational constants in cm-1:     0.001072     0.000245     0.000220
Rotational constants in MHz :    32.125767     7.330190     6.593825

                             ****ORCA TERMINATED NORMALLY****
TOTAL RUN TIME: 0 days 0 hours 11 minutes 31 seconds 865 msec
