                         Program Version 4.2.0 -  RELEASE  -
|  1> # ORCA input file
|  2> # SCF done       -164.118695645965          0.001849774031
|  3> ! CAM-B3LYP def2-SVP def2/J RIJCOSX Grid4 TightSCF
|  4> %maxcore 5000
|  5> %tddft
|  6>     Mode sTDDFT
|  7>     Ethresh 5.0
|  8>     maxcore 5000
|  9> end
| 10>
| 11> %pal
| 12>   nprocs 6
| 13>   end
| 14> * xyz 0 1
| 15>    C       15.98548       -11.24866         1.76275
| 16>    C       15.80122       -10.63782         0.58949
| 17>    C       15.11743        -9.39986         0.40310
| 18>    S       14.43190        -8.53105         1.73731
| 19>    C       13.79114        -7.27110         0.72542
| 20>    C       13.00468        -6.27504         1.34885
| 21>    C       12.15424        -5.43928         0.69447
| 22>    C       11.35782        -4.40666         1.24512
| 23>    C       10.45938        -3.62826         0.47303
| 24>    C       10.07262        -3.73819        -0.87061
| 25>    S       10.20453        -5.24725        -1.75354
| 26>    C        9.46111        -4.57436        -3.19031
| 27>    C        9.40373        -5.41638        -4.31426
| 28>    C        9.05943        -5.04579        -5.58500
| 29>    C        9.03668        -5.84996        -6.74048
| 30>    C        8.90319        -5.30782        -8.03800
| 31>    C        8.99168        -3.95016        -8.43468
| 32>    C        9.71916        -3.03702        -7.73439
| 33>    C        9.69764        -1.63219        -7.84483
| 34>    S        8.75185        -0.75780        -9.01220
| 35>    C        9.14630         0.75343        -8.31684
| 36>    C        9.96369         0.62468        -7.21670
| 37>    C       10.44054         1.63661        -6.34888
| 38>    C       11.19459         1.32003        -5.26073
| 39>    C       11.67401         2.35967        -4.29776
| 40>    C       11.54340        -0.04848        -5.01395
| 41>    O       12.29689        -0.25194        -3.88570
| 42>    C       12.72348        -1.55828        -3.59069
| 43>    C       11.11972        -1.04998        -5.84426
| 44>    C       10.30171        -0.73903        -6.95060
| 45>    S        8.60796        -6.54562        -9.22459
| 46>    O       10.16591        -6.82269        -9.93972
| 47>    C        8.65892        -7.78037        -8.02209
| 48>    C        8.92808        -7.28421        -6.77842
| 49>    O        9.00779        -8.03109        -5.66345
| 50>    C        9.10948        -3.23777        -2.95651
| 51>    C        9.45949        -2.77644        -1.68847
| 52>    C        9.26540        -1.35071        -1.26693
| 53>    C        9.04161        -0.44522        -2.48511
| 54>    C        8.70271         0.88758        -2.04732
| 55>    N        8.43523         1.93357        -1.67325
| 56>    C        7.92510        -1.04696        -3.35742
| 57>    C        7.57805        -0.14593        -4.43260
| 58>    N        7.33077         0.54793        -5.30601
| 59>    C        8.41368        -2.37055        -3.96392
| 60>    S        9.69807        -2.38176         1.46749
| 61>    O        8.12953        -3.04854         1.63150
| 62>    C       10.57791        -2.86953         2.84658
| 63>    C       11.40816        -3.93752         2.58896
| 64>    O       12.22614        -4.47751         3.51293
| 65>    C       14.15145        -7.49720        -0.61422
| 66>    C       13.93235        -6.67881        -1.74176
| 67>    C       14.32710        -7.06739        -2.98944
| 68>    C       14.07315        -6.21727        -4.19434
| 69>    C       15.00348        -8.31249        -3.16267
| 70>    O       15.34044        -8.59787        -4.45537
| 71>    C       16.01467        -9.79978        -4.72079
| 72>    C       15.29208        -9.10538        -2.08501
| 73>    C       14.88223        -8.71312        -0.79161
| 74>    H       16.51237       -12.18306         1.83638
| 75>    H       15.61305       -10.82456         2.67960
| 76>    H       16.18757       -11.09381        -0.31265
| 77>    H       13.06572        -6.23815         2.42638
| 78>    H       12.04073        -5.57648        -0.36587
| 79>    H        9.73497        -6.43090        -4.14323
| 80>    H        8.78991        -4.02000        -5.76963
| 81>    H        8.45782        -3.64579        -9.32648
| 82>    H       10.37024        -3.41539        -6.95935
| 83>    H        8.73980         1.65074        -8.73680
| 84>    H       10.17525         2.66323        -6.54909
| 85>    H       11.47681         3.35642        -4.68150
| 86>    H       12.74110         2.24346        -4.11753
| 87>    H       11.16439         2.25015        -3.34008
| 88>    H       13.34094        -1.97206        -4.39460
| 89>    H       11.87846        -2.23178        -3.40329
| 90>    H       13.32178        -1.47608        -2.68423
| 91>    H       11.39914        -2.07699        -5.66791
| 92>    H       10.29478        -6.28665       -10.72656
| 93>    H        8.45499        -8.79939        -8.28622
| 94>    H        8.85379        -8.96125        -5.87116
| 95>    H       10.14697        -1.00188        -0.72065
| 96>    H        8.40454        -1.26846        -0.59335
| 97>    H        9.95974        -0.37760        -3.07826
| 98>    H        7.03571        -1.21267        -2.73688
| 99>    H        9.09867        -2.13390        -4.78544
|100>    H        7.55971        -2.90793        -4.38507
|101>    H        8.13807        -3.99996         1.77851
|102>    H       10.54387        -2.28357         3.74331
|103>    H       12.15918        -3.98610         4.34104
|104>    H       13.46885        -5.71350        -1.62746
|105>    H       13.56142        -5.29925        -3.91583
|106>    H       13.46099        -6.76196        -4.91243
|107>    H       15.01215        -5.97127        -4.68870
|108>    H       16.15772        -9.82659        -5.80078
|109>    H       15.42434       -10.67011        -4.41216
|110>    H       16.99186        -9.83230        -4.22616
|111>    H       15.83370       -10.03009        -2.19887
|112> *
|113>
|114>                          ****END OF INPUT****

CARTESIAN COORDINATES (ANGSTROEM)
---------------------------------
  C     15.985480  -11.248660    1.762750
  C     15.801220  -10.637820    0.589490
  C     15.117430   -9.399860    0.403100
  S     14.431900   -8.531050    1.737310
  C     13.791140   -7.271100    0.725420
  C     13.004680   -6.275040    1.348850
  C     12.154240   -5.439280    0.694470
  C     11.357820   -4.406660    1.245120
  C     10.459380   -3.628260    0.473030
  C     10.072620   -3.738190   -0.870610
  S     10.204530   -5.247250   -1.753540
  C      9.461110   -4.574360   -3.190310
  C      9.403730   -5.416380   -4.314260
  C      9.059430   -5.045790   -5.585000
  C      9.036680   -5.849960   -6.740480
  C      8.903190   -5.307820   -8.038000
  C      8.991680   -3.950160   -8.434680
  C      9.719160   -3.037020   -7.734390
  C      9.697640   -1.632190   -7.844830
  S      8.751850   -0.757800   -9.012200
  C      9.146300    0.753430   -8.316840
  C      9.963690    0.624680   -7.216700
  C     10.440540    1.636610   -6.348880
  C     11.194590    1.320030   -5.260730
  C     11.674010    2.359670   -4.297760
  C     11.543400   -0.048480   -5.013950
  O     12.296890   -0.251940   -3.885700
  C     12.723480   -1.558280   -3.590690
  C     11.119720   -1.049980   -5.844260
  C     10.301710   -0.739030   -6.950600
  S      8.607960   -6.545620   -9.224590
  O     10.165910   -6.822690   -9.939720
  C      8.658920   -7.780370   -8.022090
  C      8.928080   -7.284210   -6.778420
  O      9.007790   -8.031090   -5.663450
  C      9.109480   -3.237770   -2.956510
  C      9.459490   -2.776440   -1.688470
  C      9.265400   -1.350710   -1.266930
  C      9.041610   -0.445220   -2.485110
  C      8.702710    0.887580   -2.047320
  N      8.435230    1.933570   -1.673250
  C      7.925100   -1.046960   -3.357420
  C      7.578050   -0.145930   -4.432600
  N      7.330770    0.547930   -5.306010
  C      8.413680   -2.370550   -3.963920
  S      9.698070   -2.381760    1.467490
  O      8.129530   -3.048540    1.631500
  C     10.577910   -2.869530    2.846580
  C     11.408160   -3.937520    2.588960
  O     12.226140   -4.477510    3.512930
  C     14.151450   -7.497200   -0.614220
  C     13.932350   -6.678810   -1.741760
  C     14.327100   -7.067390   -2.989440
  C     14.073150   -6.217270   -4.194340
  C     15.003480   -8.312490   -3.162670
  O     15.340440   -8.597870   -4.455370
  C     16.014670   -9.799780   -4.720790
  C     15.292080   -9.105380   -2.085010
  C     14.882230   -8.713120   -0.791610
  H     16.512370  -12.183060    1.836380
  H     15.613050  -10.824560    2.679600
  H     16.187570  -11.093810   -0.312650
  H     13.065720   -6.238150    2.426380
  H     12.040730   -5.576480   -0.365870
  H      9.734970   -6.430900   -4.143230
  H      8.789910   -4.020000   -5.769630
  H      8.457820   -3.645790   -9.326480
  H     10.370240   -3.415390   -6.959350
  H      8.739800    1.650740   -8.736800
  H     10.175250    2.663230   -6.549090
  H     11.476810    3.356420   -4.681500
  H     12.741100    2.243460   -4.117530
  H     11.164390    2.250150   -3.340080
  H     13.340940   -1.972060   -4.394600
  H     11.878460   -2.231780   -3.403290
  H     13.321780   -1.476080   -2.684230
  H     11.399140   -2.076990   -5.667910
  H     10.294780   -6.286650  -10.726560
  H      8.454990   -8.799390   -8.286220
  H      8.853790   -8.961250   -5.871160
  H     10.146970   -1.001880   -0.720650
  H      8.404540   -1.268460   -0.593350
  H      9.959740   -0.377600   -3.078260
  H      7.035710   -1.212670   -2.736880
  H      9.098670   -2.133900   -4.785440
  H      7.559710   -2.907930   -4.385070
  H      8.138070   -3.999960    1.778510
  H     10.543870   -2.283570    3.743310
  H     12.159180   -3.986100    4.341040
  H     13.468850   -5.713500   -1.627460
  H     13.561420   -5.299250   -3.915830
  H     13.460990   -6.761960   -4.912430
  H     15.012150   -5.971270   -4.688700
  H     16.157720   -9.826590   -5.800780
  H     15.424340  -10.670110   -4.412160
  H     16.991860   -9.832300   -4.226160
  H     15.833700  -10.030090   -2.198870

 Total Charge           Charge          ....    0
 Multiplicity           Mult            ....    1
 Number of Electrons    NEL             ....  456
 Basis Dimension        Dim             .... 1036

ORBITAL ENERGIES
----------------

  NO   OCC          E(Eh)            E(eV)
   0   2.0000     -89.056957     -2423.3630
   1   2.0000     -89.055370     -2423.3198
   2   2.0000     -88.942453     -2420.2472
   3   2.0000     -88.942118     -2420.2381
   4   2.0000     -88.931925     -2419.9607
   5   2.0000     -19.282660      -524.7079
   6   2.0000     -19.269877      -524.3600
   7   2.0000     -19.243877      -523.6525
   8   2.0000     -19.238740      -523.5127
   9   2.0000     -19.235258      -523.4180
  10   2.0000     -19.234146      -523.3877
  11   2.0000     -14.399855      -391.8400
  12   2.0000     -14.396779      -391.7563
  13   2.0000     -10.371058      -282.2108
  14   2.0000     -10.354428      -281.7583
  15   2.0000     -10.325650      -280.9752
  16   2.0000     -10.323770      -280.9241
  17   2.0000     -10.321415      -280.8600
  18   2.0000     -10.317226      -280.7460
  19   2.0000     -10.314653      -280.6760
  20   2.0000     -10.314562      -280.6735
  21   2.0000     -10.309505      -280.5359
  22   2.0000     -10.302526      -280.3460
  23   2.0000     -10.298154      -280.2270
  24   2.0000     -10.298016      -280.2233
  25   2.0000     -10.294889      -280.1382
  26   2.0000     -10.294746      -280.1343
  27   2.0000     -10.293867      -280.1104
  28   2.0000     -10.290390      -280.0157
  29   2.0000     -10.288792      -279.9723
  30   2.0000     -10.287882      -279.9475
  31   2.0000     -10.287707      -279.9428
  32   2.0000     -10.279697      -279.7248
  33   2.0000     -10.279203      -279.7113
  34   2.0000     -10.276958      -279.6502
  35   2.0000     -10.275935      -279.6224
  36   2.0000     -10.274126      -279.5732
  37   2.0000     -10.272589      -279.5314
  38   2.0000     -10.272000      -279.5153
  39   2.0000     -10.270341      -279.4702
  40   2.0000     -10.267394      -279.3900
  41   2.0000     -10.262818      -279.2655
  42   2.0000     -10.262595      -279.2594
  43   2.0000     -10.261120      -279.2193
  44   2.0000     -10.259876      -279.1854
  45   2.0000     -10.258930      -279.1597
  46   2.0000     -10.258425      -279.1459
  47   2.0000     -10.257434      -279.1190
  48   2.0000     -10.257412      -279.1184
  49   2.0000     -10.256780      -279.1012
  50   2.0000     -10.256481      -279.0930
  51   2.0000     -10.256171      -279.0846
  52   2.0000     -10.252115      -278.9742
  53   2.0000     -10.251715      -278.9633
  54   2.0000     -10.249095      -278.8921
  55   2.0000     -10.248508      -278.8761
  56   2.0000     -10.246757      -278.8284
  57   2.0000     -10.244960      -278.7795
  58   2.0000     -10.240862      -278.6680
  59   2.0000      -8.140379      -221.5110
  60   2.0000      -8.139722      -221.4931
  61   2.0000      -8.037789      -218.7194
  62   2.0000      -8.037451      -218.7101
  63   2.0000      -8.027460      -218.4383
  64   2.0000      -6.111030      -166.2896
  65   2.0000      -6.110337      -166.2707
  66   2.0000      -6.107162      -166.1843
  67   2.0000      -6.106526      -166.1670
  68   2.0000      -6.101750      -166.0371
  69   2.0000      -6.101138      -166.0204
  70   2.0000      -6.007545      -163.4736
  71   2.0000      -6.006491      -163.4449
  72   2.0000      -6.003298      -163.3581
  73   2.0000      -6.002299      -163.3308
  74   2.0000      -6.000313      -163.2768
  75   2.0000      -5.998983      -163.2406
  76   2.0000      -5.996435      -163.1713
  77   2.0000      -5.992493      -163.0640
  78   2.0000      -5.990085      -162.9985
  79   2.0000      -1.177543       -32.0426
  80   2.0000      -1.164219       -31.6800
  81   2.0000      -1.143681       -31.1212
  82   2.0000      -1.137933       -30.9647
  83   2.0000      -1.118452       -30.4346
  84   2.0000      -1.110069       -30.2065
  85   2.0000      -1.004206       -27.3258
  86   2.0000      -0.990045       -26.9405
  87   2.0000      -0.985611       -26.8198
  88   2.0000      -0.981317       -26.7030
  89   2.0000      -0.972332       -26.4585
  90   2.0000      -0.971674       -26.4406
  91   2.0000      -0.967037       -26.3144
  92   2.0000      -0.941654       -25.6237
  93   2.0000      -0.916026       -24.9263
  94   2.0000      -0.911649       -24.8072
  95   2.0000      -0.905201       -24.6318
  96   2.0000      -0.887971       -24.1629
  97   2.0000      -0.885218       -24.0880
  98   2.0000      -0.875870       -23.8336
  99   2.0000      -0.863180       -23.4883
 100   2.0000      -0.851479       -23.1699
 101   2.0000      -0.850067       -23.1315
 102   2.0000      -0.848315       -23.0838
 103   2.0000      -0.841785       -22.9061
 104   2.0000      -0.834355       -22.7040
 105   2.0000      -0.826275       -22.4841
 106   2.0000      -0.818750       -22.2793
 107   2.0000      -0.816536       -22.2191
 108   2.0000      -0.812753       -22.1161
 109   2.0000      -0.787772       -21.4364
 110   2.0000      -0.781000       -21.2521
 111   2.0000      -0.775600       -21.1051
 112   2.0000      -0.765457       -20.8292
 113   2.0000      -0.760434       -20.6925
 114   2.0000      -0.748998       -20.3813
 115   2.0000      -0.744020       -20.2458
 116   2.0000      -0.742030       -20.1917
 117   2.0000      -0.736836       -20.0503
 118   2.0000      -0.720106       -19.5951
 119   2.0000      -0.715765       -19.4770
 120   2.0000      -0.707944       -19.2641
 121   2.0000      -0.697111       -18.9693
 122   2.0000      -0.686145       -18.6710
 123   2.0000      -0.674441       -18.3525
 124   2.0000      -0.670504       -18.2453
 125   2.0000      -0.664084       -18.0707
 126   2.0000      -0.659207       -17.9379
 127   2.0000      -0.645065       -17.5531
 128   2.0000      -0.641002       -17.4426
 129   2.0000      -0.637179       -17.3385
 130   2.0000      -0.630950       -17.1690
 131   2.0000      -0.623864       -16.9762
 132   2.0000      -0.616351       -16.7718
 133   2.0000      -0.614728       -16.7276
 134   2.0000      -0.609287       -16.5795
 135   2.0000      -0.607735       -16.5373
 136   2.0000      -0.604741       -16.4558
 137   2.0000      -0.598936       -16.2979
 138   2.0000      -0.586744       -15.9661
 139   2.0000      -0.583428       -15.8759
 140   2.0000      -0.581486       -15.8230
 141   2.0000      -0.578747       -15.7485
 142   2.0000      -0.572284       -15.5726
 143   2.0000      -0.571069       -15.5396
 144   2.0000      -0.563153       -15.3242
 145   2.0000      -0.555409       -15.1135
 146   2.0000      -0.550260       -14.9733
 147   2.0000      -0.546710       -14.8767
 148   2.0000      -0.545188       -14.8353
 149   2.0000      -0.541739       -14.7415
 150   2.0000      -0.541370       -14.7314
 151   2.0000      -0.538420       -14.6512
 152   2.0000      -0.528775       -14.3887
 153   2.0000      -0.526170       -14.3178
 154   2.0000      -0.525004       -14.2861
 155   2.0000      -0.521294       -14.1851
 156   2.0000      -0.520017       -14.1504
 157   2.0000      -0.515628       -14.0309
 158   2.0000      -0.513313       -13.9680
 159   2.0000      -0.510903       -13.9024
 160   2.0000      -0.510718       -13.8974
 161   2.0000      -0.505668       -13.7599
 162   2.0000      -0.501680       -13.6514
 163   2.0000      -0.499153       -13.5827
 164   2.0000      -0.494330       -13.4514
 165   2.0000      -0.491304       -13.3691
 166   2.0000      -0.490107       -13.3365
 167   2.0000      -0.488884       -13.3032
 168   2.0000      -0.486813       -13.2468
 169   2.0000      -0.484134       -13.1740
 170   2.0000      -0.482610       -13.1325
 171   2.0000      -0.480722       -13.0811
 172   2.0000      -0.477413       -12.9911
 173   2.0000      -0.474971       -12.9246
 174   2.0000      -0.471032       -12.8174
 175   2.0000      -0.467772       -12.7287
 176   2.0000      -0.465728       -12.6731
 177   2.0000      -0.463608       -12.6154
 178   2.0000      -0.459107       -12.4929
 179   2.0000      -0.455438       -12.3931
 180   2.0000      -0.453402       -12.3377
 181   2.0000      -0.451870       -12.2960
 182   2.0000      -0.449673       -12.2362
 183   2.0000      -0.448478       -12.2037
 184   2.0000      -0.447990       -12.1904
 185   2.0000      -0.441486       -12.0134
 186   2.0000      -0.436808       -11.8862
 187   2.0000      -0.431186       -11.7332
 188   2.0000      -0.430957       -11.7269
 189   2.0000      -0.427956       -11.6453
 190   2.0000      -0.425490       -11.5782
 191   2.0000      -0.423378       -11.5207
 192   2.0000      -0.422176       -11.4880
 193   2.0000      -0.418353       -11.3840
 194   2.0000      -0.417345       -11.3565
 195   2.0000      -0.414974       -11.2920
 196   2.0000      -0.413845       -11.2613
 197   2.0000      -0.409574       -11.1451
 198   2.0000      -0.408817       -11.1245
 199   2.0000      -0.407685       -11.0937
 200   2.0000      -0.402884       -10.9630
 201   2.0000      -0.396302       -10.7839
 202   2.0000      -0.395305       -10.7568
 203   2.0000      -0.393360       -10.7039
 204   2.0000      -0.392874       -10.6906
 205   2.0000      -0.391368       -10.6497
 206   2.0000      -0.388133       -10.5616
 207   2.0000      -0.386118       -10.5068
 208   2.0000      -0.385784       -10.4977
 209   2.0000      -0.383879       -10.4459
 210   2.0000      -0.380240       -10.3468
 211   2.0000      -0.377949       -10.2845
 212   2.0000      -0.376518       -10.2456
 213   2.0000      -0.364713        -9.9243
 214   2.0000      -0.358002        -9.7417
 215   2.0000      -0.353837        -9.6284
 216   2.0000      -0.331510        -9.0208
 217   2.0000      -0.322870        -8.7857
 218   2.0000      -0.316387        -8.6093
 219   2.0000      -0.314212        -8.5501
 220   2.0000      -0.308165        -8.3856
 221   2.0000      -0.286207        -7.7881
 222   2.0000      -0.277224        -7.5436
 223   2.0000      -0.271388        -7.3849
 224   2.0000      -0.258031        -7.0214
 225   2.0000      -0.228209        -6.2099
 226   2.0000      -0.202921        -5.5218
 227   2.0000      -0.170401        -4.6369
 228   0.0000      -0.094378        -2.5682
 229   0.0000      -0.025973        -0.7068
 230   0.0000      -0.021641        -0.5889
 231   0.0000      -0.013722        -0.3734
 232   0.0000       0.030399         0.8272

MULLIKEN ATOMIC CHARGES
-----------------------
   0 C :   -0.042875
   1 C :    0.004070
   2 C :   -0.142540
   3 S :    0.114595
   4 C :   -0.115204
   5 C :    0.021029
   6 C :   -0.077700
   7 C :    0.147241
   8 C :   -0.272891
   9 C :   -0.078699
  10 S :    0.085862
  11 C :   -0.117432
  12 C :    0.049088
  13 C :   -0.106740
  14 C :    0.144257
  15 C :   -0.219117
  16 C :    0.012634
  17 C :   -0.060226
  18 C :   -0.124155
  19 S :    0.121731
  20 C :   -0.119290
  21 C :    0.136960
  22 C :   -0.062390
  23 C :   -0.089556
  24 C :    0.132809
  25 C :    0.179393
  26 O :   -0.331764
  27 C :    0.171954
  28 C :   -0.160356
  29 C :    0.124875
  30 S :    0.464774
  31 O :   -0.402059
  32 C :   -0.211492
  33 C :    0.195159
  34 O :   -0.148185
  35 C :   -0.096250
  36 C :   -0.086621
  37 C :    0.170220
  38 C :   -0.074691
  39 C :   -0.267691
  40 N :    0.159638
  41 C :   -0.058914
  42 C :   -0.252871
  43 N :    0.152365
  44 C :    0.167102
  45 S :    0.464864
  46 O :   -0.393547
  47 C :   -0.241095
  48 C :    0.158694
  49 O :   -0.153378
  50 C :    0.121228
  51 C :   -0.094857
  52 C :   -0.103596
  53 C :    0.135547
  54 C :    0.213996
  55 O :   -0.314646
  56 C :    0.184777
  57 C :   -0.176592
  58 C :    0.132469
  59 H :    0.010468
  60 H :    0.010368
  61 H :   -0.021976
  62 H :   -0.022441
  63 H :   -0.019364
  64 H :   -0.010263
  65 H :   -0.007140
  66 H :   -0.023423
  67 H :    0.002261
  68 H :    0.008769
  69 H :   -0.040380
  70 H :    0.002113
  71 H :    0.019634
  72 H :    0.025290
  73 H :    0.030407
  74 H :    0.027253
  75 H :    0.037758
  76 H :   -0.041149
  77 H :    0.178939
  78 H :    0.009858
  79 H :    0.196170
  80 H :    0.035309
  81 H :    0.038101
  82 H :    0.051724
  83 H :    0.041066
  84 H :    0.054242
  85 H :    0.049825
  86 H :    0.193370
  87 H :    0.000488
  88 H :    0.191218
  89 H :   -0.045588
  90 H :   -0.010175
  91 H :    0.022076
  92 H :    0.019623
  93 H :    0.032103
  94 H :    0.017919
  95 H :    0.021032
  96 H :   -0.055404
Sum of atomic charges:   -0.0000000

LOEWDIN ATOMIC CHARGES
----------------------
   0 C :   -0.079243
   1 C :   -0.038529
   2 C :   -0.209104
   3 S :    0.450503
   4 C :   -0.157865
   5 C :   -0.076568
   6 C :   -0.033089
   7 C :   -0.147012
   8 C :   -0.228299
   9 C :   -0.179448
  10 S :    0.420683
  11 C :   -0.170003
  12 C :   -0.051849
  13 C :   -0.033706
  14 C :   -0.065127
  15 C :   -0.277863
  16 C :   -0.062497
  17 C :   -0.072820
  18 C :   -0.194287
  19 S :    0.452751
  20 C :   -0.187657
  21 C :   -0.054044
  22 C :   -0.003976
  23 C :   -0.045569
  24 C :   -0.041431
  25 C :    0.043255
  26 O :   -0.106266
  27 C :    0.071360
  28 C :   -0.093605
  29 C :   -0.047929
  30 S :    0.870259
  31 O :   -0.314547
  32 C :   -0.302213
  33 C :    0.087005
  34 O :   -0.011107
  35 C :   -0.054298
  36 C :   -0.071014
  37 C :   -0.024983
  38 C :   -0.033458
  39 C :   -0.031938
  40 N :   -0.054918
  41 C :   -0.028255
  42 C :   -0.031540
  43 N :   -0.047428
  44 C :   -0.010916
  45 S :    0.906962
  46 O :   -0.303438
  47 C :   -0.371079
  48 C :    0.074595
  49 O :   -0.014698
  50 C :   -0.065842
  51 C :   -0.018683
  52 C :   -0.045570
  53 C :   -0.042544
  54 C :    0.056141
  55 O :   -0.103085
  56 C :    0.073897
  57 C :   -0.088572
  58 C :   -0.032271
  59 H :    0.020090
  60 H :    0.012454
  61 H :    0.028447
  62 H :    0.019961
  63 H :    0.006577
  64 H :    0.026883
  65 H :    0.032760
  66 H :    0.015691
  67 H :    0.031547
  68 H :    0.021324
  69 H :    0.029103
  70 H :    0.028361
  71 H :    0.032155
  72 H :    0.035480
  73 H :    0.017592
  74 H :    0.012490
  75 H :    0.029366
  76 H :    0.023481
  77 H :    0.056145
  78 H :    0.020592
  79 H :    0.108725
  80 H :    0.031519
  81 H :    0.032726
  82 H :    0.059606
  83 H :    0.056141
  84 H :    0.044936
  85 H :    0.045298
  86 H :    0.065633
  87 H :    0.016197
  88 H :    0.104651
  89 H :    0.022010
  90 H :    0.022035
  91 H :    0.034063
  92 H :    0.032674
  93 H :    0.026603
  94 H :    0.013448
  95 H :    0.014584
  96 H :    0.021427

  Mayer bond orders larger than 0.100000
B(  0-C ,  1-C ) :   1.8984 B(  0-C , 59-H ) :   0.9480 B(  0-C , 60-H ) :   0.9557
B(  1-C ,  2-C ) :   1.1505 B(  1-C , 61-H ) :   0.9579 B(  2-C ,  3-S ) :   1.1021
B(  2-C , 58-C ) :   1.3646 B(  3-S ,  4-C ) :   1.1556 B(  4-C ,  5-C ) :   1.1543
B(  4-C , 50-C ) :   1.3303 B(  5-C ,  6-C ) :   1.6240 B(  5-C , 62-H ) :   0.9512
B(  6-C ,  7-C ) :   1.1850 B(  6-C , 63-H ) :   0.9415 B(  7-C ,  8-C ) :   1.1917
B(  7-C , 48-C ) :   1.2378 B(  8-C ,  9-C ) :   1.3580 B(  8-C , 45-S ) :   1.0552
B(  9-C , 10-S ) :   1.0847 B(  9-C , 36-C ) :   1.2985 B( 10-S , 11-C ) :   1.0475
B( 11-C , 12-C ) :   1.3609 B( 11-C , 35-C ) :   1.2777 B( 12-C , 13-C ) :   1.3697
B( 12-C , 64-H ) :   0.9463 B( 13-C , 14-C ) :   1.3632 B( 13-C , 65-H ) :   0.9531
B( 14-C , 15-C ) :   1.2402 B( 14-C , 33-C ) :   1.1074 B( 15-C , 16-C ) :   1.1582
B( 15-C , 30-S ) :   1.1110 B( 16-C , 17-C ) :   1.6303 B( 16-C , 66-H ) :   0.9592
B( 17-C , 18-C ) :   1.2049 B( 17-C , 67-H ) :   0.9630 B( 18-C , 19-S ) :   1.1356
B( 18-C , 29-C ) :   1.3461 B( 19-S , 20-C ) :   1.1804 B( 20-C , 21-C ) :   1.4331
B( 20-C , 68-H ) :   0.9666 B( 21-C , 22-C ) :   1.1193 B( 21-C , 29-C ) :   1.2168
B( 22-C , 23-C ) :   1.6015 B( 22-C , 69-H ) :   1.0007 B( 23-C , 24-C ) :   1.0665
B( 23-C , 25-C ) :   1.2018 B( 24-C , 70-H ) :   0.9503 B( 24-C , 71-H ) :   0.9459
B( 24-C , 72-H ) :   0.9474 B( 25-C , 26-O ) :   1.1154 B( 25-C , 28-C ) :   1.4907
B( 26-O , 27-C ) :   0.9624 B( 27-C , 73-H ) :   0.9682 B( 27-C , 74-H ) :   0.9659
B( 27-C , 75-H ) :   0.9746 B( 28-C , 29-C ) :   1.1380 B( 28-C , 76-H ) :   0.9825
B( 30-S , 31-O ) :   0.7645 B( 30-S , 32-C ) :   1.0623 B( 31-O , 77-H ) :   0.9616
B( 32-C , 33-C ) :   1.5237 B( 32-C , 78-H ) :   0.9720 B( 33-C , 34-O ) :   1.2686
B( 34-O , 79-H ) :   0.9510 B( 35-C , 36-C ) :   1.5052 B( 35-C , 44-C ) :   1.0570
B( 36-C , 37-C ) :   1.0513 B( 37-C , 38-C ) :   1.0906 B( 37-C , 80-H ) :   0.9111
B( 37-C , 81-H ) :   0.8745 B( 38-C , 39-C ) :   1.0943 B( 38-C , 41-C ) :   1.0674
B( 38-C , 82-H ) :   0.8351 B( 39-C , 40-N ) :   3.0999 B( 41-C , 42-C ) :   1.0896
B( 41-C , 44-C ) :   1.0745 B( 41-C , 83-H ) :   0.8450 B( 42-C , 43-N ) :   3.0852
B( 44-C , 84-H ) :   0.8663 B( 44-C , 85-H ) :   0.9064 B( 45-S , 46-O ) :   0.7895
B( 45-S , 47-C ) :   1.1618 B( 46-O , 86-H ) :   0.9528 B( 47-C , 48-C ) :   1.3517
B( 47-C , 87-H ) :   0.9759 B( 48-C , 49-O ) :   1.2514 B( 49-O , 88-H ) :   0.9528
B( 50-C , 51-C ) :   1.1580 B( 50-C , 58-C ) :   1.2143 B( 51-C , 52-C ) :   1.5825
B( 51-C , 89-H ) :   0.9850 B( 52-C , 53-C ) :   1.0687 B( 52-C , 54-C ) :   1.2132
B( 53-C , 90-H ) :   0.9506 B( 53-C , 91-H ) :   0.9465 B( 53-C , 92-H ) :   0.9468
B( 54-C , 55-O ) :   1.1700 B( 54-C , 57-C ) :   1.4709 B( 55-O , 56-C ) :   0.9739
B( 56-C , 93-H ) :   0.9780 B( 56-C , 94-H ) :   0.9673 B( 56-C , 95-H ) :   0.9678
B( 57-C , 58-C ) :   1.1529 B( 57-C , 96-H ) :   0.9935

-----------------------------------------------------------------------------
         ABSORPTION SPECTRUM VIA TRANSITION ELECTRIC DIPOLE MOMENTS
-----------------------------------------------------------------------------
State   Energy  Wavelength   fosc         T2         TX        TY        TZ
        (cm-1)    (nm)                  (au**2)     (au)      (au)      (au)
-----------------------------------------------------------------------------
   0     599.9   16670.6   0.004268433   2.34259  -0.41849   0.16257  -1.46323
   1    8659.1   1154.8   0.020784414   0.79020  -0.87817  -0.03981   0.13201
   2   14688.8    680.8   0.143086157   3.20691  -0.47210  -0.48366  -1.65835
   3   17635.3    567.0   0.549354040  10.25523   2.04971  -2.27714  -0.93196
   4   18190.1    549.7   0.092019596   1.66541  -0.29617   1.25590   0.01986
   5   18978.0    526.9   0.339481229   5.88900  -0.08069   2.38442   0.44390
   6   20445.3    489.1   0.129395118   2.08353  -0.45722  -1.16617  -0.71732
   7   22901.8    436.6   0.158333930   2.27604  -0.49382   0.77175  -1.19857
   8   24745.0    404.1   0.100511070   1.33722  -0.83610   0.73565   0.31140
   9   25078.7    398.7   0.027053500   0.35514  -0.49509   0.31726   0.09675
  10   25626.9    390.2   0.019234525   0.24709  -0.01802   0.28219  -0.40882
  11   26070.9    383.6   0.033553747   0.42370  -0.11145  -0.64007   0.03984
  12   26806.3    373.0   0.314299358   3.85996   0.10982   1.72530   0.93339
  13   28155.8    355.2   0.124832959   1.45961   0.29285  -0.94108  -0.69873
  14   29042.6    344.3   0.017009377   0.19281  -0.08385   0.28930  -0.31950
  15   29709.2    336.6   0.066380448   0.73557   0.44776   0.52632   0.50801
  16   30193.0    331.2   0.009438647   0.10292  -0.28812  -0.11415   0.08291
  17   30462.6    328.3   0.023052309   0.24913  -0.13472  -0.26790   0.39901
  18   30890.6    323.7   0.007375085   0.07860   0.08394  -0.25323  -0.08617
  19   31182.8    320.7   0.007953457   0.08397  -0.06206  -0.22874  -0.16672
  20   31763.1    314.8   0.004263010   0.04418  -0.20912  -0.01658  -0.01333
  21   32343.4    309.2   0.016496805   0.16792  -0.15986   0.37560   0.03588
  22   32753.6    305.3   0.165493731   1.66341   0.05841   1.14838   0.58414
  23   32903.3    303.9   0.070097287   0.70136  -0.54767   0.62480   0.10503
  24   33209.2    301.1   0.087420116   0.86662   0.55654  -0.74497   0.04366
  25   33746.6    296.3   0.053349679   0.52045   0.48329  -0.50702   0.17268
  26   34646.4    288.6   0.048059640   0.45666  -0.24989   0.21315  -0.59058
  27   34784.7    287.5   0.032251178   0.30523  -0.15275  -0.48903   0.20675
  28   35237.7    283.8   0.007441125   0.06952  -0.19885   0.11429  -0.13007
  29   35426.6    282.3   0.080274669   0.74598   0.19593   0.09510  -0.83579
  30   35884.6    278.7   0.042855181   0.39316   0.22967   0.53702  -0.22808
  31   36240.7    275.9   0.027942413   0.25383  -0.32168   0.26229   0.28559
  32   36706.7    272.4   0.209229618   1.87652   0.05931   0.23566  -1.34814
  33   36859.2    271.3   0.037569122   0.33555   0.26688  -0.24362  -0.45275
  34   36989.2    270.3   0.038751029   0.34489  -0.16186   0.08642   0.55788
  35   37229.0    268.6   0.048641594   0.43013   0.20998  -0.19633   0.58949
  36   37756.2    264.9   0.191302512   1.66805  -0.10926  -0.82353  -0.98889
  37   38076.5    262.6   0.026240838   0.22688  -0.42976   0.20429  -0.02123
  38   38338.9    260.8   0.177939573   1.52795   0.57218   0.11618   1.08952
  39   38823.9    257.6   0.024202863   0.20523   0.24085   0.38364  -0.00614
  40   39338.6    254.2   0.015574639   0.13034  -0.26474  -0.02717  -0.24395
  41   39874.6    250.8   0.010109229   0.08346  -0.10727   0.21173  -0.16470
  42   39965.6    250.2   0.014080668   0.11599   0.01531  -0.19643  -0.27779
  43   40033.0    249.8   0.030457914   0.25047   0.03221   0.31876  -0.38448

FINAL SINGLE POINT ENERGY     -4323.719369625172

DIPOLE MOMENT
-------------
                                X             Y             Z
Electronic contribution:    -26.92636       4.38017       1.15015
Nuclear contribution   :     26.60808      -6.97422      -1.90491
                        -----------------------------------------
Total Dipole Moment    :     -0.31828      -2.59404      -0.75476
                        -----------------------------------------
Magnitude (a.u.)       :      2.72030
Magnitude (Debye)      :      6.91446

Rotational constants in cm-1:     0.001485     0.000888     0.000657
Rotational constants in MHz :    44.531188    26.618938    19.700029

                             ****ORCA TERMINATED NORMALLY****
TOTAL RUN TIME: 0 days 0 hours 10 minutes 29 seconds 170 msec
