                         Program Version 4.2.0 -  RELEASE  -
|  1> # ORCA input file
|  2> # SCF done       -189.039691809073          0.000666869381
|  3> ! CAM-B3LYP def2-SVP def2/J RIJCOSX Grid4 TightSCF
|  4> %maxcore 5000
|  5> %tddft
|  6>     Mode sTDDFT
|  7>     Ethresh 5.0
|  8>     maxcore 5000
|  9> end
| 10>
| 11> %pal
| 12>   nprocs 6
| 13>   end
| 14> * xyz 0 1
| 15>    C        4.92767        -8.41455        -1.63489
| 16>    S        3.51714        -8.77262        -2.53207
| 17>    C        2.61787        -7.50462        -1.77041
| 18>    C        3.42044        -6.81797        -0.86102
| 19>    C        4.75293        -7.33840        -0.79559
| 20>    C        5.70831        -6.69299         0.02868
| 21>    C        5.37760        -5.57199         0.72414
| 22>    C        6.35622        -4.83615         1.58056
| 23>    C        4.04750        -5.04204         0.62987
| 24>    O        3.84608        -3.90258         1.35364
| 25>    C        2.59003        -3.27984         1.28393
| 26>    C        3.09555        -5.64796        -0.13896
| 27>    C        1.26877        -7.16133        -2.10435
| 28>    C        0.40140        -6.80444        -1.13271
| 29>    C       -0.80196        -6.06342        -1.28421
| 30>    C       -1.75127        -5.78648        -0.32009
| 31>    C       -2.67814        -4.76421        -0.73516
| 32>    C       -2.49210        -4.40663        -2.09444
| 33>    S       -1.09335        -5.19520        -2.77777
| 34>    C       -3.29066        -3.51333        -2.78252
| 35>    C       -3.01450        -3.15338        -4.21154
| 36>    C       -2.18310        -1.87194        -4.29457
| 37>    C       -4.32486        -2.92002        -2.05225
| 38>    C       -4.44275        -3.18858        -0.66972
| 39>    C       -3.62421        -4.06515         0.02756
| 40>    C       -3.68990        -4.07870         1.52769
| 41>    C       -2.98664        -2.83738         2.08458
| 42>    S       -5.74576        -2.26186         0.03605
| 43>    C       -6.11910        -1.56524        -1.50268
| 44>    C       -5.30772        -1.98342        -2.49395
| 45>    C       -2.02840        -6.65611         0.81178
| 46>    S       -3.66484        -7.28449         0.84326
| 47>    C       -3.30339        -8.24901         2.21505
| 48>    C       -2.01007        -8.14725         2.61077
| 49>    C       -1.48222        -8.86280         3.81277
| 50>    C       -1.25728        -7.23942         1.79199
| 51>    C        0.16503        -7.00945         2.00359
| 52>    C        1.00585        -8.04529         2.18377
| 53>    C        2.41880        -8.00851         2.39215
| 54>    C        3.11511        -9.16414         2.42320
| 55>    C        4.50661        -9.35296         2.65644
| 56>    C        5.13343       -10.57927         2.66972
| 57>    C        6.52953       -10.50565         2.97374
| 58>    C        6.93393        -9.16049         3.19265
| 59>    S        5.60119        -8.04414         3.01204
| 60>    C        8.22268        -8.78714         3.52908
| 61>    C        8.62335        -7.35038         3.68472
| 62>    C        9.44858        -6.88620         2.48288
| 63>    C        9.15337        -9.82014         3.67510
| 64>    C        8.75745       -11.15648         3.44144
| 65>    C        7.47401       -11.53703         3.08562
| 66>    C        7.19468       -12.98426         2.80931
| 67>    C        7.49940       -13.32944         1.35031
| 68>    S       10.09687       -12.25590         3.67415
| 69>    C       11.13672       -10.93871         4.09306
| 70>    C       10.52789        -9.73717         4.05400
| 71>    C        4.37030       -11.79655         2.41491
| 72>    S        3.59417       -12.65097         3.70331
| 73>    C        2.92108       -13.83418         2.62190
| 74>    C        3.27352       -13.54788         1.30656
| 75>    C        4.08618       -12.37408         1.19273
| 76>    C        4.51274       -11.93532        -0.08553
| 77>    C        4.17305       -12.63325        -1.20098
| 78>    C        4.60467       -12.21848        -2.57037
| 79>    C        3.37011       -13.81903        -1.08076
| 80>    O        3.10444       -14.42868        -2.27030
| 81>    C        2.32334       -15.59557        -2.26765
| 82>    C        2.92947       -14.26092         0.13476
| 83>    C        2.12630       -14.91964         3.10857
| 84>    C        1.81640       -15.13708         4.38640
| 85>    H        5.81778        -8.99243        -1.78620
| 86>    H        6.71094        -7.09179         0.07442
| 87>    H        7.35228        -5.25224         1.47514
| 88>    H        6.05162        -4.89573         2.62467
| 89>    H        6.37258        -3.78300         1.30605
| 90>    H        2.66401        -2.39115         1.90905
| 91>    H        1.79616        -3.92727         1.67205
| 92>    H        2.34129        -2.98353         0.25950
| 93>    H        2.10552        -5.23725        -0.24349
| 94>    H        0.98518        -7.12902        -3.14867
| 95>    H        0.67847        -7.02028        -0.11177
| 96>    H       -3.95447        -3.01637        -4.74875
| 97>    H       -2.46557        -3.96938        -4.68707
| 98>    H       -2.70979        -1.04485        -3.82341
| 99>    H       -1.98577        -1.61487        -5.33245
|100>    H       -1.23213        -2.00933        -3.78496
|101>    H       -3.20448        -4.95818         1.94185
|102>    H       -4.73552        -4.07580         1.84432
|103>    H       -1.94303        -2.82679         1.77564
|104>    H       -3.02734        -2.84256         3.17112
|105>    H       -3.46185        -1.92807         1.72565
|106>    H       -6.93515        -0.87166        -1.56468
|107>    H       -5.39750        -1.64802        -3.51136
|108>    H       -4.08012        -8.83992         2.65901
|109>    H       -2.27447        -8.98422         4.54862
|110>    H       -0.65995        -8.31037         4.26107
|111>    H       -1.12093        -9.85609         3.54652
|112>    H        0.52293        -5.98751         1.98607
|113>    H        0.58829        -9.04211         2.11740
|114>    H        2.91465        -7.05629         2.52036
|115>    H        2.56955       -10.08743         2.26356
|116>    H        9.20865        -7.22561         4.59824
|117>    H        7.72555        -6.73553         3.76834
|118>    H       10.36929        -7.45876         2.40200
|119>    H        9.70202        -5.83301         2.58068
|120>    H        8.88505        -7.02786         1.56327
|121>    H        6.15817       -13.22754         3.03001
|122>    H        7.83178       -13.59179         3.45784
|123>    H        6.87243       -12.74516         0.68096
|124>    H        7.30731       -14.38398         1.16820
|125>    H        8.54276       -13.12223         1.12285
|126>    H       12.15656       -11.15426         4.34681
|127>    H       11.02681        -8.81668         4.29768
|128>    H        5.10320       -11.03289        -0.15315
|129>    H        5.26357       -11.35672        -2.52455
|130>    H        3.73551       -11.96658        -3.17594
|131>    H        5.11969       -13.04054        -3.06427
|132>    H        2.24558       -15.90198        -3.30949
|133>    H        1.32019       -15.40742        -1.87100
|134>    H        2.79700       -16.39620        -1.68974
|135>    H        2.32173       -15.14616         0.22543
|136>    H        1.76502       -15.59895         2.34755
|137>    H        2.15943       -14.48020         5.16822
|138>    H        1.21317       -15.97515         4.68625
|139> *
|140>
|141>                          ****END OF INPUT****

CARTESIAN COORDINATES (ANGSTROEM)
---------------------------------
  C      4.927670   -8.414550   -1.634890
  S      3.517140   -8.772620   -2.532070
  C      2.617870   -7.504620   -1.770410
  C      3.420440   -6.817970   -0.861020
  C      4.752930   -7.338400   -0.795590
  C      5.708310   -6.692990    0.028680
  C      5.377600   -5.571990    0.724140
  C      6.356220   -4.836150    1.580560
  C      4.047500   -5.042040    0.629870
  O      3.846080   -3.902580    1.353640
  C      2.590030   -3.279840    1.283930
  C      3.095550   -5.647960   -0.138960
  C      1.268770   -7.161330   -2.104350
  C      0.401400   -6.804440   -1.132710
  C     -0.801960   -6.063420   -1.284210
  C     -1.751270   -5.786480   -0.320090
  C     -2.678140   -4.764210   -0.735160
  C     -2.492100   -4.406630   -2.094440
  S     -1.093350   -5.195200   -2.777770
  C     -3.290660   -3.513330   -2.782520
  C     -3.014500   -3.153380   -4.211540
  C     -2.183100   -1.871940   -4.294570
  C     -4.324860   -2.920020   -2.052250
  C     -4.442750   -3.188580   -0.669720
  C     -3.624210   -4.065150    0.027560
  C     -3.689900   -4.078700    1.527690
  C     -2.986640   -2.837380    2.084580
  S     -5.745760   -2.261860    0.036050
  C     -6.119100   -1.565240   -1.502680
  C     -5.307720   -1.983420   -2.493950
  C     -2.028400   -6.656110    0.811780
  S     -3.664840   -7.284490    0.843260
  C     -3.303390   -8.249010    2.215050
  C     -2.010070   -8.147250    2.610770
  C     -1.482220   -8.862800    3.812770
  C     -1.257280   -7.239420    1.791990
  C      0.165030   -7.009450    2.003590
  C      1.005850   -8.045290    2.183770
  C      2.418800   -8.008510    2.392150
  C      3.115110   -9.164140    2.423200
  C      4.506610   -9.352960    2.656440
  C      5.133430  -10.579270    2.669720
  C      6.529530  -10.505650    2.973740
  C      6.933930   -9.160490    3.192650
  S      5.601190   -8.044140    3.012040
  C      8.222680   -8.787140    3.529080
  C      8.623350   -7.350380    3.684720
  C      9.448580   -6.886200    2.482880
  C      9.153370   -9.820140    3.675100
  C      8.757450  -11.156480    3.441440
  C      7.474010  -11.537030    3.085620
  C      7.194680  -12.984260    2.809310
  C      7.499400  -13.329440    1.350310
  S     10.096870  -12.255900    3.674150
  C     11.136720  -10.938710    4.093060
  C     10.527890   -9.737170    4.054000
  C      4.370300  -11.796550    2.414910
  S      3.594170  -12.650970    3.703310
  C      2.921080  -13.834180    2.621900
  C      3.273520  -13.547880    1.306560
  C      4.086180  -12.374080    1.192730
  C      4.512740  -11.935320   -0.085530
  C      4.173050  -12.633250   -1.200980
  C      4.604670  -12.218480   -2.570370
  C      3.370110  -13.819030   -1.080760
  O      3.104440  -14.428680   -2.270300
  C      2.323340  -15.595570   -2.267650
  C      2.929470  -14.260920    0.134760
  C      2.126300  -14.919640    3.108570
  C      1.816400  -15.137080    4.386400
  H      5.817780   -8.992430   -1.786200
  H      6.710940   -7.091790    0.074420
  H      7.352280   -5.252240    1.475140
  H      6.051620   -4.895730    2.624670
  H      6.372580   -3.783000    1.306050
  H      2.664010   -2.391150    1.909050
  H      1.796160   -3.927270    1.672050
  H      2.341290   -2.983530    0.259500
  H      2.105520   -5.237250   -0.243490
  H      0.985180   -7.129020   -3.148670
  H      0.678470   -7.020280   -0.111770
  H     -3.954470   -3.016370   -4.748750
  H     -2.465570   -3.969380   -4.687070
  H     -2.709790   -1.044850   -3.823410
  H     -1.985770   -1.614870   -5.332450
  H     -1.232130   -2.009330   -3.784960
  H     -3.204480   -4.958180    1.941850
  H     -4.735520   -4.075800    1.844320
  H     -1.943030   -2.826790    1.775640
  H     -3.027340   -2.842560    3.171120
  H     -3.461850   -1.928070    1.725650
  H     -6.935150   -0.871660   -1.564680
  H     -5.397500   -1.648020   -3.511360
  H     -4.080120   -8.839920    2.659010
  H     -2.274470   -8.984220    4.548620
  H     -0.659950   -8.310370    4.261070
  H     -1.120930   -9.856090    3.546520
  H      0.522930   -5.987510    1.986070
  H      0.588290   -9.042110    2.117400
  H      2.914650   -7.056290    2.520360
  H      2.569550  -10.087430    2.263560
  H      9.208650   -7.225610    4.598240
  H      7.725550   -6.735530    3.768340
  H     10.369290   -7.458760    2.402000
  H      9.702020   -5.833010    2.580680
  H      8.885050   -7.027860    1.563270
  H      6.158170  -13.227540    3.030010
  H      7.831780  -13.591790    3.457840
  H      6.872430  -12.745160    0.680960
  H      7.307310  -14.383980    1.168200
  H      8.542760  -13.122230    1.122850
  H     12.156560  -11.154260    4.346810
  H     11.026810   -8.816680    4.297680
  H      5.103200  -11.032890   -0.153150
  H      5.263570  -11.356720   -2.524550
  H      3.735510  -11.966580   -3.175940
  H      5.119690  -13.040540   -3.064270
  H      2.245580  -15.901980   -3.309490
  H      1.320190  -15.407420   -1.871000
  H      2.797000  -16.396200   -1.689740
  H      2.321730  -15.146160    0.225430
  H      1.765020  -15.598950    2.347550
  H      2.159430  -14.480200    5.168220
  H      1.213170  -15.975150    4.686250

 Total Charge           Charge          ....    0
 Multiplicity           Mult            ....    1
 Number of Electrons    NEL             ....  548
 Basis Dimension        Dim             .... 1278

ORBITAL ENERGIES
----------------

  NO   OCC          E(Eh)            E(eV)
   0   2.0000     -88.948890     -2420.4224
   1   2.0000     -88.948205     -2420.4037
   2   2.0000     -88.936371     -2420.0817
   3   2.0000     -88.936183     -2420.0766
   4   2.0000     -88.935983     -2420.0711
   5   2.0000     -88.934849     -2420.0403
   6   2.0000     -88.934603     -2420.0336
   7   2.0000     -19.241759      -523.5949
   8   2.0000     -19.238679      -523.5111
   9   2.0000     -10.323326      -280.9120
  10   2.0000     -10.318749      -280.7874
  11   2.0000     -10.318427      -280.7787
  12   2.0000     -10.315945      -280.7111
  13   2.0000     -10.294490      -280.1273
  14   2.0000     -10.293471      -280.0996
  15   2.0000     -10.289796      -279.9996
  16   2.0000     -10.289211      -279.9837
  17   2.0000     -10.286512      -279.9102
  18   2.0000     -10.286176      -279.9011
  19   2.0000     -10.285531      -279.8835
  20   2.0000     -10.283649      -279.8323
  21   2.0000     -10.282152      -279.7916
  22   2.0000     -10.281179      -279.7651
  23   2.0000     -10.280922      -279.7581
  24   2.0000     -10.280858      -279.7564
  25   2.0000     -10.280023      -279.7336
  26   2.0000     -10.276577      -279.6399
  27   2.0000     -10.275310      -279.6054
  28   2.0000     -10.271725      -279.5078
  29   2.0000     -10.270672      -279.4792
  30   2.0000     -10.270669      -279.4791
  31   2.0000     -10.270325      -279.4697
  32   2.0000     -10.270090      -279.4634
  33   2.0000     -10.269566      -279.4491
  34   2.0000     -10.269429      -279.4454
  35   2.0000     -10.269067      -279.4355
  36   2.0000     -10.268767      -279.4274
  37   2.0000     -10.268631      -279.4237
  38   2.0000     -10.268016      -279.4069
  39   2.0000     -10.268011      -279.4068
  40   2.0000     -10.267995      -279.4063
  41   2.0000     -10.266677      -279.3705
  42   2.0000     -10.266126      -279.3555
  43   2.0000     -10.265949      -279.3507
  44   2.0000     -10.265858      -279.3482
  45   2.0000     -10.265447      -279.3370
  46   2.0000     -10.265271      -279.3322
  47   2.0000     -10.264662      -279.3157
  48   2.0000     -10.264253      -279.3045
  49   2.0000     -10.263816      -279.2926
  50   2.0000     -10.263660      -279.2884
  51   2.0000     -10.263381      -279.2808
  52   2.0000     -10.263255      -279.2774
  53   2.0000     -10.263032      -279.2713
  54   2.0000     -10.262335      -279.2523
  55   2.0000     -10.262047      -279.2445
  56   2.0000     -10.259831      -279.1842
  57   2.0000     -10.258975      -279.1609
  58   2.0000     -10.257244      -279.1138
  59   2.0000     -10.254197      -279.0309
  60   2.0000     -10.253888      -279.0225
  61   2.0000     -10.253187      -279.0034
  62   2.0000     -10.253116      -279.0015
  63   2.0000     -10.252390      -278.9817
  64   2.0000     -10.251220      -278.9499
  65   2.0000     -10.251159      -278.9482
  66   2.0000     -10.250423      -278.9282
  67   2.0000     -10.248882      -278.8863
  68   2.0000     -10.244938      -278.7789
  69   2.0000     -10.240690      -278.6634
  70   2.0000      -8.044093      -218.8909
  71   2.0000      -8.042669      -218.8522
  72   2.0000      -8.031947      -218.5604
  73   2.0000      -8.031766      -218.5555
  74   2.0000      -8.031115      -218.5377
  75   2.0000      -8.030341      -218.5167
  76   2.0000      -8.030335      -218.5165
  77   2.0000      -6.013126      -163.6255
  78   2.0000      -6.011735      -163.5876
  79   2.0000      -6.008821      -163.5083
  80   2.0000      -6.007639      -163.4762
  81   2.0000      -6.007038      -163.4598
  82   2.0000      -6.005406      -163.4154
  83   2.0000      -6.001556      -163.3107
  84   2.0000      -6.001367      -163.3055
  85   2.0000      -6.000633      -163.2855
  86   2.0000      -5.999850      -163.2642
  87   2.0000      -5.999695      -163.2600
  88   2.0000      -5.997291      -163.1946
  89   2.0000      -5.997131      -163.1902
  90   2.0000      -5.996767      -163.1803
  91   2.0000      -5.995942      -163.1579
  92   2.0000      -5.995392      -163.1429
  93   2.0000      -5.993534      -163.0923
  94   2.0000      -5.993329      -163.0868
  95   2.0000      -5.992585      -163.0665
  96   2.0000      -5.992487      -163.0639
  97   2.0000      -5.991679      -163.0419
  98   2.0000      -1.145146       -31.1610
  99   2.0000      -1.141673       -31.0665
 100   2.0000      -0.991830       -26.9891
 101   2.0000      -0.990563       -26.9546
 102   2.0000      -0.978880       -26.6367
 103   2.0000      -0.977339       -26.5947
 104   2.0000      -0.970668       -26.4132
 105   2.0000      -0.960725       -26.1427
 106   2.0000      -0.956174       -26.0188
 107   2.0000      -0.920163       -25.0389
 108   2.0000      -0.917588       -24.9688
 109   2.0000      -0.910935       -24.7878
 110   2.0000      -0.906434       -24.6653
 111   2.0000      -0.899647       -24.4806
 112   2.0000      -0.897732       -24.4285
 113   2.0000      -0.891297       -24.2534
 114   2.0000      -0.875914       -23.8348
 115   2.0000      -0.875467       -23.8227
 116   2.0000      -0.857572       -23.3357
 117   2.0000      -0.852101       -23.1868
 118   2.0000      -0.851325       -23.1657
 119   2.0000      -0.846567       -23.0363
 120   2.0000      -0.838636       -22.8204
 121   2.0000      -0.836749       -22.7691
 122   2.0000      -0.829280       -22.5659
 123   2.0000      -0.827530       -22.5182
 124   2.0000      -0.827361       -22.5136
 125   2.0000      -0.817584       -22.2476
 126   2.0000      -0.811680       -22.0869
 127   2.0000      -0.811173       -22.0731
 128   2.0000      -0.803715       -21.8702
 129   2.0000      -0.799967       -21.7682
 130   2.0000      -0.791104       -21.5270
 131   2.0000      -0.780422       -21.2364
 132   2.0000      -0.773529       -21.0488
 133   2.0000      -0.771303       -20.9882
 134   2.0000      -0.764131       -20.7931
 135   2.0000      -0.763199       -20.7677
 136   2.0000      -0.761077       -20.7100
 137   2.0000      -0.750254       -20.4154
 138   2.0000      -0.740693       -20.1553
 139   2.0000      -0.737596       -20.0710
 140   2.0000      -0.722854       -19.6699
 141   2.0000      -0.719095       -19.5676
 142   2.0000      -0.707883       -19.2625
 143   2.0000      -0.700234       -19.0543
 144   2.0000      -0.686764       -18.6878
 145   2.0000      -0.677805       -18.4440
 146   2.0000      -0.677541       -18.4368
 147   2.0000      -0.675648       -18.3853
 148   2.0000      -0.674816       -18.3627
 149   2.0000      -0.663055       -18.0427
 150   2.0000      -0.660257       -17.9665
 151   2.0000      -0.651390       -17.7252
 152   2.0000      -0.649975       -17.6867
 153   2.0000      -0.647178       -17.6106
 154   2.0000      -0.642540       -17.4844
 155   2.0000      -0.637331       -17.3427
 156   2.0000      -0.631335       -17.1795
 157   2.0000      -0.626275       -17.0418
 158   2.0000      -0.618766       -16.8375
 159   2.0000      -0.618350       -16.8262
 160   2.0000      -0.617937       -16.8149
 161   2.0000      -0.608320       -16.5532
 162   2.0000      -0.602864       -16.4048
 163   2.0000      -0.594155       -16.1678
 164   2.0000      -0.588001       -16.0003
 165   2.0000      -0.585852       -15.9418
 166   2.0000      -0.584624       -15.9084
 167   2.0000      -0.579426       -15.7670
 168   2.0000      -0.575443       -15.6586
 169   2.0000      -0.571999       -15.5649
 170   2.0000      -0.561467       -15.2783
 171   2.0000      -0.551776       -15.0146
 172   2.0000      -0.550935       -14.9917
 173   2.0000      -0.548143       -14.9157
 174   2.0000      -0.544565       -14.8184
 175   2.0000      -0.542960       -14.7747
 176   2.0000      -0.536699       -14.6043
 177   2.0000      -0.534512       -14.5448
 178   2.0000      -0.528669       -14.3858
 179   2.0000      -0.525866       -14.3095
 180   2.0000      -0.522943       -14.2300
 181   2.0000      -0.519281       -14.1304
 182   2.0000      -0.518750       -14.1159
 183   2.0000      -0.516069       -14.0430
 184   2.0000      -0.515158       -14.0182
 185   2.0000      -0.514564       -14.0020
 186   2.0000      -0.514064       -13.9884
 187   2.0000      -0.511924       -13.9301
 188   2.0000      -0.507556       -13.8113
 189   2.0000      -0.504526       -13.7289
 190   2.0000      -0.502646       -13.6777
 191   2.0000      -0.501477       -13.6459
 192   2.0000      -0.496608       -13.5134
 193   2.0000      -0.494897       -13.4668
 194   2.0000      -0.492912       -13.4128
 195   2.0000      -0.492508       -13.4018
 196   2.0000      -0.489852       -13.3295
 197   2.0000      -0.488408       -13.2902
 198   2.0000      -0.485808       -13.2195
 199   2.0000      -0.483854       -13.1663
 200   2.0000      -0.482583       -13.1318
 201   2.0000      -0.480429       -13.0731
 202   2.0000      -0.477976       -13.0064
 203   2.0000      -0.477235       -12.9862
 204   2.0000      -0.472787       -12.8652
 205   2.0000      -0.469582       -12.7780
 206   2.0000      -0.466727       -12.7003
 207   2.0000      -0.464698       -12.6451
 208   2.0000      -0.461715       -12.5639
 209   2.0000      -0.459889       -12.5142
 210   2.0000      -0.458062       -12.4645
 211   2.0000      -0.454130       -12.3575
 212   2.0000      -0.453565       -12.3421
 213   2.0000      -0.453386       -12.3372
 214   2.0000      -0.451066       -12.2741
 215   2.0000      -0.450086       -12.2475
 216   2.0000      -0.447452       -12.1758
 217   2.0000      -0.446490       -12.1496
 218   2.0000      -0.445357       -12.1188
 219   2.0000      -0.443669       -12.0729
 220   2.0000      -0.442195       -12.0327
 221   2.0000      -0.440587       -11.9890
 222   2.0000      -0.435697       -11.8559
 223   2.0000      -0.434488       -11.8230
 224   2.0000      -0.432983       -11.7821
 225   2.0000      -0.432105       -11.7582
 226   2.0000      -0.427888       -11.6434
 227   2.0000      -0.427504       -11.6330
 228   2.0000      -0.425073       -11.5668
 229   2.0000      -0.423380       -11.5207
 230   2.0000      -0.422595       -11.4994
 231   2.0000      -0.420709       -11.4481
 232   2.0000      -0.419530       -11.4160
 233   2.0000      -0.418727       -11.3941
 234   2.0000      -0.417355       -11.3568
 235   2.0000      -0.415136       -11.2964
 236   2.0000      -0.414332       -11.2746
 237   2.0000      -0.409808       -11.1514
 238   2.0000      -0.407559       -11.0902
 239   2.0000      -0.405340       -11.0299
 240   2.0000      -0.403458       -10.9786
 241   2.0000      -0.402573       -10.9546
 242   2.0000      -0.399927       -10.8826
 243   2.0000      -0.398897       -10.8545
 244   2.0000      -0.396894       -10.8000
 245   2.0000      -0.395906       -10.7732
 246   2.0000      -0.394278       -10.7288
 247   2.0000      -0.391374       -10.6498
 248   2.0000      -0.388965       -10.5843
 249   2.0000      -0.382535       -10.4093
 250   2.0000      -0.380907       -10.3650
 251   2.0000      -0.376524       -10.2457
 252   2.0000      -0.375777       -10.2254
 253   2.0000      -0.367244        -9.9932
 254   2.0000      -0.361899        -9.8478
 255   2.0000      -0.350843        -9.5469
 256   2.0000      -0.346824        -9.4376
 257   2.0000      -0.344511        -9.3746
 258   2.0000      -0.342821        -9.3286
 259   2.0000      -0.326279        -8.8785
 260   2.0000      -0.321132        -8.7384
 261   2.0000      -0.319409        -8.6916
 262   2.0000      -0.312775        -8.5110
 263   2.0000      -0.304373        -8.2824
 264   2.0000      -0.289410        -7.8752
 265   2.0000      -0.281615        -7.6631
 266   2.0000      -0.279451        -7.6042
 267   2.0000      -0.279113        -7.5950
 268   2.0000      -0.271720        -7.3939
 269   2.0000      -0.255572        -6.9545
 270   2.0000      -0.242991        -6.6121
 271   2.0000      -0.234867        -6.3911
 272   2.0000      -0.232935        -6.3385
 273   2.0000      -0.220515        -6.0005
 274   0.0000      -0.039679        -1.0797
 275   0.0000      -0.034519        -0.9393
 276   0.0000      -0.024602        -0.6694
 277   0.0000      -0.000421        -0.0115
 278   0.0000       0.014681         0.3995

MULLIKEN ATOMIC CHARGES
-----------------------
   0 C :   -0.144115
   1 S :    0.142587
   2 C :   -0.160608
   3 C :    0.149231
   4 C :    0.102990
   5 C :   -0.042784
   6 C :   -0.099922
   7 C :    0.140694
   8 C :    0.224962
   9 O :   -0.318323
  10 C :    0.190067
  11 C :   -0.188108
  12 C :   -0.010194
  13 C :    0.005052
  14 C :   -0.063908
  15 C :    0.041825
  16 C :    0.069053
  17 C :   -0.117709
  18 S :    0.081284
  19 C :   -0.100522
  20 C :    0.037283
  21 C :    0.035417
  22 C :    0.086390
  23 C :   -0.147603
  24 C :   -0.119864
  25 C :    0.057917
  26 C :    0.032252
  27 S :    0.085558
  28 C :   -0.051072
  29 C :    0.001418
  30 C :   -0.237926
  31 S :    0.124220
  32 C :   -0.128433
  33 C :   -0.096192
  34 C :    0.110535
  35 C :    0.121592
  36 C :   -0.050075
  37 C :    0.027600
  38 C :    0.033612
  39 C :   -0.016067
  40 C :   -0.036023
  41 C :    0.018035
  42 C :    0.150221
  43 C :   -0.127290
  44 S :    0.087607
  45 C :   -0.102820
  46 C :    0.050411
  47 C :    0.022042
  48 C :    0.086484
  49 C :   -0.150087
  50 C :   -0.140868
  51 C :    0.053801
  52 C :    0.057503
  53 S :    0.086062
  54 C :   -0.047208
  55 C :   -0.005137
  56 C :   -0.346951
  57 S :    0.161051
  58 C :   -0.144932
  59 C :    0.125277
  60 C :    0.188061
  61 C :   -0.072287
  62 C :   -0.090539
  63 C :    0.143376
  64 C :    0.229371
  65 O :   -0.312930
  66 C :    0.182159
  67 C :   -0.179269
  68 C :    0.006440
  69 C :   -0.037972
  70 H :    0.015974
  71 H :   -0.054525
  72 H :   -0.016528
  73 H :    0.025398
  74 H :    0.020535
  75 H :    0.033168
  76 H :    0.011123
  77 H :    0.027944
  78 H :   -0.031281
  79 H :    0.002836
  80 H :   -0.018965
  81 H :    0.006643
  82 H :    0.009302
  83 H :    0.011136
  84 H :    0.014342
  85 H :    0.011223
  86 H :    0.023206
  87 H :    0.006118
  88 H :    0.003265
  89 H :    0.013395
  90 H :    0.012418
  91 H :    0.022743
  92 H :   -0.022226
  93 H :    0.006840
  94 H :    0.010507
  95 H :    0.028190
  96 H :    0.027769
  97 H :   -0.010278
  98 H :   -0.002994
  99 H :   -0.004614
 100 H :    0.006979
 101 H :    0.010782
 102 H :    0.002064
 103 H :    0.011088
 104 H :    0.019643
 105 H :    0.019982
 106 H :    0.016370
 107 H :    0.003813
 108 H :   -0.000850
 109 H :    0.013905
 110 H :    0.002515
 111 H :    0.022018
 112 H :   -0.019687
 113 H :   -0.033358
 114 H :   -0.013793
 115 H :    0.027012
 116 H :    0.022095
 117 H :    0.035100
 118 H :    0.022753
 119 H :    0.021734
 120 H :   -0.052245
 121 H :   -0.016513
 122 H :    0.016381
 123 H :    0.017848
Sum of atomic charges:   -0.0000000

LOEWDIN ATOMIC CHARGES
----------------------
   0 C :   -0.200822
   1 S :    0.473423
   2 C :   -0.203171
   3 C :   -0.033548
   4 C :   -0.057893
   5 C :   -0.021805
   6 C :   -0.042557
   7 C :   -0.046218
   8 C :    0.051555
   9 O :   -0.100992
  10 C :    0.075200
  11 C :   -0.087095
  12 C :   -0.035590
  13 C :   -0.046279
  14 C :   -0.142037
  15 C :   -0.087184
  16 C :   -0.051178
  17 C :   -0.151203
  18 S :    0.389354
  19 C :   -0.041981
  20 C :   -0.031823
  21 C :   -0.048813
  22 C :   -0.047316
  23 C :   -0.154081
  24 C :   -0.036413
  25 C :   -0.039368
  26 C :   -0.050709
  27 S :    0.394097
  28 C :   -0.164167
  29 C :   -0.066454
  30 C :   -0.160543
  31 S :    0.441871
  32 C :   -0.200294
  33 C :   -0.060541
  34 C :   -0.048101
  35 C :   -0.070480
  36 C :   -0.030067
  37 C :   -0.013673
  38 C :   -0.018794
  39 C :   -0.033390
  40 C :   -0.147150
  41 C :   -0.079108
  42 C :   -0.043443
  43 C :   -0.151503
  44 S :    0.422340
  45 C :   -0.043286
  46 C :   -0.030569
  47 C :   -0.049977
  48 C :   -0.048302
  49 C :   -0.154182
  50 C :   -0.031233
  51 C :   -0.035780
  52 C :   -0.049043
  53 S :    0.392146
  54 C :   -0.163390
  55 C :   -0.067483
  56 C :   -0.180727
  57 S :    0.468344
  58 C :   -0.198973
  59 C :   -0.036576
  60 C :   -0.053989
  61 C :   -0.017893
  62 C :   -0.034309
  63 C :   -0.044743
  64 C :    0.060672
  65 O :   -0.098287
  66 C :    0.075284
  67 C :   -0.090599
  68 C :   -0.037567
  69 C :   -0.065795
  70 H :    0.017514
  71 H :    0.023450
  72 H :    0.025567
  73 H :    0.030881
  74 H :    0.035005
  75 H :    0.027777
  76 H :    0.011446
  77 H :    0.017989
  78 H :    0.028005
  79 H :    0.023266
  80 H :    0.037609
  81 H :    0.027557
  82 H :    0.020912
  83 H :    0.023181
  84 H :    0.023060
  85 H :    0.024029
  86 H :    0.025952
  87 H :    0.022084
  88 H :    0.021477
  89 H :    0.022979
  90 H :    0.015408
  91 H :    0.023100
  92 H :    0.027265
  93 H :    0.018823
  94 H :    0.031344
  95 H :    0.033135
  96 H :    0.033785
  97 H :    0.022939
  98 H :    0.031789
  99 H :    0.025052
 100 H :    0.035786
 101 H :    0.029742
 102 H :    0.019107
 103 H :    0.023769
 104 H :    0.023906
 105 H :    0.022440
 106 H :    0.024224
 107 H :    0.019340
 108 H :    0.023425
 109 H :    0.024674
 110 H :    0.017903
 111 H :    0.023106
 112 H :    0.026970
 113 H :    0.027689
 114 H :    0.020090
 115 H :    0.034185
 116 H :    0.034763
 117 H :    0.027985
 118 H :    0.015471
 119 H :    0.015020
 120 H :    0.022693
 121 H :    0.030783
 122 H :    0.015162
 123 H :    0.023590

  Mayer bond orders larger than 0.100000
B(  0-C ,  1-S ) :   1.1935 B(  0-C ,  2-C ) :   0.1001 B(  0-C ,  4-C ) :   1.4319
B(  0-C , 70-H ) :   0.9591 B(  1-S ,  2-C ) :   1.1438 B(  2-C ,  3-C ) :   1.4058
B(  2-C , 12-C ) :   1.0679 B(  3-C ,  4-C ) :   1.2137 B(  3-C , 11-C ) :   1.1419
B(  4-C ,  5-C ) :   1.1329 B(  5-C ,  6-C ) :   1.5956 B(  5-C , 71-H ) :   1.0007
B(  6-C ,  7-C ) :   1.0715 B(  6-C ,  8-C ) :   1.1971 B(  7-C , 72-H ) :   0.9484
B(  7-C , 73-H ) :   0.9414 B(  7-C , 74-H ) :   0.9369 B(  8-C ,  9-O ) :   1.1642
B(  8-C , 11-C ) :   1.4624 B(  9-O , 10-C ) :   0.9700 B( 10-C , 75-H ) :   0.9740
B( 10-C , 76-H ) :   0.9718 B( 10-C , 77-H ) :   0.9643 B( 11-C , 78-H ) :   0.9941
B( 12-C , 13-C ) :   1.7192 B( 12-C , 79-H ) :   0.9634 B( 13-C , 14-C ) :   1.1426
B( 13-C , 80-H ) :   0.9673 B( 14-C , 15-C ) :   1.5631 B( 14-C , 18-S ) :   1.0606
B( 15-C , 16-C ) :   1.1229 B( 15-C , 30-C ) :   1.0274 B( 16-C , 17-C ) :   1.2772
B( 16-C , 24-C ) :   1.3723 B( 17-C , 18-S ) :   1.0340 B( 17-C , 19-C ) :   1.4587
B( 19-C , 20-C ) :   1.0711 B( 19-C , 22-C ) :   1.3391 B( 20-C , 21-C ) :   1.1078
B( 20-C , 81-H ) :   0.9174 B( 20-C , 82-H ) :   0.9219 B( 21-C , 83-H ) :   0.9698
B( 21-C , 84-H ) :   0.9677 B( 21-C , 85-H ) :   0.9648 B( 22-C , 23-C ) :   1.2988
B( 22-C , 29-C ) :   1.1735 B( 23-C , 24-C ) :   1.4164 B( 23-C , 27-S ) :   1.0531
B( 24-C , 25-C ) :   1.0803 B( 25-C , 26-C ) :   1.1056 B( 25-C , 86-H ) :   0.9146
B( 25-C , 87-H ) :   0.9121 B( 26-C , 88-H ) :   0.9646 B( 26-C , 89-H ) :   0.9674
B( 26-C , 90-H ) :   0.9668 B( 27-S , 28-C ) :   1.1113 B( 28-C , 29-C ) :   1.6466
B( 28-C , 91-H ) :   0.9673 B( 29-C , 92-H ) :   0.9884 B( 30-C , 31-S ) :   1.1563
B( 30-C , 35-C ) :   1.5097 B( 31-S , 32-C ) :   1.1343 B( 32-C , 33-C ) :   1.6044
B( 32-C , 93-H ) :   0.9713 B( 33-C , 34-C ) :   1.0849 B( 33-C , 35-C ) :   1.2305
B( 34-C , 94-H ) :   0.9498 B( 34-C , 95-H ) :   0.9453 B( 34-C , 96-H ) :   0.9466
B( 35-C , 36-C ) :   1.0476 B( 36-C , 37-C ) :   1.6850 B( 36-C , 97-H ) :   0.9601
B( 37-C , 38-C ) :   1.1261 B( 37-C , 98-H ) :   0.9805 B( 38-C , 39-C ) :   1.6648
B( 38-C , 99-H ) :   0.9813 B( 39-C , 40-C ) :   1.1277 B( 39-C ,100-H ) :   0.9658
B( 40-C , 41-C ) :   1.5782 B( 40-C , 44-S ) :   1.0590 B( 41-C , 42-C ) :   1.1882
B( 41-C , 56-C ) :   0.9316 B( 42-C , 43-C ) :   1.2585 B( 42-C , 50-C ) :   1.3461
B( 43-C , 44-S ) :   1.0535 B( 43-C , 45-C ) :   1.4484 B( 45-C , 46-C ) :   1.0699
B( 45-C , 48-C ) :   1.3390 B( 46-C , 47-C ) :   1.1087 B( 46-C ,101-H ) :   0.9134
B( 46-C ,102-H ) :   0.9221 B( 47-C ,103-H ) :   0.9630 B( 47-C ,104-H ) :   0.9627
B( 47-C ,105-H ) :   0.9595 B( 48-C , 49-C ) :   1.2935 B( 48-C , 55-C ) :   1.1700
B( 49-C , 50-C ) :   1.4319 B( 49-C , 53-S ) :   1.0512 B( 50-C , 51-C ) :   1.0765
B( 51-C , 52-C ) :   1.1157 B( 51-C ,106-H ) :   0.9015 B( 51-C ,107-H ) :   0.9124
B( 52-C ,108-H ) :   0.9601 B( 52-C ,109-H ) :   0.9649 B( 52-C ,110-H ) :   0.9598
B( 53-S , 54-C ) :   1.1094 B( 54-C , 55-C ) :   1.6490 B( 54-C ,111-H ) :   0.9664
B( 55-C ,112-H ) :   0.9856 B( 56-C , 57-S ) :   1.1778 B( 56-C , 58-C ) :   0.1256
B( 56-C , 60-C ) :   1.4538 B( 57-S , 58-C ) :   1.1062 B( 58-C , 59-C ) :   1.3995
B( 58-C , 68-C ) :   1.1303 B( 59-C , 60-C ) :   1.1827 B( 59-C , 67-C ) :   1.1335
B( 60-C , 61-C ) :   1.1508 B( 61-C , 62-C ) :   1.5960 B( 61-C ,113-H ) :   0.9848
B( 62-C , 63-C ) :   1.0710 B( 62-C , 64-C ) :   1.1852 B( 63-C ,114-H ) :   0.9520
B( 63-C ,115-H ) :   0.9418 B( 63-C ,116-H ) :   0.9404 B( 64-C , 65-O ) :   1.1750
B( 64-C , 67-C ) :   1.4813 B( 65-O , 66-C ) :   0.9692 B( 66-C ,117-H ) :   0.9780
B( 66-C ,118-H ) :   0.9680 B( 66-C ,119-H ) :   0.9676 B( 67-C ,120-H ) :   0.9932
B( 68-C , 69-C ) :   1.9149 B( 68-C ,121-H ) :   0.9582 B( 69-C ,122-H ) :   0.9564
B( 69-C ,123-H ) :   0.9484

-----------------------------------------------------------------------------
         ABSORPTION SPECTRUM VIA TRANSITION ELECTRIC DIPOLE MOMENTS
-----------------------------------------------------------------------------
State   Energy  Wavelength   fosc         T2         TX        TY        TZ
        (cm-1)    (nm)                  (au**2)     (au)      (au)      (au)
-----------------------------------------------------------------------------
   0   22361.8    447.2   0.116658643   1.71746   1.06978   0.24220  -0.71719
   1   23966.6    417.2   0.436541105   5.99645  -2.26576   0.91669   0.14992
   2   25220.8    396.5   0.000603991   0.00788  -0.00628  -0.03882  -0.07961
   3   26396.8    378.8   0.509140594   6.34984  -2.03478   1.25436  -0.79756
   4   27159.9    368.2   0.004892281   0.05930   0.05102   0.22739  -0.07063
   5   28104.7    355.8   0.272007541   3.18624  -1.13171   1.30196   0.45867
   6   28236.4    354.2   0.715926909   8.34710  -1.55686   2.12002  -1.19532
   7   28969.1    345.2   0.269295308   3.06034   1.60785   0.38456  -0.57209
   8   29239.3    342.0   0.582175132   6.55483   2.53176  -0.35888  -0.12737
   9   29895.3    334.5   0.001889781   0.02081   0.02985  -0.13909   0.02397
  10   30307.9    329.9   0.008829325   0.09591   0.22770   0.16316  -0.13205
  11   30862.4    324.0   0.089855558   0.95850  -0.79503   0.05144  -0.56902
  12   31686.5    315.6   0.465263576   4.83393  -2.14034   0.42233  -0.27302
  13   32147.9    311.1   0.163746988   1.67686  -1.28977   0.04439  -0.10670
  14   33712.7    296.6   0.001655666   0.01617  -0.10077  -0.00761  -0.07717
  15   33810.1    295.8   0.052044024   0.50676  -0.17346   0.61499   0.31378
  16   34650.4    288.6   0.039011852   0.37065  -0.01051   0.52455   0.30885
  17   34980.7    285.9   0.035269176   0.33193  -0.27828   0.47605   0.16693
  18   35235.5    283.8   0.022521070   0.21042   0.22122   0.23683  -0.32464
  19   35628.8    280.7   0.214549981   1.98245  -0.74088   1.17308  -0.23965
  20   35956.1    278.1   0.011455094   0.10488   0.07970   0.26609   0.16651
  21   36303.9    275.5   0.051234903   0.46461   0.65899  -0.17195  -0.02776
  22   36527.8    273.8   0.086697747   0.78138   0.38239  -0.77957  -0.16562
  23   37388.3    267.5   0.001614408   0.01422   0.03196  -0.04112  -0.10725
  24   37565.1    266.2   0.103059447   0.90319  -0.69517   0.54734   0.34691
  25   37919.5    263.7   0.007414987   0.06438  -0.13812  -0.21205   0.01824
  26   37975.4    263.3   0.003121135   0.02706   0.03438  -0.16082   0.00368
  27   38275.8    261.3   0.152326407   1.31017  -0.51563  -0.32436  -0.96906
  28   38501.4    259.7   0.049414917   0.42253   0.45983  -0.22434  -0.40094
  29   38890.0    257.1   0.012399651   0.10497  -0.14637  -0.03474  -0.28694
  30   39409.1    253.7   0.026522194   0.22156   0.09961  -0.45814  -0.04176
  31   39629.2    252.3   0.104149256   0.86520  -0.69460   0.47455  -0.39690
  32   39970.9    250.2   0.006919376   0.05699   0.15905  -0.13440   0.11675
  33   40136.0    249.2   0.030087580   0.24679  -0.16277  -0.32288   0.34065

FINAL SINGLE POINT ENERGY     -5290.682286531885

DIPOLE MOMENT
-------------
                                X             Y             Z
Electronic contribution:    -14.04196      -7.13077       0.74961
Nuclear contribution   :     14.08767       7.06162      -1.03772
                        -----------------------------------------
Total Dipole Moment    :      0.04571      -0.06916      -0.28810
                        -----------------------------------------
Magnitude (a.u.)       :      0.29979
Magnitude (Debye)      :      0.76201

Rotational constants in cm-1:     0.001520     0.000489     0.000448
Rotational constants in MHz :    45.580032    14.668715    13.419516

                             ****ORCA TERMINATED NORMALLY****
TOTAL RUN TIME: 0 days 0 hours 19 minutes 15 seconds 378 msec
