                         Program Version 4.2.0 -  RELEASE  -
|  1> # ORCA input file
|  2> # SCF done       -136.491863281845          0.000896311597
|  3> ! CAM-B3LYP def2-SVP def2/J RIJCOSX Grid4 TightSCF
|  4> %maxcore 5000
|  5> %tddft
|  6>     Mode sTDDFT
|  7>     Ethresh 5.0
|  8>     maxcore 5000
|  9> end
| 10>
| 11> %pal
| 12>   nprocs 6
| 13>   end
| 14> * xyz 0 1
| 15>    C        2.92998        -9.63501        -0.88906
| 16>    C        2.92768       -10.92929        -0.43478
| 17>    C        3.69617       -11.29188         0.69112
| 18>    N        4.32505       -11.57699         1.60716
| 19>    C        2.20387       -11.99017        -1.00593
| 20>    N        1.63785       -12.89600        -1.42782
| 21>    C        2.22751        -9.06059        -2.00779
| 22>    C        2.48993        -7.68434        -2.16722
| 23>    C        1.88291        -6.98293        -3.20553
| 24>    C        1.03220        -7.64642        -4.06687
| 25>    C        0.77642        -9.00439        -3.90898
| 26>    C        1.36768        -9.71773        -2.88558
| 27>    C        3.40472        -7.14995        -1.18689
| 28>    S        3.88765        -8.42453        -0.07115
| 29>    C        3.85693        -5.87088        -1.13380
| 30>    C        4.76990        -5.29167        -0.22025
| 31>    C        5.38661        -5.80471         0.90505
| 32>    C        6.25193        -4.88118         1.49011
| 33>    C        6.31472        -3.64752         0.82710
| 34>    S        5.26536        -3.62856        -0.53848
| 35>    C        7.20984        -2.74271         1.39473
| 36>    C        7.83807        -3.27966         2.49997
| 37>    S        7.30946        -4.91430         2.85507
| 38>    C        8.84903        -2.65479         3.27684
| 39>    C        9.51077        -3.13314         4.39026
| 40>    F        9.23035        -4.31275         4.95339
| 41>    C       10.50893        -2.27402         4.87269
| 42>    F       11.26139        -2.56672         5.93897
| 43>    C       10.64429        -1.10831         4.14363
| 44>    S        9.48517        -1.09329         2.84700
| 45>    C       11.58169        -0.05348         4.31402
| 46>    C       12.63391         0.00970         5.20351
| 47>    C       13.37764         1.17850         5.03293
| 48>    C       12.89775         2.02325         4.02264
| 49>    S       11.49515         1.35425         3.26725
| 50>    C       13.65335         3.17685         3.84238
| 51>    C       14.73621         3.22798         4.70564
| 52>    S       14.79828         1.82795         5.76626
| 53>    C       15.69580         4.26604         4.72642
| 54>    C       16.82312         4.35830         5.47773
| 55>    C       17.78922         5.42972         5.43973
| 56>    C       18.88435         5.23317         6.30560
| 57>    C       18.79065         4.00128         7.04735
| 58>    C       19.66211         3.47715         7.96771
| 59>    C       20.86676         4.07336         8.37878
| 60>    N       21.86105         4.50929         8.75410
| 61>    C       19.39073         2.23979         8.58843
| 62>    N       19.17098         1.23207         9.09082
| 63>    S       17.32793         3.13512         6.63832
| 64>    C       19.90445         6.17980         6.37186
| 65>    C       19.82625         7.31031         5.58294
| 66>    C       18.74510         7.50756         4.73082
| 67>    C       17.72824         6.57672         4.65341
| 68>    H        2.07252        -5.92947        -3.33836
| 69>    H        0.56041        -7.10416        -4.87213
| 70>    H        0.10930        -9.50751        -4.59140
| 71>    H        1.16524       -10.76947        -2.76816
| 72>    H        3.49831        -5.19610        -1.89994
| 73>    H        5.22221        -6.79267         1.29061
| 74>    H        7.40723        -1.75182         1.02898
| 75>    H       12.85542        -0.75378         5.92494
| 76>    H       13.44108         3.93890         3.11547
| 77>    H       15.49545         5.07303         4.03361
| 78>    H       20.74476         6.03369         7.03020
| 79>    H       20.61298         8.04699         5.63034
| 80>    H       18.69991         8.39812         4.12254
| 81>    H       16.89450         6.74068         3.98887
| 82> *
| 83>
| 84>                          ****END OF INPUT****

CARTESIAN COORDINATES (ANGSTROEM)
---------------------------------
  C      2.929980   -9.635010   -0.889060
  C      2.927680  -10.929290   -0.434780
  C      3.696170  -11.291880    0.691120
  N      4.325050  -11.576990    1.607160
  C      2.203870  -11.990170   -1.005930
  N      1.637850  -12.896000   -1.427820
  C      2.227510   -9.060590   -2.007790
  C      2.489930   -7.684340   -2.167220
  C      1.882910   -6.982930   -3.205530
  C      1.032200   -7.646420   -4.066870
  C      0.776420   -9.004390   -3.908980
  C      1.367680   -9.717730   -2.885580
  C      3.404720   -7.149950   -1.186890
  S      3.887650   -8.424530   -0.071150
  C      3.856930   -5.870880   -1.133800
  C      4.769900   -5.291670   -0.220250
  C      5.386610   -5.804710    0.905050
  C      6.251930   -4.881180    1.490110
  C      6.314720   -3.647520    0.827100
  S      5.265360   -3.628560   -0.538480
  C      7.209840   -2.742710    1.394730
  C      7.838070   -3.279660    2.499970
  S      7.309460   -4.914300    2.855070
  C      8.849030   -2.654790    3.276840
  C      9.510770   -3.133140    4.390260
  F      9.230350   -4.312750    4.953390
  C     10.508930   -2.274020    4.872690
  F     11.261390   -2.566720    5.938970
  C     10.644290   -1.108310    4.143630
  S      9.485170   -1.093290    2.847000
  C     11.581690   -0.053480    4.314020
  C     12.633910    0.009700    5.203510
  C     13.377640    1.178500    5.032930
  C     12.897750    2.023250    4.022640
  S     11.495150    1.354250    3.267250
  C     13.653350    3.176850    3.842380
  C     14.736210    3.227980    4.705640
  S     14.798280    1.827950    5.766260
  C     15.695800    4.266040    4.726420
  C     16.823120    4.358300    5.477730
  C     17.789220    5.429720    5.439730
  C     18.884350    5.233170    6.305600
  C     18.790650    4.001280    7.047350
  C     19.662110    3.477150    7.967710
  C     20.866760    4.073360    8.378780
  N     21.861050    4.509290    8.754100
  C     19.390730    2.239790    8.588430
  N     19.170980    1.232070    9.090820
  S     17.327930    3.135120    6.638320
  C     19.904450    6.179800    6.371860
  C     19.826250    7.310310    5.582940
  C     18.745100    7.507560    4.730820
  C     17.728240    6.576720    4.653410
  H      2.072520   -5.929470   -3.338360
  H      0.560410   -7.104160   -4.872130
  H      0.109300   -9.507510   -4.591400
  H      1.165240  -10.769470   -2.768160
  H      3.498310   -5.196100   -1.899940
  H      5.222210   -6.792670    1.290610
  H      7.407230   -1.751820    1.028980
  H     12.855420   -0.753780    5.924940
  H     13.441080    3.938900    3.115470
  H     15.495450    5.073030    4.033610
  H     20.744760    6.033690    7.030200
  H     20.612980    8.046990    5.630340
  H     18.699910    8.398120    4.122540
  H     16.894500    6.740680    3.988870

 Total Charge           Charge          ....    0
 Multiplicity           Mult            ....    1
 Number of Electrons    NEL             ....  412
 Basis Dimension        Dim             ....  840

ORBITAL ENERGIES
----------------

  NO   OCC          E(Eh)            E(eV)
   0   2.0000     -88.986519     -2421.4463
   1   2.0000     -88.976722     -2421.1797
   2   2.0000     -88.975355     -2421.1425
   3   2.0000     -88.975108     -2421.1358
   4   2.0000     -88.973913     -2421.1033
   5   2.0000     -88.972420     -2421.0626
   6   2.0000     -88.971776     -2421.0451
   7   2.0000     -24.811401      -675.1526
   8   2.0000     -24.810983      -675.1412
   9   2.0000     -14.412868      -392.1941
  10   2.0000     -14.412049      -392.1718
  11   2.0000     -14.409966      -392.1151
  12   2.0000     -14.408657      -392.0795
  13   2.0000     -10.383122      -282.5391
  14   2.0000     -10.382754      -282.5291
  15   2.0000     -10.360745      -281.9302
  16   2.0000     -10.359530      -281.8971
  17   2.0000     -10.341346      -281.4023
  18   2.0000     -10.340199      -281.3711
  19   2.0000     -10.335065      -281.2314
  20   2.0000     -10.334444      -281.2145
  21   2.0000     -10.332793      -281.1696
  22   2.0000     -10.332231      -281.1543
  23   2.0000     -10.330235      -281.1000
  24   2.0000     -10.329763      -281.0871
  25   2.0000     -10.325087      -280.9599
  26   2.0000     -10.323797      -280.9248
  27   2.0000     -10.316590      -280.7287
  28   2.0000     -10.316222      -280.7187
  29   2.0000     -10.316168      -280.7172
  30   2.0000     -10.315794      -280.7070
  31   2.0000     -10.315593      -280.7016
  32   2.0000     -10.314190      -280.6634
  33   2.0000     -10.314169      -280.6628
  34   2.0000     -10.313437      -280.6429
  35   2.0000     -10.313211      -280.6368
  36   2.0000     -10.312915      -280.6287
  37   2.0000     -10.311557      -280.5917
  38   2.0000     -10.310177      -280.5542
  39   2.0000     -10.309907      -280.5468
  40   2.0000     -10.309654      -280.5399
  41   2.0000     -10.302782      -280.3530
  42   2.0000     -10.300311      -280.2857
  43   2.0000     -10.299799      -280.2718
  44   2.0000     -10.299236      -280.2565
  45   2.0000     -10.299084      -280.2523
  46   2.0000     -10.298765      -280.2436
  47   2.0000     -10.298639      -280.2402
  48   2.0000     -10.298494      -280.2363
  49   2.0000     -10.297822      -280.2180
  50   2.0000     -10.297612      -280.2123
  51   2.0000     -10.292459      -280.0720
  52   2.0000     -10.292330      -280.0685
  53   2.0000      -8.081680      -219.9137
  54   2.0000      -8.072057      -219.6518
  55   2.0000      -8.070835      -219.6186
  56   2.0000      -8.070633      -219.6131
  57   2.0000      -8.068974      -219.5680
  58   2.0000      -8.067423      -219.5258
  59   2.0000      -8.067248      -219.5210
  60   2.0000      -6.051244      -164.6627
  61   2.0000      -6.047389      -164.5578
  62   2.0000      -6.042955      -164.4372
  63   2.0000      -6.041836      -164.4067
  64   2.0000      -6.040674      -164.3751
  65   2.0000      -6.040257      -164.3638
  66   2.0000      -6.038512      -164.3163
  67   2.0000      -6.037573      -164.2907
  68   2.0000      -6.037042      -164.2763
  69   2.0000      -6.036715      -164.2674
  70   2.0000      -6.036350      -164.2574
  71   2.0000      -6.036227      -164.2541
  72   2.0000      -6.034425      -164.2050
  73   2.0000      -6.033116      -164.1694
  74   2.0000      -6.032919      -164.1641
  75   2.0000      -6.032839      -164.1619
  76   2.0000      -6.031943      -164.1375
  77   2.0000      -6.031770      -164.1328
  78   2.0000      -6.030510      -164.0985
  79   2.0000      -6.028820      -164.0525
  80   2.0000      -6.028776      -164.0513
  81   2.0000      -1.330345       -36.2005
  82   2.0000      -1.318774       -35.8857
  83   2.0000      -1.030549       -28.0427
  84   2.0000      -1.027214       -27.9519
  85   2.0000      -1.025691       -27.9105
  86   2.0000      -1.022121       -27.8133
  87   2.0000      -1.012144       -27.5418
  88   2.0000      -1.001931       -27.2639
  89   2.0000      -1.001161       -27.2430
  90   2.0000      -0.989752       -26.9325
  91   2.0000      -0.988501       -26.8985
  92   2.0000      -0.970186       -26.4001
  93   2.0000      -0.962231       -26.1836
  94   2.0000      -0.953204       -25.9380
  95   2.0000      -0.952241       -25.9118
  96   2.0000      -0.929213       -25.2852
  97   2.0000      -0.926873       -25.2215
  98   2.0000      -0.891089       -24.2478
  99   2.0000      -0.881974       -23.9997
 100   2.0000      -0.879291       -23.9267
 101   2.0000      -0.874933       -23.8081
 102   2.0000      -0.869770       -23.6676
 103   2.0000      -0.863764       -23.5042
 104   2.0000      -0.854434       -23.2503
 105   2.0000      -0.852439       -23.1960
 106   2.0000      -0.851653       -23.1746
 107   2.0000      -0.848873       -23.0990
 108   2.0000      -0.819237       -22.2926
 109   2.0000      -0.816806       -22.2264
 110   2.0000      -0.809019       -22.0145
 111   2.0000      -0.793720       -21.5982
 112   2.0000      -0.773319       -21.0431
 113   2.0000      -0.755149       -20.5486
 114   2.0000      -0.732575       -19.9344
 115   2.0000      -0.729883       -19.8611
 116   2.0000      -0.725787       -19.7497
 117   2.0000      -0.713474       -19.4146
 118   2.0000      -0.704768       -19.1777
 119   2.0000      -0.703635       -19.1469
 120   2.0000      -0.693948       -18.8833
 121   2.0000      -0.686634       -18.6843
 122   2.0000      -0.679461       -18.4891
 123   2.0000      -0.665120       -18.0988
 124   2.0000      -0.664244       -18.0750
 125   2.0000      -0.659229       -17.9385
 126   2.0000      -0.650247       -17.6941
 127   2.0000      -0.648182       -17.6379
 128   2.0000      -0.645112       -17.5544
 129   2.0000      -0.636065       -17.3082
 130   2.0000      -0.633130       -17.2283
 131   2.0000      -0.616867       -16.7858
 132   2.0000      -0.610135       -16.6026
 133   2.0000      -0.596052       -16.2194
 134   2.0000      -0.592733       -16.1291
 135   2.0000      -0.590432       -16.0665
 136   2.0000      -0.588918       -16.0253
 137   2.0000      -0.582385       -15.8475
 138   2.0000      -0.575896       -15.6709
 139   2.0000      -0.573129       -15.5956
 140   2.0000      -0.570663       -15.5285
 141   2.0000      -0.569256       -15.4902
 142   2.0000      -0.559376       -15.2214
 143   2.0000      -0.553127       -15.0514
 144   2.0000      -0.539030       -14.6677
 145   2.0000      -0.537665       -14.6306
 146   2.0000      -0.536615       -14.6020
 147   2.0000      -0.533775       -14.5247
 148   2.0000      -0.532764       -14.4972
 149   2.0000      -0.532639       -14.4938
 150   2.0000      -0.522148       -14.2084
 151   2.0000      -0.521931       -14.2025
 152   2.0000      -0.521306       -14.1855
 153   2.0000      -0.518900       -14.1200
 154   2.0000      -0.509557       -13.8658
 155   2.0000      -0.507478       -13.8092
 156   2.0000      -0.499645       -13.5960
 157   2.0000      -0.498160       -13.5556
 158   2.0000      -0.492019       -13.3885
 159   2.0000      -0.489678       -13.3248
 160   2.0000      -0.488747       -13.2995
 161   2.0000      -0.485249       -13.2043
 162   2.0000      -0.484279       -13.1779
 163   2.0000      -0.479569       -13.0497
 164   2.0000      -0.466958       -12.7066
 165   2.0000      -0.464396       -12.6369
 166   2.0000      -0.463455       -12.6112
 167   2.0000      -0.461599       -12.5607
 168   2.0000      -0.456467       -12.4211
 169   2.0000      -0.454639       -12.3714
 170   2.0000      -0.452932       -12.3249
 171   2.0000      -0.450975       -12.2716
 172   2.0000      -0.449201       -12.2234
 173   2.0000      -0.445853       -12.1323
 174   2.0000      -0.443457       -12.0671
 175   2.0000      -0.441004       -12.0003
 176   2.0000      -0.439720       -11.9654
 177   2.0000      -0.438055       -11.9201
 178   2.0000      -0.436013       -11.8645
 179   2.0000      -0.435561       -11.8522
 180   2.0000      -0.431992       -11.7551
 181   2.0000      -0.426769       -11.6130
 182   2.0000      -0.422621       -11.5001
 183   2.0000      -0.421695       -11.4749
 184   2.0000      -0.420816       -11.4510
 185   2.0000      -0.419218       -11.4075
 186   2.0000      -0.416984       -11.3467
 187   2.0000      -0.410242       -11.1633
 188   2.0000      -0.407280       -11.0826
 189   2.0000      -0.405435       -11.0324
 190   2.0000      -0.405158       -11.0249
 191   2.0000      -0.397815       -10.8251
 192   2.0000      -0.381227       -10.3737
 193   2.0000      -0.375949       -10.2301
 194   2.0000      -0.365604        -9.9486
 195   2.0000      -0.343025        -9.3342
 196   2.0000      -0.342837        -9.3291
 197   2.0000      -0.342152        -9.3104
 198   2.0000      -0.336190        -9.1482
 199   2.0000      -0.328027        -8.9261
 200   2.0000      -0.316884        -8.6229
 201   2.0000      -0.310353        -8.4451
 202   2.0000      -0.307242        -8.3605
 203   2.0000      -0.295707        -8.0466
 204   2.0000      -0.265180        -7.2159
 205   2.0000      -0.241888        -6.5821
 206   0.0000      -0.094242        -2.5645
 207   0.0000      -0.083477        -2.2715
 208   0.0000      -0.055598        -1.5129
 209   0.0000      -0.036459        -0.9921
 210   0.0000      -0.022224        -0.6047

MULLIKEN ATOMIC CHARGES
-----------------------
   0 C :    0.088581
   1 C :   -0.283324
   2 C :   -0.210398
   3 N :    0.150970
   4 C :   -0.175990
   5 N :    0.156007
   6 C :    0.036961
   7 C :    0.150496
   8 C :   -0.056411
   9 C :    0.049586
  10 C :    0.029216
  11 C :   -0.021085
  12 C :   -0.039660
  13 S :    0.105634
  14 C :    0.029902
  15 C :   -0.116765
  16 C :   -0.020133
  17 C :   -0.046551
  18 C :    0.002347
  19 S :    0.133983
  20 C :   -0.070542
  21 C :   -0.037381
  22 S :    0.180233
  23 C :   -0.127548
  24 C :    0.190930
  25 F :   -0.166032
  26 C :    0.195847
  27 F :   -0.168014
  28 C :   -0.110244
  29 S :    0.157350
  30 C :   -0.048435
  31 C :   -0.045040
  32 C :   -0.005170
  33 C :    0.006517
  34 S :    0.133755
  35 C :   -0.045985
  36 C :   -0.067489
  37 S :    0.135696
  38 C :   -0.018155
  39 C :   -0.040984
  40 C :    0.148301
  41 C :    0.043521
  42 C :    0.090603
  43 C :   -0.293758
  44 C :   -0.176069
  45 N :    0.156637
  46 C :   -0.208819
  47 N :    0.153367
  48 S :    0.112948
  49 C :   -0.022753
  50 C :    0.029390
  51 C :    0.049059
  52 C :   -0.055595
  53 H :   -0.015742
  54 H :   -0.001256
  55 H :    0.000415
  56 H :    0.007943
  57 H :   -0.011271
  58 H :    0.010964
  59 H :   -0.005811
  60 H :    0.003687
  61 H :   -0.011023
  62 H :   -0.006122
  63 H :    0.007663
  64 H :    0.001266
  65 H :   -0.001629
  66 H :   -0.018593
Sum of atomic charges:   -0.0000000

LOEWDIN ATOMIC CHARGES
----------------------
   0 C :   -0.062440
   1 C :   -0.168509
   2 C :   -0.039078
   3 N :   -0.044026
   4 C :   -0.023459
   5 N :   -0.052836
   6 C :   -0.052105
   7 C :   -0.013612
   8 C :   -0.014266
   9 C :    0.003687
  10 C :   -0.014912
  11 C :    0.011207
  12 C :   -0.150817
  13 S :    0.436668
  14 C :   -0.045630
  15 C :   -0.168042
  16 C :   -0.061956
  17 C :   -0.200717
  18 C :   -0.194052
  19 S :    0.421569
  20 C :   -0.074617
  21 C :   -0.170941
  22 S :    0.446177
  23 C :   -0.212443
  24 C :    0.022198
  25 F :   -0.043895
  26 C :    0.028834
  27 F :   -0.041704
  28 C :   -0.213775
  29 S :    0.453134
  30 C :   -0.171287
  31 C :   -0.057780
  32 C :   -0.192713
  33 C :   -0.200260
  34 S :    0.412463
  35 C :   -0.055047
  36 C :   -0.169564
  37 S :    0.429934
  38 C :   -0.040776
  39 C :   -0.158392
  40 C :   -0.014206
  41 C :   -0.051048
  42 C :   -0.062944
  43 C :   -0.168846
  44 C :   -0.023205
  45 N :   -0.053712
  46 C :   -0.038928
  47 N :   -0.043434
  48 S :    0.422332
  49 C :    0.011097
  50 C :   -0.014710
  51 C :    0.002923
  52 C :   -0.014537
  53 H :    0.030715
  54 H :    0.035261
  55 H :    0.036072
  56 H :    0.041790
  57 H :    0.035630
  58 H :    0.025417
  59 H :    0.029950
  60 H :    0.037626
  61 H :    0.034548
  62 H :    0.042938
  63 H :    0.041764
  64 H :    0.036160
  65 H :    0.035093
  66 H :    0.030032

  Mayer bond orders larger than 0.100000
B(  0-C ,  1-C ) :   1.6256 B(  0-C ,  6-C ) :   1.0834 B(  0-C , 13-S ) :   1.1022
B(  1-C ,  2-C ) :   1.1331 B(  1-C ,  4-C ) :   1.1661 B(  2-C ,  3-N ) :   3.0332
B(  4-C ,  5-N ) :   2.9710 B(  6-C ,  7-C ) :   1.3187 B(  6-C , 11-C ) :   1.3416
B(  7-C ,  8-C ) :   1.3503 B(  7-C , 12-C ) :   1.0627 B(  8-C ,  9-C ) :   1.4157
B(  8-C , 53-H ) :   0.9895 B(  9-C , 10-C ) :   1.3430 B(  9-C , 54-H ) :   0.9868
B( 10-C , 11-C ) :   1.4164 B( 10-C , 55-H ) :   0.9878 B( 11-C , 56-H ) :   0.9807
B( 12-C , 13-S ) :   0.9926 B( 12-C , 14-C ) :   1.7109 B( 14-C , 15-C ) :   1.1516
B( 14-C , 57-H ) :   0.9405 B( 15-C , 16-C ) :   1.4905 B( 15-C , 19-S ) :   1.0877
B( 16-C , 17-C ) :   1.2910 B( 16-C , 58-H ) :   0.9804 B( 17-C , 18-C ) :   1.4150
B( 17-C , 22-S ) :   1.0594 B( 18-C , 19-S ) :   1.0766 B( 18-C , 20-C ) :   1.2649
B( 20-C , 21-C ) :   1.5011 B( 20-C , 59-H ) :   0.9978 B( 21-C , 22-S ) :   1.1086
B( 21-C , 23-C ) :   1.1742 B( 23-C , 24-C ) :   1.4601 B( 23-C , 28-C ) :   0.1320
B( 23-C , 29-S ) :   1.1043 B( 24-C , 25-F ) :   1.1563 B( 24-C , 26-C ) :   1.2150
B( 26-C , 27-F ) :   1.1447 B( 26-C , 28-C ) :   1.4851 B( 28-C , 29-S ) :   1.0976
B( 28-C , 30-C ) :   1.1345 B( 30-C , 31-C ) :   1.5372 B( 30-C , 34-S ) :   1.0895
B( 31-C , 32-C ) :   1.2404 B( 31-C , 60-H ) :   1.0036 B( 32-C , 33-C ) :   1.4056
B( 32-C , 37-S ) :   1.0824 B( 33-C , 34-S ) :   1.0623 B( 33-C , 35-C ) :   1.2671
B( 35-C , 36-C ) :   1.4585 B( 35-C , 61-H ) :   1.0102 B( 36-C , 37-S ) :   1.0835
B( 36-C , 38-C ) :   1.1803 B( 38-C , 39-C ) :   1.6602 B( 38-C , 62-H ) :   0.9620
B( 39-C , 40-C ) :   1.0595 B( 39-C , 48-S ) :   0.9873 B( 40-C , 41-C ) :   1.3244
B( 40-C , 52-C ) :   1.3531 B( 41-C , 42-C ) :   1.0767 B( 41-C , 49-C ) :   1.3410
B( 42-C , 43-C ) :   1.6310 B( 42-C , 48-S ) :   1.1071 B( 43-C , 44-C ) :   1.1677
B( 43-C , 46-C ) :   1.1348 B( 44-C , 45-N ) :   2.9701 B( 46-C , 47-N ) :   3.0320
B( 49-C , 50-C ) :   1.4158 B( 49-C , 63-H ) :   0.9812 B( 50-C , 51-C ) :   1.3456
B( 50-C , 64-H ) :   0.9869 B( 51-C , 52-C ) :   1.4138 B( 51-C , 65-H ) :   0.9860
B( 52-C , 66-H ) :   0.9900

-----------------------------------------------------------------------------
         ABSORPTION SPECTRUM VIA TRANSITION ELECTRIC DIPOLE MOMENTS
-----------------------------------------------------------------------------
State   Energy  Wavelength   fosc         T2         TX        TY        TZ
        (cm-1)    (nm)                  (au**2)     (au)      (au)      (au)
-----------------------------------------------------------------------------
   0   18231.7    548.5   3.058796926  55.23309   5.29874   4.45922   2.69663
   1   21604.3    462.9   0.140756490   2.14488   0.94028  -1.11956   0.08566
   2   25943.5    385.5   0.054962239   0.69745   0.48095  -0.63869   0.24129
   3   26555.2    376.6   0.066782636   0.82792   0.65198   0.56077   0.29728
   4   29274.1    341.6   0.258549846   2.90761  -1.15825  -1.10962  -0.57863
   5   30225.5    330.8   0.029504632   0.32136  -0.01815   0.14941  -0.54654
   6   31313.8    319.3   0.023178555   0.24368  -0.10489   0.30651  -0.37247
   7   31373.6    318.7   0.277237150   2.90912  -0.46932   1.17273  -1.14611
   8   32597.9    306.8   0.107350332   1.08415   0.47093   0.92632  -0.06563
   9   32751.3    305.3   0.006389926   0.06423  -0.19853  -0.09416  -0.12629
  10   33510.1    298.4   0.685739476   6.73689  -0.82781   1.72632  -1.75255
  11   34656.8    288.5   0.005220672   0.04959  -0.05623  -0.10474   0.18831
  12   35817.1    279.2   0.041111549   0.37788   0.42880   0.05079   0.43752
  13   36112.4    276.9   0.179339986   1.63492   0.23862  -0.86538   0.91055
  14   36338.8    275.2   0.058523094   0.53019  -0.57041  -0.23362  -0.38761
  15   36547.8    273.6   0.208519626   1.87828   0.30882  -1.09658   0.76186
  16   36950.6    270.6   0.007278839   0.06485  -0.01034  -0.23179   0.10495
  17   37735.5    265.0   0.004656673   0.04063   0.11816  -0.02704   0.16103
  18   38090.2    262.5   0.010587291   0.09151   0.00096  -0.19462   0.23158
  19   38585.4    259.2   0.005557987   0.04742  -0.08950  -0.19549   0.03457
  20   39880.2    250.8   0.115373501   0.95241   0.18533  -0.67222   0.68278

FINAL SINGLE POINT ENERGY     -4735.335834931813

DIPOLE MOMENT
-------------
                                X             Y             Z
Electronic contribution:      2.30274     -15.31308      21.81588
Nuclear contribution   :     -4.29678      20.00540     -25.69231
                        -----------------------------------------
Total Dipole Moment    :     -1.99404       4.69232      -3.87643
                        -----------------------------------------
Magnitude (a.u.)       :      6.40475
Magnitude (Debye)      :     16.27957

Rotational constants in cm-1:     0.005104     0.000271     0.000261
Rotational constants in MHz :   153.015644     8.138488     7.825354

                             ****ORCA TERMINATED NORMALLY****
TOTAL RUN TIME: 0 days 0 hours 4 minutes 38 seconds 308 msec
