                         Program Version 4.2.0 -  RELEASE  -
|  1> # ORCA input file
|  2> # SCF done       -191.962773577757          0.000701328780
|  3> ! CAM-B3LYP def2-SVP def2/J RIJCOSX Grid4 TightSCF
|  4> %maxcore 5000
|  5> %tddft
|  6>     Mode sTDDFT
|  7>     Ethresh 5.0
|  8>     maxcore 5000
|  9> end
| 10>
| 11> %pal
| 12>   nprocs 6
| 13>   end
| 14> * xyz 0 1
| 15>    C        4.11114        -1.41889        -4.55122
| 16>    C        3.45128        -2.60230        -4.76303
| 17>    C        3.45751        -3.61105        -3.77666
| 18>    N        3.46728        -4.42726        -2.97086
| 19>    C        2.72917        -2.93361        -5.92278
| 20>    N        2.12447        -3.26042        -6.84278
| 21>    C        4.23206        -0.27466        -5.41762
| 22>    C        4.99347         0.76381        -4.84248
| 23>    C        5.20566         1.94120        -5.55471
| 24>    C        4.66524         2.07583        -6.81796
| 25>    C        3.91360         1.05103        -7.38333
| 26>    C        3.69212        -0.12428        -6.69331
| 27>    C        5.47764         0.45925        -3.51886
| 28>    S        4.96146        -1.15406        -3.04540
| 29>    C        6.21333         1.27974        -2.72202
| 30>    C        6.68866         1.03694        -1.41688
| 31>    C        7.40193         1.95618        -0.65284
| 32>    C        7.72241         1.46017         0.60293
| 33>    C        7.25877         0.14335         0.80796
| 34>    S        6.42722        -0.47225        -0.54962
| 35>    C        7.61647        -0.26652         2.11291
| 36>    C        8.30131         0.79692         2.74035
| 37>    C        8.40039         1.90806         1.80899
| 38>    C        9.00783         3.11117         2.01729
| 39>    C        9.64479         3.42831         3.23590
| 40>    N       10.16586         3.68439         4.22441
| 41>    C        9.04411         4.11318         1.02493
| 42>    N        9.07093         4.92579         0.21638
| 43>    C        8.67696         0.50221         4.04479
| 44>    C        8.29058        -0.78023         4.40998
| 45>    S        7.45396        -1.63678         3.12380
| 46>    C        8.48704        -1.41770         5.64838
| 47>    C        8.13868        -2.73031         5.96517
| 48>    C        8.45460        -3.08729         7.31959
| 49>    N        8.22056        -4.31193         7.79390
| 50>    C        7.67972        -5.17869         6.97049
| 51>    C        7.44233        -6.58293         7.51497
| 52>    O        7.56338        -6.87996         8.67042
| 53>    C        6.83985        -7.30545         6.37967
| 54>    C        7.33776        -6.95581         5.14517
| 55>    C        6.53267        -5.80476         4.74954
| 56>    O        5.48894        -5.61152         4.21253
| 57>    C        7.30630        -4.79492         5.62548
| 58>    N        7.55954        -3.61151         5.13477
| 59>    C        9.03911        -2.04144         8.04231
| 60>    S        9.19490        -0.63408         7.03476
| 61>    C        9.43467        -2.10151         9.38810
| 62>    C        9.96861        -1.08112        10.16656
| 63>    C       10.24129        -1.51340        11.45630
| 64>    C        9.91663        -2.87392        11.65846
| 65>    S        9.26344        -3.61660        10.26314
| 66>    C       10.24714        -3.21351        12.98954
| 67>    C       10.77514        -2.07536        13.63475
| 68>    C       10.77838        -0.96770        12.69238
| 69>    C       11.18600         0.31264        12.92233
| 70>    C       11.13042         1.30531        11.92082
| 71>    N       11.08510         2.10531        11.10100
| 72>    C       11.67866         0.72845        14.17839
| 73>    N       12.07386         1.06634        15.19967
| 74>    C       11.14830        -2.31268        14.95249
| 75>    C       10.91557        -3.62816        15.33284
| 76>    S       10.21034        -4.57176        14.01817
| 77>    C       11.15865        -4.29984        16.55105
| 78>    C       11.71903        -3.81683        17.69306
| 79>    C       11.95430        -4.57642        18.89777
| 80>    C       12.56468        -3.83052        19.92715
| 81>    C       12.81728        -2.46332        19.54851
| 82>    C       13.39061        -1.45590        20.27996
| 83>    C       13.86095        -1.57755        21.59965
| 84>    N       14.26447        -1.61227        22.67436
| 85>    C       13.55906        -0.16468        19.73443
| 86>    N       13.70165         0.88610        19.29811
| 87>    S       12.27966        -2.16356        17.91234
| 88>    C       12.85967        -4.43130        21.14901
| 89>    C       12.54711        -5.76291        21.33767
| 90>    C       11.94438        -6.50041        20.32432
| 91>    C       11.64630        -5.91800        19.10863
| 92>    H        5.78719         2.74245        -5.12668
| 93>    H        4.82825         2.98718        -7.37272
| 94>    H        3.49834         1.17331        -8.37146
| 95>    H        3.10897        -0.91394        -7.13752
| 96>    H        6.46790         2.25472        -3.11634
| 97>    H        7.65770         2.93557        -1.01461
| 98>    H        9.20160         1.16214         4.71226
| 99>    H        5.78064        -7.50291         6.49763
|100>    H        8.41310        -6.85023         5.03559
|101>    H       10.13639        -0.08946         9.78615
|102>    H       11.56841        -1.56866        15.60259
|103>    H       10.86335        -5.34079        16.55951
|104>    H       13.32652        -3.86592        21.93840
|105>    H       12.77393        -6.23340        22.28158
|106>    H       11.70694        -7.54029        20.48921
|107>    H       11.17885        -6.50188        18.33154
|108> *
|109>
|110>                          ****END OF INPUT****

CARTESIAN COORDINATES (ANGSTROEM)
---------------------------------
  C      4.111140   -1.418890   -4.551220
  C      3.451280   -2.602300   -4.763030
  C      3.457510   -3.611050   -3.776660
  N      3.467280   -4.427260   -2.970860
  C      2.729170   -2.933610   -5.922780
  N      2.124470   -3.260420   -6.842780
  C      4.232060   -0.274660   -5.417620
  C      4.993470    0.763810   -4.842480
  C      5.205660    1.941200   -5.554710
  C      4.665240    2.075830   -6.817960
  C      3.913600    1.051030   -7.383330
  C      3.692120   -0.124280   -6.693310
  C      5.477640    0.459250   -3.518860
  S      4.961460   -1.154060   -3.045400
  C      6.213330    1.279740   -2.722020
  C      6.688660    1.036940   -1.416880
  C      7.401930    1.956180   -0.652840
  C      7.722410    1.460170    0.602930
  C      7.258770    0.143350    0.807960
  S      6.427220   -0.472250   -0.549620
  C      7.616470   -0.266520    2.112910
  C      8.301310    0.796920    2.740350
  C      8.400390    1.908060    1.808990
  C      9.007830    3.111170    2.017290
  C      9.644790    3.428310    3.235900
  N     10.165860    3.684390    4.224410
  C      9.044110    4.113180    1.024930
  N      9.070930    4.925790    0.216380
  C      8.676960    0.502210    4.044790
  C      8.290580   -0.780230    4.409980
  S      7.453960   -1.636780    3.123800
  C      8.487040   -1.417700    5.648380
  C      8.138680   -2.730310    5.965170
  C      8.454600   -3.087290    7.319590
  N      8.220560   -4.311930    7.793900
  C      7.679720   -5.178690    6.970490
  C      7.442330   -6.582930    7.514970
  O      7.563380   -6.879960    8.670420
  C      6.839850   -7.305450    6.379670
  C      7.337760   -6.955810    5.145170
  C      6.532670   -5.804760    4.749540
  O      5.488940   -5.611520    4.212530
  C      7.306300   -4.794920    5.625480
  N      7.559540   -3.611510    5.134770
  C      9.039110   -2.041440    8.042310
  S      9.194900   -0.634080    7.034760
  C      9.434670   -2.101510    9.388100
  C      9.968610   -1.081120   10.166560
  C     10.241290   -1.513400   11.456300
  C      9.916630   -2.873920   11.658460
  S      9.263440   -3.616600   10.263140
  C     10.247140   -3.213510   12.989540
  C     10.775140   -2.075360   13.634750
  C     10.778380   -0.967700   12.692380
  C     11.186000    0.312640   12.922330
  C     11.130420    1.305310   11.920820
  N     11.085100    2.105310   11.101000
  C     11.678660    0.728450   14.178390
  N     12.073860    1.066340   15.199670
  C     11.148300   -2.312680   14.952490
  C     10.915570   -3.628160   15.332840
  S     10.210340   -4.571760   14.018170
  C     11.158650   -4.299840   16.551050
  C     11.719030   -3.816830   17.693060
  C     11.954300   -4.576420   18.897770
  C     12.564680   -3.830520   19.927150
  C     12.817280   -2.463320   19.548510
  C     13.390610   -1.455900   20.279960
  C     13.860950   -1.577550   21.599650
  N     14.264470   -1.612270   22.674360
  C     13.559060   -0.164680   19.734430
  N     13.701650    0.886100   19.298110
  S     12.279660   -2.163560   17.912340
  C     12.859670   -4.431300   21.149010
  C     12.547110   -5.762910   21.337670
  C     11.944380   -6.500410   20.324320
  C     11.646300   -5.918000   19.108630
  H      5.787190    2.742450   -5.126680
  H      4.828250    2.987180   -7.372720
  H      3.498340    1.173310   -8.371460
  H      3.108970   -0.913940   -7.137520
  H      6.467900    2.254720   -3.116340
  H      7.657700    2.935570   -1.014610
  H      9.201600    1.162140    4.712260
  H      5.780640   -7.502910    6.497630
  H      8.413100   -6.850230    5.035590
  H     10.136390   -0.089460    9.786150
  H     11.568410   -1.568660   15.602590
  H     10.863350   -5.340790   16.559510
  H     13.326520   -3.865920   21.938400
  H     12.773930   -6.233400   22.281580
  H     11.706940   -7.540290   20.489210
  H     11.178850   -6.501880   18.331540

 Total Charge           Charge          ....    0
 Multiplicity           Mult            ....    1
 Number of Electrons    NEL             ....  562
 Basis Dimension        Dim             .... 1186

ORBITAL ENERGIES
----------------

  NO   OCC          E(Eh)            E(eV)
   0   2.0000     -89.011233     -2422.1188
   1   2.0000     -89.000144     -2421.8170
   2   2.0000     -88.998635     -2421.7760
   3   2.0000     -88.996563     -2421.7196
   4   2.0000     -88.996311     -2421.7127
   5   2.0000     -88.981999     -2421.3233
   6   2.0000     -88.979581     -2421.2575
   7   2.0000     -19.243888      -523.6528
   8   2.0000     -19.239224      -523.5259
   9   2.0000     -14.469402      -393.7324
  10   2.0000     -14.467485      -393.6803
  11   2.0000     -14.438123      -392.8813
  12   2.0000     -14.437427      -392.8624
  13   2.0000     -14.436161      -392.8279
  14   2.0000     -14.433278      -392.7495
  15   2.0000     -14.416940      -392.3049
  16   2.0000     -14.414842      -392.2478
  17   2.0000     -14.413946      -392.2234
  18   2.0000     -14.409069      -392.0907
  19   2.0000     -10.404469      -283.1200
  20   2.0000     -10.394370      -282.8452
  21   2.0000     -10.372639      -282.2538
  22   2.0000     -10.371699      -282.2283
  23   2.0000     -10.365542      -282.0607
  24   2.0000     -10.365136      -282.0497
  25   2.0000     -10.362132      -281.9679
  26   2.0000     -10.360099      -281.9126
  27   2.0000     -10.359996      -281.9098
  28   2.0000     -10.358151      -281.8596
  29   2.0000     -10.349746      -281.6309
  30   2.0000     -10.348464      -281.5960
  31   2.0000     -10.348167      -281.5879
  32   2.0000     -10.346156      -281.5332
  33   2.0000     -10.345700      -281.5208
  34   2.0000     -10.344192      -281.4798
  35   2.0000     -10.342380      -281.4305
  36   2.0000     -10.342103      -281.4229
  37   2.0000     -10.340212      -281.3715
  38   2.0000     -10.340131      -281.3693
  39   2.0000     -10.338349      -281.3208
  40   2.0000     -10.338186      -281.3163
  41   2.0000     -10.337516      -281.2981
  42   2.0000     -10.337397      -281.2949
  43   2.0000     -10.336097      -281.2595
  44   2.0000     -10.336058      -281.2584
  45   2.0000     -10.336048      -281.2582
  46   2.0000     -10.335585      -281.2456
  47   2.0000     -10.335209      -281.2353
  48   2.0000     -10.332544      -281.1628
  49   2.0000     -10.322537      -280.8905
  50   2.0000     -10.320397      -280.8323
  51   2.0000     -10.320089      -280.8239
  52   2.0000     -10.319065      -280.7960
  53   2.0000     -10.318188      -280.7722
  54   2.0000     -10.317395      -280.7506
  55   2.0000     -10.316131      -280.7162
  56   2.0000     -10.315279      -280.6930
  57   2.0000     -10.314924      -280.6834
  58   2.0000     -10.313994      -280.6580
  59   2.0000     -10.313875      -280.6548
  60   2.0000     -10.313714      -280.6504
  61   2.0000     -10.313271      -280.6384
  62   2.0000     -10.313169      -280.6356
  63   2.0000     -10.312758      -280.6244
  64   2.0000     -10.312730      -280.6236
  65   2.0000     -10.312469      -280.6165
  66   2.0000     -10.312397      -280.6146
  67   2.0000     -10.311521      -280.5907
  68   2.0000     -10.309746      -280.5424
  69   2.0000     -10.302659      -280.3496
  70   2.0000     -10.302106      -280.3346
  71   2.0000     -10.302056      -280.3332
  72   2.0000     -10.301556      -280.3196
  73   2.0000     -10.301140      -280.3083
  74   2.0000     -10.300053      -280.2787
  75   2.0000     -10.295884      -280.1652
  76   2.0000     -10.295095      -280.1438
  77   2.0000      -8.105204      -220.5538
  78   2.0000      -8.094353      -220.2585
  79   2.0000      -8.093334      -220.2308
  80   2.0000      -8.089941      -220.1385
  81   2.0000      -8.089630      -220.1300
  82   2.0000      -8.077585      -219.8023
  83   2.0000      -8.074645      -219.7223
  84   2.0000      -6.074373      -165.2921
  85   2.0000      -6.070207      -165.1787
  86   2.0000      -6.067789      -165.1129
  87   2.0000      -6.063618      -164.9994
  88   2.0000      -6.062526      -164.9697
  89   2.0000      -6.059370      -164.8838
  90   2.0000      -6.059326      -164.8826
  91   2.0000      -6.059066      -164.8756
  92   2.0000      -6.058414      -164.8578
  93   2.0000      -6.056771      -164.8131
  94   2.0000      -6.055740      -164.7851
  95   2.0000      -6.054876      -164.7615
  96   2.0000      -6.054556      -164.7528
  97   2.0000      -6.052260      -164.6904
  98   2.0000      -6.051907      -164.6808
  99   2.0000      -6.047382      -164.5576
 100   2.0000      -6.044441      -164.4776
 101   2.0000      -6.043104      -164.4412
 102   2.0000      -6.040176      -164.3615
 103   2.0000      -6.038559      -164.3176
 104   2.0000      -6.035700      -164.2397
 105   2.0000      -1.166826       -31.7509
 106   2.0000      -1.157186       -31.4886
 107   2.0000      -1.119876       -30.4734
 108   2.0000      -1.054026       -28.6815
 109   2.0000      -1.053268       -28.6609
 110   2.0000      -1.047550       -28.5053
 111   2.0000      -1.031612       -28.0716
 112   2.0000      -1.030072       -28.0297
 113   2.0000      -1.028827       -27.9958
 114   2.0000      -1.027443       -27.9581
 115   2.0000      -1.024228       -27.8707
 116   2.0000      -1.015421       -27.6310
 117   2.0000      -1.012289       -27.5458
 118   2.0000      -1.008576       -27.4447
 119   2.0000      -1.005767       -27.3683
 120   2.0000      -1.003056       -27.2945
 121   2.0000      -0.998941       -27.1826
 122   2.0000      -0.993642       -27.0384
 123   2.0000      -0.989474       -26.9249
 124   2.0000      -0.976347       -26.5678
 125   2.0000      -0.970192       -26.4003
 126   2.0000      -0.965005       -26.2591
 127   2.0000      -0.957527       -26.0556
 128   2.0000      -0.956036       -26.0151
 129   2.0000      -0.938975       -25.5508
 130   2.0000      -0.937121       -25.5003
 131   2.0000      -0.924178       -25.1482
 132   2.0000      -0.915927       -24.9236
 133   2.0000      -0.891714       -24.2648
 134   2.0000      -0.886177       -24.1141
 135   2.0000      -0.883539       -24.0423
 136   2.0000      -0.881094       -23.9758
 137   2.0000      -0.874176       -23.7875
 138   2.0000      -0.872032       -23.7292
 139   2.0000      -0.865608       -23.5544
 140   2.0000      -0.864952       -23.5366
 141   2.0000      -0.859452       -23.3869
 142   2.0000      -0.856669       -23.3111
 143   2.0000      -0.853529       -23.2257
 144   2.0000      -0.852904       -23.2087
 145   2.0000      -0.826194       -22.4819
 146   2.0000      -0.817570       -22.2472
 147   2.0000      -0.797602       -21.7039
 148   2.0000      -0.792654       -21.5692
 149   2.0000      -0.788525       -21.4569
 150   2.0000      -0.784550       -21.3487
 151   2.0000      -0.774968       -21.0879
 152   2.0000      -0.767376       -20.8814
 153   2.0000      -0.741900       -20.1881
 154   2.0000      -0.741231       -20.1699
 155   2.0000      -0.733221       -19.9519
 156   2.0000      -0.731224       -19.8976
 157   2.0000      -0.714892       -19.4532
 158   2.0000      -0.713472       -19.4146
 159   2.0000      -0.707534       -19.2530
 160   2.0000      -0.707330       -19.2474
 161   2.0000      -0.701227       -19.0814
 162   2.0000      -0.696637       -18.9565
 163   2.0000      -0.691069       -18.8049
 164   2.0000      -0.688338       -18.7306
 165   2.0000      -0.682604       -18.5746
 166   2.0000      -0.674066       -18.3423
 167   2.0000      -0.670132       -18.2352
 168   2.0000      -0.664309       -18.0768
 169   2.0000      -0.660032       -17.9604
 170   2.0000      -0.650936       -17.7129
 171   2.0000      -0.643473       -17.5098
 172   2.0000      -0.641947       -17.4683
 173   2.0000      -0.640527       -17.4296
 174   2.0000      -0.639912       -17.4129
 175   2.0000      -0.633523       -17.2390
 176   2.0000      -0.627036       -17.0625
 177   2.0000      -0.624663       -16.9980
 178   2.0000      -0.620581       -16.8869
 179   2.0000      -0.614227       -16.7140
 180   2.0000      -0.605636       -16.4802
 181   2.0000      -0.594848       -16.1866
 182   2.0000      -0.588423       -16.0118
 183   2.0000      -0.582607       -15.8535
 184   2.0000      -0.581153       -15.8140
 185   2.0000      -0.576545       -15.6886
 186   2.0000      -0.574351       -15.6289
 187   2.0000      -0.572386       -15.5754
 188   2.0000      -0.571855       -15.5610
 189   2.0000      -0.559804       -15.2330
 190   2.0000      -0.555796       -15.1240
 191   2.0000      -0.555160       -15.1067
 192   2.0000      -0.554341       -15.0844
 193   2.0000      -0.553001       -15.0479
 194   2.0000      -0.550364       -14.9762
 195   2.0000      -0.543126       -14.7792
 196   2.0000      -0.541402       -14.7323
 197   2.0000      -0.540919       -14.7192
 198   2.0000      -0.537954       -14.6385
 199   2.0000      -0.536783       -14.6066
 200   2.0000      -0.534368       -14.5409
 201   2.0000      -0.532998       -14.5036
 202   2.0000      -0.531763       -14.4700
 203   2.0000      -0.529384       -14.4053
 204   2.0000      -0.523202       -14.2370
 205   2.0000      -0.517300       -14.0764
 206   2.0000      -0.515005       -14.0140
 207   2.0000      -0.514482       -13.9998
 208   2.0000      -0.512610       -13.9488
 209   2.0000      -0.509534       -13.8651
 210   2.0000      -0.507003       -13.7963
 211   2.0000      -0.504292       -13.7225
 212   2.0000      -0.503370       -13.6974
 213   2.0000      -0.500987       -13.6326
 214   2.0000      -0.496446       -13.5090
 215   2.0000      -0.494791       -13.4640
 216   2.0000      -0.491565       -13.3762
 217   2.0000      -0.489549       -13.3213
 218   2.0000      -0.486954       -13.2507
 219   2.0000      -0.481494       -13.1021
 220   2.0000      -0.480056       -13.0630
 221   2.0000      -0.469981       -12.7888
 222   2.0000      -0.468791       -12.7564
 223   2.0000      -0.468623       -12.7519
 224   2.0000      -0.467769       -12.7286
 225   2.0000      -0.465580       -12.6691
 226   2.0000      -0.464680       -12.6446
 227   2.0000      -0.463698       -12.6179
 228   2.0000      -0.461753       -12.5649
 229   2.0000      -0.459975       -12.5165
 230   2.0000      -0.459756       -12.5106
 231   2.0000      -0.457408       -12.4467
 232   2.0000      -0.457261       -12.4427
 233   2.0000      -0.453843       -12.3497
 234   2.0000      -0.453254       -12.3337
 235   2.0000      -0.450769       -12.2660
 236   2.0000      -0.448462       -12.2033
 237   2.0000      -0.446726       -12.1560
 238   2.0000      -0.446625       -12.1533
 239   2.0000      -0.446197       -12.1416
 240   2.0000      -0.445331       -12.1181
 241   2.0000      -0.445213       -12.1149
 242   2.0000      -0.444001       -12.0819
 243   2.0000      -0.443295       -12.0627
 244   2.0000      -0.442830       -12.0500
 245   2.0000      -0.441077       -12.0023
 246   2.0000      -0.436654       -11.8819
 247   2.0000      -0.434906       -11.8344
 248   2.0000      -0.432674       -11.7736
 249   2.0000      -0.430889       -11.7251
 250   2.0000      -0.428303       -11.6547
 251   2.0000      -0.425948       -11.5906
 252   2.0000      -0.422585       -11.4991
 253   2.0000      -0.419855       -11.4248
 254   2.0000      -0.419726       -11.4213
 255   2.0000      -0.418193       -11.3796
 256   2.0000      -0.414068       -11.2674
 257   2.0000      -0.411024       -11.1845
 258   2.0000      -0.409040       -11.1305
 259   2.0000      -0.407204       -11.0806
 260   2.0000      -0.406762       -11.0686
 261   2.0000      -0.396051       -10.7771
 262   2.0000      -0.384699       -10.4682
 263   2.0000      -0.381080       -10.3697
 264   2.0000      -0.374252       -10.1839
 265   2.0000      -0.365105        -9.9350
 266   2.0000      -0.360876        -9.8199
 267   2.0000      -0.357450        -9.7267
 268   2.0000      -0.354784        -9.6542
 269   2.0000      -0.346216        -9.4210
 270   2.0000      -0.345086        -9.3903
 271   2.0000      -0.338944        -9.2231
 272   2.0000      -0.337684        -9.1888
 273   2.0000      -0.331493        -9.0204
 274   2.0000      -0.330090        -8.9822
 275   2.0000      -0.328854        -8.9486
 276   2.0000      -0.325072        -8.8457
 277   2.0000      -0.314316        -8.5530
 278   2.0000      -0.289777        -7.8852
 279   2.0000      -0.265649        -7.2287
 280   2.0000      -0.239829        -6.5261
 281   0.0000      -0.131101        -3.5674
 282   0.0000      -0.113433        -3.0867
 283   0.0000      -0.107471        -2.9244
 284   0.0000      -0.085997        -2.3401
 285   0.0000      -0.084966        -2.3120

MULLIKEN ATOMIC CHARGES
-----------------------
   0 C :    0.095156
   1 C :   -0.289304
   2 C :   -0.207335
   3 N :    0.155522
   4 C :   -0.174944
   5 N :    0.155671
   6 C :    0.042273
   7 C :    0.152637
   8 C :   -0.057151
   9 C :    0.051980
  10 C :    0.032250
  11 C :   -0.025166
  12 C :   -0.042527
  13 S :    0.102199
  14 C :   -0.027137
  15 C :   -0.060630
  16 C :   -0.048696
  17 C :    0.032587
  18 C :   -0.088130
  19 S :    0.180738
  20 C :   -0.085279
  21 C :    0.031164
  22 C :    0.299846
  23 C :   -0.297734
  24 C :   -0.191039
  25 N :    0.179289
  26 C :   -0.184205
  27 N :    0.173374
  28 C :   -0.086921
  29 C :   -0.069492
  30 S :    0.237149
  31 C :   -0.130579
  32 C :    0.033835
  33 C :    0.022756
  34 N :    0.028898
  35 C :   -0.139377
  36 C :    0.153185
  37 O :   -0.101464
  38 C :   -0.081719
  39 C :    0.003248
  40 C :    0.148444
  41 O :   -0.113696
  42 C :   -0.140973
  43 N :    0.016804
  44 C :   -0.118110
  45 S :    0.230577
  46 C :   -0.074679
  47 C :   -0.079251
  48 C :    0.030934
  49 C :   -0.088476
  50 S :    0.241807
  51 C :   -0.095792
  52 C :   -0.003429
  53 C :    0.303564
  54 C :   -0.293299
  55 C :   -0.189284
  56 N :    0.178256
  57 C :   -0.189489
  58 N :    0.190379
  59 C :   -0.040374
  60 C :   -0.102043
  61 S :    0.193706
  62 C :    0.015857
  63 C :   -0.035342
  64 C :    0.149849
  65 C :    0.037673
  66 C :    0.097370
  67 C :   -0.286511
  68 C :   -0.174734
  69 N :    0.156356
  70 C :   -0.208854
  71 N :    0.168324
  72 S :    0.110297
  73 C :   -0.023465
  74 C :    0.032619
  75 C :    0.050125
  76 C :   -0.056675
  77 H :   -0.014938
  78 H :    0.000983
  79 H :    0.001202
  80 H :    0.008513
  81 H :    0.001236
  82 H :    0.008908
  83 H :    0.012402
  84 H :    0.077553
  85 H :    0.067827
  86 H :    0.012258
  87 H :    0.031817
  88 H :   -0.014404
  89 H :    0.008672
  90 H :    0.000857
  91 H :   -0.000282
  92 H :   -0.016001
Sum of atomic charges:   -0.0000000

LOEWDIN ATOMIC CHARGES
----------------------
   0 C :   -0.061588
   1 C :   -0.165784
   2 C :   -0.039539
   3 N :   -0.041154
   4 C :   -0.023089
   5 N :   -0.050399
   6 C :   -0.051536
   7 C :   -0.014763
   8 C :   -0.012683
   9 C :    0.005275
  10 C :   -0.012764
  11 C :    0.011498
  12 C :   -0.158536
  13 S :    0.416729
  14 C :   -0.042101
  15 C :   -0.173409
  16 C :   -0.017481
  17 C :   -0.069768
  18 C :   -0.175195
  19 S :    0.481889
  20 C :   -0.182408
  21 C :   -0.066108
  22 C :    0.081131
  23 C :   -0.100551
  24 C :   -0.017516
  25 N :   -0.028462
  26 C :   -0.015777
  27 N :   -0.032293
  28 C :   -0.031893
  29 C :   -0.179432
  30 S :    0.519393
  31 C :   -0.195988
  32 C :   -0.049693
  33 C :   -0.054390
  34 N :   -0.007808
  35 C :   -0.044543
  36 C :    0.059756
  37 O :   -0.094254
  38 C :   -0.040529
  39 C :   -0.020215
  40 C :    0.080784
  41 O :   -0.088665
  42 C :   -0.022171
  43 N :   -0.029972
  44 C :   -0.184999
  45 S :    0.521778
  46 C :   -0.183019
  47 C :   -0.025143
  48 C :   -0.065708
  49 C :   -0.179492
  50 S :    0.525559
  51 C :   -0.178215
  52 C :   -0.062594
  53 C :    0.076753
  54 C :   -0.094888
  55 C :   -0.016231
  56 N :   -0.028067
  57 C :   -0.021896
  58 N :   -0.015641
  59 C :   -0.031423
  60 C :   -0.166648
  61 S :    0.481689
  62 C :   -0.055373
  63 C :   -0.145404
  64 C :   -0.016075
  65 C :   -0.049725
  66 C :   -0.064365
  67 C :   -0.161657
  68 C :   -0.022336
  69 N :   -0.050414
  70 C :   -0.041894
  71 N :   -0.030054
  72 S :    0.445104
  73 C :    0.011335
  74 C :   -0.012357
  75 C :    0.003536
  76 C :   -0.013311
  77 H :    0.031632
  78 H :    0.036257
  79 H :    0.036693
  80 H :    0.041943
  81 H :    0.046518
  82 H :    0.042056
  83 H :    0.037491
  84 H :    0.051521
  85 H :    0.035868
  86 H :    0.038322
  87 H :    0.028940
  88 H :    0.035157
  89 H :    0.042102
  90 H :    0.036520
  91 H :    0.035676
  92 H :    0.030481

  Mayer bond orders larger than 0.100000
B(  0-C ,  1-C ) :   1.6380 B(  0-C ,  6-C ) :   1.0787 B(  0-C , 13-S ) :   1.1017
B(  1-C ,  2-C ) :   1.1287 B(  1-C ,  4-C ) :   1.1678 B(  2-C ,  3-N ) :   3.0338
B(  4-C ,  5-N ) :   2.9703 B(  6-C ,  7-C ) :   1.3205 B(  6-C , 11-C ) :   1.3421
B(  7-C ,  8-C ) :   1.3502 B(  7-C , 12-C ) :   1.0640 B(  8-C ,  9-C ) :   1.4142
B(  8-C , 77-H ) :   0.9913 B(  9-C , 10-C ) :   1.3448 B(  9-C , 78-H ) :   0.9862
B( 10-C , 11-C ) :   1.4148 B( 10-C , 79-H ) :   0.9871 B( 11-C , 80-H ) :   0.9813
B( 12-C , 13-S ) :   0.9897 B( 12-C , 14-C ) :   1.6466 B( 14-C , 15-C ) :   1.1839
B( 14-C , 81-H ) :   0.9630 B( 15-C , 16-C ) :   1.3970 B( 15-C , 19-S ) :   1.0833
B( 16-C , 17-C ) :   1.3046 B( 16-C , 82-H ) :   1.0049 B( 17-C , 18-C ) :   1.4061
B( 17-C , 22-C ) :   0.9894 B( 18-C , 19-S ) :   1.1397 B( 18-C , 20-C ) :   1.2060
B( 20-C , 21-C ) :   1.4045 B( 20-C , 30-S ) :   1.0988 B( 21-C , 22-C ) :   0.9969
B( 21-C , 28-C ) :   1.3201 B( 22-C , 23-C ) :   1.7182 B( 23-C , 24-C ) :   1.1347
B( 23-C , 26-C ) :   1.1311 B( 24-C , 25-N ) :   2.9939 B( 26-C , 27-N ) :   2.9925
B( 28-C , 29-C ) :   1.3983 B( 28-C , 83-H ) :   0.9927 B( 29-C , 30-S ) :   1.1156
B( 29-C , 31-C ) :   1.2283 B( 31-C , 32-C ) :   1.3509 B( 31-C , 44-C ) :   0.1198
B( 31-C , 45-S ) :   1.1440 B( 32-C , 33-C ) :   1.1809 B( 32-C , 43-N ) :   1.3923
B( 33-C , 34-N ) :   1.4265 B( 33-C , 44-C ) :   1.3129 B( 34-N , 35-C ) :   1.6745
B( 35-C , 36-C ) :   0.8637 B( 35-C , 42-C ) :   1.1043 B( 36-C , 37-O ) :   2.2613
B( 36-C , 38-C ) :   1.0073 B( 38-C , 39-C ) :   1.7204 B( 38-C , 40-C ) :   0.1324
B( 38-C , 84-H ) :   0.9432 B( 39-C , 40-C ) :   0.9578 B( 39-C , 85-H ) :   0.9522
B( 40-C , 41-O ) :   2.2554 B( 40-C , 42-C ) :   0.8119 B( 42-C , 43-N ) :   1.7126
B( 44-C , 45-S ) :   1.1668 B( 44-C , 46-C ) :   1.2445 B( 46-C , 47-C ) :   1.3832
B( 46-C , 50-S ) :   1.1111 B( 47-C , 48-C ) :   1.3283 B( 47-C , 86-H ) :   0.9939
B( 48-C , 49-C ) :   1.4038 B( 48-C , 53-C ) :   0.9917 B( 49-C , 50-S ) :   1.1000
B( 49-C , 51-C ) :   1.2101 B( 51-C , 52-C ) :   1.4168 B( 51-C , 61-S ) :   1.1290
B( 52-C , 53-C ) :   0.9994 B( 52-C , 59-C ) :   1.3388 B( 53-C , 54-C ) :   1.7164
B( 54-C , 55-C ) :   1.1347 B( 54-C , 57-C ) :   1.1334 B( 55-C , 56-N ) :   2.9932
B( 57-C , 58-N ) :   2.9852 B( 59-C , 60-C ) :   1.4258 B( 59-C , 87-H ) :   0.9700
B( 60-C , 61-S ) :   1.1000 B( 60-C , 62-C ) :   1.1501 B( 62-C , 63-C ) :   1.7021
B( 62-C , 88-H ) :   0.9402 B( 63-C , 64-C ) :   1.0615 B( 63-C , 72-S ) :   1.0017
B( 64-C , 65-C ) :   1.3222 B( 64-C , 76-C ) :   1.3506 B( 65-C , 66-C ) :   1.0804
B( 65-C , 73-C ) :   1.3432 B( 66-C , 67-C ) :   1.6347 B( 66-C , 72-S ) :   1.0977
B( 67-C , 68-C ) :   1.1690 B( 67-C , 70-C ) :   1.1300 B( 68-C , 69-N ) :   2.9690
B( 70-C , 71-N ) :   3.0342 B( 73-C , 74-C ) :   1.4148 B( 73-C , 89-H ) :   0.9803
B( 74-C , 75-C ) :   1.3470 B( 74-C , 90-H ) :   0.9868 B( 75-C , 76-C ) :   1.4142
B( 75-C , 91-H ) :   0.9863 B( 76-C , 92-H ) :   0.9892

-----------------------------------------------------------------------------
         ABSORPTION SPECTRUM VIA TRANSITION ELECTRIC DIPOLE MOMENTS
-----------------------------------------------------------------------------
State   Energy  Wavelength   fosc         T2         TX        TY        TZ
        (cm-1)    (nm)                  (au**2)     (au)      (au)      (au)
-----------------------------------------------------------------------------
   0    8617.5   1160.4   0.817517028  31.23141  -1.65169   0.64661  -5.29955
   1   11366.8    879.8   0.004345971   0.12587   0.17842  -0.13097   0.27728
   2   12243.3    816.8   0.008079248   0.21724   0.18725  -0.01795   0.42645
   3   16939.8    590.3   0.021444882   0.41676  -0.19236  -0.41595  -0.45470
   4   19421.3    514.9   1.233997726  20.91759  -1.52773   0.38677  -4.29349
   5   20382.0    490.6   0.868436581  14.02703  -1.58037  -0.46971  -3.36286
   6   20550.6    486.6   0.151069547   2.42007  -0.50789  -0.16733  -1.46086
   7   20704.0    483.0   0.012217988   0.19428   0.39705  -0.00924   0.19115
   8   21890.2    456.8   0.063454048   0.95430   0.26194   0.82702  -0.44914
   9   22861.1    437.4   0.013960663   0.20104  -0.21993  -0.22979  -0.31602
  10   24330.9    411.0   0.027774721   0.37581   0.31239   0.48306   0.21182
  11   24628.9    406.0   0.223409969   2.98630  -0.57348  -1.57356   0.42584
  12   25618.6    390.3   0.001589486   0.02043   0.12523   0.05342  -0.04345
  13   26367.6    379.3   0.127152151   1.58755   0.54817   1.09570   0.29412
  14   26835.4    372.6   0.001829146   0.02244  -0.08786  -0.11932  -0.02200
  15   27518.4    363.4   0.006200226   0.07418   0.07431   0.12628  -0.22958
  16   28226.3    354.3   0.090987339   1.06121   0.45763   0.89852   0.21084
  17   28538.4    350.4   0.191437418   2.20837   0.78841   0.87887   0.90243
  18   28942.9    345.5   0.114482986   1.30219   0.35952   0.32593   1.03281
  19   29152.7    343.0   0.001342610   0.01516   0.06728  -0.02772   0.09933
  20   29256.3    341.8   0.215662581   2.42678   0.71772   1.37551   0.14013
  21   29401.4    340.1   0.220751755   2.47179  -0.52061   0.24254  -1.46353
  22   30370.0    329.3   0.078036017   0.84591   0.00519  -0.72715   0.56315
  23   30752.9    325.2   0.147925900   1.58356   0.20306  -0.37747   1.18315
  24   31479.0    317.7   0.181050626   1.89345   0.28966   1.22214  -0.56207
  25   31727.2    315.2   0.026052920   0.27033  -0.03264  -0.29305  -0.42824
  26   31805.3    314.4   0.031365688   0.32466   0.32791   0.06681   0.46117
  27   32158.0    311.0   0.519735452   5.32071   0.62251   2.19296  -0.35229
  28   32371.0    308.9   0.349693377   3.55637  -0.86152  -1.51966  -0.71049
  29   32467.1    308.0   0.023554759   0.23884  -0.11809   0.40861  -0.24070
  30   32698.2    305.8   0.002693796   0.02712  -0.01127  -0.14139  -0.08368
  31   33054.1    302.5   0.150643271   1.50037  -0.48408  -0.80962  -0.78138
  32   33265.5    300.6   0.033081886   0.32739   0.28282   0.21523   0.44842
  33   33645.7    297.2   0.238163090   2.33035  -0.70135  -1.18780  -0.65391
  34   33730.4    296.5   0.276605753   2.69970   0.39014   1.56011  -0.33697
  35   33838.4    295.5   0.087464893   0.85094  -0.31113  -0.52698  -0.69024
  36   33986.9    294.2   0.130420634   1.26331   0.15247  -0.42576   1.02898
  37   34058.0    293.6   0.219107767   2.11794   0.19437   1.26988  -0.68380
  38   34315.7    291.4   0.279126317   2.67783   0.57356   1.49689   0.32892
  39   34543.1    289.5   0.030200594   0.28783   0.36285   0.32439   0.22568
  40   34610.6    288.9   0.049555347   0.47136   0.20277   0.65433  -0.04581
  41   34729.1    287.9   0.001674562   0.01587   0.09998  -0.07623   0.00824
  42   34897.6    286.6   0.106678620   1.00637  -0.30479  -0.95094   0.09581
  43   35256.3    283.6   0.329657790   3.07824  -0.57906  -1.64015  -0.22984
  44   35600.6    280.9   0.000551266   0.00510   0.06872   0.01936  -0.00076
  45   36083.2    277.1   0.087175136   0.79536   0.26234  -0.20176   0.82815
  46   36143.0    276.7   0.060640226   0.55235  -0.21657   0.16899  -0.69057
  47   36507.4    273.9   0.002519311   0.02272  -0.09055   0.00949  -0.12012
  48   36583.1    273.4   0.240194170   2.16151   0.30650   1.40901  -0.28681
  49   36746.9    272.1   0.222125891   1.99000   0.30883   1.31690  -0.40049
  50   37087.1    269.6   0.041222204   0.36592   0.25546   0.11337   0.53648
  51   37100.4    269.5   0.004106226   0.03644  -0.04536  -0.08930  -0.16250
  52   37273.3    268.3   0.052024647   0.45950   0.15791   0.64704  -0.12609
  53   37592.2    266.0   0.055325497   0.48451  -0.00069  -0.46121   0.52134
  54   37937.5    263.6   0.032580847   0.28273  -0.20804  -0.43773  -0.21873
  55   37994.7    263.2   0.003590295   0.03111   0.03913   0.16899   0.03195
  56   38013.3    263.1   0.130849168   1.13321   0.26543   1.02540  -0.10638
  57   38097.4    262.5   0.015629396   0.13506  -0.14398  -0.28483  -0.18222
  58   38445.6    260.1   0.009804673   0.08396  -0.00823  -0.26903   0.10730
  59   38615.9    259.0   0.079509599   0.67784   0.09821   0.65435  -0.48992
  60   38711.9    258.3   0.038599740   0.32826   0.24594   0.03553   0.51624
  61   38789.7    257.8   0.031438642   0.26682   0.06891   0.44549  -0.25222
  62   39108.6    255.7   0.003366550   0.02834  -0.02479  -0.15752  -0.05395
  63   39504.7    253.1   0.130805400   1.09006  -0.10074  -0.88605   0.54299
  64   39653.7    252.2   0.008381688   0.06959  -0.03795  -0.23601   0.11156
  65   39704.6    251.9   0.001840804   0.01526   0.01616   0.08339  -0.08971
  66   39797.3    251.3   0.044519879   0.36828  -0.11326   0.34638  -0.48525
  67   40089.0    249.4   0.008706449   0.07150   0.12504   0.16809   0.16616
  68   40308.8    248.1   0.027064226   0.22104  -0.12826  -0.43941   0.10726

FINAL SINGLE POINT ENERGY     -5700.242129503869

DIPOLE MOMENT
-------------
                                X             Y             Z
Electronic contribution:      1.83639       3.36231       2.39164
Nuclear contribution   :     -2.21627      -5.60311      -3.99195
                        -----------------------------------------
Total Dipole Moment    :     -0.37988      -2.24080      -1.60032
                        -----------------------------------------
Magnitude (a.u.)       :      2.77966
Magnitude (Debye)      :      7.06533

Rotational constants in cm-1:     0.001967     0.000189     0.000173
Rotational constants in MHz :    58.967645     5.662824     5.178066

                             ****ORCA TERMINATED NORMALLY****
TOTAL RUN TIME: 0 days 0 hours 17 minutes 42 seconds 912 msec
