                         Program Version 4.2.0 -  RELEASE  -
|  1> # ORCA input file
|  2> # SCF done       -164.194566496130          0.000923909806
|  3> ! CAM-B3LYP def2-SVP def2/J RIJCOSX Grid4 TightSCF
|  4> %maxcore 5000
|  5> %tddft
|  6>     Mode sTDDFT
|  7>     Ethresh 5.0
|  8>     maxcore 5000
|  9> end
| 10>
| 11> %pal
| 12>   nprocs 6
| 13>   end
| 14> * xyz 0 1
| 15>    C       -0.19028        -2.05309        -0.49323
| 16>    C       -0.52381        -0.82025         0.00822
| 17>    C        0.48141         0.04106         0.49483
| 18>    N        1.31193         0.72464         0.89424
| 19>    C       -1.82745        -0.30339         0.09827
| 20>    N       -2.86824         0.17187         0.19886
| 21>    C       -1.04714        -3.08826        -1.01433
| 22>    C       -0.33180        -4.22945        -1.43020
| 23>    C       -1.01493        -5.32388        -1.95198
| 24>    C       -2.39056        -5.27271        -2.06120
| 25>    C       -3.09524        -4.14427        -1.65520
| 26>    C       -2.43498        -3.05016        -1.13192
| 27>    C        1.09585        -4.11546        -1.25078
| 28>    S        1.48380        -2.54554        -0.54520
| 29>    C        2.03387        -5.00663        -1.64730
| 30>    C        3.45065        -4.91740        -1.54396
| 31>    C        4.36219        -4.41011        -0.66079
| 32>    C        5.69862        -4.56772        -1.22743
| 33>    N        5.59493        -5.18644        -2.43569
| 34>    C        4.25670        -5.48981        -2.67075
| 35>    O        3.85558        -6.10770        -3.62630
| 36>    C        6.65311        -5.60940        -3.31297
| 37>    C        6.62648        -4.12466        -0.33524
| 38>    C        5.85363        -3.68639         0.86887
| 39>    O        6.25567        -3.21625         1.89973
| 40>    N        4.49697        -3.89785         0.59285
| 41>    C        3.50430        -3.70672         1.61924
| 42>    C        8.04092        -3.97214        -0.43462
| 43>    C        8.98180        -4.05245         0.57084
| 44>    F        8.72516        -4.45310         1.81621
| 45>    C       10.28322        -3.75868         0.13926
| 46>    F       11.33053        -3.83474         0.96943
| 47>    C       10.38341        -3.43334        -1.20004
| 48>    S        8.80821        -3.55537        -1.93822
| 49>    C       11.47065        -3.05407        -2.03536
| 50>    C       12.76438        -2.62755        -1.90693
| 51>    C       13.30633        -2.36889        -3.23975
| 52>    N       12.35472        -2.69737        -4.16681
| 53>    C       11.21319        -3.09482        -3.50419
| 54>    O       10.18622        -3.44258        -4.04770
| 55>    C       12.46807        -2.81439        -5.59887
| 56>    C       14.59680        -1.94357        -3.12854
| 57>    C       14.90166        -1.98617        -1.66166
| 58>    O       15.94971        -1.72634        -1.12180
| 59>    N       13.74131        -2.35308        -0.99249
| 60>    C       13.69768        -2.39105         0.44547
| 61>    C       15.62825        -1.47149        -3.98895
| 62>    C       15.52955        -0.70085        -5.09672
| 63>    C       16.62383        -0.19767        -5.89386
| 64>    C       16.21733         0.66390        -6.93267
| 65>    C       14.78859         0.84976        -6.97528
| 66>    C       14.03365         1.58888        -7.84965
| 67>    C       14.53853         2.35975        -8.91111
| 68>    N       14.89096         3.00499        -9.79320
| 69>    C       12.62817         1.60417        -7.72978
| 70>    N       11.48576         1.59107        -7.62317
| 71>    S       14.00550        -0.04877        -5.69850
| 72>    C       17.16395         1.23257        -7.78211
| 73>    C       18.49975         0.93707        -7.59296
| 74>    C       18.90136         0.08347        -6.57102
| 75>    C       17.97390        -0.48667        -5.72108
| 76>    H       -0.47584        -6.20232        -2.26962
| 77>    H       -2.92469        -6.11825        -2.46700
| 78>    H       -4.16982        -4.12104        -1.74855
| 79>    H       -2.98729        -2.17947        -0.81899
| 80>    H        1.70017        -5.85129        -2.23868
| 81>    H        7.35303        -6.25787        -2.78434
| 82>    H        7.19646        -4.75219        -3.71391
| 83>    H        6.18817        -6.16220        -4.12896
| 84>    H        3.96808        -3.94031         2.57863
| 85>    H        2.66014        -4.37010         1.44507
| 86>    H        3.16572        -2.66976         1.64903
| 87>    H       12.03617        -1.94527        -6.09744
| 88>    H       11.90912        -3.69812        -5.91017
| 89>    H       13.51377        -2.92310        -5.87623
| 90>    H       14.61378        -1.92119         0.80256
| 91>    H       13.65762        -3.41685         0.81167
| 92>    H       12.83454        -1.84142         0.81726
| 93>    H       16.62309        -1.66146        -3.60310
| 94>    H       16.85992         1.89474        -8.57594
| 95>    H       19.23776         1.37497        -8.24675
| 96>    H       19.94993        -0.13530        -6.43905
| 97>    H       18.29414        -1.14610        -4.93011
| 98> *
| 99>
|100>                          ****END OF INPUT****

CARTESIAN COORDINATES (ANGSTROEM)
---------------------------------
  C     -0.190280   -2.053090   -0.493230
  C     -0.523810   -0.820250    0.008220
  C      0.481410    0.041060    0.494830
  N      1.311930    0.724640    0.894240
  C     -1.827450   -0.303390    0.098270
  N     -2.868240    0.171870    0.198860
  C     -1.047140   -3.088260   -1.014330
  C     -0.331800   -4.229450   -1.430200
  C     -1.014930   -5.323880   -1.951980
  C     -2.390560   -5.272710   -2.061200
  C     -3.095240   -4.144270   -1.655200
  C     -2.434980   -3.050160   -1.131920
  C      1.095850   -4.115460   -1.250780
  S      1.483800   -2.545540   -0.545200
  C      2.033870   -5.006630   -1.647300
  C      3.450650   -4.917400   -1.543960
  C      4.362190   -4.410110   -0.660790
  C      5.698620   -4.567720   -1.227430
  N      5.594930   -5.186440   -2.435690
  C      4.256700   -5.489810   -2.670750
  O      3.855580   -6.107700   -3.626300
  C      6.653110   -5.609400   -3.312970
  C      6.626480   -4.124660   -0.335240
  C      5.853630   -3.686390    0.868870
  O      6.255670   -3.216250    1.899730
  N      4.496970   -3.897850    0.592850
  C      3.504300   -3.706720    1.619240
  C      8.040920   -3.972140   -0.434620
  C      8.981800   -4.052450    0.570840
  F      8.725160   -4.453100    1.816210
  C     10.283220   -3.758680    0.139260
  F     11.330530   -3.834740    0.969430
  C     10.383410   -3.433340   -1.200040
  S      8.808210   -3.555370   -1.938220
  C     11.470650   -3.054070   -2.035360
  C     12.764380   -2.627550   -1.906930
  C     13.306330   -2.368890   -3.239750
  N     12.354720   -2.697370   -4.166810
  C     11.213190   -3.094820   -3.504190
  O     10.186220   -3.442580   -4.047700
  C     12.468070   -2.814390   -5.598870
  C     14.596800   -1.943570   -3.128540
  C     14.901660   -1.986170   -1.661660
  O     15.949710   -1.726340   -1.121800
  N     13.741310   -2.353080   -0.992490
  C     13.697680   -2.391050    0.445470
  C     15.628250   -1.471490   -3.988950
  C     15.529550   -0.700850   -5.096720
  C     16.623830   -0.197670   -5.893860
  C     16.217330    0.663900   -6.932670
  C     14.788590    0.849760   -6.975280
  C     14.033650    1.588880   -7.849650
  C     14.538530    2.359750   -8.911110
  N     14.890960    3.004990   -9.793200
  C     12.628170    1.604170   -7.729780
  N     11.485760    1.591070   -7.623170
  S     14.005500   -0.048770   -5.698500
  C     17.163950    1.232570   -7.782110
  C     18.499750    0.937070   -7.592960
  C     18.901360    0.083470   -6.571020
  C     17.973900   -0.486670   -5.721080
  H     -0.475840   -6.202320   -2.269620
  H     -2.924690   -6.118250   -2.467000
  H     -4.169820   -4.121040   -1.748550
  H     -2.987290   -2.179470   -0.818990
  H      1.700170   -5.851290   -2.238680
  H      7.353030   -6.257870   -2.784340
  H      7.196460   -4.752190   -3.713910
  H      6.188170   -6.162200   -4.128960
  H      3.968080   -3.940310    2.578630
  H      2.660140   -4.370100    1.445070
  H      3.165720   -2.669760    1.649030
  H     12.036170   -1.945270   -6.097440
  H     11.909120   -3.698120   -5.910170
  H     13.513770   -2.923100   -5.876230
  H     14.613780   -1.921190    0.802560
  H     13.657620   -3.416850    0.811670
  H     12.834540   -1.841420    0.817260
  H     16.623090   -1.661460   -3.603100
  H     16.859920    1.894740   -8.575940
  H     19.237760    1.374970   -8.246750
  H     19.949930   -0.135300   -6.439050
  H     18.294140   -1.146100   -4.930110

 Total Charge           Charge          ....    0
 Multiplicity           Mult            ....    1
 Number of Electrons    NEL             ....  440
 Basis Dimension        Dim             ....  976

ORBITAL ENERGIES
----------------

  NO   OCC          E(Eh)            E(eV)
   0   2.0000     -88.982388     -2421.3339
   1   2.0000     -88.975160     -2421.1372
   2   2.0000     -88.973222     -2421.0845
   3   2.0000     -24.808459      -675.0725
   4   2.0000     -24.790324      -674.5790
   5   2.0000     -19.232290      -523.3372
   6   2.0000     -19.222932      -523.0826
   7   2.0000     -19.217598      -522.9374
   8   2.0000     -19.215926      -522.8919
   9   2.0000     -14.484344      -394.1390
  10   2.0000     -14.477433      -393.9510
  11   2.0000     -14.472895      -393.8275
  12   2.0000     -14.472538      -393.8178
  13   2.0000     -14.418282      -392.3414
  14   2.0000     -14.416764      -392.3001
  15   2.0000     -14.412019      -392.1710
  16   2.0000     -14.410082      -392.1183
  17   2.0000     -10.408286      -283.2239
  18   2.0000     -10.400827      -283.0209
  19   2.0000     -10.396257      -282.8965
  20   2.0000     -10.395548      -282.8772
  21   2.0000     -10.375787      -282.3395
  22   2.0000     -10.369519      -282.1690
  23   2.0000     -10.367660      -282.1184
  24   2.0000     -10.363390      -282.0022
  25   2.0000     -10.360975      -281.9365
  26   2.0000     -10.359161      -281.8871
  27   2.0000     -10.356728      -281.8209
  28   2.0000     -10.349931      -281.6359
  29   2.0000     -10.347533      -281.5707
  30   2.0000     -10.340255      -281.3726
  31   2.0000     -10.339129      -281.3420
  32   2.0000     -10.330553      -281.1086
  33   2.0000     -10.328801      -281.0610
  34   2.0000     -10.324004      -280.9304
  35   2.0000     -10.321782      -280.8700
  36   2.0000     -10.320977      -280.8481
  37   2.0000     -10.318753      -280.7875
  38   2.0000     -10.318453      -280.7794
  39   2.0000     -10.318222      -280.7731
  40   2.0000     -10.317155      -280.7440
  41   2.0000     -10.316584      -280.7285
  42   2.0000     -10.315822      -280.7078
  43   2.0000     -10.315009      -280.6857
  44   2.0000     -10.313026      -280.6317
  45   2.0000     -10.312785      -280.6252
  46   2.0000     -10.312760      -280.6245
  47   2.0000     -10.312117      -280.6070
  48   2.0000     -10.311722      -280.5962
  49   2.0000     -10.310502      -280.5630
  50   2.0000     -10.310060      -280.5510
  51   2.0000     -10.309802      -280.5440
  52   2.0000     -10.306028      -280.4413
  53   2.0000     -10.303802      -280.3807
  54   2.0000     -10.303368      -280.3689
  55   2.0000     -10.303254      -280.3658
  56   2.0000     -10.298147      -280.2268
  57   2.0000     -10.297935      -280.2211
  58   2.0000     -10.297445      -280.2077
  59   2.0000     -10.297297      -280.2037
  60   2.0000     -10.292190      -280.0647
  61   2.0000      -8.077886      -219.8105
  62   2.0000      -8.070669      -219.6141
  63   2.0000      -8.066803      -219.5089
  64   2.0000      -6.047647      -164.5648
  65   2.0000      -6.043464      -164.4510
  66   2.0000      -6.040433      -164.3685
  67   2.0000      -6.038852      -164.3255
  68   2.0000      -6.036480      -164.2610
  69   2.0000      -6.036234      -164.2543
  70   2.0000      -6.032177      -164.1439
  71   2.0000      -6.031635      -164.1291
  72   2.0000      -6.028283      -164.0379
  73   2.0000      -1.323880       -36.0246
  74   2.0000      -1.303716       -35.4759
  75   2.0000      -1.173785       -31.9403
  76   2.0000      -1.161556       -31.6076
  77   2.0000      -1.160745       -31.5855
  78   2.0000      -1.153347       -31.3842
  79   2.0000      -1.103878       -30.0380
  80   2.0000      -1.095143       -29.8004
  81   2.0000      -1.071061       -29.1451
  82   2.0000      -1.062584       -28.9144
  83   2.0000      -1.032360       -28.0919
  84   2.0000      -1.025592       -27.9078
  85   2.0000      -1.007821       -27.4242
  86   2.0000      -1.006140       -27.3784
  87   2.0000      -1.001383       -27.2490
  88   2.0000      -0.995849       -27.0984
  89   2.0000      -0.989446       -26.9242
  90   2.0000      -0.960580       -26.1387
  91   2.0000      -0.954197       -25.9650
  92   2.0000      -0.949402       -25.8345
  93   2.0000      -0.942212       -25.6389
  94   2.0000      -0.941607       -25.6224
  95   2.0000      -0.928325       -25.2610
  96   2.0000      -0.920207       -25.0401
  97   2.0000      -0.912476       -24.8297
  98   2.0000      -0.879870       -23.9425
  99   2.0000      -0.873791       -23.7771
 100   2.0000      -0.864672       -23.5289
 101   2.0000      -0.857750       -23.3406
 102   2.0000      -0.855592       -23.2819
 103   2.0000      -0.850478       -23.1427
 104   2.0000      -0.847057       -23.0496
 105   2.0000      -0.841887       -22.9089
 106   2.0000      -0.823808       -22.4170
 107   2.0000      -0.813170       -22.1275
 108   2.0000      -0.799547       -21.7568
 109   2.0000      -0.788505       -21.4563
 110   2.0000      -0.784569       -21.3492
 111   2.0000      -0.777057       -21.1448
 112   2.0000      -0.760635       -20.6979
 113   2.0000      -0.749792       -20.4029
 114   2.0000      -0.735011       -20.0007
 115   2.0000      -0.728937       -19.8354
 116   2.0000      -0.726285       -19.7632
 117   2.0000      -0.720156       -19.5964
 118   2.0000      -0.710358       -19.3298
 119   2.0000      -0.703818       -19.1518
 120   2.0000      -0.702997       -19.1295
 121   2.0000      -0.699152       -19.0249
 122   2.0000      -0.691655       -18.8209
 123   2.0000      -0.680329       -18.5127
 124   2.0000      -0.673687       -18.3320
 125   2.0000      -0.663588       -18.0571
 126   2.0000      -0.657358       -17.8876
 127   2.0000      -0.645987       -17.5782
 128   2.0000      -0.640470       -17.4281
 129   2.0000      -0.637132       -17.3372
 130   2.0000      -0.635142       -17.2831
 131   2.0000      -0.629182       -17.1209
 132   2.0000      -0.623260       -16.9598
 133   2.0000      -0.616606       -16.7787
 134   2.0000      -0.607803       -16.5392
 135   2.0000      -0.604638       -16.4530
 136   2.0000      -0.602628       -16.3983
 137   2.0000      -0.596722       -16.2376
 138   2.0000      -0.594141       -16.1674
 139   2.0000      -0.585591       -15.9347
 140   2.0000      -0.581572       -15.8254
 141   2.0000      -0.577463       -15.7136
 142   2.0000      -0.576052       -15.6752
 143   2.0000      -0.571271       -15.5451
 144   2.0000      -0.570606       -15.5270
 145   2.0000      -0.568356       -15.4658
 146   2.0000      -0.567218       -15.4348
 147   2.0000      -0.562856       -15.3161
 148   2.0000      -0.562330       -15.3018
 149   2.0000      -0.556913       -15.1544
 150   2.0000      -0.548111       -14.9149
 151   2.0000      -0.542810       -14.7706
 152   2.0000      -0.542080       -14.7507
 153   2.0000      -0.540664       -14.7122
 154   2.0000      -0.538669       -14.6579
 155   2.0000      -0.535841       -14.5810
 156   2.0000      -0.534971       -14.5573
 157   2.0000      -0.532866       -14.5000
 158   2.0000      -0.530739       -14.4421
 159   2.0000      -0.523986       -14.2584
 160   2.0000      -0.520596       -14.1661
 161   2.0000      -0.517659       -14.0862
 162   2.0000      -0.515446       -14.0260
 163   2.0000      -0.513154       -13.9636
 164   2.0000      -0.508212       -13.8292
 165   2.0000      -0.507404       -13.8072
 166   2.0000      -0.505290       -13.7496
 167   2.0000      -0.498917       -13.5762
 168   2.0000      -0.496920       -13.5219
 169   2.0000      -0.494289       -13.4503
 170   2.0000      -0.491964       -13.3870
 171   2.0000      -0.488995       -13.3062
 172   2.0000      -0.487278       -13.2595
 173   2.0000      -0.485999       -13.2247
 174   2.0000      -0.483580       -13.1589
 175   2.0000      -0.476601       -12.9690
 176   2.0000      -0.474000       -12.8982
 177   2.0000      -0.468664       -12.7530
 178   2.0000      -0.463700       -12.6179
 179   2.0000      -0.462780       -12.5929
 180   2.0000      -0.459760       -12.5107
 181   2.0000      -0.457388       -12.4462
 182   2.0000      -0.456096       -12.4110
 183   2.0000      -0.453812       -12.3489
 184   2.0000      -0.450380       -12.2555
 185   2.0000      -0.447253       -12.1704
 186   2.0000      -0.446958       -12.1623
 187   2.0000      -0.444942       -12.1075
 188   2.0000      -0.444240       -12.0884
 189   2.0000      -0.443362       -12.0645
 190   2.0000      -0.442526       -12.0418
 191   2.0000      -0.438826       -11.9411
 192   2.0000      -0.437535       -11.9059
 193   2.0000      -0.436283       -11.8719
 194   2.0000      -0.429253       -11.6806
 195   2.0000      -0.423165       -11.5149
 196   2.0000      -0.422985       -11.5100
 197   2.0000      -0.417791       -11.3687
 198   2.0000      -0.416705       -11.3391
 199   2.0000      -0.413408       -11.2494
 200   2.0000      -0.410453       -11.1690
 201   2.0000      -0.407040       -11.0761
 202   2.0000      -0.404568       -11.0089
 203   2.0000      -0.396587       -10.7917
 204   2.0000      -0.377469       -10.2715
 205   2.0000      -0.374241       -10.1836
 206   2.0000      -0.369022       -10.0416
 207   2.0000      -0.361654        -9.8411
 208   2.0000      -0.354608        -9.6494
 209   2.0000      -0.352354        -9.5880
 210   2.0000      -0.348005        -9.4697
 211   2.0000      -0.346126        -9.4186
 212   2.0000      -0.341539        -9.2938
 213   2.0000      -0.327084        -8.9004
 214   2.0000      -0.321594        -8.7510
 215   2.0000      -0.319637        -8.6978
 216   2.0000      -0.316886        -8.6229
 217   2.0000      -0.279234        -7.5983
 218   2.0000      -0.270245        -7.3537
 219   2.0000      -0.263879        -7.1805
 220   0.0000      -0.102916        -2.8005
 221   0.0000      -0.089166        -2.4263
 222   0.0000      -0.069055        -1.8791
 223   0.0000      -0.057885        -1.5751
 224   0.0000      -0.025586        -0.6962

MULLIKEN ATOMIC CHARGES
-----------------------
   0 C :    0.068530
   1 C :   -0.283844
   2 C :   -0.212031
   3 N :    0.149432
   4 C :   -0.170606
   5 N :    0.151670
   6 C :    0.041744
   7 C :    0.146706
   8 C :   -0.046926
   9 C :    0.051764
  10 C :    0.029359
  11 C :   -0.024559
  12 C :   -0.047154
  13 S :    0.123434
  14 C :   -0.052688
  15 C :   -0.182800
  16 C :    0.178068
  17 C :    0.130094
  18 N :   -0.229235
  19 C :    0.158658
  20 O :   -0.168610
  21 C :    0.112262
  22 C :   -0.080384
  23 C :    0.148550
  24 O :   -0.138551
  25 N :   -0.244013
  26 C :    0.137552
  27 C :   -0.212482
  28 C :    0.222804
  29 F :   -0.156982
  30 C :    0.173921
  31 F :   -0.173727
  32 C :   -0.180416
  33 S :    0.183884
  34 C :   -0.044494
  35 C :    0.133686
  36 C :    0.171944
  37 N :   -0.228402
  38 C :    0.149647
  39 O :   -0.196115
  40 C :    0.138950
  41 C :   -0.180715
  42 C :    0.158517
  43 O :   -0.167640
  44 N :   -0.235111
  45 C :    0.124814
  46 C :   -0.060143
  47 C :   -0.043074
  48 C :    0.148003
  49 C :    0.042478
  50 C :    0.066157
  51 C :   -0.276861
  52 C :   -0.171149
  53 N :    0.155636
  54 C :   -0.210451
  55 N :    0.147836
  56 S :    0.122737
  57 C :   -0.025127
  58 C :    0.032943
  59 C :    0.051007
  60 C :   -0.047274
  61 H :   -0.010063
  62 H :    0.000058
  63 H :    0.002004
  64 H :    0.007354
  65 H :    0.016789
  66 H :    0.039744
  67 H :    0.064248
  68 H :    0.056058
  69 H :    0.050586
  70 H :    0.034360
  71 H :    0.060886
  72 H :    0.064057
  73 H :    0.048693
  74 H :    0.037711
  75 H :    0.052717
  76 H :    0.046378
  77 H :    0.041220
  78 H :    0.019068
  79 H :    0.009318
  80 H :    0.003039
  81 H :    0.002445
  82 H :   -0.007891
Sum of atomic charges:   -0.0000000

LOEWDIN ATOMIC CHARGES
----------------------
   0 C :   -0.063007
   1 C :   -0.171885
   2 C :   -0.039597
   3 N :   -0.045227
   4 C :   -0.023616
   5 N :   -0.053660
   6 C :   -0.050846
   7 C :   -0.015282
   8 C :   -0.009217
   9 C :    0.004385
  10 C :   -0.012746
  11 C :    0.010093
  12 C :   -0.148575
  13 S :    0.444041
  14 C :   -0.019171
  15 C :   -0.128279
  16 C :    0.058535
  17 C :    0.049652
  18 N :   -0.017196
  19 C :    0.098782
  20 O :   -0.164054
  21 C :    0.029315
  22 C :   -0.121014
  23 C :    0.098859
  24 O :   -0.139113
  25 N :   -0.018791
  26 C :    0.028009
  27 C :   -0.209817
  28 C :    0.025255
  29 F :   -0.038880
  30 C :    0.023387
  31 F :   -0.040873
  32 C :   -0.202888
  33 S :    0.510410
  34 C :   -0.116974
  35 C :    0.049782
  36 C :    0.055568
  37 N :   -0.013086
  38 C :    0.095695
  39 O :   -0.176746
  40 C :    0.030175
  41 C :   -0.117037
  42 C :    0.096918
  43 O :   -0.161650
  44 N :   -0.015573
  45 C :    0.033825
  46 C :   -0.023014
  47 C :   -0.143568
  48 C :   -0.016373
  49 C :   -0.050015
  50 C :   -0.062594
  51 C :   -0.168673
  52 C :   -0.023960
  53 N :   -0.049685
  54 C :   -0.039315
  55 N :   -0.043465
  56 S :    0.443678
  57 C :    0.010636
  58 C :   -0.010206
  59 C :    0.005557
  60 C :   -0.007613
  61 H :    0.033770
  62 H :    0.035841
  63 H :    0.036547
  64 H :    0.041716
  65 H :    0.045097
  66 H :    0.028179
  67 H :    0.025385
  68 H :    0.040978
  69 H :    0.038783
  70 H :    0.028434
  71 H :    0.027070
  72 H :    0.028431
  73 H :    0.037927
  74 H :    0.030172
  75 H :    0.039035
  76 H :    0.026810
  77 H :    0.029780
  78 H :    0.046037
  79 H :    0.042216
  80 H :    0.037271
  81 H :    0.036709
  82 H :    0.034529

  Mayer bond orders larger than 0.100000
B(  0-C ,  1-C ) :   1.6224 B(  0-C ,  6-C ) :   1.0785 B(  0-C , 13-S ) :   1.1154
B(  1-C ,  2-C ) :   1.1325 B(  1-C ,  4-C ) :   1.1676 B(  2-C ,  3-N ) :   3.0251
B(  4-C ,  5-N ) :   2.9693 B(  6-C ,  7-C ) :   1.3235 B(  6-C , 11-C ) :   1.3405
B(  7-C ,  8-C ) :   1.3590 B(  7-C , 12-C ) :   1.0464 B(  8-C ,  9-C ) :   1.4089
B(  8-C , 61-H ) :   0.9893 B(  9-C , 10-C ) :   1.3449 B(  9-C , 62-H ) :   0.9865
B( 10-C , 11-C ) :   1.4151 B( 10-C , 63-H ) :   0.9879 B( 11-C , 64-H ) :   0.9815
B( 12-C , 13-S ) :   0.9895 B( 12-C , 14-C ) :   1.7433 B( 14-C , 15-C ) :   1.1160
B( 14-C , 65-H ) :   0.9297 B( 15-C , 16-C ) :   1.5070 B( 15-C , 19-C ) :   0.9274
B( 16-C , 17-C ) :   1.0478 B( 16-C , 25-N ) :   1.1862 B( 17-C , 18-N ) :   1.1641
B( 17-C , 22-C ) :   1.5914 B( 18-N , 19-C ) :   1.0420 B( 18-N , 21-C ) :   0.9441
B( 19-C , 20-O ) :   2.1712 B( 21-C , 66-H ) :   0.9749 B( 21-C , 67-H ) :   0.9680
B( 21-C , 68-H ) :   0.9547 B( 22-C , 23-C ) :   0.9195 B( 22-C , 27-C ) :   1.0732
B( 23-C , 24-O ) :   2.2144 B( 23-C , 25-N ) :   1.0181 B( 25-N , 26-C ) :   0.9419
B( 26-C , 69-H ) :   0.9580 B( 26-C , 70-H ) :   0.9725 B( 26-C , 71-H ) :   0.9709
B( 27-C , 28-C ) :   1.4861 B( 27-C , 32-C ) :   0.1409 B( 27-C , 33-S ) :   1.0763
B( 28-C , 29-F ) :   1.1871 B( 28-C , 30-C ) :   1.2114 B( 30-C , 31-F ) :   1.1503
B( 30-C , 32-C ) :   1.4420 B( 32-C , 33-S ) :   1.1300 B( 32-C , 34-C ) :   1.1101
B( 34-C , 35-C ) :   1.5529 B( 34-C , 38-C ) :   0.9286 B( 35-C , 36-C ) :   1.0618
B( 35-C , 44-N ) :   1.1644 B( 36-C , 37-N ) :   1.1503 B( 36-C , 41-C ) :   1.5266
B( 37-N , 38-C ) :   1.0746 B( 37-N , 40-C ) :   0.9370 B( 38-C , 39-O ) :   2.0764
B( 40-C , 72-H ) :   0.9708 B( 40-C , 73-H ) :   0.9597 B( 40-C , 74-H ) :   0.9725
B( 41-C , 42-C ) :   0.9207 B( 41-C , 46-C ) :   1.1108 B( 42-C , 43-O ) :   2.1679
B( 42-C , 44-N ) :   1.0467 B( 44-N , 45-C ) :   0.9469 B( 45-C , 75-H ) :   0.9549
B( 45-C , 76-H ) :   0.9738 B( 45-C , 77-H ) :   0.9743 B( 46-C , 47-C ) :   1.7470
B( 46-C , 78-H ) :   0.9285 B( 47-C , 48-C ) :   1.0443 B( 47-C , 56-S ) :   0.9926
B( 48-C , 49-C ) :   1.3263 B( 48-C , 60-C ) :   1.3579 B( 49-C , 50-C ) :   1.0773
B( 49-C , 57-C ) :   1.3422 B( 50-C , 51-C ) :   1.6292 B( 50-C , 56-S ) :   1.1102
B( 51-C , 52-C ) :   1.1656 B( 51-C , 54-C ) :   1.1305 B( 52-C , 53-N ) :   2.9713
B( 54-C , 55-N ) :   3.0226 B( 57-C , 58-C ) :   1.4133 B( 57-C , 79-H ) :   0.9820
B( 58-C , 59-C ) :   1.3479 B( 58-C , 80-H ) :   0.9872 B( 59-C , 60-C ) :   1.4068
B( 59-C , 81-H ) :   0.9873 B( 60-C , 82-H ) :   0.9907

-----------------------------------------------------------------------------
         ABSORPTION SPECTRUM VIA TRANSITION ELECTRIC DIPOLE MOMENTS
-----------------------------------------------------------------------------
State   Energy  Wavelength   fosc         T2         TX        TY        TZ
        (cm-1)    (nm)                  (au**2)     (au)      (au)      (au)
-----------------------------------------------------------------------------
   0   18930.8    528.2   0.667677498  11.61108   3.26467   0.82989  -0.51409
   1   20891.3    478.7   0.219298837   3.45578   0.30649   1.56184  -0.96047
   2   20958.3    477.1   0.641925668  10.08333  -2.85894  -0.62991   1.23004
   3   22865.5    437.3   0.402135067   5.78985   1.51992  -1.35341   1.28373
   4   26583.2    376.2   0.139745602   1.73064  -0.81239   0.98799   0.30749
   5   27726.9    360.7   0.175676110   2.08587  -0.51302   0.84624  -1.05193
   6   28457.0    351.4   0.060864847   0.70413  -0.18064  -0.77609  -0.26302
   7   29258.9    341.8   0.077205146   0.86869  -0.72474  -0.49469   0.31421
   8   29603.3    337.8   0.011888750   0.13221  -0.35274   0.06139   0.06339
   9   30309.5    329.9   0.159519569   1.73265   0.87807  -0.79743   0.57073
  10   30843.9    324.2   0.007815362   0.08342   0.28176  -0.00414  -0.06332
  11   31731.5    315.1   0.090415232   0.93805  -0.81431  -0.12708  -0.50872
  12   31920.2    313.3   0.234320374   2.41669  -0.98586  -0.91759  -0.77639
  13   32912.3    303.8   0.019514193   0.19519  -0.39604  -0.10560   0.16491
  14   33202.4    301.2   0.077406168   0.76750  -0.37683  -0.68729  -0.39132
  15   33441.9    299.0   0.135313773   1.33207   1.09975  -0.34168  -0.07665
  16   33698.7    296.7   0.021646220   0.21147  -0.16157  -0.41435  -0.11695
  17   34581.5    289.2   0.030598245   0.29129  -0.50088  -0.01598   0.20040
  18   34644.3    288.6   0.110593821   1.05093   0.80867  -0.44439   0.44665
  19   35018.3    285.6   0.063506372   0.59703  -0.01154   0.76153   0.13027
  20   35688.7    280.2   0.028022134   0.25849  -0.23761   0.33035   0.30480
  21   35890.8    278.6   0.100149467   0.91863   0.63637  -0.44104  -0.56494
  22   36208.5    276.2   0.545696676   4.96154  -1.74012  -1.02844  -0.93586
  23   37237.3    268.5   0.032028813   0.28316  -0.53118  -0.01641  -0.02732
  24   37568.4    266.2   0.027993715   0.24531  -0.32950  -0.31141  -0.19940
  25   37803.8    264.5   0.140117298   1.22020  -1.01769  -0.33470   0.26923
  26   38152.7    262.1   0.016712307   0.14421   0.32161  -0.15537  -0.12898
  27   39301.9    254.4   0.084857234   0.71080   0.80075   0.17924   0.19360
  28   39362.2    254.1   0.110536696   0.92449   0.75066  -0.36420  -0.47786
  29   39594.8    252.6   0.134222455   1.11600   0.47552   0.91103   0.24473
  30   40180.2    248.9   0.063079779   0.51684   0.52475   0.27541   0.40697
  31   40248.7    248.5   0.262798073   2.14954  -1.12894   0.14768  -0.92370

FINAL SINGLE POINT ENERGY     -3819.458499390656

DIPOLE MOMENT
-------------
                                X             Y             Z
Electronic contribution:     -1.56118       8.28336      12.66837
Nuclear contribution   :      4.13001     -12.29225     -13.04472
                        -----------------------------------------
Total Dipole Moment    :      2.56884      -4.00889      -0.37635
                        -----------------------------------------
Magnitude (a.u.)       :      4.77616
Magnitude (Debye)      :     12.14004

Rotational constants in cm-1:     0.002283     0.000413     0.000382
Rotational constants in MHz :    68.452789    12.369807    11.445279

                             ****ORCA TERMINATED NORMALLY****
TOTAL RUN TIME: 0 days 0 hours 7 minutes 14 seconds 963 msec
