                         Program Version 4.2.0 -  RELEASE  -
|  1> # ORCA input file
|  2> # SCF done       -142.260001307187          0.000901476216
|  3> ! CAM-B3LYP def2-SVP def2/J RIJCOSX Grid4 TightSCF
|  4> %maxcore 5000
|  5> %tddft
|  6>     Mode sTDDFT
|  7>     Ethresh 5.0
|  8>     maxcore 5000
|  9> end
| 10>
| 11> %pal
| 12>   nprocs 6
| 13>   end
| 14> * xyz 0 1
| 15>    C       -4.69884        -0.73420         1.65094
| 16>    S       -5.71369        -2.01371         1.07031
| 17>    C       -4.33724        -3.03341         0.83468
| 18>    O       -4.43557        -4.27787         0.36342
| 19>    C       -3.14943        -2.40927         1.18912
| 20>    C       -3.39755        -1.08011         1.65718
| 21>    C       -1.89102        -3.06557         1.07333
| 22>    C       -0.68597        -2.53477         1.40222
| 23>    C        0.51430        -3.27046         1.24697
| 24>    N        0.52519        -4.50977         0.76557
| 25>    C        1.81149        -4.89253         0.75303
| 26>    C        2.69631        -3.83177         1.25966
| 27>    C        4.09512        -4.27709         1.23522
| 28>    O        5.09093        -3.66626         1.57857
| 29>    C        3.99448        -5.64128         0.69518
| 30>    C        2.58779        -5.97918         0.41421
| 31>    N        2.48634        -7.23469        -0.08157
| 32>    C        3.71940        -7.68653        -0.12345
| 33>    C        4.70894        -6.74557         0.34615
| 34>    C        1.87524        -2.77801         1.58543
| 35>    C        2.18564        -1.50170         2.12254
| 36>    C        3.45615        -1.11844         2.40749
| 37>    C        3.83246         0.13516         2.94748
| 38>    N        5.15943         0.41490         3.19196
| 39>    C        5.25413         1.66756         3.70646
| 40>    C        6.13465         2.62739         4.17986
| 41>    C        5.34864         3.73474         4.55089
| 42>    N        4.01743         3.44742         4.30446
| 43>    C        3.93316         2.19660         3.78961
| 44>    C        3.04752         1.23987         3.31467
| 45>    C        5.80266         4.95086         5.09115
| 46>    C        5.02015         6.00716         5.46429
| 47>    C        5.57025         7.18866         6.00083
| 48>    N        6.88595         7.34613         6.16021
| 49>    C        7.04906         8.56635         6.68666
| 50>    C        5.76020         9.24961         6.88586
| 51>    C        5.97204        10.58333         7.46398
| 52>    O        5.14199        11.42153         7.76132
| 53>    C        7.43578        10.65323         7.59446
| 54>    C        8.05543         9.40883         7.11194
| 55>    N        9.40237         9.46569         7.22917
| 56>    C        9.64997        10.65004         7.74538
| 57>    C        8.47109        11.44071         7.99803
| 58>    C        4.79639         8.37518         6.44831
| 59>    C        3.38064         8.49682         6.40705
| 60>    C        2.71772         9.59420         6.84359
| 61>    C        1.30485         9.74572         6.82503
| 62>    S        0.60327        11.22036         7.46198
| 63>    C       -0.99199        10.65337         7.11198
| 64>    O       -2.08676        11.38322         7.38636
| 65>    C       -0.99823         9.39757         6.53295
| 66>    C        0.31649         8.90392         6.38102
| 67>    C       -2.22932         8.73229         6.15766
| 68>    C       -2.31972         7.54431         5.57102
| 69>    H       -5.15385         0.18959         1.94607
| 70>    H       -5.34937        -4.52379         0.17569
| 71>    H       -2.61848        -0.41671         1.98285
| 72>    H       -1.90762        -4.07604         0.68921
| 73>    H       -0.61274        -1.53096         1.79320
| 74>    H        3.92047        -8.67999        -0.48544
| 75>    H        5.76581        -6.92059         0.39208
| 76>    H        1.36653        -0.82159         2.30622
| 77>    H        4.26232        -1.81474         2.21302
| 78>    H        5.91122        -0.22847         3.00814
| 79>    H        7.20105         2.57526         4.26417
| 80>    H        3.25382         4.07606         4.47927
| 81>    H        1.98154         1.30792         3.23705
| 82>    H        6.86895         5.05960         5.22739
| 83>    H        3.94514         5.96353         5.36057
| 84>    H       10.66372        10.95284         7.94351
| 85>    H        8.45711        12.42882         8.41430
| 86>    H        2.82243         7.66110         6.00881
| 87>    H        3.28495        10.42486         7.24301
| 88>    H       -1.84726        12.22459         7.79263
| 89>    H        0.52680         7.94270         5.95120
| 90>    H       -3.12429         9.29248         6.39249
| 91>    H       -1.45374         6.95760         5.31540
| 92>    H       -3.27432         7.11676         5.31932
| 93> *
| 94>
| 95>                          ****END OF INPUT****

CARTESIAN COORDINATES (ANGSTROEM)
---------------------------------
  C     -4.698840   -0.734200    1.650940
  S     -5.713690   -2.013710    1.070310
  C     -4.337240   -3.033410    0.834680
  O     -4.435570   -4.277870    0.363420
  C     -3.149430   -2.409270    1.189120
  C     -3.397550   -1.080110    1.657180
  C     -1.891020   -3.065570    1.073330
  C     -0.685970   -2.534770    1.402220
  C      0.514300   -3.270460    1.246970
  N      0.525190   -4.509770    0.765570
  C      1.811490   -4.892530    0.753030
  C      2.696310   -3.831770    1.259660
  C      4.095120   -4.277090    1.235220
  O      5.090930   -3.666260    1.578570
  C      3.994480   -5.641280    0.695180
  C      2.587790   -5.979180    0.414210
  N      2.486340   -7.234690   -0.081570
  C      3.719400   -7.686530   -0.123450
  C      4.708940   -6.745570    0.346150
  C      1.875240   -2.778010    1.585430
  C      2.185640   -1.501700    2.122540
  C      3.456150   -1.118440    2.407490
  C      3.832460    0.135160    2.947480
  N      5.159430    0.414900    3.191960
  C      5.254130    1.667560    3.706460
  C      6.134650    2.627390    4.179860
  C      5.348640    3.734740    4.550890
  N      4.017430    3.447420    4.304460
  C      3.933160    2.196600    3.789610
  C      3.047520    1.239870    3.314670
  C      5.802660    4.950860    5.091150
  C      5.020150    6.007160    5.464290
  C      5.570250    7.188660    6.000830
  N      6.885950    7.346130    6.160210
  C      7.049060    8.566350    6.686660
  C      5.760200    9.249610    6.885860
  C      5.972040   10.583330    7.463980
  O      5.141990   11.421530    7.761320
  C      7.435780   10.653230    7.594460
  C      8.055430    9.408830    7.111940
  N      9.402370    9.465690    7.229170
  C      9.649970   10.650040    7.745380
  C      8.471090   11.440710    7.998030
  C      4.796390    8.375180    6.448310
  C      3.380640    8.496820    6.407050
  C      2.717720    9.594200    6.843590
  C      1.304850    9.745720    6.825030
  S      0.603270   11.220360    7.461980
  C     -0.991990   10.653370    7.111980
  O     -2.086760   11.383220    7.386360
  C     -0.998230    9.397570    6.532950
  C      0.316490    8.903920    6.381020
  C     -2.229320    8.732290    6.157660
  C     -2.319720    7.544310    5.571020
  H     -5.153850    0.189590    1.946070
  H     -5.349370   -4.523790    0.175690
  H     -2.618480   -0.416710    1.982850
  H     -1.907620   -4.076040    0.689210
  H     -0.612740   -1.530960    1.793200
  H      3.920470   -8.679990   -0.485440
  H      5.765810   -6.920590    0.392080
  H      1.366530   -0.821590    2.306220
  H      4.262320   -1.814740    2.213020
  H      5.911220   -0.228470    3.008140
  H      7.201050    2.575260    4.264170
  H      3.253820    4.076060    4.479270
  H      1.981540    1.307920    3.237050
  H      6.868950    5.059600    5.227390
  H      3.945140    5.963530    5.360570
  H     10.663720   10.952840    7.943510
  H      8.457110   12.428820    8.414300
  H      2.822430    7.661100    6.008810
  H      3.284950   10.424860    7.243010
  H     -1.847260   12.224590    7.792630
  H      0.526800    7.942700    5.951200
  H     -3.124290    9.292480    6.392490
  H     -1.453740    6.957600    5.315400
  H     -3.274320    7.116760    5.319320

 Total Charge           Charge          ....    0
 Multiplicity           Mult            ....    1
 Number of Electrons    NEL             ....  382
 Basis Dimension        Dim             ....  884

ORBITAL ENERGIES
----------------

  NO   OCC          E(Eh)            E(eV)
   0   2.0000     -88.979707     -2421.2609
   1   2.0000     -88.955463     -2420.6012
   2   2.0000     -19.291965      -524.9611
   3   2.0000     -19.269312      -524.3446
   4   2.0000     -19.203162      -522.5446
   5   2.0000     -19.188334      -522.1411
   6   2.0000     -14.468296      -393.7023
   7   2.0000     -14.468239      -393.7008
   8   2.0000     -14.394773      -391.7017
   9   2.0000     -14.390317      -391.5804
  10   2.0000     -14.382059      -391.3557
  11   2.0000     -14.376438      -391.2028
  12   2.0000     -10.386231      -282.6237
  13   2.0000     -10.362488      -281.9776
  14   2.0000     -10.358412      -281.8667
  15   2.0000     -10.347819      -281.5785
  16   2.0000     -10.333901      -281.1997
  17   2.0000     -10.321546      -280.8635
  18   2.0000     -10.321396      -280.8595
  19   2.0000     -10.320110      -280.8245
  20   2.0000     -10.315577      -280.7011
  21   2.0000     -10.311566      -280.5920
  22   2.0000     -10.310287      -280.5572
  23   2.0000     -10.307958      -280.4938
  24   2.0000     -10.306442      -280.4526
  25   2.0000     -10.306326      -280.4494
  26   2.0000     -10.303995      -280.3860
  27   2.0000     -10.303909      -280.3836
  28   2.0000     -10.298086      -280.2252
  29   2.0000     -10.297638      -280.2130
  30   2.0000     -10.294560      -280.1292
  31   2.0000     -10.293982      -280.1135
  32   2.0000     -10.291708      -280.0516
  33   2.0000     -10.291502      -280.0460
  34   2.0000     -10.288532      -279.9652
  35   2.0000     -10.285995      -279.8962
  36   2.0000     -10.285368      -279.8791
  37   2.0000     -10.285332      -279.8781
  38   2.0000     -10.283576      -279.8303
  39   2.0000     -10.281619      -279.7771
  40   2.0000     -10.277864      -279.6749
  41   2.0000     -10.276986      -279.6510
  42   2.0000     -10.276182      -279.6291
  43   2.0000     -10.275386      -279.6075
  44   2.0000     -10.274699      -279.5888
  45   2.0000     -10.274094      -279.5723
  46   2.0000     -10.273193      -279.5478
  47   2.0000     -10.269808      -279.4557
  48   2.0000     -10.269212      -279.4395
  49   2.0000     -10.269077      -279.4358
  50   2.0000     -10.263462      -279.2830
  51   2.0000     -10.260162      -279.1932
  52   2.0000     -10.258508      -279.1482
  53   2.0000     -10.256035      -279.0809
  54   2.0000      -8.076918      -219.7841
  55   2.0000      -8.052196      -219.1114
  56   2.0000      -6.046308      -164.5284
  57   2.0000      -6.042077      -164.4133
  58   2.0000      -6.038628      -164.3194
  59   2.0000      -6.021446      -163.8519
  60   2.0000      -6.017575      -163.7465
  61   2.0000      -6.013916      -163.6470
  62   2.0000      -1.190816       -32.4037
  63   2.0000      -1.165560       -31.7165
  64   2.0000      -1.115852       -30.3639
  65   2.0000      -1.101948       -29.9855
  66   2.0000      -1.101519       -29.9738
  67   2.0000      -1.065131       -28.9837
  68   2.0000      -1.064802       -28.9747
  69   2.0000      -1.051575       -28.6148
  70   2.0000      -1.043633       -28.3987
  71   2.0000      -1.029447       -28.0127
  72   2.0000      -0.996301       -27.1107
  73   2.0000      -0.976449       -26.5705
  74   2.0000      -0.928456       -25.2646
  75   2.0000      -0.917978       -24.9794
  76   2.0000      -0.917430       -24.9645
  77   2.0000      -0.904061       -24.6008
  78   2.0000      -0.903535       -24.5864
  79   2.0000      -0.896055       -24.3829
  80   2.0000      -0.882538       -24.0151
  81   2.0000      -0.877014       -23.8648
  82   2.0000      -0.871095       -23.7037
  83   2.0000      -0.855479       -23.2788
  84   2.0000      -0.847567       -23.0635
  85   2.0000      -0.838552       -22.8181
  86   2.0000      -0.835018       -22.7220
  87   2.0000      -0.830784       -22.6068
  88   2.0000      -0.828594       -22.5472
  89   2.0000      -0.808663       -22.0049
  90   2.0000      -0.800805       -21.7910
  91   2.0000      -0.785864       -21.3844
  92   2.0000      -0.771825       -21.0024
  93   2.0000      -0.759568       -20.6689
  94   2.0000      -0.742976       -20.2174
  95   2.0000      -0.736003       -20.0277
  96   2.0000      -0.718013       -19.5381
  97   2.0000      -0.716367       -19.4933
  98   2.0000      -0.712883       -19.3985
  99   2.0000      -0.708814       -19.2878
 100   2.0000      -0.703709       -19.1489
 101   2.0000      -0.699662       -19.0388
 102   2.0000      -0.686918       -18.6920
 103   2.0000      -0.684819       -18.6349
 104   2.0000      -0.670952       -18.2575
 105   2.0000      -0.659984       -17.9591
 106   2.0000      -0.654746       -17.8165
 107   2.0000      -0.646091       -17.5810
 108   2.0000      -0.638207       -17.3665
 109   2.0000      -0.635355       -17.2889
 110   2.0000      -0.629211       -17.1217
 111   2.0000      -0.621494       -16.9117
 112   2.0000      -0.615115       -16.7381
 113   2.0000      -0.612746       -16.6737
 114   2.0000      -0.605915       -16.4878
 115   2.0000      -0.605005       -16.4630
 116   2.0000      -0.599873       -16.3234
 117   2.0000      -0.588580       -16.0161
 118   2.0000      -0.580296       -15.7906
 119   2.0000      -0.577720       -15.7206
 120   2.0000      -0.572425       -15.5765
 121   2.0000      -0.567134       -15.4325
 122   2.0000      -0.560767       -15.2592
 123   2.0000      -0.552095       -15.0233
 124   2.0000      -0.548106       -14.9147
 125   2.0000      -0.546586       -14.8734
 126   2.0000      -0.543387       -14.7863
 127   2.0000      -0.541056       -14.7229
 128   2.0000      -0.540900       -14.7186
 129   2.0000      -0.533782       -14.5249
 130   2.0000      -0.531482       -14.4624
 131   2.0000      -0.530497       -14.4356
 132   2.0000      -0.526924       -14.3383
 133   2.0000      -0.521940       -14.2027
 134   2.0000      -0.521020       -14.1777
 135   2.0000      -0.520270       -14.1573
 136   2.0000      -0.517221       -14.0743
 137   2.0000      -0.516345       -14.0505
 138   2.0000      -0.509573       -13.8662
 139   2.0000      -0.503411       -13.6985
 140   2.0000      -0.501302       -13.6411
 141   2.0000      -0.499340       -13.5877
 142   2.0000      -0.489974       -13.3329
 143   2.0000      -0.486714       -13.2442
 144   2.0000      -0.486096       -13.2273
 145   2.0000      -0.483172       -13.1478
 146   2.0000      -0.480361       -13.0713
 147   2.0000      -0.471477       -12.8296
 148   2.0000      -0.468909       -12.7597
 149   2.0000      -0.467220       -12.7137
 150   2.0000      -0.466176       -12.6853
 151   2.0000      -0.464058       -12.6277
 152   2.0000      -0.462020       -12.5722
 153   2.0000      -0.459485       -12.5032
 154   2.0000      -0.454741       -12.3741
 155   2.0000      -0.453654       -12.3446
 156   2.0000      -0.453241       -12.3333
 157   2.0000      -0.449843       -12.2409
 158   2.0000      -0.449511       -12.2318
 159   2.0000      -0.444299       -12.0900
 160   2.0000      -0.443104       -12.0575
 161   2.0000      -0.437284       -11.8991
 162   2.0000      -0.435080       -11.8391
 163   2.0000      -0.434975       -11.8363
 164   2.0000      -0.432089       -11.7577
 165   2.0000      -0.421703       -11.4751
 166   2.0000      -0.410144       -11.1606
 167   2.0000      -0.408239       -11.1088
 168   2.0000      -0.401079       -10.9139
 169   2.0000      -0.396146       -10.7797
 170   2.0000      -0.391004       -10.6398
 171   2.0000      -0.368330       -10.0228
 172   2.0000      -0.359086        -9.7712
 173   2.0000      -0.348668        -9.4877
 174   2.0000      -0.344330        -9.3697
 175   2.0000      -0.340220        -9.2578
 176   2.0000      -0.336794        -9.1646
 177   2.0000      -0.326943        -8.8966
 178   2.0000      -0.323992        -8.8163
 179   2.0000      -0.320265        -8.7148
 180   2.0000      -0.318350        -8.6627
 181   2.0000      -0.316569        -8.6143
 182   2.0000      -0.315634        -8.5888
 183   2.0000      -0.306155        -8.3309
 184   2.0000      -0.304977        -8.2989
 185   2.0000      -0.300817        -8.1856
 186   2.0000      -0.291014        -7.9189
 187   2.0000      -0.284002        -7.7281
 188   2.0000      -0.269319        -7.3286
 189   2.0000      -0.239821        -6.5259
 190   2.0000      -0.229252        -6.2383
 191   0.0000      -0.107638        -2.9290
 192   0.0000      -0.093081        -2.5329
 193   0.0000      -0.049649        -1.3510
 194   0.0000      -0.032919        -0.8958
 195   0.0000      -0.015993        -0.4352

MULLIKEN ATOMIC CHARGES
-----------------------
   0 C :   -0.080574
   1 S :    0.081197
   2 C :   -0.024154
   3 O :   -0.143606
   4 C :    0.036599
   5 C :    0.057375
   6 C :    0.071818
   7 C :   -0.057584
   8 C :    0.047986
   9 N :   -0.048437
  10 C :    0.066917
  11 C :   -0.173054
  12 C :    0.220172
  13 O :   -0.169796
  14 C :   -0.012773
  15 C :   -0.046400
  16 N :   -0.058396
  17 C :    0.080044
  18 C :   -0.103194
  19 C :    0.065457
  20 C :   -0.052494
  21 C :    0.030112
  22 C :    0.104102
  23 N :   -0.024516
  24 C :    0.125770
  25 C :   -0.143146
  26 C :    0.089202
  27 N :   -0.034669
  28 C :    0.128764
  29 C :   -0.173606
  30 C :    0.074557
  31 C :   -0.071721
  32 C :    0.034597
  33 N :   -0.057187
  34 C :    0.068025
  35 C :   -0.178050
  36 C :    0.214328
  37 O :   -0.163534
  38 C :   -0.016227
  39 C :   -0.057284
  40 N :   -0.061924
  41 C :    0.073512
  42 C :   -0.102078
  43 C :    0.070493
  44 C :   -0.058120
  45 C :    0.093552
  46 C :   -0.101248
  47 S :    0.098404
  48 C :   -0.030159
  49 O :   -0.167345
  50 C :    0.055949
  51 C :   -0.001533
  52 C :    0.008778
  53 C :   -0.024457
  54 H :    0.034222
  55 H :    0.202725
  56 H :   -0.003846
  57 H :    0.027714
  58 H :   -0.032255
  59 H :   -0.001456
  60 H :   -0.014113
  61 H :   -0.036783
  62 H :   -0.011677
  63 H :    0.138460
  64 H :   -0.016768
  65 H :    0.127696
  66 H :   -0.033109
  67 H :    0.022135
  68 H :   -0.056491
  69 H :   -0.007192
  70 H :   -0.020757
  71 H :   -0.047919
  72 H :   -0.004024
  73 H :    0.197097
  74 H :   -0.030146
  75 H :   -0.007177
  76 H :   -0.002758
  77 H :    0.015978
Sum of atomic charges:    0.0000000

LOEWDIN ATOMIC CHARGES
----------------------
   0 C :   -0.184539
   1 S :    0.400683
   2 C :   -0.075733
   3 O :   -0.021797
   4 C :   -0.125853
   5 C :   -0.035235
   6 C :    0.081947
   7 C :   -0.078230
   8 C :    0.077090
   9 N :   -0.117393
  10 C :    0.052389
  11 C :   -0.056944
  12 C :    0.070237
  13 O :   -0.164836
  14 C :   -0.046811
  15 C :    0.002631
  16 N :   -0.099640
  17 C :    0.056231
  18 C :   -0.044779
  19 C :   -0.025057
  20 C :   -0.035286
  21 C :    0.001001
  22 C :    0.016084
  23 N :    0.080082
  24 C :   -0.021118
  25 C :   -0.052242
  26 C :   -0.011000
  27 N :    0.069738
  28 C :    0.003349
  29 C :   -0.095784
  30 C :    0.053577
  31 C :   -0.088120
  32 C :    0.070631
  33 N :   -0.126461
  34 C :    0.051029
  35 C :   -0.060739
  36 C :    0.068061
  37 O :   -0.162401
  38 C :   -0.049699
  39 C :   -0.004853
  40 N :   -0.104134
  41 C :    0.047861
  42 C :   -0.050603
  43 C :   -0.021588
  44 C :   -0.052879
  45 C :    0.001674
  46 C :   -0.182825
  47 S :    0.403118
  48 C :   -0.093322
  49 O :   -0.042035
  50 C :   -0.113294
  51 C :   -0.026365
  52 C :   -0.012403
  53 C :   -0.064111
  54 H :    0.027356
  55 H :    0.106681
  56 H :    0.032921
  57 H :    0.046509
  58 H :    0.022592
  59 H :    0.019179
  60 H :    0.030490
  61 H :    0.022820
  62 H :    0.032536
  63 H :    0.098786
  64 H :    0.033389
  65 H :    0.089246
  66 H :    0.023846
  67 H :    0.050238
  68 H :    0.015486
  69 H :    0.016513
  70 H :    0.028078
  71 H :    0.017603
  72 H :    0.032123
  73 H :    0.100999
  74 H :    0.025083
  75 H :    0.031791
  76 H :    0.013902
  77 H :    0.022529

  Mayer bond orders larger than 0.100000
B(  0-C ,  1-S ) :   1.0937 B(  0-C ,  5-C ) :   1.6572 B(  0-C , 54-H ) :   0.9679
B(  1-S ,  2-C ) :   1.1514 B(  2-C ,  3-O ) :   1.2564 B(  2-C ,  4-C ) :   1.3987
B(  3-O , 55-H ) :   0.9469 B(  4-C ,  5-C ) :   1.1951 B(  4-C ,  6-C ) :   1.1079
B(  5-C , 56-H ) :   0.9951 B(  6-C ,  7-C ) :   1.5936 B(  6-C , 57-H ) :   0.9882
B(  7-C ,  8-C ) :   1.1819 B(  7-C , 58-H ) :   0.9562 B(  8-C ,  9-N ) :   1.5643
B(  8-C , 10-C ) :   0.1110 B(  8-C , 19-C ) :   0.9813 B(  9-N , 10-C ) :   1.3841
B( 10-C , 11-C ) :   1.0541 B( 10-C , 15-C ) :   1.3823 B( 11-C , 12-C ) :   0.9090
B( 11-C , 19-C ) :   1.5315 B( 12-C , 13-O ) :   2.1401 B( 12-C , 14-C ) :   0.9457
B( 13-O , 62-H ) :   0.1227 B( 14-C , 15-C ) :   1.0869 B( 14-C , 18-C ) :   1.5695
B( 15-C , 16-N ) :   1.3300 B( 16-N , 17-C ) :   1.6387 B( 17-C , 18-C ) :   1.0964
B( 17-C , 59-H ) :   0.9892 B( 18-C , 60-H ) :   1.0118 B( 19-C , 20-C ) :   1.1388
B( 20-C , 21-C ) :   1.6454 B( 20-C , 61-H ) :   0.9687 B( 21-C , 22-C ) :   1.0995
B( 21-C , 62-H ) :   0.9396 B( 22-C , 23-N ) :   1.2013 B( 22-C , 29-C ) :   1.3763
B( 23-N , 24-C ) :   1.1606 B( 23-N , 63-H ) :   0.9307 B( 24-C , 25-C ) :   1.2794
B( 24-C , 28-C ) :   1.2747 B( 25-C , 26-C ) :   1.3065 B( 25-C , 64-H ) :   1.0449
B( 26-C , 27-N ) :   1.1738 B( 26-C , 30-C ) :   1.1771 B( 27-N , 28-C ) :   1.1841
B( 27-N , 65-H ) :   0.9323 B( 28-C , 29-C ) :   1.2739 B( 29-C , 66-H ) :   1.0335
B( 30-C , 31-C ) :   1.5100 B( 30-C , 67-H ) :   0.9699 B( 31-C , 32-C ) :   1.2364
B( 31-C , 68-H ) :   0.9501 B( 32-C , 33-N ) :   1.5378 B( 32-C , 34-C ) :   0.1105
B( 32-C , 43-C ) :   0.9835 B( 33-N , 34-C ) :   1.4026 B( 34-C , 35-C ) :   1.0544
B( 34-C , 39-C ) :   1.3631 B( 35-C , 36-C ) :   0.9036 B( 35-C , 43-C ) :   1.5403
B( 36-C , 37-O ) :   2.1563 B( 36-C , 38-C ) :   0.9440 B( 37-O , 72-H ) :   0.1155
B( 38-C , 39-C ) :   1.0955 B( 38-C , 42-C ) :   1.5585 B( 39-C , 40-N ) :   1.3398
B( 40-N , 41-C ) :   1.6284 B( 41-C , 42-C ) :   1.1076 B( 41-C , 69-H ) :   0.9899
B( 42-C , 70-H ) :   1.0099 B( 43-C , 44-C ) :   1.1399 B( 44-C , 45-C ) :   1.6817
B( 44-C , 71-H ) :   0.9611 B( 45-C , 46-C ) :   1.1135 B( 45-C , 72-H ) :   0.9363
B( 46-C , 47-S ) :   1.0783 B( 46-C , 51-C ) :   1.5352 B( 47-S , 48-C ) :   1.1253
B( 48-C , 49-O ) :   1.2202 B( 48-C , 50-C ) :   1.4429 B( 49-O , 73-H ) :   0.9517
B( 50-C , 51-C ) :   1.2393 B( 50-C , 52-C ) :   1.0869 B( 51-C , 74-H ) :   0.9905
B( 52-C , 53-C ) :   1.9466 B( 52-C , 75-H ) :   0.9672 B( 53-C , 76-H ) :   0.9486
B( 53-C , 77-H ) :   0.9502

-----------------------------------------------------------------------------
         ABSORPTION SPECTRUM VIA TRANSITION ELECTRIC DIPOLE MOMENTS
-----------------------------------------------------------------------------
State   Energy  Wavelength   fosc         T2         TX        TY        TZ
        (cm-1)    (nm)                  (au**2)     (au)      (au)      (au)
-----------------------------------------------------------------------------
   0   13135.1    761.3   1.042830233  26.13696   1.28470   4.54136   1.96533
   1   14926.8    669.9   0.079631796   1.75629  -1.27154   0.36465   0.08068
   2   16431.9    608.6   0.985805265  19.75052  -1.91402  -3.64835  -1.66632
   3   20359.5    491.2   0.784911445  12.69197  -3.02949   1.83333   0.39122
   4   21925.9    456.1   0.013456678   0.20205   0.42988   0.11872   0.05620
   5   22500.1    444.4   0.000372214   0.00545  -0.00760  -0.00017   0.07340
   6   22665.5    441.2   0.000387613   0.00563   0.00441  -0.03355   0.06697
   7   23805.6    420.1   0.190281550   2.63144  -0.47539  -1.41606  -0.63264
   8   24488.5    408.4   0.155577262   2.09151  -1.01368   0.98159   0.31693
   9   24989.5    400.2   0.114112936   1.50332  -0.87938   0.81784   0.24730
  10   25644.8    389.9   0.453999602   5.82817  -2.40896   0.13590  -0.08137
  11   26046.1    383.9   0.000038685   0.00049   0.01594   0.00291  -0.01504
  12   26063.7    383.7   0.000899022   0.01136  -0.10177  -0.03160   0.00084
  13   26164.9    382.2   0.115809799   1.45714  -1.06766  -0.49519  -0.26840
  14   26957.7    371.0   0.044081407   0.53833   0.22346   0.64384   0.27178
  15   27604.4    362.3   0.073968470   0.88215   0.87539  -0.33587  -0.05501
  16   28159.8    355.1   0.133382584   1.55936  -0.98931   0.74005   0.18151
  17   28195.5    354.7   0.002045330   0.02388   0.03931  -0.08506   0.12288
  18   28212.2    354.5   0.002522447   0.02943  -0.00384   0.06287  -0.15959
  19   28502.7    350.8   0.129083948   1.49094   0.28659   1.10084   0.44382
  20   29115.6    343.5   0.479847762   5.42567   2.23596   0.51888   0.39610
  21   30186.9    331.3   0.056139828   0.61225   0.29140  -0.67523  -0.26722
  22   30385.6    329.1   0.007051194   0.07640   0.21425   0.15810   0.07415
  23   30722.6    325.5   0.034239055   0.36689   0.15845  -0.55491  -0.18402
  24   31316.6    319.3   0.000001813   0.00002  -0.00014  -0.00066   0.00431
  25   31614.7    316.3   0.000007589   0.00008   0.00700  -0.00151  -0.00526
  26   31815.8    314.3   0.019577383   0.20258   0.28812   0.30658   0.15991
  27   32684.6    306.0   0.009454955   0.09523  -0.27044   0.14649   0.02523
  28   33098.8    302.1   0.027690571   0.27542   0.47230  -0.22689  -0.02952
  29   33618.4    297.5   0.068790991   0.67364  -0.81465  -0.00169  -0.09990
  30   33688.8    296.8   0.093354208   0.91227  -0.84410   0.44121   0.07135
  31   34445.6    290.3   0.006296661   0.06018  -0.19440  -0.12902  -0.07578
  32   35056.2    285.3   0.231710600   2.17599   1.46254  -0.19085   0.02299
  33   35823.0    279.2   0.012585759   0.11566  -0.33072   0.07844  -0.01165
  34   37190.3    268.9   0.029953714   0.26515  -0.49299   0.14700   0.02257
  35   37224.3    268.6   0.000134606   0.00119   0.03241  -0.01108   0.00417
  36   37434.4    267.1   0.026266554   0.23100  -0.31252   0.34876   0.10813
  37   38006.4    263.1   0.031643841   0.27410  -0.45471   0.25635   0.04027
  38   38565.5    259.3   0.099510966   0.84947   0.27357   0.81180   0.34001
  39   38751.0    258.1   0.110459433   0.93842  -0.93515  -0.20333  -0.15023
  40   39017.1    256.3   0.044585842   0.37620  -0.42693   0.42126   0.12833
  41   39352.7    254.1   0.052265299   0.43723   0.30196  -0.55720  -0.18861
  42   39467.0    253.4   0.001416777   0.01182   0.04362   0.06011  -0.07939
  43   39474.3    253.3   0.008281121   0.06906   0.22405   0.09964   0.09454
  44   39542.4    252.9   0.000038730   0.00032  -0.00767  -0.01008   0.01273
  45   39615.2    252.4   0.000735260   0.00611   0.07254  -0.02845  -0.00616
  46   39802.6    251.2   0.039053299   0.32301   0.56605  -0.01620   0.04837

FINAL SINGLE POINT ENERGY     -3037.441655689009

DIPOLE MOMENT
-------------
                                X             Y             Z
Electronic contribution:      6.03613      -5.04086      -1.50611
Nuclear contribution   :    -10.20262       3.88103       0.64900
                        -----------------------------------------
Total Dipole Moment    :     -4.16649      -1.15983      -0.85712
                        -----------------------------------------
Magnitude (a.u.)       :      4.40902
Magnitude (Debye)      :     11.20683

Rotational constants in cm-1:     0.001691     0.000460     0.000362
Rotational constants in MHz :    50.690653    13.799828    10.850033

                             ****ORCA TERMINATED NORMALLY****
TOTAL RUN TIME: 0 days 0 hours 5 minutes 45 seconds 166 msec
