                         Program Version 4.2.0 -  RELEASE  -
|  1> # ORCA input file
|  2> # SCF done       -157.484161489952          0.000736902758
|  3> ! CAM-B3LYP def2-SVP def2/J RIJCOSX Grid4 TightSCF
|  4> %maxcore 5000
|  5> %tddft
|  6>     Mode sTDDFT
|  7>     Ethresh 5.0
|  8>     maxcore 5000
|  9> end
| 10>
| 11> %pal
| 12>   nprocs 6
| 13>   end
| 14> * xyz 0 1
| 15>    C       -3.70012        -5.71985         3.73717
| 16>    S       -4.03569        -7.18937         2.88723
| 17>    C       -2.51532        -7.09448         2.05789
| 18>    O       -2.14176        -8.03044         1.17676
| 19>    C       -1.78707        -5.97747         2.42645
| 20>    C       -2.50150        -5.20784         3.39787
| 21>    C       -0.50012        -5.59138         1.93358
| 22>    C        0.21444        -6.24689         0.99006
| 23>    C        1.48119        -5.82365         0.51177
| 24>    C        2.28468        -4.67857         0.96155
| 25>    N        3.40622        -4.51959         0.32264
| 26>    C        3.44859        -5.53231        -0.59603
| 27>    C        2.25512        -6.37603        -0.48836
| 28>    C        2.29898        -7.42206        -1.47276
| 29>    S        1.13035        -8.55729        -1.72844
| 30>    C        3.54313        -7.20967        -2.17851
| 31>    C        4.21843        -6.02463        -1.61578
| 32>    N        5.37408        -5.75784        -2.28870
| 33>    C        5.44007        -6.65535        -3.22709
| 34>    C        4.32990        -7.61415        -3.23712
| 35>    C        4.22235        -8.70736        -4.16374
| 36>    C        4.85957        -8.64511        -5.38822
| 37>    C        4.75245        -9.71914        -6.28659
| 38>    C        5.28882        -9.89641        -7.56039
| 39>    C        6.11051        -8.91288        -8.31883
| 40>    C        7.47132        -9.49153        -8.75384
| 41>    N        8.46657        -8.43660        -8.73713
| 42>    C        5.31813        -8.36391        -9.52128
| 43>    N        4.21572        -7.55710        -9.03567
| 44>    C        4.86034       -11.19685        -8.01346
| 45>    C        5.10738       -11.88092        -9.14885
| 46>    C        4.48737       -13.20587        -9.41170
| 47>    C        3.71450       -13.77519        -8.26743
| 48>    C        3.49184       -13.09247        -7.12793
| 49>    C        4.03275       -11.79722        -6.95492
| 50>    C        3.97689       -10.89130        -5.91189
| 51>    C        3.33975       -10.92710        -4.65130
| 52>    C        3.46232        -9.86822        -3.81043
| 53>    C        3.54364       -13.02913       -10.58883
| 54>    C        2.48751       -12.20887       -10.54126
| 55>    C        1.55899       -12.01186       -11.61037
| 56>    C        0.40160       -11.12539       -11.49035
| 57>    N       -0.34987       -11.06402       -12.55248
| 58>    C        0.24175       -11.89529       -13.45531
| 59>    C        1.45527       -12.51095       -12.89321
| 60>    C        2.05307       -13.37615       -13.88415
| 61>    S        3.43827       -14.26030       -13.74070
| 62>    C        1.18861       -13.28269       -15.02880
| 63>    C        0.08091       -12.36291       -14.73390
| 64>    N       -0.76323       -12.25277       -15.80044
| 65>    C       -0.26183       -13.02659       -16.71595
| 66>    C        0.96986       -13.71810       -16.32321
| 67>    C        1.68141       -14.60377       -17.16346
| 68>    S        1.09960       -14.93697       -18.78999
| 69>    C        2.43225       -16.00148       -19.07560
| 70>    O        2.59183       -16.64433       -20.24021
| 71>    C        3.28280       -16.10232       -17.98655
| 72>    C        2.83628       -15.30271       -16.91671
| 73>    C        4.46560       -16.93971       -18.00718
| 74>    C        5.31713       -17.07910       -16.99782
| 75>    H       -4.42600        -5.34416         4.42934
| 76>    H       -2.81475        -8.71445         1.07350
| 77>    H       -2.10868        -4.29789         3.81406
| 78>    H       -0.10352        -4.68620         2.37336
| 79>    H       -0.18231        -7.14492         0.54066
| 80>    H        2.02035        -4.00058         1.75418
| 81>    H        6.28422        -6.67578        -3.89407
| 82>    H        5.41247        -7.76480        -5.67679
| 83>    H        6.32551        -8.06390        -7.66491
| 84>    H        7.37109        -9.98089        -9.73723
| 85>    H        7.78738       -10.24992        -8.03172
| 86>    H        8.23914        -7.71852        -9.41607
| 87>    H        9.38483        -8.80156        -8.96125
| 88>    H        4.99984        -9.20473       -10.16230
| 89>    H        5.96438        -7.71055       -10.11486
| 90>    H        3.58122        -8.12347        -8.48223
| 91>    H        3.69359        -7.15508        -9.80547
| 92>    H        5.72264       -11.48064        -9.94148
| 93>    H        5.26646       -13.91404        -9.71884
| 94>    H        3.30203       -14.76034        -8.42182
| 95>    H        2.91077       -13.52759        -6.32796
| 96>    H        2.76573       -11.79584        -4.36551
| 97>    H        2.98769        -9.88654        -2.84316
| 98>    H        3.75191       -13.60216       -11.48016
| 99>    H        2.28499       -11.64248        -9.63913
|100>    H        0.15547       -10.55668       -10.60968
|101>    H       -0.73864       -13.12972       -17.67611
|102>    H        1.88516       -16.43123       -20.86113
|103>    H        3.34715       -15.23173       -15.97398
|104>    H        4.62220       -17.46941       -18.93702
|105>    H        5.19019       -16.56610       -16.06029
|106>    H        6.17858       -17.71852       -17.08059
|107> *
|108>
|109>                          ****END OF INPUT****

CARTESIAN COORDINATES (ANGSTROEM)
---------------------------------
  C     -3.700120   -5.719850    3.737170
  S     -4.035690   -7.189370    2.887230
  C     -2.515320   -7.094480    2.057890
  O     -2.141760   -8.030440    1.176760
  C     -1.787070   -5.977470    2.426450
  C     -2.501500   -5.207840    3.397870
  C     -0.500120   -5.591380    1.933580
  C      0.214440   -6.246890    0.990060
  C      1.481190   -5.823650    0.511770
  C      2.284680   -4.678570    0.961550
  N      3.406220   -4.519590    0.322640
  C      3.448590   -5.532310   -0.596030
  C      2.255120   -6.376030   -0.488360
  C      2.298980   -7.422060   -1.472760
  S      1.130350   -8.557290   -1.728440
  C      3.543130   -7.209670   -2.178510
  C      4.218430   -6.024630   -1.615780
  N      5.374080   -5.757840   -2.288700
  C      5.440070   -6.655350   -3.227090
  C      4.329900   -7.614150   -3.237120
  C      4.222350   -8.707360   -4.163740
  C      4.859570   -8.645110   -5.388220
  C      4.752450   -9.719140   -6.286590
  C      5.288820   -9.896410   -7.560390
  C      6.110510   -8.912880   -8.318830
  C      7.471320   -9.491530   -8.753840
  N      8.466570   -8.436600   -8.737130
  C      5.318130   -8.363910   -9.521280
  N      4.215720   -7.557100   -9.035670
  C      4.860340  -11.196850   -8.013460
  C      5.107380  -11.880920   -9.148850
  C      4.487370  -13.205870   -9.411700
  C      3.714500  -13.775190   -8.267430
  C      3.491840  -13.092470   -7.127930
  C      4.032750  -11.797220   -6.954920
  C      3.976890  -10.891300   -5.911890
  C      3.339750  -10.927100   -4.651300
  C      3.462320   -9.868220   -3.810430
  C      3.543640  -13.029130  -10.588830
  C      2.487510  -12.208870  -10.541260
  C      1.558990  -12.011860  -11.610370
  C      0.401600  -11.125390  -11.490350
  N     -0.349870  -11.064020  -12.552480
  C      0.241750  -11.895290  -13.455310
  C      1.455270  -12.510950  -12.893210
  C      2.053070  -13.376150  -13.884150
  S      3.438270  -14.260300  -13.740700
  C      1.188610  -13.282690  -15.028800
  C      0.080910  -12.362910  -14.733900
  N     -0.763230  -12.252770  -15.800440
  C     -0.261830  -13.026590  -16.715950
  C      0.969860  -13.718100  -16.323210
  C      1.681410  -14.603770  -17.163460
  S      1.099600  -14.936970  -18.789990
  C      2.432250  -16.001480  -19.075600
  O      2.591830  -16.644330  -20.240210
  C      3.282800  -16.102320  -17.986550
  C      2.836280  -15.302710  -16.916710
  C      4.465600  -16.939710  -18.007180
  C      5.317130  -17.079100  -16.997820
  H     -4.426000   -5.344160    4.429340
  H     -2.814750   -8.714450    1.073500
  H     -2.108680   -4.297890    3.814060
  H     -0.103520   -4.686200    2.373360
  H     -0.182310   -7.144920    0.540660
  H      2.020350   -4.000580    1.754180
  H      6.284220   -6.675780   -3.894070
  H      5.412470   -7.764800   -5.676790
  H      6.325510   -8.063900   -7.664910
  H      7.371090   -9.980890   -9.737230
  H      7.787380  -10.249920   -8.031720
  H      8.239140   -7.718520   -9.416070
  H      9.384830   -8.801560   -8.961250
  H      4.999840   -9.204730  -10.162300
  H      5.964380   -7.710550  -10.114860
  H      3.581220   -8.123470   -8.482230
  H      3.693590   -7.155080   -9.805470
  H      5.722640  -11.480640   -9.941480
  H      5.266460  -13.914040   -9.718840
  H      3.302030  -14.760340   -8.421820
  H      2.910770  -13.527590   -6.327960
  H      2.765730  -11.795840   -4.365510
  H      2.987690   -9.886540   -2.843160
  H      3.751910  -13.602160  -11.480160
  H      2.284990  -11.642480   -9.639130
  H      0.155470  -10.556680  -10.609680
  H     -0.738640  -13.129720  -17.676110
  H      1.885160  -16.431230  -20.861130
  H      3.347150  -15.231730  -15.973980
  H      4.622200  -17.469410  -18.937020
  H      5.190190  -16.566100  -16.060290
  H      6.178580  -17.718520  -17.080590

 Total Charge           Charge          ....    0
 Multiplicity           Mult            ....    1
 Number of Electrons    NEL             ....  442
 Basis Dimension        Dim             .... 1016

ORBITAL ENERGIES
----------------

  NO   OCC          E(Eh)            E(eV)
   0   2.0000     -88.971052     -2421.0254
   1   2.0000     -88.958874     -2420.6940
   2   2.0000     -88.898161     -2419.0420
   3   2.0000     -88.878181     -2418.4983
   4   2.0000     -19.283756      -524.7377
   5   2.0000     -19.271344      -524.3999
   6   2.0000     -14.417158      -392.3108
   7   2.0000     -14.410664      -392.1341
   8   2.0000     -14.399227      -391.8229
   9   2.0000     -14.396392      -391.7457
  10   2.0000     -14.374756      -391.1570
  11   2.0000     -14.371252      -391.0616
  12   2.0000     -10.374733      -282.3108
  13   2.0000     -10.360714      -281.9293
  14   2.0000     -10.341114      -281.3960
  15   2.0000     -10.335520      -281.2438
  16   2.0000     -10.326666      -281.0029
  17   2.0000     -10.325502      -280.9712
  18   2.0000     -10.322745      -280.8962
  19   2.0000     -10.321906      -280.8733
  20   2.0000     -10.316878      -280.7365
  21   2.0000     -10.313303      -280.6392
  22   2.0000     -10.312811      -280.6259
  23   2.0000     -10.310886      -280.5735
  24   2.0000     -10.308523      -280.5092
  25   2.0000     -10.307938      -280.4933
  26   2.0000     -10.302183      -280.3366
  27   2.0000     -10.301475      -280.3174
  28   2.0000     -10.292718      -280.0791
  29   2.0000     -10.289182      -279.9829
  30   2.0000     -10.288485      -279.9639
  31   2.0000     -10.286843      -279.9192
  32   2.0000     -10.286699      -279.9153
  33   2.0000     -10.286544      -279.9111
  34   2.0000     -10.284723      -279.8615
  35   2.0000     -10.281562      -279.7755
  36   2.0000     -10.280348      -279.7425
  37   2.0000     -10.280271      -279.7404
  38   2.0000     -10.279753      -279.7263
  39   2.0000     -10.279277      -279.7133
  40   2.0000     -10.278722      -279.6982
  41   2.0000     -10.275095      -279.5995
  42   2.0000     -10.274126      -279.5732
  43   2.0000     -10.274029      -279.5705
  44   2.0000     -10.271853      -279.5113
  45   2.0000     -10.271229      -279.4943
  46   2.0000     -10.270980      -279.4876
  47   2.0000     -10.267916      -279.4042
  48   2.0000     -10.267860      -279.4027
  49   2.0000     -10.267358      -279.3890
  50   2.0000     -10.266685      -279.3707
  51   2.0000     -10.260900      -279.2133
  52   2.0000     -10.259861      -279.1850
  53   2.0000     -10.259108      -279.1645
  54   2.0000     -10.258526      -279.1487
  55   2.0000     -10.257854      -279.1304
  56   2.0000     -10.257586      -279.1231
  57   2.0000     -10.256801      -279.1017
  58   2.0000     -10.256343      -279.0893
  59   2.0000     -10.251963      -278.9701
  60   2.0000      -8.067626      -219.5313
  61   2.0000      -8.055961      -219.2138
  62   2.0000      -7.993793      -217.5222
  63   2.0000      -7.973848      -216.9794
  64   2.0000      -6.036963      -164.2741
  65   2.0000      -6.033099      -164.1690
  66   2.0000      -6.029206      -164.0630
  67   2.0000      -6.025379      -163.9589
  68   2.0000      -6.021144      -163.8437
  69   2.0000      -6.017696      -163.7498
  70   2.0000      -5.962623      -162.2512
  71   2.0000      -5.961715      -162.2265
  72   2.0000      -5.953684      -162.0080
  73   2.0000      -5.942745      -161.7103
  74   2.0000      -5.942171      -161.6947
  75   2.0000      -5.933307      -161.4535
  76   2.0000      -1.180728       -32.1293
  77   2.0000      -1.168674       -31.8012
  78   2.0000      -1.080817       -29.4105
  79   2.0000      -1.063715       -28.9452
  80   2.0000      -1.061600       -28.8876
  81   2.0000      -1.045068       -28.4377
  82   2.0000      -0.989088       -26.9144
  83   2.0000      -0.980804       -26.6890
  84   2.0000      -0.974922       -26.5290
  85   2.0000      -0.962034       -26.1783
  86   2.0000      -0.958367       -26.0785
  87   2.0000      -0.947491       -25.7826
  88   2.0000      -0.944523       -25.7018
  89   2.0000      -0.941404       -25.6169
  90   2.0000      -0.914968       -24.8975
  91   2.0000      -0.899690       -24.4818
  92   2.0000      -0.898857       -24.4591
  93   2.0000      -0.893599       -24.3161
  94   2.0000      -0.873356       -23.7652
  95   2.0000      -0.869295       -23.6547
  96   2.0000      -0.856098       -23.2956
  97   2.0000      -0.855350       -23.2753
  98   2.0000      -0.848257       -23.0823
  99   2.0000      -0.833255       -22.6740
 100   2.0000      -0.830283       -22.5932
 101   2.0000      -0.826147       -22.4806
 102   2.0000      -0.820021       -22.3139
 103   2.0000      -0.818406       -22.2700
 104   2.0000      -0.811555       -22.0835
 105   2.0000      -0.806852       -21.9556
 106   2.0000      -0.793708       -21.5979
 107   2.0000      -0.788339       -21.4518
 108   2.0000      -0.773486       -21.0476
 109   2.0000      -0.756929       -20.5971
 110   2.0000      -0.749710       -20.4007
 111   2.0000      -0.739911       -20.1340
 112   2.0000      -0.732056       -19.9203
 113   2.0000      -0.718713       -19.5572
 114   2.0000      -0.717504       -19.5243
 115   2.0000      -0.709989       -19.3198
 116   2.0000      -0.705316       -19.1926
 117   2.0000      -0.703370       -19.1397
 118   2.0000      -0.688354       -18.7311
 119   2.0000      -0.685763       -18.6606
 120   2.0000      -0.683011       -18.5857
 121   2.0000      -0.676721       -18.4145
 122   2.0000      -0.666881       -18.1468
 123   2.0000      -0.661635       -18.0040
 124   2.0000      -0.654883       -17.8203
 125   2.0000      -0.643623       -17.5139
 126   2.0000      -0.642404       -17.4807
 127   2.0000      -0.633331       -17.2338
 128   2.0000      -0.628223       -17.0948
 129   2.0000      -0.622474       -16.9384
 130   2.0000      -0.611609       -16.6427
 131   2.0000      -0.610291       -16.6069
 132   2.0000      -0.600913       -16.3517
 133   2.0000      -0.599067       -16.3015
 134   2.0000      -0.594916       -16.1885
 135   2.0000      -0.588051       -16.0017
 136   2.0000      -0.580637       -15.7999
 137   2.0000      -0.573183       -15.5971
 138   2.0000      -0.570887       -15.5346
 139   2.0000      -0.567743       -15.4491
 140   2.0000      -0.561782       -15.2869
 141   2.0000      -0.558906       -15.2086
 142   2.0000      -0.557359       -15.1665
 143   2.0000      -0.549552       -14.9541
 144   2.0000      -0.547765       -14.9054
 145   2.0000      -0.544009       -14.8032
 146   2.0000      -0.541638       -14.7387
 147   2.0000      -0.540989       -14.7211
 148   2.0000      -0.534671       -14.5491
 149   2.0000      -0.529902       -14.4194
 150   2.0000      -0.526982       -14.3399
 151   2.0000      -0.523376       -14.2418
 152   2.0000      -0.520631       -14.1671
 153   2.0000      -0.518767       -14.1164
 154   2.0000      -0.517521       -14.0825
 155   2.0000      -0.513454       -13.9718
 156   2.0000      -0.509460       -13.8631
 157   2.0000      -0.508272       -13.8308
 158   2.0000      -0.506459       -13.7815
 159   2.0000      -0.503616       -13.7041
 160   2.0000      -0.501518       -13.6470
 161   2.0000      -0.494902       -13.4670
 162   2.0000      -0.494294       -13.4504
 163   2.0000      -0.492019       -13.3885
 164   2.0000      -0.490423       -13.3451
 165   2.0000      -0.489554       -13.3214
 166   2.0000      -0.488418       -13.2905
 167   2.0000      -0.483303       -13.1513
 168   2.0000      -0.480756       -13.0820
 169   2.0000      -0.479632       -13.0515
 170   2.0000      -0.473183       -12.8760
 171   2.0000      -0.470820       -12.8117
 172   2.0000      -0.466663       -12.6986
 173   2.0000      -0.461761       -12.5651
 174   2.0000      -0.458508       -12.4766
 175   2.0000      -0.457956       -12.4616
 176   2.0000      -0.448947       -12.2165
 177   2.0000      -0.448230       -12.1970
 178   2.0000      -0.446599       -12.1526
 179   2.0000      -0.443082       -12.0569
 180   2.0000      -0.439974       -11.9723
 181   2.0000      -0.435199       -11.8424
 182   2.0000      -0.433484       -11.7957
 183   2.0000      -0.432526       -11.7696
 184   2.0000      -0.429379       -11.6840
 185   2.0000      -0.425425       -11.5764
 186   2.0000      -0.424298       -11.5457
 187   2.0000      -0.420849       -11.4519
 188   2.0000      -0.418754       -11.3949
 189   2.0000      -0.412958       -11.2371
 190   2.0000      -0.408171       -11.1069
 191   2.0000      -0.407586       -11.0910
 192   2.0000      -0.405303       -11.0289
 193   2.0000      -0.402705       -10.9582
 194   2.0000      -0.398750       -10.8505
 195   2.0000      -0.391904       -10.6643
 196   2.0000      -0.388804       -10.5799
 197   2.0000      -0.386994       -10.5306
 198   2.0000      -0.380457       -10.3528
 199   2.0000      -0.360882        -9.8201
 200   2.0000      -0.355544        -9.6748
 201   2.0000      -0.350938        -9.5495
 202   2.0000      -0.350435        -9.5358
 203   2.0000      -0.339779        -9.2459
 204   2.0000      -0.336789        -9.1645
 205   2.0000      -0.335096        -9.1184
 206   2.0000      -0.332390        -9.0448
 207   2.0000      -0.324464        -8.8291
 208   2.0000      -0.315311        -8.5800
 209   2.0000      -0.305051        -8.3009
 210   2.0000      -0.301055        -8.1921
 211   2.0000      -0.300773        -8.1844
 212   2.0000      -0.295898        -8.0518
 213   2.0000      -0.293070        -7.9748
 214   2.0000      -0.287682        -7.8282
 215   2.0000      -0.286222        -7.7885
 216   2.0000      -0.276341        -7.5196
 217   2.0000      -0.265147        -7.2150
 218   2.0000      -0.258234        -7.0269
 219   2.0000      -0.246699        -6.7130
 220   2.0000      -0.215186        -5.8555
 221   0.0000      -0.109287        -2.9738
 222   0.0000      -0.092314        -2.5120
 223   0.0000      -0.076116        -2.0712
 224   0.0000      -0.069666        -1.8957
 225   0.0000      -0.050360        -1.3704

MULLIKEN ATOMIC CHARGES
-----------------------
   0 C :   -0.086616
   1 S :    0.062849
   2 C :   -0.047123
   3 O :   -0.147987
   4 C :    0.078826
   5 C :    0.041739
   6 C :    0.003443
   7 C :   -0.026185
   8 C :    0.005391
   9 C :    0.050084
  10 N :   -0.029241
  11 C :    0.017956
  12 C :   -0.003285
  13 C :   -0.005512
  14 S :   -0.148653
  15 C :   -0.019458
  16 C :   -0.018389
  17 N :   -0.025927
  18 C :    0.043061
  19 C :    0.002612
  20 C :    0.081155
  21 C :   -0.108156
  22 C :    0.062278
  23 C :   -0.080142
  24 C :   -0.027748
  25 C :    0.130683
  26 N :   -0.209937
  27 C :    0.157284
  28 N :   -0.225289
  29 C :    0.094617
  30 C :   -0.126158
  31 C :    0.155980
  32 C :   -0.026634
  33 C :    0.008521
  34 C :    0.007491
  35 C :    0.041208
  36 C :   -0.016033
  37 C :    0.021991
  38 C :   -0.058527
  39 C :    0.045260
  40 C :    0.000759
  41 C :    0.051436
  42 N :   -0.026556
  43 C :   -0.016470
  44 C :   -0.012768
  45 C :    0.006603
  46 S :   -0.137162
  47 C :   -0.046821
  48 C :    0.011323
  49 N :   -0.017144
  50 C :    0.034651
  51 C :    0.064810
  52 C :   -0.115536
  53 S :    0.064483
  54 C :   -0.010845
  55 O :   -0.155098
  56 C :    0.059477
  57 C :    0.021942
  58 C :   -0.002500
  59 C :   -0.015610
  60 H :    0.028666
  61 H :    0.197961
  62 H :   -0.011006
  63 H :   -0.030048
  64 H :    0.004355
  65 H :    0.003297
  66 H :    0.009475
  67 H :   -0.027202
  68 H :   -0.011373
  69 H :   -0.021885
  70 H :    0.002843
  71 H :    0.086878
  72 H :    0.090067
  73 H :   -0.026077
  74 H :   -0.018564
  75 H :    0.097413
  76 H :    0.090781
  77 H :   -0.005844
  78 H :    0.016796
  79 H :   -0.013026
  80 H :   -0.035306
  81 H :   -0.040354
  82 H :   -0.032714
  83 H :   -0.004002
  84 H :   -0.010595
  85 H :    0.005806
  86 H :    0.012233
  87 H :    0.198694
  88 H :   -0.022568
  89 H :   -0.007491
  90 H :    0.016929
  91 H :    0.021463
Sum of atomic charges:   -0.0000000

LOEWDIN ATOMIC CHARGES
----------------------
   0 C :   -0.197246
   1 S :    0.388282
   2 C :   -0.086446
   3 O :   -0.023021
   4 C :   -0.119128
   5 C :   -0.041768
   6 C :    0.003866
   7 C :   -0.032489
   8 C :   -0.029261
   9 C :    0.081061
  10 N :   -0.081290
  11 C :    0.032901
  12 C :   -0.053831
  13 C :   -0.132630
  14 S :    0.037181
  15 C :   -0.048868
  16 C :    0.030116
  17 N :   -0.080995
  18 C :    0.079430
  19 C :   -0.022157
  20 C :   -0.028555
  21 C :    0.002940
  22 C :   -0.023522
  23 C :   -0.030904
  24 C :   -0.039230
  25 C :    0.026208
  26 N :   -0.115265
  27 C :    0.026669
  28 N :   -0.118100
  29 C :   -0.025821
  30 C :    0.070814
  31 C :   -0.032423
  32 C :   -0.030335
  33 C :   -0.021630
  34 C :   -0.044056
  35 C :   -0.028507
  36 C :   -0.014184
  37 C :   -0.014152
  38 C :    0.037410
  39 C :   -0.034478
  40 C :   -0.026597
  41 C :    0.077262
  42 N :   -0.078585
  43 C :    0.027833
  44 C :   -0.046270
  45 C :   -0.126709
  46 S :    0.067443
  47 C :   -0.063944
  48 C :    0.037081
  49 N :   -0.070937
  50 C :    0.072595
  51 C :   -0.036678
  52 C :   -0.185610
  53 S :    0.382176
  54 C :   -0.081704
  55 O :   -0.031512
  56 C :   -0.108268
  57 C :    0.002277
  58 C :   -0.020019
  59 C :   -0.045545
  60 H :    0.024208
  61 H :    0.102957
  62 H :    0.031282
  63 H :    0.025218
  64 H :    0.027166
  65 H :    0.020544
  66 H :    0.024265
  67 H :    0.027721
  68 H :    0.030941
  69 H :   -0.005335
  70 H :    0.020754
  71 H :    0.049226
  72 H :    0.054272
  73 H :   -0.004970
  74 H :    0.010494
  75 H :    0.052174
  76 H :    0.054282
  77 H :    0.026744
  78 H :    0.053591
  79 H :    0.024998
  80 H :    0.030234
  81 H :    0.026746
  82 H :    0.012954
  83 H :    0.000100
  84 H :    0.032519
  85 H :    0.024910
  86 H :    0.019872
  87 H :    0.102988
  88 H :    0.009841
  89 H :    0.031000
  90 H :    0.022077
  91 H :    0.025352

  Mayer bond orders larger than 0.100000
B(  0-C ,  1-S ) :   1.1019 B(  0-C ,  5-C ) :   1.6258 B(  0-C , 60-H ) :   0.9716
B(  1-S ,  2-C ) :   1.1379 B(  2-C ,  3-O ) :   1.2162 B(  2-C ,  4-C ) :   1.4344
B(  3-O , 61-H ) :   0.9460 B(  4-C ,  5-C ) :   1.2000 B(  4-C ,  6-C ) :   1.1155
B(  5-C , 62-H ) :   1.0022 B(  6-C ,  7-C ) :   1.6375 B(  6-C , 63-H ) :   0.9724
B(  7-C ,  8-C ) :   1.1159 B(  7-C , 64-H ) :   0.9663 B(  8-C ,  9-C ) :   1.0081
B(  8-C , 12-C ) :   1.4860 B(  9-C , 10-N ) :   1.7394 B(  9-C , 65-H ) :   0.9881
B( 10-N , 11-C ) :   1.2535 B( 11-C , 12-C ) :   1.0705 B( 11-C , 16-C ) :   1.5277
B( 12-C , 13-C ) :   1.0506 B( 13-C , 14-S ) :   1.6744 B( 13-C , 15-C ) :   1.0305
B( 15-C , 16-C ) :   1.0757 B( 15-C , 19-C ) :   1.5296 B( 16-C , 17-N ) :   1.2624
B( 17-N , 18-C ) :   1.7270 B( 18-C , 19-C ) :   1.0406 B( 18-C , 66-H ) :   0.9858
B( 19-C , 20-C ) :   1.0174 B( 20-C , 21-C ) :   1.4891 B( 20-C , 37-C ) :   1.1428
B( 21-C , 22-C ) :   1.1495 B( 21-C , 67-H ) :   0.9935 B( 22-C , 23-C ) :   1.4744
B( 22-C , 35-C ) :   1.1133 B( 23-C , 24-C ) :   1.0536 B( 23-C , 29-C ) :   1.0754
B( 24-C , 25-C ) :   1.0277 B( 24-C , 27-C ) :   1.0343 B( 24-C , 68-H ) :   0.8722
B( 25-C , 26-N ) :   1.1041 B( 25-C , 69-H ) :   0.9247 B( 25-C , 70-H ) :   0.9465
B( 26-N , 71-H ) :   0.9703 B( 26-N , 72-H ) :   0.9676 B( 27-C , 28-N ) :   1.0901
B( 27-C , 73-H ) :   0.9299 B( 27-C , 74-H ) :   0.9331 B( 28-N , 75-H ) :   0.9701
B( 28-N , 76-H ) :   0.9667 B( 29-C , 30-C ) :   1.6355 B( 29-C , 34-C ) :   1.0527
B( 30-C , 31-C ) :   0.9862 B( 30-C , 77-H ) :   0.9722 B( 31-C , 32-C ) :   0.9992
B( 31-C , 38-C ) :   0.9754 B( 31-C , 78-H ) :   0.8686 B( 32-C , 33-C ) :   1.7088
B( 32-C , 79-H ) :   0.9764 B( 33-C , 34-C ) :   1.1301 B( 33-C , 80-H ) :   0.9895
B( 34-C , 35-C ) :   1.4318 B( 35-C , 36-C ) :   1.1355 B( 36-C , 37-C ) :   1.6129
B( 36-C , 81-H ) :   0.9945 B( 37-C , 82-H ) :   0.9647 B( 38-C , 39-C ) :   1.7392
B( 38-C , 83-H ) :   0.9398 B( 39-C , 40-C ) :   1.1280 B( 39-C , 84-H ) :   0.9606
B( 40-C , 41-C ) :   1.0236 B( 40-C , 44-C ) :   1.4855 B( 41-C , 42-N ) :   1.7204
B( 41-C , 85-H ) :   0.9921 B( 42-N , 43-C ) :   1.2661 B( 43-C , 44-C ) :   1.0806
B( 43-C , 48-C ) :   1.5251 B( 44-C , 45-C ) :   1.0505 B( 45-C , 46-S ) :   1.6497
B( 45-C , 47-C ) :   1.0715 B( 46-S , 83-H ) :   0.1291 B( 47-C , 48-C ) :   1.0778
B( 47-C , 51-C ) :   1.4936 B( 48-C , 49-N ) :   1.2532 B( 49-N , 50-C ) :   1.7454
B( 50-C , 51-C ) :   1.0180 B( 50-C , 86-H ) :   0.9837 B( 51-C , 52-C ) :   1.1609
B( 52-C , 53-S ) :   1.0467 B( 52-C , 57-C ) :   1.5074 B( 53-S , 54-C ) :   1.1205
B( 54-C , 55-O ) :   1.2358 B( 54-C , 56-C ) :   1.4217 B( 55-O , 87-H ) :   0.9499
B( 56-C , 57-C ) :   1.2487 B( 56-C , 58-C ) :   1.0790 B( 57-C , 88-H ) :   0.9740
B( 58-C , 59-C ) :   1.9510 B( 58-C , 89-H ) :   0.9679 B( 59-C , 90-H ) :   0.9488
B( 59-C , 91-H ) :   0.9504

-----------------------------------------------------------------------------
         ABSORPTION SPECTRUM VIA TRANSITION ELECTRIC DIPOLE MOMENTS
-----------------------------------------------------------------------------
State   Energy  Wavelength   fosc         T2         TX        TY        TZ
        (cm-1)    (nm)                  (au**2)     (au)      (au)      (au)
-----------------------------------------------------------------------------
   0    9964.9   1003.5   0.107060881   3.53697  -0.05091  -0.48369  -1.81671
   1   11934.4    837.9   0.086995150   2.39977   0.95412  -0.34423  -1.17087
   2   14482.9    690.5   0.131105598   2.98017   0.07753  -1.32028  -1.10952
   3   14934.2    669.6   0.118632786   2.61515   0.37033  -0.74728  -1.38549
   4   16060.7    622.6   0.121822261   2.49710   1.16195  -0.13219  -1.06278
   5   16745.3    597.2   0.006363899   0.12511   0.27182   0.21503   0.07066
   6   16769.0    596.3   0.000677120   0.01329   0.02595   0.06938   0.08835
   7   17296.4    578.2   0.016543800   0.31489  -0.27952  -0.28706  -0.39288
   8   18066.2    553.5   0.041373453   0.75393  -0.00249  -0.64055  -0.58619
   9   19305.3    518.0   0.191141566   3.25952  -0.03558   0.92104   1.55240
  10   19451.9    514.1   0.020569859   0.34813   0.34701  -0.47059  -0.07912
  11   19946.4    501.3   0.011907952   0.19654   0.03834   0.18265   0.40213
  12   21362.9    468.1   0.118873641   1.83190   0.48569  -0.51104  -1.15535
  13   21694.9    460.9   0.325186518   4.93459   0.41954  -1.10329  -1.88184
  14   22294.0    448.6   0.291059542   4.29803   1.63358  -0.17999  -1.26374
  15   22843.8    437.8   0.066783376   0.96245   0.58253  -0.25367  -0.74750
  16   24262.5    412.2   0.249014336   3.37882   0.11787  -0.82266  -1.63956
  17   24790.1    403.4   0.006365939   0.08454  -0.02654   0.07966   0.27837
  18   25465.6    392.7   0.495332167   6.40351   1.06111  -0.77293  -2.16336
  19   25762.6    388.2   0.000429236   0.00549  -0.05235  -0.04509   0.02668
  20   26210.0    381.5   0.050655659   0.63626   0.00771   0.41277   0.68251
  21   26446.5    378.1   0.049164413   0.61201  -0.52643   0.26610   0.51388
  22   26559.8    376.5   0.015617522   0.19358   0.10668   0.13752   0.40409
  23   26721.0    374.2   0.334569817   4.12202   0.12562  -0.82753  -1.84971
  24   26791.0    373.3   0.006383679   0.07844   0.14778  -0.12742  -0.20092
  25   26875.2    372.1   0.035404875   0.43370  -0.59184  -0.05542   0.28347
  26   26909.8    371.6   0.001444001   0.01767  -0.00870   0.05724  -0.11964
  27   27759.5    360.2   0.207479767   2.46059   0.54248   0.51953   1.37709
  28   28202.1    354.6   0.030261726   0.35325  -0.49107   0.32227  -0.09079
  29   28856.2    346.5   0.019041901   0.21724  -0.05423  -0.04352  -0.46088
  30   29355.8    340.6   0.001967644   0.02207  -0.04511   0.07110   0.12238
  31   29695.0    336.8   0.022359326   0.24789   0.16721  -0.33934  -0.32369
  32   29894.8    334.5   0.004778803   0.05263   0.21729   0.07240   0.01299
  33   30190.6    331.2   0.132000378   1.43939   0.47312  -0.58895  -0.93204
  34   30250.1    330.6   0.068619916   0.74679   0.33584  -0.33982  -0.72008
  35   30614.2    326.6   0.009638681   0.10365   0.11318  -0.19497  -0.22984
  36   30830.3    324.4   0.005964506   0.06369   0.12970   0.12146   0.17921
  37   31410.4    318.4   0.091863755   0.96282   0.48447  -0.58081  -0.62513
  38   31843.5    314.0   0.005337482   0.05518   0.19959  -0.12383   0.00319
  39   32280.0    309.8   0.038211339   0.38970  -0.40766   0.25211   0.39994
  40   32367.6    309.0   0.007263147   0.07387  -0.06487   0.08804   0.24883
  41   32459.4    308.1   0.029511440   0.29931  -0.51631   0.09880   0.15159
  42   32521.7    307.5   0.013896361   0.14067  -0.15835   0.03190  -0.33849
  43   32640.5    306.4   0.002369349   0.02390   0.08024  -0.04072  -0.12570
  44   33156.8    301.6   0.033319051   0.33082  -0.24107  -0.06689  -0.51791
  45   33514.1    298.4   0.034303426   0.33697  -0.04293   0.24362   0.52514
  46   33837.3    295.5   0.000064967   0.00063  -0.02041  -0.00269   0.01443
  47   34049.7    293.7   0.067751388   0.65506  -0.15006  -0.58011  -0.54408
  48   34319.0    291.4   0.030672920   0.29424   0.21246  -0.27301  -0.41781
  49   34861.7    286.8   0.009622194   0.09087   0.04943  -0.07759  -0.28706
  50   34923.9    286.3   0.080440273   0.75827  -0.61645  -0.36287  -0.49658
  51   35010.5    285.6   0.030264776   0.28459   0.30049   0.24643   0.36546
  52   35039.2    285.4   0.010709126   0.10062  -0.23286  -0.04221  -0.21122
  53   35269.3    283.5   0.190207294   1.77544   0.23844  -0.28737  -1.27906
  54   35357.2    282.8   0.040857528   0.38043   0.03805   0.25043   0.56237
  55   35859.7    278.9   0.154844721   1.42156  -0.51274  -0.76446  -0.75780
  56   36211.9    276.2   0.016047542   0.14589   0.04370   0.26242   0.27408
  57   36274.5    275.7   0.010117572   0.09182  -0.05848   0.22133  -0.19853
  58   36481.2    274.1   0.006244411   0.05635   0.05979  -0.22257  -0.05692
  59   36659.0    272.8   0.007575513   0.06803   0.03351   0.24884   0.07061
  60   36812.0    271.7   0.188932927   1.68964  -0.32207   0.78665   0.98341
  61   37369.4    267.6   0.000193986   0.00171  -0.02589   0.01406   0.02900
  62   37487.0    266.8   0.000335626   0.00295  -0.03886  -0.03729  -0.00688
  63   37533.4    266.4   0.001841601   0.01615   0.03068   0.11085  -0.05406
  64   37816.9    264.4   0.000331450   0.00289   0.02501   0.04245  -0.02140
  65   38097.4    262.5   0.034028692   0.29405  -0.25987   0.27649   0.38740
  66   38291.7    261.2   0.173785424   1.49412   1.05884  -0.59716   0.12798
  67   38318.2    261.0   0.051494261   0.44241   0.30512  -0.08171   0.58535
  68   38748.1    258.1   0.134207027   1.14025  -0.70481   0.28668   0.74920
  69   39134.0    255.5   0.037762393   0.31767  -0.56344  -0.01454  -0.00074
  70   39247.9    254.8   0.033930032   0.28461   0.35515   0.38222  -0.11127
  71   39344.5    254.2   0.123233003   1.03114  -0.64111  -0.60552  -0.50346
  72   39467.4    253.4   0.066040210   0.55087   0.05397  -0.67845  -0.29607
  73   39604.5    252.5   0.064315399   0.53462   0.55762  -0.15200  -0.44786
  74   40045.7    249.7   0.025718223   0.21143   0.42011   0.17196  -0.07325
  75   40078.2    249.5   0.010155717   0.08342   0.28878  -0.00492  -0.00101
  76   40166.0    249.0   0.005642570   0.04625  -0.10933   0.06533  -0.17328

FINAL SINGLE POINT ENERGY     -3916.367292348300

DIPOLE MOMENT
-------------
                                X             Y             Z
Electronic contribution:    -35.87351      -0.83772       7.24702
Nuclear contribution   :     34.74974      -1.20180      -9.36731
                        -----------------------------------------
Total Dipole Moment    :     -1.12377      -2.03952      -2.12028
                        -----------------------------------------
Magnitude (a.u.)       :      3.14930
Magnitude (Debye)      :      8.00490

Rotational constants in cm-1:     0.002267     0.000315     0.000290
Rotational constants in MHz :    67.974103     9.435295     8.684342

                             ****ORCA TERMINATED NORMALLY****
TOTAL RUN TIME: 0 days 0 hours 10 minutes 57 seconds 689 msec
