                         Program Version 4.2.0 -  RELEASE  -
|  1> # ORCA input file
|  2> # SCF done       -179.864932111463          0.000854493606
|  3> ! CAM-B3LYP def2-SVP def2/J RIJCOSX Grid4 TightSCF
|  4> %maxcore 5000
|  5> %tddft
|  6>     Mode sTDDFT
|  7>     Ethresh 5.0
|  8>     maxcore 5000
|  9> end
| 10>
| 11> %pal
| 12>   nprocs 6
| 13>   end
| 14> * xyz 0 1
| 15>    C       -4.06532         3.97970        -8.01706
| 16>    S       -3.64006         2.60462        -9.01523
| 17>    C       -3.66356         1.65898        -7.58252
| 18>    C       -3.98745         2.45544        -6.48510
| 19>    N       -4.20687         3.74875        -6.75805
| 20>    C       -4.01228         1.65004        -5.22565
| 21>    C       -3.65855         0.28879        -5.75024
| 22>    C       -3.46150         0.33072        -7.13580
| 23>    S       -3.05305        -1.19561        -7.78897
| 24>    C       -3.14010        -1.91727        -6.18965
| 25>    C       -3.47666        -0.97937        -5.22033
| 26>    C       -2.86375        -3.29753        -6.06204
| 27>    C       -2.87639        -3.99407        -4.89463
| 28>    C       -2.57178        -5.37008        -4.77392
| 29>    C       -2.59336        -6.06177        -3.47981
| 30>    N       -2.26431        -7.31769        -3.52654
| 31>    C       -2.00359        -7.56947        -4.84285
| 32>    C       -2.19737        -6.36545        -5.66353
| 33>    C       -1.88940        -6.67114        -7.03673
| 34>    S       -1.88018        -5.64817        -8.33170
| 35>    C       -1.52616        -8.07016        -7.03537
| 36>    C       -1.58797        -8.58702        -5.66138
| 37>    N       -1.18572        -9.88959        -5.61160
| 38>    C       -0.85446       -10.19122        -6.83368
| 39>    C       -1.03796        -9.10724        -7.80143
| 40>    C       -0.76726        -9.22805        -9.20844
| 41>    C        0.21903       -10.08779        -9.64795
| 42>    C        0.50269       -10.18762       -11.02056
| 43>    C        1.45010       -10.94346       -11.70369
| 44>    C        2.44418       -11.86785       -11.09167
| 45>    C        2.19709       -13.32949       -11.50485
| 46>    N        0.89859       -13.76600       -11.01919
| 47>    C        3.89315       -11.45169       -11.40602
| 48>    N        4.81269       -12.23305       -10.59599
| 49>    C        1.27172       -10.65788       -13.10849
| 50>    C        1.90341       -11.11253       -14.20705
| 51>    C        1.54214       -10.63907       -15.57453
| 52>    C        0.39044        -9.69298       -15.62452
| 53>    C       -0.23822        -9.25074       -14.51980
| 54>    C        0.17177        -9.69055       -13.23884
| 55>    C       -0.28070        -9.40530       -11.96495
| 56>    C       -1.29510        -8.54615       -11.48592
| 57>    C       -1.52218        -8.45899       -10.15016
| 58>    C        2.80715       -10.07424       -16.18137
| 59>    C        2.96724        -8.79421       -16.52467
| 60>    C        4.16095        -8.25051       -17.10004
| 61>    C        5.49318        -8.85179       -17.17918
| 62>    N        6.38739        -8.10641       -17.76727
| 63>    C        5.72950        -6.96717       -18.13054
| 64>    C        4.32471        -7.02859       -17.70589
| 65>    C        3.62505        -5.83768       -18.12561
| 66>    S        2.03559        -5.48427       -17.88450
| 67>    C        4.62390        -5.06570       -18.81062
| 68>    C        5.91094        -5.77835       -18.79201
| 69>    N        6.86904        -5.06840       -19.45893
| 70>    C        6.27416        -3.99823       -19.89174
| 71>    C        4.85077        -3.91504       -19.53909
| 72>    C        4.01089        -2.86242       -19.94440
| 73>    S        2.28081        -2.80086       -19.50028
| 74>    C        2.17852        -1.35444       -20.40167
| 75>    C        3.42945        -1.02522       -20.95747
| 76>    N        4.41448        -1.86347       -20.69271
| 77>    C        3.34538         0.23791       -21.75424
| 78>    C        1.89409         0.58314       -21.59009
| 79>    C        1.24946        -0.36759       -20.79403
| 80>    S       -0.41560        -0.01628       -20.58078
| 81>    C       -0.25378         1.41925       -21.56747
| 82>    C        1.03978         1.59121       -22.02435
| 83>    C       -1.41711         2.22951       -21.79241
| 84>    C       -1.44915         3.35214       -22.50964
| 85>    H       -4.19317         4.94581        -8.46117
| 86>    H       -4.99523         1.66904        -4.75145
| 87>    H       -3.28572         2.01467        -4.49719
| 88>    H       -3.57995        -1.22467        -4.17931
| 89>    H       -2.61628        -3.82017        -6.97654
| 90>    H       -3.12425        -3.48963        -3.96958
| 91>    H       -2.85732        -5.59779        -2.54441
| 92>    H       -0.51989       -11.18545        -7.07457
| 93>    H        0.79873       -10.65499        -8.93493
| 94>    H        2.32653       -11.81908       -10.00327
| 95>    H        3.04082       -13.92615       -11.12383
| 96>    H        2.18114       -13.41144       -12.59355
| 97>    H        0.88500       -13.76919       -10.00446
| 98>    H        0.70384       -14.71031       -11.33200
| 99>    H        3.98436       -10.36356       -11.24806
|100>    H        4.12487       -11.65692       -12.45290
|101>    H        4.69575       -12.00651        -9.61335
|102>    H        5.77230       -12.02331       -10.84699
|103>    H        2.71997       -11.81822       -14.15153
|104>    H        1.28340       -11.52782       -16.17466
|105>    H        0.08253        -9.37365       -16.60852
|106>    H       -1.06673        -8.56213       -14.59569
|107>    H       -1.88000        -7.96681       -12.18434
|108>    H       -2.29524        -7.81147        -9.76953
|109>    H        3.60996       -10.78682       -16.31261
|110>    H        2.15400        -8.09088       -16.40609
|111>    H        5.77055        -9.81387       -16.78536
|112>    H        6.79781        -3.24955       -20.45816
|113>    H        3.61951         0.07598       -22.79858
|114>    H        4.00373         1.01175       -21.35433
|115>    H        1.33732         2.41476       -22.64684
|116>    H       -2.32299         1.86601       -21.32428
|117>    H       -0.57379         3.75148       -22.99297
|118>    H       -2.36207         3.90726       -22.63340
|119> *
|120>
|121>                          ****END OF INPUT****

CARTESIAN COORDINATES (ANGSTROEM)
---------------------------------
  C     -4.065320    3.979700   -8.017060
  S     -3.640060    2.604620   -9.015230
  C     -3.663560    1.658980   -7.582520
  C     -3.987450    2.455440   -6.485100
  N     -4.206870    3.748750   -6.758050
  C     -4.012280    1.650040   -5.225650
  C     -3.658550    0.288790   -5.750240
  C     -3.461500    0.330720   -7.135800
  S     -3.053050   -1.195610   -7.788970
  C     -3.140100   -1.917270   -6.189650
  C     -3.476660   -0.979370   -5.220330
  C     -2.863750   -3.297530   -6.062040
  C     -2.876390   -3.994070   -4.894630
  C     -2.571780   -5.370080   -4.773920
  C     -2.593360   -6.061770   -3.479810
  N     -2.264310   -7.317690   -3.526540
  C     -2.003590   -7.569470   -4.842850
  C     -2.197370   -6.365450   -5.663530
  C     -1.889400   -6.671140   -7.036730
  S     -1.880180   -5.648170   -8.331700
  C     -1.526160   -8.070160   -7.035370
  C     -1.587970   -8.587020   -5.661380
  N     -1.185720   -9.889590   -5.611600
  C     -0.854460  -10.191220   -6.833680
  C     -1.037960   -9.107240   -7.801430
  C     -0.767260   -9.228050   -9.208440
  C      0.219030  -10.087790   -9.647950
  C      0.502690  -10.187620  -11.020560
  C      1.450100  -10.943460  -11.703690
  C      2.444180  -11.867850  -11.091670
  C      2.197090  -13.329490  -11.504850
  N      0.898590  -13.766000  -11.019190
  C      3.893150  -11.451690  -11.406020
  N      4.812690  -12.233050  -10.595990
  C      1.271720  -10.657880  -13.108490
  C      1.903410  -11.112530  -14.207050
  C      1.542140  -10.639070  -15.574530
  C      0.390440   -9.692980  -15.624520
  C     -0.238220   -9.250740  -14.519800
  C      0.171770   -9.690550  -13.238840
  C     -0.280700   -9.405300  -11.964950
  C     -1.295100   -8.546150  -11.485920
  C     -1.522180   -8.458990  -10.150160
  C      2.807150  -10.074240  -16.181370
  C      2.967240   -8.794210  -16.524670
  C      4.160950   -8.250510  -17.100040
  C      5.493180   -8.851790  -17.179180
  N      6.387390   -8.106410  -17.767270
  C      5.729500   -6.967170  -18.130540
  C      4.324710   -7.028590  -17.705890
  C      3.625050   -5.837680  -18.125610
  S      2.035590   -5.484270  -17.884500
  C      4.623900   -5.065700  -18.810620
  C      5.910940   -5.778350  -18.792010
  N      6.869040   -5.068400  -19.458930
  C      6.274160   -3.998230  -19.891740
  C      4.850770   -3.915040  -19.539090
  C      4.010890   -2.862420  -19.944400
  S      2.280810   -2.800860  -19.500280
  C      2.178520   -1.354440  -20.401670
  C      3.429450   -1.025220  -20.957470
  N      4.414480   -1.863470  -20.692710
  C      3.345380    0.237910  -21.754240
  C      1.894090    0.583140  -21.590090
  C      1.249460   -0.367590  -20.794030
  S     -0.415600   -0.016280  -20.580780
  C     -0.253780    1.419250  -21.567470
  C      1.039780    1.591210  -22.024350
  C     -1.417110    2.229510  -21.792410
  C     -1.449150    3.352140  -22.509640
  H     -4.193170    4.945810   -8.461170
  H     -4.995230    1.669040   -4.751450
  H     -3.285720    2.014670   -4.497190
  H     -3.579950   -1.224670   -4.179310
  H     -2.616280   -3.820170   -6.976540
  H     -3.124250   -3.489630   -3.969580
  H     -2.857320   -5.597790   -2.544410
  H     -0.519890  -11.185450   -7.074570
  H      0.798730  -10.654990   -8.934930
  H      2.326530  -11.819080  -10.003270
  H      3.040820  -13.926150  -11.123830
  H      2.181140  -13.411440  -12.593550
  H      0.885000  -13.769190  -10.004460
  H      0.703840  -14.710310  -11.332000
  H      3.984360  -10.363560  -11.248060
  H      4.124870  -11.656920  -12.452900
  H      4.695750  -12.006510   -9.613350
  H      5.772300  -12.023310  -10.846990
  H      2.719970  -11.818220  -14.151530
  H      1.283400  -11.527820  -16.174660
  H      0.082530   -9.373650  -16.608520
  H     -1.066730   -8.562130  -14.595690
  H     -1.880000   -7.966810  -12.184340
  H     -2.295240   -7.811470   -9.769530
  H      3.609960  -10.786820  -16.312610
  H      2.154000   -8.090880  -16.406090
  H      5.770550   -9.813870  -16.785360
  H      6.797810   -3.249550  -20.458160
  H      3.619510    0.075980  -22.798580
  H      4.003730    1.011750  -21.354330
  H      1.337320    2.414760  -22.646840
  H     -2.322990    1.866010  -21.324280
  H     -0.573790    3.751480  -22.992970
  H     -2.362070    3.907260  -22.633400

 Total Charge           Charge          ....    0
 Multiplicity           Mult            ....    1
 Number of Electrons    NEL             ....  522
 Basis Dimension        Dim             .... 1174

ORBITAL ENERGIES
----------------

  NO   OCC          E(Eh)            E(eV)
   0   2.0000     -88.968589     -2420.9584
   1   2.0000     -88.968344     -2420.9517
   2   2.0000     -88.964443     -2420.8456
   3   2.0000     -88.962487     -2420.7923
   4   2.0000     -88.895627     -2418.9730
   5   2.0000     -88.884065     -2418.6584
   6   2.0000     -14.418734      -392.3537
   7   2.0000     -14.412379      -392.1808
   8   2.0000     -14.411725      -392.1630
   9   2.0000     -14.410135      -392.1197
  10   2.0000     -14.403685      -391.9442
  11   2.0000     -14.400798      -391.8656
  12   2.0000     -14.381220      -391.3329
  13   2.0000     -14.369830      -391.0230
  14   2.0000     -10.338503      -281.3250
  15   2.0000     -10.337332      -281.2931
  16   2.0000     -10.330284      -281.1013
  17   2.0000     -10.328473      -281.0520
  18   2.0000     -10.327849      -281.0351
  19   2.0000     -10.327707      -281.0312
  20   2.0000     -10.326531      -280.9992
  21   2.0000     -10.320923      -280.8466
  22   2.0000     -10.320306      -280.8298
  23   2.0000     -10.317526      -280.7542
  24   2.0000     -10.313524      -280.6453
  25   2.0000     -10.310732      -280.5693
  26   2.0000     -10.308037      -280.4959
  27   2.0000     -10.307530      -280.4822
  28   2.0000     -10.307285      -280.4755
  29   2.0000     -10.306567      -280.4559
  30   2.0000     -10.305654      -280.4311
  31   2.0000     -10.305469      -280.4261
  32   2.0000     -10.304758      -280.4067
  33   2.0000     -10.302806      -280.3536
  34   2.0000     -10.300625      -280.2943
  35   2.0000     -10.300561      -280.2925
  36   2.0000     -10.297826      -280.2181
  37   2.0000     -10.294516      -280.1280
  38   2.0000     -10.293097      -280.0894
  39   2.0000     -10.292691      -280.0784
  40   2.0000     -10.290320      -280.0138
  41   2.0000     -10.290202      -280.0106
  42   2.0000     -10.289725      -279.9977
  43   2.0000     -10.287706      -279.9427
  44   2.0000     -10.285249      -279.8758
  45   2.0000     -10.284982      -279.8686
  46   2.0000     -10.284624      -279.8589
  47   2.0000     -10.284049      -279.8432
  48   2.0000     -10.281120      -279.7635
  49   2.0000     -10.280742      -279.7532
  50   2.0000     -10.280559      -279.7482
  51   2.0000     -10.279002      -279.7059
  52   2.0000     -10.278974      -279.7051
  53   2.0000     -10.276472      -279.6370
  54   2.0000     -10.275925      -279.6221
  55   2.0000     -10.275461      -279.6095
  56   2.0000     -10.275351      -279.6065
  57   2.0000     -10.271969      -279.5145
  58   2.0000     -10.270807      -279.4829
  59   2.0000     -10.270267      -279.4682
  60   2.0000     -10.269995      -279.4608
  61   2.0000     -10.266026      -279.3528
  62   2.0000     -10.264602      -279.3140
  63   2.0000     -10.262575      -279.2589
  64   2.0000     -10.258535      -279.1489
  65   2.0000     -10.257957      -279.1332
  66   2.0000     -10.257555      -279.1223
  67   2.0000     -10.254680      -279.0440
  68   2.0000     -10.253968      -279.0247
  69   2.0000     -10.253823      -279.0207
  70   2.0000      -8.063929      -219.4307
  71   2.0000      -8.062586      -219.3941
  72   2.0000      -8.059676      -219.3149
  73   2.0000      -8.057497      -219.2556
  74   2.0000      -7.991292      -217.4541
  75   2.0000      -7.979668      -217.1378
  76   2.0000      -6.033113      -164.1693
  77   2.0000      -6.031796      -164.1335
  78   2.0000      -6.028970      -164.0566
  79   2.0000      -6.028934      -164.0556
  80   2.0000      -6.027603      -164.0194
  81   2.0000      -6.026763      -163.9966
  82   2.0000      -6.026254      -163.9827
  83   2.0000      -6.024896      -163.9458
  84   2.0000      -6.024881      -163.9454
  85   2.0000      -6.022666      -163.8851
  86   2.0000      -6.021834      -163.8624
  87   2.0000      -6.019729      -163.8051
  88   2.0000      -5.960061      -162.1815
  89   2.0000      -5.959622      -162.1696
  90   2.0000      -5.950820      -161.9300
  91   2.0000      -5.948515      -161.8673
  92   2.0000      -5.947807      -161.8481
  93   2.0000      -5.939348      -161.6179
  94   2.0000      -1.079719       -29.3806
  95   2.0000      -1.070349       -29.1257
  96   2.0000      -1.068396       -29.0725
  97   2.0000      -1.066338       -29.0165
  98   2.0000      -1.058051       -28.7910
  99   2.0000      -1.049748       -28.5651
 100   2.0000      -0.998612       -27.1736
 101   2.0000      -0.996067       -27.1044
 102   2.0000      -0.979052       -26.6414
 103   2.0000      -0.964390       -26.2424
 104   2.0000      -0.957844       -26.0642
 105   2.0000      -0.946964       -25.7682
 106   2.0000      -0.946721       -25.7616
 107   2.0000      -0.942559       -25.6483
 108   2.0000      -0.931919       -25.3588
 109   2.0000      -0.928604       -25.2686
 110   2.0000      -0.915861       -24.9218
 111   2.0000      -0.901345       -24.5268
 112   2.0000      -0.897004       -24.4087
 113   2.0000      -0.894264       -24.3342
 114   2.0000      -0.893035       -24.3007
 115   2.0000      -0.881966       -23.9995
 116   2.0000      -0.869896       -23.6711
 117   2.0000      -0.867720       -23.6119
 118   2.0000      -0.857971       -23.3466
 119   2.0000      -0.847354       -23.0577
 120   2.0000      -0.846145       -23.0248
 121   2.0000      -0.837226       -22.7821
 122   2.0000      -0.833602       -22.6835
 123   2.0000      -0.832681       -22.6584
 124   2.0000      -0.830707       -22.6047
 125   2.0000      -0.827334       -22.5129
 126   2.0000      -0.819969       -22.3125
 127   2.0000      -0.794217       -21.6117
 128   2.0000      -0.786206       -21.3937
 129   2.0000      -0.782284       -21.2870
 130   2.0000      -0.780487       -21.2381
 131   2.0000      -0.775345       -21.0982
 132   2.0000      -0.764280       -20.7971
 133   2.0000      -0.759012       -20.6538
 134   2.0000      -0.750223       -20.4146
 135   2.0000      -0.740130       -20.1400
 136   2.0000      -0.732602       -19.9351
 137   2.0000      -0.722302       -19.6548
 138   2.0000      -0.719357       -19.5747
 139   2.0000      -0.718121       -19.5411
 140   2.0000      -0.708647       -19.2833
 141   2.0000      -0.696110       -18.9421
 142   2.0000      -0.690232       -18.7822
 143   2.0000      -0.689895       -18.7730
 144   2.0000      -0.671074       -18.2609
 145   2.0000      -0.668343       -18.1865
 146   2.0000      -0.664548       -18.0833
 147   2.0000      -0.659038       -17.9333
 148   2.0000      -0.656660       -17.8686
 149   2.0000      -0.653516       -17.7831
 150   2.0000      -0.647562       -17.6211
 151   2.0000      -0.640762       -17.4360
 152   2.0000      -0.633884       -17.2489
 153   2.0000      -0.627773       -17.0826
 154   2.0000      -0.626651       -17.0521
 155   2.0000      -0.624538       -16.9945
 156   2.0000      -0.617540       -16.8041
 157   2.0000      -0.608741       -16.5647
 158   2.0000      -0.603962       -16.4347
 159   2.0000      -0.598937       -16.2979
 160   2.0000      -0.591252       -16.0888
 161   2.0000      -0.589702       -16.0466
 162   2.0000      -0.581383       -15.8202
 163   2.0000      -0.574732       -15.6393
 164   2.0000      -0.570479       -15.5235
 165   2.0000      -0.566447       -15.4138
 166   2.0000      -0.565758       -15.3951
 167   2.0000      -0.564728       -15.3670
 168   2.0000      -0.559922       -15.2363
 169   2.0000      -0.554940       -15.1007
 170   2.0000      -0.554505       -15.0888
 171   2.0000      -0.553241       -15.0545
 172   2.0000      -0.550785       -14.9876
 173   2.0000      -0.549887       -14.9632
 174   2.0000      -0.548020       -14.9124
 175   2.0000      -0.540520       -14.7083
 176   2.0000      -0.539247       -14.6737
 177   2.0000      -0.537576       -14.6282
 178   2.0000      -0.532959       -14.5026
 179   2.0000      -0.530094       -14.4246
 180   2.0000      -0.527181       -14.3453
 181   2.0000      -0.524195       -14.2641
 182   2.0000      -0.522001       -14.2044
 183   2.0000      -0.519933       -14.1481
 184   2.0000      -0.515658       -14.0318
 185   2.0000      -0.514097       -13.9893
 186   2.0000      -0.511854       -13.9282
 187   2.0000      -0.506706       -13.7882
 188   2.0000      -0.506359       -13.7787
 189   2.0000      -0.500525       -13.6200
 190   2.0000      -0.498226       -13.5574
 191   2.0000      -0.493335       -13.4243
 192   2.0000      -0.491411       -13.3720
 193   2.0000      -0.489129       -13.3099
 194   2.0000      -0.487686       -13.2706
 195   2.0000      -0.484580       -13.1861
 196   2.0000      -0.482597       -13.1321
 197   2.0000      -0.482375       -13.1261
 198   2.0000      -0.478029       -13.0078
 199   2.0000      -0.476251       -12.9595
 200   2.0000      -0.475629       -12.9425
 201   2.0000      -0.473390       -12.8816
 202   2.0000      -0.472712       -12.8631
 203   2.0000      -0.470934       -12.8148
 204   2.0000      -0.470346       -12.7988
 205   2.0000      -0.468588       -12.7509
 206   2.0000      -0.465456       -12.6657
 207   2.0000      -0.462296       -12.5797
 208   2.0000      -0.459555       -12.5051
 209   2.0000      -0.455218       -12.3871
 210   2.0000      -0.453918       -12.3517
 211   2.0000      -0.452015       -12.3000
 212   2.0000      -0.443999       -12.0818
 213   2.0000      -0.442170       -12.0321
 214   2.0000      -0.437129       -11.8949
 215   2.0000      -0.435333       -11.8460
 216   2.0000      -0.432312       -11.7638
 217   2.0000      -0.429498       -11.6872
 218   2.0000      -0.427995       -11.6463
 219   2.0000      -0.425066       -11.5666
 220   2.0000      -0.423372       -11.5205
 221   2.0000      -0.422568       -11.4987
 222   2.0000      -0.420663       -11.4468
 223   2.0000      -0.420410       -11.4399
 224   2.0000      -0.417148       -11.3512
 225   2.0000      -0.413450       -11.2505
 226   2.0000      -0.405202       -11.0261
 227   2.0000      -0.404940       -11.0190
 228   2.0000      -0.404571       -11.0089
 229   2.0000      -0.402754       -10.9595
 230   2.0000      -0.390960       -10.6385
 231   2.0000      -0.388325       -10.5669
 232   2.0000      -0.379875       -10.3369
 233   2.0000      -0.367110        -9.9896
 234   2.0000      -0.360900        -9.8206
 235   2.0000      -0.359607        -9.7854
 236   2.0000      -0.359284        -9.7766
 237   2.0000      -0.352648        -9.5960
 238   2.0000      -0.349418        -9.5082
 239   2.0000      -0.348283        -9.4773
 240   2.0000      -0.346917        -9.4401
 241   2.0000      -0.343080        -9.3357
 242   2.0000      -0.342196        -9.3116
 243   2.0000      -0.341809        -9.3011
 244   2.0000      -0.336556        -9.1582
 245   2.0000      -0.325558        -8.8589
 246   2.0000      -0.322701        -8.7811
 247   2.0000      -0.321157        -8.7391
 248   2.0000      -0.313294        -8.5252
 249   2.0000      -0.311867        -8.4863
 250   2.0000      -0.305842        -8.3224
 251   2.0000      -0.304973        -8.2987
 252   2.0000      -0.297433        -8.0936
 253   2.0000      -0.289102        -7.8669
 254   2.0000      -0.284376        -7.7383
 255   2.0000      -0.281083        -7.6486
 256   2.0000      -0.279076        -7.5941
 257   2.0000      -0.269322        -7.3286
 258   2.0000      -0.242520        -6.5993
 259   2.0000      -0.238111        -6.4793
 260   2.0000      -0.215030        -5.8513
 261   0.0000      -0.107215        -2.9175
 262   0.0000      -0.100514        -2.7351
 263   0.0000      -0.078658        -2.1404
 264   0.0000      -0.072868        -1.9828
 265   0.0000      -0.053091        -1.4447

MULLIKEN ATOMIC CHARGES
-----------------------
   0 C :   -0.007321
   1 S :    0.127049
   2 C :   -0.079619
   3 C :   -0.227712
   4 N :   -0.038503
   5 C :    0.377168
   6 C :   -0.163362
   7 C :   -0.100089
   8 S :    0.171899
   9 C :   -0.092944
  10 C :   -0.010232
  11 C :    0.102890
  12 C :   -0.039198
  13 C :    0.024859
  14 C :    0.051181
  15 N :   -0.027411
  16 C :   -0.002996
  17 C :   -0.014532
  18 C :   -0.007803
  19 S :   -0.133448
  20 C :   -0.019569
  21 C :    0.000286
  22 N :   -0.030566
  23 C :    0.044471
  24 C :   -0.000462
  25 C :    0.070332
  26 C :   -0.103496
  27 C :    0.054112
  28 C :    0.050085
  29 C :   -0.086112
  30 C :    0.149078
  31 N :   -0.215304
  32 C :    0.144616
  33 N :   -0.214761
  34 C :    0.093109
  35 C :   -0.140734
  36 C :    0.183523
  37 C :   -0.061275
  38 C :    0.023253
  39 C :    0.002918
  40 C :    0.043296
  41 C :   -0.011697
  42 C :    0.026339
  43 C :   -0.108315
  44 C :    0.022015
  45 C :    0.013142
  46 C :    0.044680
  47 N :   -0.029932
  48 C :    0.004861
  49 C :   -0.004961
  50 C :   -0.005808
  51 S :   -0.136514
  52 C :   -0.019136
  53 C :   -0.002962
  54 N :   -0.018919
  55 C :    0.067951
  56 C :    0.042836
  57 C :   -0.161698
  58 S :    0.182460
  59 C :   -0.033412
  60 C :   -0.233508
  61 N :   -0.011739
  62 C :    0.394350
  63 C :   -0.168392
  64 C :   -0.111749
  65 S :    0.158638
  66 C :   -0.091798
  67 C :   -0.007625
  68 C :    0.039118
  69 C :   -0.021992
  70 H :    0.037586
  71 H :    0.037077
  72 H :    0.038057
  73 H :   -0.021503
  74 H :   -0.034187
  75 H :   -0.035494
  76 H :    0.000221
  77 H :    0.001050
  78 H :   -0.044329
  79 H :   -0.039528
  80 H :   -0.001694
  81 H :   -0.027228
  82 H :    0.081842
  83 H :    0.088983
  84 H :    0.001619
  85 H :   -0.025602
  86 H :    0.090603
  87 H :    0.092016
  88 H :    0.001246
  89 H :    0.038127
  90 H :   -0.003323
  91 H :   -0.033315
  92 H :   -0.037646
  93 H :   -0.028969
  94 H :   -0.002953
  95 H :    0.014136
  96 H :    0.001126
  97 H :    0.016093
  98 H :    0.036315
  99 H :    0.036622
 100 H :   -0.026663
 101 H :   -0.008567
 102 H :    0.016990
 103 H :    0.028386
Sum of atomic charges:   -0.0000000

LOEWDIN ATOMIC CHARGES
----------------------
   0 C :   -0.126621
   1 S :    0.415706
   2 C :   -0.218188
   3 C :   -0.042724
   4 N :   -0.084053
   5 C :   -0.012068
   6 C :   -0.050516
   7 C :   -0.193376
   8 S :    0.457562
   9 C :   -0.173756
  10 C :   -0.039205
  11 C :    0.001844
  12 C :   -0.050249
  13 C :   -0.027979
  14 C :    0.078385
  15 N :   -0.078940
  16 C :    0.033952
  17 C :   -0.059425
  18 C :   -0.130171
  19 S :    0.060638
  20 C :   -0.051906
  21 C :    0.028210
  22 N :   -0.082347
  23 C :    0.076086
  24 C :   -0.019768
  25 C :   -0.028882
  26 C :    0.001520
  27 C :   -0.018478
  28 C :   -0.010957
  29 C :   -0.040763
  30 C :    0.023466
  31 N :   -0.119582
  32 C :    0.026812
  33 N :   -0.116689
  34 C :   -0.010537
  35 C :    0.064547
  36 C :   -0.029851
  37 C :   -0.037775
  38 C :   -0.010418
  39 C :   -0.038683
  40 C :   -0.024519
  41 C :   -0.009444
  42 C :   -0.016493
  43 C :    0.007511
  44 C :   -0.023961
  45 C :   -0.032105
  46 C :    0.079275
  47 N :   -0.081170
  48 C :    0.026846
  49 C :   -0.039654
  50 C :   -0.141593
  51 S :    0.037344
  52 C :   -0.055344
  53 C :    0.041389
  54 N :   -0.077329
  55 C :    0.103912
  56 C :   -0.057006
  57 C :   -0.139873
  58 S :    0.460781
  59 C :   -0.206343
  60 C :   -0.042408
  61 N :   -0.078841
  62 C :   -0.013099
  63 C :   -0.040405
  64 C :   -0.208135
  65 S :    0.445287
  66 C :   -0.163844
  67 C :   -0.053306
  68 C :   -0.043167
  69 C :   -0.039750
  70 H :    0.017156
  71 H :    0.055812
  72 H :    0.056048
  73 H :    0.030813
  74 H :    0.003532
  75 H :    0.023313
  76 H :    0.022272
  77 H :    0.021374
  78 H :    0.020345
  79 H :    0.018770
  80 H :    0.000594
  81 H :    0.009872
  82 H :    0.048369
  83 H :    0.053792
  84 H :    0.005529
  85 H :    0.011901
  86 H :    0.052284
  87 H :    0.055643
  88 H :    0.024101
  89 H :    0.060655
  90 H :    0.026361
  91 H :    0.031432
  92 H :    0.027561
  93 H :    0.016327
  94 H :    0.021394
  95 H :    0.033146
  96 H :    0.021240
  97 H :    0.029551
  98 H :    0.055788
  99 H :    0.056177
 100 H :    0.030572
 101 H :    0.029190
 102 H :    0.021746
 103 H :    0.027964

  Mayer bond orders larger than 0.100000
B(  0-C ,  1-S ) :   1.1358 B(  0-C ,  4-N ) :   1.6905 B(  0-C , 70-H ) :   0.9665
B(  1-S ,  2-C ) :   1.0902 B(  2-C ,  3-C ) :   1.5259 B(  2-C ,  7-C ) :   1.1898
B(  3-C ,  4-N ) :   1.4125 B(  3-C ,  5-C ) :   1.0469 B(  5-C ,  6-C ) :   0.9819
B(  5-C , 71-H ) :   0.8655 B(  5-C , 72-H ) :   0.8660 B(  6-C ,  7-C ) :   1.5099
B(  6-C , 10-C ) :   1.3299 B(  7-C ,  8-S ) :   1.1057 B(  8-S ,  9-C ) :   1.1048
B(  9-C , 10-C ) :   1.4311 B(  9-C , 11-C ) :   1.1660 B( 10-C , 73-H ) :   0.9974
B( 11-C , 12-C ) :   1.6134 B( 11-C , 74-H ) :   0.9195 B( 12-C , 13-C ) :   1.1656
B( 12-C , 75-H ) :   0.9649 B( 13-C , 14-C ) :   1.0161 B( 13-C , 17-C ) :   1.4369
B( 14-C , 15-N ) :   1.7288 B( 14-C , 76-H ) :   0.9904 B( 15-N , 16-C ) :   1.2594
B( 16-C , 17-C ) :   1.0813 B( 16-C , 21-C ) :   1.5209 B( 17-C , 18-C ) :   1.0704
B( 18-C , 19-S ) :   1.6587 B( 18-C , 20-C ) :   1.0353 B( 19-S , 74-H ) :   0.1395
B( 20-C , 21-C ) :   1.0738 B( 20-C , 24-C ) :   1.5322 B( 21-C , 22-N ) :   1.2596
B( 22-N , 23-C ) :   1.7288 B( 23-C , 24-C ) :   1.0411 B( 23-C , 77-H ) :   0.9865
B( 24-C , 25-C ) :   1.0103 B( 25-C , 26-C ) :   1.5047 B( 25-C , 42-C ) :   1.1447
B( 26-C , 27-C ) :   1.1418 B( 26-C , 78-H ) :   0.9895 B( 27-C , 28-C ) :   1.4887
B( 27-C , 40-C ) :   1.1148 B( 28-C , 29-C ) :   1.0063 B( 28-C , 34-C ) :   1.0890
B( 29-C , 30-C ) :   1.0382 B( 29-C , 32-C ) :   1.0400 B( 29-C , 79-H ) :   0.8927
B( 30-C , 31-N ) :   1.0782 B( 30-C , 80-H ) :   0.9342 B( 30-C , 81-H ) :   0.9342
B( 31-N , 82-H ) :   0.9728 B( 31-N , 83-H ) :   0.9696 B( 32-C , 33-N ) :   1.0797
B( 32-C , 84-H ) :   0.9476 B( 32-C , 85-H ) :   0.9282 B( 33-N , 86-H ) :   0.9710
B( 33-N , 87-H ) :   0.9680 B( 34-C , 35-C ) :   1.6926 B( 34-C , 39-C ) :   1.0506
B( 35-C , 36-C ) :   0.9600 B( 35-C , 88-H ) :   0.9553 B( 36-C , 37-C ) :   1.0166
B( 36-C , 43-C ) :   0.9356 B( 36-C , 89-H ) :   0.8486 B( 37-C , 38-C ) :   1.7199
B( 37-C , 90-H ) :   0.9633 B( 38-C , 39-C ) :   1.1285 B( 38-C , 91-H ) :   0.9928
B( 39-C , 40-C ) :   1.4451 B( 40-C , 41-C ) :   1.1342 B( 41-C , 42-C ) :   1.6132
B( 41-C , 92-H ) :   0.9940 B( 42-C , 93-H ) :   0.9701 B( 43-C , 44-C ) :   1.8291
B( 43-C , 94-H ) :   0.9704 B( 44-C , 45-C ) :   1.0615 B( 44-C , 95-H ) :   0.9462
B( 45-C , 46-C ) :   1.0168 B( 45-C , 49-C ) :   1.5441 B( 46-C , 47-N ) :   1.7289
B( 46-C , 96-H ) :   0.9907 B( 47-N , 48-C ) :   1.2615 B( 48-C , 49-C ) :   1.0739
B( 48-C , 53-C ) :   1.5225 B( 49-C , 50-C ) :   1.0238 B( 50-C , 51-S ) :   1.6845
B( 50-C , 52-C ) :   1.0490 B( 52-C , 53-C ) :   1.0808 B( 52-C , 56-C ) :   1.4948
B( 53-C , 54-N ) :   1.2617 B( 54-N , 55-C ) :   1.7229 B( 55-C , 56-C ) :   1.0205
B( 55-C , 97-H ) :   0.9931 B( 56-C , 57-C ) :   1.1297 B( 57-C , 58-S ) :   1.0779
B( 57-C , 61-N ) :   1.6413 B( 58-S , 59-C ) :   1.0974 B( 58-S , 61-N ) :   0.1012
B( 59-C , 60-C ) :   1.4328 B( 59-C , 64-C ) :   1.1940 B( 60-C , 61-N ) :   1.4836
B( 60-C , 62-C ) :   1.0390 B( 62-C , 63-C ) :   0.9828 B( 62-C , 98-H ) :   0.8612
B( 62-C , 99-H ) :   0.8597 B( 63-C , 64-C ) :   1.5164 B( 63-C , 67-C ) :   1.3154
B( 64-C , 65-S ) :   1.0842 B( 65-S , 66-C ) :   1.1197 B( 66-C , 67-C ) :   1.4876
B( 66-C , 68-C ) :   1.0966 B( 67-C ,100-H ) :   0.9967 B( 68-C , 69-C ) :   1.9451
B( 68-C ,101-H ) :   0.9537 B( 69-C ,102-H ) :   0.9542 B( 69-C ,103-H ) :   0.9498

-----------------------------------------------------------------------------
         ABSORPTION SPECTRUM VIA TRANSITION ELECTRIC DIPOLE MOMENTS
-----------------------------------------------------------------------------
State   Energy  Wavelength   fosc         T2         TX        TY        TZ
        (cm-1)    (nm)                  (au**2)     (au)      (au)      (au)
-----------------------------------------------------------------------------
   0   10255.8    975.1   0.112739716   3.61895  -0.89464   1.14808   1.22494
   1   11429.9    874.9   0.018274605   0.52636  -0.08474   0.60988   0.38370
   2   13928.3    718.0   0.056019054   1.32408   0.11544   0.40278   1.07169
   3   14343.5    697.2   0.051721171   1.18711   0.22342  -0.88544  -0.59429
   4   14460.6    691.5   0.568452632  12.94144  -1.16049   3.24650  -1.02711
   5   15916.4    628.3   0.009396928   0.19436  -0.10600  -0.02815   0.42701
   6   16475.6    607.0   0.000365330   0.00730  -0.01333  -0.05497   0.06404
   7   16866.4    592.9   0.022873235   0.44646   0.15955  -0.54090  -0.35837
   8   17926.3    557.8   0.094001067   1.72631  -0.14185   0.18477   1.29308
   9   18766.9    532.9   0.001996394   0.03502   0.02921  -0.09052   0.16116
  10   18973.4    527.1   0.120784480   2.09576   0.42210  -0.84416  -1.09772
  11   19466.6    513.7   0.021965657   0.37147  -0.58914   0.15565   0.01260
  12   19789.0    505.3   0.045577301   0.75823  -0.32319   0.10783  -0.80134
  13   19892.2    502.7   1.047374759  17.33385   1.20104  -3.86517   0.97559
  14   20282.6    493.0   0.020836249   0.33820  -0.32309   0.16227   0.45550
  15   21515.7    464.8   0.008855064   0.13549   0.13057  -0.32884  -0.10154
  16   24093.1    415.1   0.196205766   2.68099   0.68463  -1.13094  -0.96604
  17   24266.5    412.1   0.082260905   1.11599  -0.39507   0.96360   0.17716
  18   24606.2    406.4   0.163141775   2.18271  -0.37921   1.27127  -0.65022
  19   25411.5    393.5   0.008616610   0.11163   0.12013   0.05907  -0.30612
  20   25931.1    385.6   0.064719714   0.82166  -0.33784  -0.14408   0.82871
  21   25984.1    384.9   0.018345586   0.23243  -0.20066  -0.41584   0.13873
  22   26080.4    383.4   0.066422074   0.83844   0.52820  -0.42334  -0.61662
  23   26547.7    376.7   0.003318112   0.04115  -0.05615   0.08361   0.17608
  24   26653.1    375.2   0.165268063   2.04135   0.62072  -0.33277  -1.24311
  25   26680.1    374.8   0.003088716   0.03811   0.17272  -0.05223  -0.07450
  26   27274.8    366.6   0.080363376   0.97000  -0.35255  -0.31215   0.86503
  27   27476.5    363.9   0.054849209   0.65718   0.25859  -0.68677  -0.34448
  28   27945.3    357.8   0.005528380   0.06513  -0.08666   0.18721   0.15023
  29   28415.1    351.9   0.015745485   0.18242  -0.11687   0.01742   0.41044
  30   28499.2    350.9   0.108930108   1.25832   0.23088   0.36191  -1.03636
  31   28684.5    348.6   0.169296487   1.94301  -0.53975   1.09494   0.67290
  32   28999.9    344.8   0.113211728   1.28520  -0.19182  -0.59113   0.94814
  33   29416.2    339.9   0.694562033   7.77321   0.59085  -2.65438   0.61512
  34   29807.1    335.5   0.017994358   0.19874   0.20257  -0.39536  -0.03734
  35   30067.0    332.6   0.086475760   0.94685  -0.17480  -0.82326   0.48839
  36   30375.3    329.2   0.164496860   1.78284   0.46964  -1.24559   0.10383
  37   30544.8    327.4   0.079892652   0.86108   0.81977  -0.42317   0.09994
  38   30728.3    325.4   0.085190605   0.91270   0.89645  -0.32677   0.04797
  39   31032.0    322.2   0.128209283   1.36014   1.00100  -0.40020   0.44496
  40   31236.1    320.1   0.088175545   0.92932   0.16777  -0.83115   0.45867
  41   31360.2    318.9   0.087147627   0.91486  -0.33361  -0.33744   0.83048
  42   31603.3    316.4   0.001005873   0.01048   0.04900   0.08757   0.02022
  43   32151.8    311.0   0.024000320   0.24575  -0.07768  -0.06546   0.48521
  44   32227.7    310.3   0.011934744   0.12192   0.20490   0.04532  -0.27907
  45   32723.6    305.6   0.010759765   0.10825  -0.08191  -0.06143   0.31267
  46   33017.3    302.9   0.030846508   0.30757  -0.09598  -0.40421   0.36738
  47   33149.7    301.7   0.024910590   0.24739   0.18070   0.38199  -0.26233
  48   33350.1    299.8   0.000077024   0.00076  -0.00582   0.00029   0.02695
  49   33524.5    298.3   0.027335164   0.26843  -0.00895  -0.37890   0.35325
  50   33662.6    297.1   0.011234665   0.10987   0.14324  -0.27509   0.11696
  51   33789.6    295.9   0.004550089   0.04433  -0.16910  -0.07416   0.10118
  52   33870.3    295.2   0.000651284   0.00633   0.03062  -0.07039  -0.02093
  53   33938.7    294.6   0.023664265   0.22955   0.03304  -0.01960  -0.47757
  54   34023.0    293.9   0.035167846   0.34029   0.25459   0.23379  -0.46991
  55   34149.7    292.8   0.006132729   0.05912   0.14210   0.02248  -0.19602
  56   34215.1    292.3   0.049555039   0.47681   0.27350   0.54337  -0.32673
  57   34848.2    287.0   0.011961809   0.11300  -0.02527  -0.24720  -0.22640
  58   34926.8    286.3   0.002746865   0.02589  -0.02395   0.13061   0.09087
  59   35124.1    284.7   0.041844935   0.39221   0.08968  -0.61777   0.05021
  60   35248.9    283.7   0.143557112   1.34077   0.41422  -0.53556  -0.93934
  61   35366.7    282.8   0.136267303   1.26845  -0.13534   0.85197  -0.72408
  62   35599.9    280.9   0.024423141   0.22585   0.00413  -0.31322   0.35740
  63   35708.8    280.0   0.168000658   1.54886  -0.26382   1.10526  -0.50759
  64   35852.7    278.9   0.011743268   0.10783   0.10632  -0.27566  -0.14332
  65   35992.3    277.8   0.002441494   0.02233   0.07682  -0.02265   0.12617
  66   36166.6    276.5   0.006107931   0.05560   0.09814  -0.11248  -0.18252
  67   36435.0    274.5   0.024386814   0.22035   0.05042  -0.04388  -0.46463
  68   36583.1    273.4   0.002269207   0.02042   0.11840   0.05548   0.05766
  69   36588.2    273.3   0.017023737   0.15318   0.05328   0.08126  -0.37912
  70   36968.8    270.5   0.009647024   0.08591   0.22377  -0.16345  -0.09550
  71   37035.2    270.0   0.005419705   0.04818   0.04081   0.01096   0.21539
  72   37225.0    268.6   0.516496335   4.56781   0.77591   0.33315  -1.96336
  73   37412.2    267.3   0.383936802   3.37849  -1.73470   0.08576   0.60162
  74   37610.0    265.9   0.222859892   1.95076   0.29845  -0.49535   1.27135
  75   37953.8    263.5   0.037769594   0.32761  -0.55575   0.03854   0.13141
  76   38504.0    259.7   0.020960487   0.17921  -0.35838   0.08722   0.20777
  77   38517.8    259.6   0.022542454   0.19267  -0.42981   0.08792   0.01431
  78   38608.9    259.0   0.000770918   0.00657  -0.02320   0.07717  -0.00893
  79   38790.0    257.8   0.110845156   0.94075   0.36484  -0.73454  -0.51777
  80   38973.2    256.6   0.021143872   0.17861   0.19185  -0.06827   0.37032
  81   39155.8    255.4   0.083734629   0.70402   0.81271   0.06645  -0.19775
  82   39244.8    254.8   0.043371422   0.36383  -0.08308   0.48347   0.35098
  83   39618.6    252.4   0.014311381   0.11892   0.08707  -0.15661   0.29464
  84   40027.4    249.8   0.007403657   0.06089  -0.02842   0.03660   0.24237
  85   40166.3    249.0   0.000201206   0.00165   0.00511  -0.04020   0.00259

FINAL SINGLE POINT ENERGY     -4977.267113749126

DIPOLE MOMENT
-------------
                                X             Y             Z
Electronic contribution:    -10.72575      47.12603      -4.70773
Nuclear contribution   :     10.45186     -45.67425       3.27707
                        -----------------------------------------
Total Dipole Moment    :     -0.27389       1.45178      -1.43066
                        -----------------------------------------
Magnitude (a.u.)       :      2.05657
Magnitude (Debye)      :      5.22738

Rotational constants in cm-1:     0.000619     0.000392     0.000253
Rotational constants in MHz :    18.566852    11.743033     7.575102

                             ****ORCA TERMINATED NORMALLY****
TOTAL RUN TIME: 0 days 0 hours 9 minutes 27 seconds 156 msec
