                         Program Version 4.2.0 -  RELEASE  -
|  1> # ORCA input file
|  2> # SCF done       -146.679137710638          0.000782640427
|  3> ! CAM-B3LYP def2-SVP def2/J RIJCOSX Grid4 TightSCF
|  4> %maxcore 5000
|  5> %tddft
|  6>     Mode sTDDFT
|  7>     Ethresh 5.0
|  8>     maxcore 5000
|  9> end
| 10>
| 11> %pal
| 12>   nprocs 6
| 13>   end
| 14> * xyz 0 1
| 15>    C       -2.19927        -4.09892        -2.27699
| 16>    S       -2.53081        -3.46590        -0.71187
| 17>    C       -0.96858        -3.94912        -0.14079
| 18>    C       -0.59992        -3.72571         1.28831
| 19>    C       -1.79981        -3.82475         2.22633
| 20>    C       -0.24434        -4.57108        -1.13064
| 21>    C       -0.97192        -4.66384        -2.36557
| 22>    C       -0.45021        -5.31079        -3.61179
| 23>    C       -0.73849        -6.81364        -3.61601
| 24>    C        1.09232        -5.10166        -0.99015
| 25>    C        2.06858        -4.58537        -0.22112
| 26>    C        3.32925        -5.17630        -0.12830
| 27>    C        4.42865        -5.68139        -0.03621
| 28>    C        5.66602        -6.30038         0.05409
| 29>    S        5.88347        -7.93163        -0.52660
| 30>    C        7.56611        -7.89917        -0.05746
| 31>    C        7.90489        -6.68715         0.50727
| 32>    C        6.83769        -5.79143         0.57235
| 33>    C        8.37440        -9.00389        -0.25666
| 34>    C        9.05309        -9.99485        -0.44343
| 35>    C        9.82612       -11.12847        -0.64744
| 36>    C       11.16554       -11.15770        -0.43667
| 37>    C       12.00107       -12.28612        -0.61747
| 38>    S       13.73637       -12.11570        -0.40496
| 39>    C       14.07604       -13.78561        -0.77212
| 40>    C       12.87868       -14.45290        -1.04132
| 41>    C       11.72947       -13.60348        -0.95380
| 42>    N       10.63476       -14.36394        -1.23097
| 43>    C       11.06161       -15.64754        -1.48450
| 44>    N       10.11669       -16.63363        -1.79748
| 45>    O        8.94548       -16.27672        -1.82398
| 46>    O       10.50967       -17.76309        -2.01972
| 47>    C       12.43332       -15.74567        -1.38069
| 48>    C       15.35133       -14.29456        -0.78269
| 49>    C       16.49420       -14.71652        -0.78997
| 50>    C       17.76335       -15.25394        -0.82440
| 51>    S       18.00321       -16.95673        -1.13562
| 52>    C       19.73240       -16.75706        -1.01673
| 53>    C       20.07090       -15.44446        -0.75234
| 54>    C       18.96829       -14.60166        -0.64233
| 55>    C       20.58243       -17.83757        -1.18007
| 56>    C       21.30316       -18.80343        -1.32984
| 57>    C       22.12814       -19.91211        -1.49615
| 58>    C       23.47474       -19.82107        -1.50275
| 59>    C       24.40682       -20.89919        -1.64568
| 60>    S       25.94367       -20.70711        -0.83079
| 61>    C       26.47283       -22.27203        -1.33678
| 62>    C       27.79890       -22.76578        -0.86982
| 63>    C       28.94659       -22.09788        -1.63118
| 64>    C       25.52796       -22.89363        -2.11319
| 65>    C       24.34694       -22.10880        -2.29569
| 66>    C       23.26036       -22.53164        -3.23668
| 67>    C       23.78096       -22.61748        -4.67355
| 68>    C       25.65125       -24.24482        -2.65007
| 69>    C       26.74227       -24.77737        -3.18256
| 70>    H       -2.94298        -4.01068        -3.04428
| 71>    H       -0.14631        -2.73428         1.40026
| 72>    H        0.14950        -4.46928         1.57412
| 73>    H       -2.53352        -3.05663         1.99242
| 74>    H       -1.48051        -3.69538         3.25774
| 75>    H       -2.27675        -4.79749         2.12985
| 76>    H        0.62509        -5.14054        -3.69305
| 77>    H       -0.93113        -4.85380        -4.47922
| 78>    H       -0.27994        -7.29981        -2.75794
| 79>    H       -0.34715        -7.27046        -4.52213
| 80>    H       -1.81082        -6.99046        -3.57282
| 81>    H        1.32070        -5.97699        -1.58421
| 82>    H        1.92766        -3.66934         0.33574
| 83>    H        8.89785        -6.47343         0.86129
| 84>    H        6.90450        -4.79856         0.98075
| 85>    H        9.29370       -12.00239        -0.99795
| 86>    H       11.65910       -10.25194        -0.11062
| 87>    H        9.66121       -14.10564        -1.24507
| 88>    H       13.01872       -16.62947        -1.52931
| 89>    H       21.09185       -15.12446        -0.64315
| 90>    H       19.02680       -13.54731        -0.43838
| 91>    H       21.62101       -20.86250        -1.59151
| 92>    H       23.92037       -18.85122        -1.31584
| 93>    H       27.84309       -23.84897        -0.99919
| 94>    H       27.90920       -22.54200         0.19470
| 95>    H       28.86166       -22.28597        -2.69921
| 96>    H       29.90274       -22.48200        -1.28451
| 97>    H       28.92496       -21.02195        -1.47232
| 98>    H       22.44241       -21.81459        -3.21385
| 99>    H       22.86851       -23.50639        -2.93306
|100>    H       24.15478       -21.64691        -4.99272
|101>    H       22.97784       -22.91560        -5.34367
|102>    H       24.58836       -23.34081        -4.75409
|103>    H       24.74379       -24.83502        -2.59777
|104>    H       27.65533       -24.22156        -3.30554
|105>    H       26.75036       -25.79134        -3.54583
|106> *
|107>
|108>                          ****END OF INPUT****

CARTESIAN COORDINATES (ANGSTROEM)
---------------------------------
  C     -2.199270   -4.098920   -2.276990
  S     -2.530810   -3.465900   -0.711870
  C     -0.968580   -3.949120   -0.140790
  C     -0.599920   -3.725710    1.288310
  C     -1.799810   -3.824750    2.226330
  C     -0.244340   -4.571080   -1.130640
  C     -0.971920   -4.663840   -2.365570
  C     -0.450210   -5.310790   -3.611790
  C     -0.738490   -6.813640   -3.616010
  C      1.092320   -5.101660   -0.990150
  C      2.068580   -4.585370   -0.221120
  C      3.329250   -5.176300   -0.128300
  C      4.428650   -5.681390   -0.036210
  C      5.666020   -6.300380    0.054090
  S      5.883470   -7.931630   -0.526600
  C      7.566110   -7.899170   -0.057460
  C      7.904890   -6.687150    0.507270
  C      6.837690   -5.791430    0.572350
  C      8.374400   -9.003890   -0.256660
  C      9.053090   -9.994850   -0.443430
  C      9.826120  -11.128470   -0.647440
  C     11.165540  -11.157700   -0.436670
  C     12.001070  -12.286120   -0.617470
  S     13.736370  -12.115700   -0.404960
  C     14.076040  -13.785610   -0.772120
  C     12.878680  -14.452900   -1.041320
  C     11.729470  -13.603480   -0.953800
  N     10.634760  -14.363940   -1.230970
  C     11.061610  -15.647540   -1.484500
  N     10.116690  -16.633630   -1.797480
  O      8.945480  -16.276720   -1.823980
  O     10.509670  -17.763090   -2.019720
  C     12.433320  -15.745670   -1.380690
  C     15.351330  -14.294560   -0.782690
  C     16.494200  -14.716520   -0.789970
  C     17.763350  -15.253940   -0.824400
  S     18.003210  -16.956730   -1.135620
  C     19.732400  -16.757060   -1.016730
  C     20.070900  -15.444460   -0.752340
  C     18.968290  -14.601660   -0.642330
  C     20.582430  -17.837570   -1.180070
  C     21.303160  -18.803430   -1.329840
  C     22.128140  -19.912110   -1.496150
  C     23.474740  -19.821070   -1.502750
  C     24.406820  -20.899190   -1.645680
  S     25.943670  -20.707110   -0.830790
  C     26.472830  -22.272030   -1.336780
  C     27.798900  -22.765780   -0.869820
  C     28.946590  -22.097880   -1.631180
  C     25.527960  -22.893630   -2.113190
  C     24.346940  -22.108800   -2.295690
  C     23.260360  -22.531640   -3.236680
  C     23.780960  -22.617480   -4.673550
  C     25.651250  -24.244820   -2.650070
  C     26.742270  -24.777370   -3.182560
  H     -2.942980   -4.010680   -3.044280
  H     -0.146310   -2.734280    1.400260
  H      0.149500   -4.469280    1.574120
  H     -2.533520   -3.056630    1.992420
  H     -1.480510   -3.695380    3.257740
  H     -2.276750   -4.797490    2.129850
  H      0.625090   -5.140540   -3.693050
  H     -0.931130   -4.853800   -4.479220
  H     -0.279940   -7.299810   -2.757940
  H     -0.347150   -7.270460   -4.522130
  H     -1.810820   -6.990460   -3.572820
  H      1.320700   -5.976990   -1.584210
  H      1.927660   -3.669340    0.335740
  H      8.897850   -6.473430    0.861290
  H      6.904500   -4.798560    0.980750
  H      9.293700  -12.002390   -0.997950
  H     11.659100  -10.251940   -0.110620
  H      9.661210  -14.105640   -1.245070
  H     13.018720  -16.629470   -1.529310
  H     21.091850  -15.124460   -0.643150
  H     19.026800  -13.547310   -0.438380
  H     21.621010  -20.862500   -1.591510
  H     23.920370  -18.851220   -1.315840
  H     27.843090  -23.848970   -0.999190
  H     27.909200  -22.542000    0.194700
  H     28.861660  -22.285970   -2.699210
  H     29.902740  -22.482000   -1.284510
  H     28.924960  -21.021950   -1.472320
  H     22.442410  -21.814590   -3.213850
  H     22.868510  -23.506390   -2.933060
  H     24.154780  -21.646910   -4.992720
  H     22.977840  -22.915600   -5.343670
  H     24.588360  -23.340810   -4.754090
  H     24.743790  -24.835020   -2.597770
  H     27.655330  -24.221560   -3.305540
  H     26.750360  -25.791340   -3.545830

 Total Charge           Charge          ....    0
 Multiplicity           Mult            ....    1
 Number of Electrons    NEL             ....  422
 Basis Dimension        Dim             ....  970

ORBITAL ENERGIES
----------------

  NO   OCC          E(Eh)            E(eV)
   0   2.0000     -88.973253     -2421.0853
   1   2.0000     -88.961619     -2420.7687
   2   2.0000     -88.954565     -2420.5768
   3   2.0000     -88.942423     -2420.2464
   4   2.0000     -88.939924     -2420.1784
   5   2.0000     -19.243764      -523.6494
   6   2.0000     -19.243652      -523.6464
   7   2.0000     -14.653510      -398.7423
   8   2.0000     -14.478958      -393.9925
   9   2.0000     -10.361137      -281.9409
  10   2.0000     -10.329826      -281.0888
  11   2.0000     -10.328600      -281.0555
  12   2.0000     -10.317247      -280.7466
  13   2.0000     -10.317137      -280.7436
  14   2.0000     -10.313043      -280.6322
  15   2.0000     -10.310422      -280.5608
  16   2.0000     -10.310292      -280.5573
  17   2.0000     -10.297818      -280.2179
  18   2.0000     -10.296947      -280.1942
  19   2.0000     -10.294577      -280.1297
  20   2.0000     -10.294496      -280.1275
  21   2.0000     -10.292890      -280.0838
  22   2.0000     -10.289501      -279.9915
  23   2.0000     -10.289464      -279.9906
  24   2.0000     -10.288540      -279.9654
  25   2.0000     -10.287985      -279.9503
  26   2.0000     -10.286397      -279.9071
  27   2.0000     -10.286343      -279.9056
  28   2.0000     -10.282467      -279.8002
  29   2.0000     -10.282266      -279.7947
  30   2.0000     -10.279369      -279.7158
  31   2.0000     -10.278579      -279.6944
  32   2.0000     -10.275100      -279.5997
  33   2.0000     -10.274299      -279.5779
  34   2.0000     -10.274122      -279.5731
  35   2.0000     -10.273851      -279.5657
  36   2.0000     -10.273748      -279.5629
  37   2.0000     -10.273147      -279.5466
  38   2.0000     -10.272729      -279.5352
  39   2.0000     -10.272397      -279.5261
  40   2.0000     -10.271591      -279.5042
  41   2.0000     -10.270923      -279.4860
  42   2.0000     -10.270912      -279.4857
  43   2.0000     -10.269026      -279.4344
  44   2.0000     -10.267767      -279.4001
  45   2.0000     -10.266517      -279.3661
  46   2.0000     -10.266319      -279.3607
  47   2.0000     -10.263819      -279.2927
  48   2.0000     -10.263458      -279.2829
  49   2.0000     -10.263314      -279.2790
  50   2.0000     -10.262766      -279.2641
  51   2.0000     -10.258953      -279.1603
  52   2.0000     -10.255158      -279.0570
  53   2.0000     -10.251924      -278.9690
  54   2.0000     -10.250203      -278.9222
  55   2.0000      -8.067830      -219.5368
  56   2.0000      -8.057076      -219.2442
  57   2.0000      -8.050114      -219.0547
  58   2.0000      -8.038689      -218.7438
  59   2.0000      -8.035866      -218.6670
  60   2.0000      -6.037220      -164.2811
  61   2.0000      -6.032988      -164.1660
  62   2.0000      -6.029974      -164.0839
  63   2.0000      -6.026513      -163.9898
  64   2.0000      -6.022253      -163.8738
  65   2.0000      -6.019505      -163.7991
  66   2.0000      -6.018954      -163.7841
  67   2.0000      -6.015293      -163.6844
  68   2.0000      -6.012029      -163.5956
  69   2.0000      -6.007911      -163.4836
  70   2.0000      -6.005054      -163.4058
  71   2.0000      -6.003800      -163.3717
  72   2.0000      -6.000850      -163.2914
  73   2.0000      -6.000811      -163.2904
  74   2.0000      -5.998322      -163.2226
  75   2.0000      -1.322469       -35.9862
  76   2.0000      -1.142096       -31.0780
  77   2.0000      -1.102491       -30.0003
  78   2.0000      -0.989264       -26.9192
  79   2.0000      -0.987097       -26.8603
  80   2.0000      -0.981163       -26.6988
  81   2.0000      -0.980017       -26.6676
  82   2.0000      -0.972697       -26.4684
  83   2.0000      -0.924580       -25.1591
  84   2.0000      -0.908532       -24.7224
  85   2.0000      -0.905449       -24.6385
  86   2.0000      -0.899012       -24.4634
  87   2.0000      -0.889767       -24.2118
  88   2.0000      -0.884714       -24.0743
  89   2.0000      -0.883227       -24.0338
  90   2.0000      -0.881510       -23.9871
  91   2.0000      -0.875714       -23.8294
  92   2.0000      -0.870234       -23.6803
  93   2.0000      -0.857314       -23.3287
  94   2.0000      -0.850880       -23.1536
  95   2.0000      -0.848950       -23.1011
  96   2.0000      -0.840058       -22.8591
  97   2.0000      -0.834515       -22.7083
  98   2.0000      -0.825343       -22.4587
  99   2.0000      -0.822065       -22.3695
 100   2.0000      -0.809592       -22.0301
 101   2.0000      -0.796651       -21.6780
 102   2.0000      -0.790923       -21.5221
 103   2.0000      -0.785006       -21.3611
 104   2.0000      -0.779842       -21.2206
 105   2.0000      -0.776284       -21.1238
 106   2.0000      -0.769679       -20.9440
 107   2.0000      -0.739858       -20.1326
 108   2.0000      -0.726520       -19.7696
 109   2.0000      -0.719373       -19.5751
 110   2.0000      -0.714496       -19.4424
 111   2.0000      -0.704402       -19.1677
 112   2.0000      -0.700361       -19.0578
 113   2.0000      -0.694328       -18.8936
 114   2.0000      -0.693108       -18.8604
 115   2.0000      -0.686479       -18.6800
 116   2.0000      -0.679814       -18.4987
 117   2.0000      -0.675296       -18.3757
 118   2.0000      -0.663346       -18.0505
 119   2.0000      -0.656422       -17.8621
 120   2.0000      -0.654138       -17.8000
 121   2.0000      -0.653822       -17.7914
 122   2.0000      -0.635839       -17.3021
 123   2.0000      -0.627605       -17.0780
 124   2.0000      -0.620078       -16.8732
 125   2.0000      -0.616265       -16.7694
 126   2.0000      -0.614543       -16.7226
 127   2.0000      -0.609267       -16.5790
 128   2.0000      -0.601629       -16.3711
 129   2.0000      -0.599740       -16.3198
 130   2.0000      -0.597679       -16.2637
 131   2.0000      -0.590008       -16.0549
 132   2.0000      -0.585954       -15.9446
 133   2.0000      -0.572351       -15.5745
 134   2.0000      -0.570165       -15.5150
 135   2.0000      -0.561798       -15.2873
 136   2.0000      -0.561481       -15.2787
 137   2.0000      -0.560466       -15.2511
 138   2.0000      -0.547848       -14.9077
 139   2.0000      -0.539585       -14.6829
 140   2.0000      -0.538180       -14.6446
 141   2.0000      -0.533766       -14.5245
 142   2.0000      -0.533470       -14.5165
 143   2.0000      -0.527660       -14.3584
 144   2.0000      -0.526756       -14.3337
 145   2.0000      -0.518824       -14.1179
 146   2.0000      -0.518144       -14.0994
 147   2.0000      -0.509098       -13.8533
 148   2.0000      -0.508744       -13.8436
 149   2.0000      -0.507308       -13.8046
 150   2.0000      -0.503242       -13.6939
 151   2.0000      -0.502462       -13.6727
 152   2.0000      -0.498286       -13.5590
 153   2.0000      -0.496633       -13.5141
 154   2.0000      -0.490343       -13.3429
 155   2.0000      -0.486793       -13.2463
 156   2.0000      -0.483843       -13.1660
 157   2.0000      -0.482895       -13.1403
 158   2.0000      -0.478314       -13.0156
 159   2.0000      -0.477224       -12.9859
 160   2.0000      -0.476278       -12.9602
 161   2.0000      -0.472268       -12.8511
 162   2.0000      -0.467635       -12.7250
 163   2.0000      -0.463754       -12.6194
 164   2.0000      -0.458723       -12.4825
 165   2.0000      -0.458138       -12.4666
 166   2.0000      -0.457300       -12.4438
 167   2.0000      -0.455623       -12.3981
 168   2.0000      -0.449316       -12.2265
 169   2.0000      -0.445092       -12.1116
 170   2.0000      -0.442861       -12.0509
 171   2.0000      -0.441840       -12.0231
 172   2.0000      -0.434877       -11.8336
 173   2.0000      -0.434449       -11.8220
 174   2.0000      -0.430700       -11.7200
 175   2.0000      -0.429800       -11.6954
 176   2.0000      -0.428996       -11.6736
 177   2.0000      -0.426032       -11.5929
 178   2.0000      -0.423344       -11.5198
 179   2.0000      -0.421385       -11.4665
 180   2.0000      -0.416050       -11.3213
 181   2.0000      -0.413717       -11.2578
 182   2.0000      -0.408592       -11.1183
 183   2.0000      -0.407901       -11.0995
 184   2.0000      -0.404338       -11.0026
 185   2.0000      -0.403117       -10.9694
 186   2.0000      -0.399316       -10.8660
 187   2.0000      -0.395295       -10.7565
 188   2.0000      -0.391623       -10.6566
 189   2.0000      -0.389411       -10.5964
 190   2.0000      -0.383957       -10.4480
 191   2.0000      -0.380335       -10.3494
 192   2.0000      -0.373248       -10.1566
 193   2.0000      -0.362729        -9.8704
 194   2.0000      -0.357622        -9.7314
 195   2.0000      -0.355759        -9.6807
 196   2.0000      -0.344591        -9.3768
 197   2.0000      -0.342148        -9.3103
 198   2.0000      -0.339151        -9.2288
 199   2.0000      -0.334154        -9.0928
 200   2.0000      -0.329850        -8.9757
 201   2.0000      -0.327805        -8.9200
 202   2.0000      -0.321676        -8.7532
 203   2.0000      -0.315302        -8.5798
 204   2.0000      -0.304511        -8.2862
 205   2.0000      -0.293992        -7.9999
 206   2.0000      -0.289450        -7.8763
 207   2.0000      -0.283737        -7.7209
 208   2.0000      -0.261771        -7.1232
 209   2.0000      -0.245037        -6.6678
 210   2.0000      -0.221787        -6.0351
 211   0.0000      -0.082181        -2.2363
 212   0.0000      -0.047004        -1.2790
 213   0.0000      -0.038725        -1.0538
 214   0.0000      -0.016070        -0.4373
 215   0.0000       0.007221         0.1965

MULLIKEN ATOMIC CHARGES
-----------------------
   0 C :   -0.139533
   1 S :    0.093477
   2 C :   -0.263465
   3 C :    0.059347
   4 C :   -0.008056
   5 C :    0.113615
   6 C :   -0.036684
   7 C :    0.075017
   8 C :    0.023248
   9 C :   -0.031308
  10 C :   -0.084570
  11 C :   -0.021268
  12 C :    0.042193
  13 C :   -0.144147
  14 S :    0.179427
  15 C :   -0.149959
  16 C :    0.046474
  17 C :    0.047432
  18 C :    0.069705
  19 C :   -0.040755
  20 C :   -0.092496
  21 C :    0.075054
  22 C :   -0.201273
  23 S :    0.192688
  24 C :   -0.197861
  25 C :    0.141669
  26 C :    0.131740
  27 N :   -0.048256
  28 C :    0.146108
  29 N :    0.285093
  30 O :   -0.268292
  31 O :   -0.237510
  32 C :   -0.092402
  33 C :   -0.009209
  34 C :    0.020883
  35 C :   -0.166856
  36 S :    0.186396
  37 C :   -0.136913
  38 C :    0.045414
  39 C :    0.051965
  40 C :    0.057628
  41 C :   -0.038162
  42 C :   -0.088059
  43 C :    0.049869
  44 C :   -0.166334
  45 S :    0.106915
  46 C :   -0.250800
  47 C :    0.082653
  48 C :    0.009385
  49 C :    0.069586
  50 C :   -0.034098
  51 C :    0.080281
  52 C :    0.010517
  53 C :   -0.050392
  54 C :   -0.008293
  55 H :    0.008734
  56 H :    0.030075
  57 H :    0.028254
  58 H :    0.025918
  59 H :    0.014839
  60 H :    0.024056
  61 H :    0.010730
  62 H :   -0.000023
  63 H :    0.011034
  64 H :    0.014721
  65 H :    0.010082
  66 H :    0.006211
  67 H :    0.023955
  68 H :   -0.011809
  69 H :   -0.010846
  70 H :   -0.006997
  71 H :   -0.006721
  72 H :    0.142655
  73 H :    0.001318
  74 H :   -0.008001
  75 H :   -0.006349
  76 H :    0.034240
  77 H :    0.005910
  78 H :    0.017934
  79 H :    0.013246
  80 H :    0.019828
  81 H :    0.017875
  82 H :    0.014332
  83 H :   -0.003440
  84 H :    0.004889
  85 H :    0.016832
  86 H :    0.011614
  87 H :    0.018023
  88 H :    0.004518
  89 H :    0.014450
  90 H :    0.021076
Sum of atomic charges:    0.0000000

LOEWDIN ATOMIC CHARGES
----------------------
   0 C :   -0.203153
   1 S :    0.427013
   2 C :   -0.160336
   3 C :   -0.048535
   4 C :   -0.059344
   5 C :   -0.084146
   6 C :   -0.050195
   7 C :   -0.029510
   8 C :   -0.049724
   9 C :    0.010983
  10 C :   -0.050882
  11 C :   -0.021471
  12 C :   -0.069737
  13 C :   -0.181090
  14 S :    0.457403
  15 C :   -0.185905
  16 C :   -0.038972
  17 C :   -0.041373
  18 C :   -0.058360
  19 C :   -0.029938
  20 C :   -0.060375
  21 C :   -0.016714
  22 C :   -0.209424
  23 S :    0.480023
  24 C :   -0.185260
  25 C :   -0.056416
  26 C :    0.001962
  27 N :    0.067191
  28 C :   -0.003304
  29 N :    0.281265
  30 O :   -0.229008
  31 O :   -0.199847
  32 C :   -0.017319
  33 C :   -0.055623
  34 C :   -0.034351
  35 C :   -0.191000
  36 S :    0.462093
  37 C :   -0.176350
  38 C :   -0.040830
  39 C :   -0.033552
  40 C :   -0.070965
  41 C :   -0.016229
  42 C :   -0.054988
  43 C :   -0.009604
  44 C :   -0.188316
  45 S :    0.418660
  46 C :   -0.151752
  47 C :   -0.047163
  48 C :   -0.051131
  49 C :   -0.078347
  50 C :   -0.038519
  51 C :   -0.030939
  52 C :   -0.050064
  53 C :   -0.015907
  54 C :   -0.046695
  55 H :    0.018422
  56 H :    0.032911
  57 H :    0.036347
  58 H :    0.018724
  59 H :    0.026054
  60 H :    0.026116
  61 H :    0.027650
  62 H :    0.029710
  63 H :    0.021300
  64 H :    0.023533
  65 H :    0.024294
  66 H :    0.032402
  67 H :    0.041662
  68 H :    0.034118
  69 H :    0.034729
  70 H :    0.032159
  71 H :    0.036746
  72 H :    0.088698
  73 H :    0.044518
  74 H :    0.035851
  75 H :    0.036020
  76 H :    0.042384
  77 H :    0.034025
  78 H :    0.033593
  79 H :    0.030336
  80 H :    0.022411
  81 H :    0.024849
  82 H :    0.021761
  83 H :    0.027834
  84 H :    0.028159
  85 H :    0.025953
  86 H :    0.023676
  87 H :    0.023889
  88 H :    0.029611
  89 H :    0.020775
  90 H :    0.024852

  Mayer bond orders larger than 0.100000
B(  0-C ,  1-S ) :   1.1269 B(  0-C ,  6-C ) :   1.6187 B(  0-C , 55-H ) :   0.9680
B(  1-S ,  2-C ) :   1.1616 B(  2-C ,  3-C ) :   1.0599 B(  2-C ,  5-C ) :   1.5452
B(  3-C ,  4-C ) :   1.0952 B(  3-C , 56-H ) :   0.9193 B(  3-C , 57-H ) :   0.9306
B(  4-C , 58-H ) :   0.9644 B(  4-C , 59-H ) :   0.9652 B(  4-C , 60-H ) :   0.9756
B(  5-C ,  6-C ) :   1.2202 B(  5-C ,  9-C ) :   1.0621 B(  6-C ,  7-C ) :   1.0625
B(  7-C ,  8-C ) :   1.0994 B(  7-C , 61-H ) :   0.9233 B(  7-C , 62-H ) :   0.9281
B(  8-C , 63-H ) :   0.9713 B(  8-C , 64-H ) :   0.9673 B(  8-C , 65-H ) :   0.9667
B(  9-C , 10-C ) :   1.7502 B(  9-C , 66-H ) :   0.9573 B( 10-C , 11-C ) :   0.9913
B( 10-C , 67-H ) :   0.9576 B( 11-C , 12-C ) :   2.2915 B( 12-C , 13-C ) :   0.9624
B( 13-C , 14-S ) :   1.1110 B( 13-C , 15-C ) :   0.1071 B( 13-C , 17-C ) :   1.5039
B( 14-S , 15-C ) :   1.1070 B( 15-C , 16-C ) :   1.4984 B( 15-C , 18-C ) :   0.9706
B( 16-C , 17-C ) :   1.2676 B( 16-C , 68-H ) :   1.0005 B( 17-C , 69-H ) :   0.9998
B( 18-C , 19-C ) :   2.2648 B( 19-C , 20-C ) :   1.0550 B( 20-C , 21-C ) :   1.6818
B( 20-C , 70-H ) :   0.9430 B( 21-C , 22-C ) :   1.1644 B( 21-C , 71-H ) :   0.9498
B( 22-C , 23-S ) :   1.0966 B( 22-C , 24-C ) :   0.1089 B( 22-C , 26-C ) :   1.3796
B( 23-S , 24-C ) :   1.1474 B( 24-C , 25-C ) :   1.3321 B( 24-C , 33-C ) :   1.0360
B( 25-C , 26-C ) :   1.2352 B( 25-C , 32-C ) :   1.1460 B( 26-C , 27-N ) :   1.1875
B( 27-N , 28-C ) :   1.1647 B( 27-N , 72-H ) :   0.9030 B( 28-C , 29-N ) :   0.9314
B( 28-C , 32-C ) :   1.5064 B( 29-N , 30-O ) :   1.4757 B( 29-N , 31-O ) :   1.5422
B( 30-O , 31-O ) :   0.2679 B( 32-C , 73-H ) :   1.0298 B( 33-C , 34-C ) :   2.2737
B( 34-C , 35-C ) :   1.0102 B( 35-C , 36-S ) :   1.0986 B( 35-C , 37-C ) :   0.1063
B( 35-C , 39-C ) :   1.4786 B( 36-S , 37-C ) :   1.1129 B( 37-C , 38-C ) :   1.4941
B( 37-C , 40-C ) :   0.9661 B( 38-C , 39-C ) :   1.2759 B( 38-C , 74-H ) :   1.0012
B( 39-C , 75-H ) :   1.0004 B( 40-C , 41-C ) :   2.2909 B( 41-C , 42-C ) :   1.0327
B( 42-C , 43-C ) :   1.7400 B( 42-C , 76-H ) :   0.9466 B( 43-C , 44-C ) :   1.0798
B( 43-C , 77-H ) :   0.9535 B( 44-C , 45-S ) :   1.0888 B( 44-C , 50-C ) :   1.5740
B( 45-S , 46-C ) :   1.1462 B( 46-C , 47-C ) :   1.0548 B( 46-C , 49-C ) :   1.5801
B( 47-C , 48-C ) :   1.0916 B( 47-C , 78-H ) :   0.9239 B( 47-C , 79-H ) :   0.9237
B( 48-C , 80-H ) :   0.9692 B( 48-C , 81-H ) :   0.9683 B( 48-C , 82-H ) :   0.9689
B( 49-C , 50-C ) :   1.2142 B( 49-C , 53-C ) :   1.0403 B( 50-C , 51-C ) :   1.0891
B( 51-C , 52-C ) :   1.1009 B( 51-C , 83-H ) :   0.9194 B( 51-C , 84-H ) :   0.9078
B( 52-C , 85-H ) :   0.9678 B( 52-C , 86-H ) :   0.9643 B( 52-C , 87-H ) :   0.9659
B( 53-C , 54-C ) :   1.9567 B( 53-C , 88-H ) :   0.9510 B( 54-C , 89-H ) :   0.9598
B( 54-C , 90-H ) :   0.9483

-----------------------------------------------------------------------------
         ABSORPTION SPECTRUM VIA TRANSITION ELECTRIC DIPOLE MOMENTS
-----------------------------------------------------------------------------
State   Energy  Wavelength   fosc         T2         TX        TY        TZ
        (cm-1)    (nm)                  (au**2)     (au)      (au)      (au)
-----------------------------------------------------------------------------
   0   16358.5    611.3   1.767338200  35.56737  -5.16904   2.96950   0.17465
   1   22857.3    437.5   1.652828841  23.80552   3.66528  -3.20551  -0.30980
   2   23644.0    422.9   0.032624427   0.45425   0.39908   0.54285   0.01725
   3   27154.0    368.3   0.030395037   0.36851  -0.37795   0.41959   0.22272
   4   27853.7    359.0   0.027648091   0.32678   0.24417  -0.51216  -0.06965
   5   31211.8    320.4   0.695214509   7.33289   2.54534  -0.89307   0.23777
   6   31553.4    316.9   0.215825005   2.25180   0.21348   1.43961   0.36573
   7   32980.8    303.2   0.180414959   1.80089  -1.01000  -0.83591  -0.28644
   8   33948.2    294.6   0.088607850   0.85927   0.67493  -0.62449  -0.11724
   9   34814.3    287.2   0.239148911   2.26144   0.52322   1.34721   0.41559
  10   35388.7    282.6   0.096534592   0.89804   0.93694  -0.05064   0.13274
  11   35716.8    280.0   0.000718829   0.00663   0.04561   0.06000  -0.03074
  12   36253.0    275.8   0.083664917   0.75976   0.46783   0.70153   0.22079
  13   36758.7    272.0   0.069067143   0.61857   0.49039   0.46377   0.40373
  14   36898.9    271.0   0.013154329   0.11736   0.27873   0.17279  -0.09908
  15   37130.2    269.3   0.020931535   0.18559   0.39606  -0.07658   0.15120
  16   37647.2    265.6   0.002785326   0.02436  -0.04593   0.14479  -0.03583
  17   38380.0    260.6   0.000381350   0.00327  -0.04291  -0.03032   0.02259
  18   39697.7    251.9   0.025956288   0.21525  -0.32114  -0.30285  -0.14285
  19   39762.7    251.5   0.041505453   0.34364  -0.14100  -0.55554  -0.12305
  20   39986.8    250.1   0.007677529   0.06321  -0.08520  -0.20638   0.11557

FINAL SINGLE POINT ENERGY     -4021.869194262491

DIPOLE MOMENT
-------------
                                X             Y             Z
Electronic contribution:    -19.01421      19.55347      15.15058
Nuclear contribution   :     20.69481     -19.14382     -15.01642
                        -----------------------------------------
Total Dipole Moment    :      1.68060       0.40965       0.13416
                        -----------------------------------------
Magnitude (a.u.)       :      1.73500
Magnitude (Debye)      :      4.41001

Rotational constants in cm-1:     0.005079     0.000158     0.000154
Rotational constants in MHz :   152.269914     4.722126     4.625757

                             ****ORCA TERMINATED NORMALLY****
TOTAL RUN TIME: 0 days 0 hours 5 minutes 59 seconds 918 msec
