                         Program Version 4.2.0 -  RELEASE  -
|  1> # ORCA input file
|  2> # SCF done       -186.893460281857          0.000771625569
|  3> ! CAM-B3LYP def2-SVP def2/J RIJCOSX Grid4 TightSCF
|  4> %maxcore 5000
|  5> %tddft
|  6>     Mode sTDDFT
|  7>     Ethresh 5.0
|  8>     maxcore 5000
|  9> end
| 10>
| 11> %pal
| 12>   nprocs 6
| 13>   end
| 14> * xyz 0 1
| 15>    C        7.81571        -9.59721        -4.84889
| 16>    S        6.20903       -10.19888        -4.98913
| 17>    C        5.56864        -8.71785        -4.40317
| 18>    C        4.08607        -8.56519        -4.32908
| 19>    C        3.53316        -7.90855        -5.59781
| 20>    C        6.56367        -7.78795        -4.12646
| 21>    C        7.87584        -8.32459        -4.38811
| 22>    C        9.19568        -7.65851        -4.15057
| 23>    C        9.54515        -7.63814        -2.66083
| 24>    C        6.19714        -6.48821        -3.64909
| 25>    C        6.97069        -5.41127        -3.37192
| 26>    C        6.45220        -4.19520        -2.84927
| 27>    N        7.24268        -3.38334        -2.15509
| 28>    C        6.44689        -2.41801        -1.66589
| 29>    C        5.04532        -2.62413        -2.07304
| 30>    C        4.19024        -1.54969        -1.55002
| 31>    O        2.98855        -1.41430        -1.66576
| 32>    C        5.15571        -0.68550        -0.85030
| 33>    C        6.51389        -1.25479        -0.93337
| 34>    N        7.41009        -0.44625        -0.31988
| 35>    C        6.70798         0.57417         0.11679
| 36>    C        5.29931         0.49597        -0.19073
| 37>    C        5.04605        -3.72193        -2.88925
| 38>    C        3.99628        -4.26590        -3.69412
| 39>    C        2.69154        -4.20329        -3.36848
| 40>    C        1.62583        -4.75224        -4.17475
| 41>    C        1.72182        -4.84299        -5.54488
| 42>    C        0.66298        -5.38930        -6.29349
| 43>    C        0.50628        -5.56013        -7.66605
| 44>    C        1.50740        -5.18163        -8.70345
| 45>    C        2.39445        -6.40776        -9.08614
| 46>    N        1.71274        -7.62564        -9.44490
| 47>    C        0.90295        -4.46280        -9.93289
| 48>    N        0.50711        -5.36063       -11.01327
| 49>    C       -0.79135        -6.15426        -7.86347
| 50>    C       -1.44546        -6.52071        -8.98496
| 51>    C       -2.86915        -6.94041        -8.93142
| 52>    C       -3.39012        -7.24116        -7.56012
| 53>    C       -2.70330        -6.91465        -6.44645
| 54>    C       -1.41779        -6.33556        -6.54411
| 55>    C       -0.52005        -5.87355        -5.59905
| 56>    C       -0.59117        -5.77050        -4.19018
| 57>    C        0.44311        -5.21209        -3.51049
| 58>    C       -3.70008        -5.75446        -9.38505
| 59>    C       -3.46068        -4.50346        -8.96637
| 60>    C       -4.22388        -3.37426        -9.38911
| 61>    N       -5.23713        -3.47840       -10.23268
| 62>    C       -5.67581        -2.21657       -10.43435
| 63>    C       -4.87735        -1.24228        -9.67995
| 64>    C       -5.37222         0.11744        -9.91942
| 65>    O       -4.95032         1.16961        -9.48265
| 66>    C       -6.51029        -0.10623       -10.83415
| 67>    C       -6.65512        -1.54309       -11.12539
| 68>    N       -7.70082        -1.76073       -11.96248
| 69>    C       -8.20087        -0.57143       -12.19801
| 70>    C       -7.50815         0.50573       -11.52364
| 71>    C       -3.94115        -1.97339        -8.98662
| 72>    C       -2.91968        -1.59228        -8.07753
| 73>    C       -2.62392        -0.29797        -7.79491
| 74>    C       -1.64234         0.20664        -6.90055
| 75>    S       -1.53625         1.95193        -6.81608
| 76>    C       -0.27757         1.88262        -5.64478
| 77>    C        0.28815         3.13768        -5.07337
| 78>    C       -0.75288         4.24694        -4.94708
| 79>    C        0.04616         0.57926        -5.32800
| 80>    C       -0.72455        -0.37660        -6.04037
| 81>    C       -0.55072        -1.84779        -5.81984
| 82>    C       -1.64686        -2.38254        -4.89518
| 83>    C        1.04759         0.20485        -4.33218
| 84>    C        2.23640         0.77143        -4.18810
| 85>    H        8.63526       -10.23240        -5.12158
| 86>    H        3.80369        -7.97062        -3.45744
| 87>    H        3.63546        -9.55317        -4.21792
| 88>    H        3.99650        -6.93776        -5.75582
| 89>    H        2.45857        -7.76875        -5.51061
| 90>    H        3.73598        -8.53296        -6.46495
| 91>    H        9.18876        -6.64685        -4.55737
| 92>    H        9.96484        -8.22040        -4.68522
| 93>    H        8.77843        -7.12806        -2.08350
| 94>    H       10.49269        -7.12864        -2.50471
| 95>    H        9.63335        -8.65564        -2.28633
| 96>    H        5.13804        -6.38268        -3.45767
| 97>    H        8.04511        -5.43377        -3.43636
| 98>    H        7.18906         1.37141         0.65660
| 99>    H        4.56100         1.22945         0.06793
|100>    H        4.30462        -4.75061        -4.61173
|101>    H        2.40858        -3.76936        -2.41908
|102>    H        2.59524        -4.46185        -6.05344
|103>    H        2.18664        -4.45799        -8.23938
|104>    H        3.03223        -6.63376        -8.22723
|105>    H        3.04285        -6.12063        -9.91911
|106>    H        1.15351        -7.95893        -8.66723
|107>    H        1.08934        -7.46735       -10.22793
|108>    H        1.63824        -3.71878       -10.27693
|109>    H        0.01148        -3.91620        -9.61189
|110>    H       -0.05775        -4.85236       -11.68580
|111>    H        1.33009        -5.69341       -11.50619
|112>    H       -0.99912        -6.40140        -9.96277
|113>    H       -3.05222        -7.77743        -9.61203
|114>    H       -4.37864        -7.66894        -7.50700
|115>    H       -3.11910        -7.10697        -5.46785
|116>    H       -1.47231        -6.12219        -3.67331
|117>    H        0.39908        -5.11195        -2.43597
|118>    H       -4.53688        -5.94172       -10.04063
|119>    H       -2.64037        -4.31379        -8.28840
|120>    H       -9.05305        -0.45964       -12.84606
|121>    H       -7.76160         1.54578       -11.58463
|122>    H       -2.37814        -2.39527        -7.60639
|123>    H       -3.20090         0.46684        -8.30191
|124>    H        1.10393         3.48984        -5.71412
|125>    H        0.71571         2.90893        -4.09375
|126>    H       -1.14529         4.51651        -5.92503
|127>    H       -0.30639         5.13102        -4.49849
|128>    H       -1.58112         3.92079        -4.32194
|129>    H        0.42492        -2.03238        -5.36776
|130>    H       -0.56478        -2.37858        -6.77383
|131>    H       -1.55569        -1.93076        -3.91036
|132>    H       -1.56124        -3.46073        -4.78984
|133>    H       -2.63323        -2.14429        -5.28663
|134>    H        0.77237        -0.60462        -3.66920
|135>    H        2.58981         1.55385        -4.83814
|136>    H        2.90987         0.44200        -3.41668
|137> *
|138>
|139>                          ****END OF INPUT****

CARTESIAN COORDINATES (ANGSTROEM)
---------------------------------
  C      7.815710   -9.597210   -4.848890
  S      6.209030  -10.198880   -4.989130
  C      5.568640   -8.717850   -4.403170
  C      4.086070   -8.565190   -4.329080
  C      3.533160   -7.908550   -5.597810
  C      6.563670   -7.787950   -4.126460
  C      7.875840   -8.324590   -4.388110
  C      9.195680   -7.658510   -4.150570
  C      9.545150   -7.638140   -2.660830
  C      6.197140   -6.488210   -3.649090
  C      6.970690   -5.411270   -3.371920
  C      6.452200   -4.195200   -2.849270
  N      7.242680   -3.383340   -2.155090
  C      6.446890   -2.418010   -1.665890
  C      5.045320   -2.624130   -2.073040
  C      4.190240   -1.549690   -1.550020
  O      2.988550   -1.414300   -1.665760
  C      5.155710   -0.685500   -0.850300
  C      6.513890   -1.254790   -0.933370
  N      7.410090   -0.446250   -0.319880
  C      6.707980    0.574170    0.116790
  C      5.299310    0.495970   -0.190730
  C      5.046050   -3.721930   -2.889250
  C      3.996280   -4.265900   -3.694120
  C      2.691540   -4.203290   -3.368480
  C      1.625830   -4.752240   -4.174750
  C      1.721820   -4.842990   -5.544880
  C      0.662980   -5.389300   -6.293490
  C      0.506280   -5.560130   -7.666050
  C      1.507400   -5.181630   -8.703450
  C      2.394450   -6.407760   -9.086140
  N      1.712740   -7.625640   -9.444900
  C      0.902950   -4.462800   -9.932890
  N      0.507110   -5.360630  -11.013270
  C     -0.791350   -6.154260   -7.863470
  C     -1.445460   -6.520710   -8.984960
  C     -2.869150   -6.940410   -8.931420
  C     -3.390120   -7.241160   -7.560120
  C     -2.703300   -6.914650   -6.446450
  C     -1.417790   -6.335560   -6.544110
  C     -0.520050   -5.873550   -5.599050
  C     -0.591170   -5.770500   -4.190180
  C      0.443110   -5.212090   -3.510490
  C     -3.700080   -5.754460   -9.385050
  C     -3.460680   -4.503460   -8.966370
  C     -4.223880   -3.374260   -9.389110
  N     -5.237130   -3.478400  -10.232680
  C     -5.675810   -2.216570  -10.434350
  C     -4.877350   -1.242280   -9.679950
  C     -5.372220    0.117440   -9.919420
  O     -4.950320    1.169610   -9.482650
  C     -6.510290   -0.106230  -10.834150
  C     -6.655120   -1.543090  -11.125390
  N     -7.700820   -1.760730  -11.962480
  C     -8.200870   -0.571430  -12.198010
  C     -7.508150    0.505730  -11.523640
  C     -3.941150   -1.973390   -8.986620
  C     -2.919680   -1.592280   -8.077530
  C     -2.623920   -0.297970   -7.794910
  C     -1.642340    0.206640   -6.900550
  S     -1.536250    1.951930   -6.816080
  C     -0.277570    1.882620   -5.644780
  C      0.288150    3.137680   -5.073370
  C     -0.752880    4.246940   -4.947080
  C      0.046160    0.579260   -5.328000
  C     -0.724550   -0.376600   -6.040370
  C     -0.550720   -1.847790   -5.819840
  C     -1.646860   -2.382540   -4.895180
  C      1.047590    0.204850   -4.332180
  C      2.236400    0.771430   -4.188100
  H      8.635260  -10.232400   -5.121580
  H      3.803690   -7.970620   -3.457440
  H      3.635460   -9.553170   -4.217920
  H      3.996500   -6.937760   -5.755820
  H      2.458570   -7.768750   -5.510610
  H      3.735980   -8.532960   -6.464950
  H      9.188760   -6.646850   -4.557370
  H      9.964840   -8.220400   -4.685220
  H      8.778430   -7.128060   -2.083500
  H     10.492690   -7.128640   -2.504710
  H      9.633350   -8.655640   -2.286330
  H      5.138040   -6.382680   -3.457670
  H      8.045110   -5.433770   -3.436360
  H      7.189060    1.371410    0.656600
  H      4.561000    1.229450    0.067930
  H      4.304620   -4.750610   -4.611730
  H      2.408580   -3.769360   -2.419080
  H      2.595240   -4.461850   -6.053440
  H      2.186640   -4.457990   -8.239380
  H      3.032230   -6.633760   -8.227230
  H      3.042850   -6.120630   -9.919110
  H      1.153510   -7.958930   -8.667230
  H      1.089340   -7.467350  -10.227930
  H      1.638240   -3.718780  -10.276930
  H      0.011480   -3.916200   -9.611890
  H     -0.057750   -4.852360  -11.685800
  H      1.330090   -5.693410  -11.506190
  H     -0.999120   -6.401400   -9.962770
  H     -3.052220   -7.777430   -9.612030
  H     -4.378640   -7.668940   -7.507000
  H     -3.119100   -7.106970   -5.467850
  H     -1.472310   -6.122190   -3.673310
  H      0.399080   -5.111950   -2.435970
  H     -4.536880   -5.941720  -10.040630
  H     -2.640370   -4.313790   -8.288400
  H     -9.053050   -0.459640  -12.846060
  H     -7.761600    1.545780  -11.584630
  H     -2.378140   -2.395270   -7.606390
  H     -3.200900    0.466840   -8.301910
  H      1.103930    3.489840   -5.714120
  H      0.715710    2.908930   -4.093750
  H     -1.145290    4.516510   -5.925030
  H     -0.306390    5.131020   -4.498490
  H     -1.581120    3.920790   -4.321940
  H      0.424920   -2.032380   -5.367760
  H     -0.564780   -2.378580   -6.773830
  H     -1.555690   -1.930760   -3.910360
  H     -1.561240   -3.460730   -4.789840
  H     -2.633230   -2.144290   -5.286630
  H      0.772370   -0.604620   -3.669200
  H      2.589810    1.553850   -4.838140
  H      2.909870    0.442000   -3.416680

 Total Charge           Charge          ....    0
 Multiplicity           Mult            ....    1
 Number of Electrons    NEL             ....  502
 Basis Dimension        Dim             .... 1248

ORBITAL ENERGIES
----------------

  NO   OCC          E(Eh)            E(eV)
   0   2.0000     -88.959556     -2420.7126
   1   2.0000     -88.936738     -2420.0917
   2   2.0000     -19.204650      -522.5851
   3   2.0000     -19.195484      -522.3357
   4   2.0000     -14.406811      -392.0293
   5   2.0000     -14.397788      -391.7837
   6   2.0000     -14.396976      -391.7616
   7   2.0000     -14.394336      -391.6898
   8   2.0000     -14.389540      -391.5593
   9   2.0000     -14.372379      -391.0923
  10   2.0000     -10.364260      -282.0258
  11   2.0000     -10.354974      -281.7732
  12   2.0000     -10.334689      -281.2212
  13   2.0000     -10.331096      -281.1234
  14   2.0000     -10.323613      -280.9198
  15   2.0000     -10.318213      -280.7729
  16   2.0000     -10.311638      -280.5939
  17   2.0000     -10.311145      -280.5805
  18   2.0000     -10.309732      -280.5421
  19   2.0000     -10.308475      -280.5079
  20   2.0000     -10.306530      -280.4550
  21   2.0000     -10.303719      -280.3784
  22   2.0000     -10.303054      -280.3604
  23   2.0000     -10.302349      -280.3412
  24   2.0000     -10.299689      -280.2688
  25   2.0000     -10.298207      -280.2285
  26   2.0000     -10.297872      -280.2194
  27   2.0000     -10.290921      -280.0302
  28   2.0000     -10.288751      -279.9711
  29   2.0000     -10.287088      -279.9259
  30   2.0000     -10.286706      -279.9155
  31   2.0000     -10.286629      -279.9134
  32   2.0000     -10.285274      -279.8765
  33   2.0000     -10.282167      -279.7920
  34   2.0000     -10.282078      -279.7896
  35   2.0000     -10.281802      -279.7821
  36   2.0000     -10.281662      -279.7782
  37   2.0000     -10.281563      -279.7756
  38   2.0000     -10.281246      -279.7669
  39   2.0000     -10.281078      -279.7623
  40   2.0000     -10.281065      -279.7620
  41   2.0000     -10.278990      -279.7055
  42   2.0000     -10.278503      -279.6923
  43   2.0000     -10.277691      -279.6702
  44   2.0000     -10.277680      -279.6699
  45   2.0000     -10.276693      -279.6430
  46   2.0000     -10.276550      -279.6392
  47   2.0000     -10.274872      -279.5935
  48   2.0000     -10.274682      -279.5883
  49   2.0000     -10.273471      -279.5554
  50   2.0000     -10.273180      -279.5474
  51   2.0000     -10.271985      -279.5149
  52   2.0000     -10.271606      -279.5046
  53   2.0000     -10.270864      -279.4844
  54   2.0000     -10.269276      -279.4412
  55   2.0000     -10.268401      -279.4174
  56   2.0000     -10.267990      -279.4062
  57   2.0000     -10.267973      -279.4057
  58   2.0000     -10.267653      -279.3971
  59   2.0000     -10.266511      -279.3660
  60   2.0000     -10.265988      -279.3517
  61   2.0000     -10.265722      -279.3445
  62   2.0000     -10.265441      -279.3369
  63   2.0000     -10.259104      -279.1644
  64   2.0000     -10.258216      -279.1403
  65   2.0000     -10.258185      -279.1394
  66   2.0000     -10.256470      -279.0927
  67   2.0000     -10.250997      -278.9438
  68   2.0000     -10.248203      -278.8678
  69   2.0000     -10.244491      -278.7668
  70   2.0000      -8.055976      -219.2143
  71   2.0000      -8.032462      -218.5744
  72   2.0000      -6.025013      -163.9489
  73   2.0000      -6.020815      -163.8347
  74   2.0000      -6.018565      -163.7735
  75   2.0000      -6.001510      -163.3094
  76   2.0000      -5.997502      -163.2003
  77   2.0000      -5.994925      -163.1302
  78   2.0000      -1.117516       -30.4092
  79   2.0000      -1.108938       -30.1757
  80   2.0000      -1.067804       -29.0564
  81   2.0000      -1.063085       -28.9280
  82   2.0000      -1.047746       -28.5106
  83   2.0000      -1.042665       -28.3724
  84   2.0000      -0.994380       -27.0585
  85   2.0000      -0.991723       -26.9861
  86   2.0000      -0.981956       -26.7204
  87   2.0000      -0.972965       -26.4757
  88   2.0000      -0.956372       -26.0242
  89   2.0000      -0.953149       -25.9365
  90   2.0000      -0.929445       -25.2915
  91   2.0000      -0.928712       -25.2715
  92   2.0000      -0.919588       -25.0233
  93   2.0000      -0.908948       -24.7337
  94   2.0000      -0.904419       -24.6105
  95   2.0000      -0.895865       -24.3777
  96   2.0000      -0.893062       -24.3015
  97   2.0000      -0.883489       -24.0409
  98   2.0000      -0.878128       -23.8951
  99   2.0000      -0.871518       -23.7152
 100   2.0000      -0.866330       -23.5740
 101   2.0000      -0.862098       -23.4589
 102   2.0000      -0.849206       -23.1081
 103   2.0000      -0.846126       -23.0243
 104   2.0000      -0.843512       -22.9531
 105   2.0000      -0.842354       -22.9216
 106   2.0000      -0.837469       -22.7887
 107   2.0000      -0.830793       -22.6070
 108   2.0000      -0.826398       -22.4874
 109   2.0000      -0.823473       -22.4078
 110   2.0000      -0.802870       -21.8472
 111   2.0000      -0.793710       -21.5979
 112   2.0000      -0.784422       -21.3452
 113   2.0000      -0.773538       -21.0490
 114   2.0000      -0.764545       -20.8043
 115   2.0000      -0.762531       -20.7495
 116   2.0000      -0.757831       -20.6216
 117   2.0000      -0.748651       -20.3718
 118   2.0000      -0.739244       -20.1159
 119   2.0000      -0.736579       -20.0433
 120   2.0000      -0.731774       -19.9126
 121   2.0000      -0.724538       -19.7157
 122   2.0000      -0.710685       -19.3387
 123   2.0000      -0.706929       -19.2365
 124   2.0000      -0.700896       -19.0724
 125   2.0000      -0.700054       -19.0494
 126   2.0000      -0.699048       -19.0221
 127   2.0000      -0.690992       -18.8028
 128   2.0000      -0.682978       -18.5848
 129   2.0000      -0.679222       -18.4826
 130   2.0000      -0.673054       -18.3147
 131   2.0000      -0.665137       -18.0993
 132   2.0000      -0.652129       -17.7453
 133   2.0000      -0.647403       -17.6167
 134   2.0000      -0.645195       -17.5567
 135   2.0000      -0.640642       -17.4327
 136   2.0000      -0.633221       -17.2308
 137   2.0000      -0.631009       -17.1706
 138   2.0000      -0.627433       -17.0733
 139   2.0000      -0.614153       -16.7119
 140   2.0000      -0.610998       -16.6261
 141   2.0000      -0.608310       -16.5530
 142   2.0000      -0.606447       -16.5023
 143   2.0000      -0.605762       -16.4836
 144   2.0000      -0.597570       -16.2607
 145   2.0000      -0.595690       -16.2095
 146   2.0000      -0.592844       -16.1321
 147   2.0000      -0.582541       -15.8517
 148   2.0000      -0.581307       -15.8182
 149   2.0000      -0.575886       -15.6707
 150   2.0000      -0.570031       -15.5113
 151   2.0000      -0.568331       -15.4651
 152   2.0000      -0.563978       -15.3466
 153   2.0000      -0.557887       -15.1809
 154   2.0000      -0.555239       -15.1088
 155   2.0000      -0.552465       -15.0333
 156   2.0000      -0.550999       -14.9935
 157   2.0000      -0.547073       -14.8866
 158   2.0000      -0.541940       -14.7469
 159   2.0000      -0.536441       -14.5973
 160   2.0000      -0.535514       -14.5721
 161   2.0000      -0.533454       -14.5160
 162   2.0000      -0.531236       -14.4557
 163   2.0000      -0.530042       -14.4232
 164   2.0000      -0.528017       -14.3681
 165   2.0000      -0.525151       -14.2901
 166   2.0000      -0.524355       -14.2684
 167   2.0000      -0.522106       -14.2072
 168   2.0000      -0.517534       -14.0828
 169   2.0000      -0.517150       -14.0724
 170   2.0000      -0.514193       -13.9919
 171   2.0000      -0.513452       -13.9717
 172   2.0000      -0.511195       -13.9103
 173   2.0000      -0.509118       -13.8538
 174   2.0000      -0.509001       -13.8506
 175   2.0000      -0.507159       -13.8005
 176   2.0000      -0.502228       -13.6663
 177   2.0000      -0.500749       -13.6261
 178   2.0000      -0.498904       -13.5759
 179   2.0000      -0.494502       -13.4561
 180   2.0000      -0.490137       -13.3373
 181   2.0000      -0.487825       -13.2744
 182   2.0000      -0.486603       -13.2411
 183   2.0000      -0.486119       -13.2280
 184   2.0000      -0.481799       -13.1104
 185   2.0000      -0.478882       -13.0310
 186   2.0000      -0.478277       -13.0146
 187   2.0000      -0.477785       -13.0012
 188   2.0000      -0.474233       -12.9045
 189   2.0000      -0.473389       -12.8816
 190   2.0000      -0.471920       -12.8416
 191   2.0000      -0.468419       -12.7463
 192   2.0000      -0.466474       -12.6934
 193   2.0000      -0.463672       -12.6172
 194   2.0000      -0.460023       -12.5179
 195   2.0000      -0.457284       -12.4433
 196   2.0000      -0.456064       -12.4101
 197   2.0000      -0.455654       -12.3990
 198   2.0000      -0.454373       -12.3641
 199   2.0000      -0.451658       -12.2902
 200   2.0000      -0.449202       -12.2234
 201   2.0000      -0.446100       -12.1390
 202   2.0000      -0.444435       -12.0937
 203   2.0000      -0.443127       -12.0581
 204   2.0000      -0.441950       -12.0261
 205   2.0000      -0.439589       -11.9618
 206   2.0000      -0.438139       -11.9224
 207   2.0000      -0.436172       -11.8688
 208   2.0000      -0.434634       -11.8270
 209   2.0000      -0.433099       -11.7852
 210   2.0000      -0.430851       -11.7240
 211   2.0000      -0.425544       -11.5796
 212   2.0000      -0.424141       -11.5415
 213   2.0000      -0.423026       -11.5111
 214   2.0000      -0.418561       -11.3896
 215   2.0000      -0.415166       -11.2972
 216   2.0000      -0.414054       -11.2670
 217   2.0000      -0.409022       -11.1300
 218   2.0000      -0.408361       -11.1121
 219   2.0000      -0.401759       -10.9324
 220   2.0000      -0.400484       -10.8977
 221   2.0000      -0.398218       -10.8361
 222   2.0000      -0.396269       -10.7830
 223   2.0000      -0.394964       -10.7475
 224   2.0000      -0.385171       -10.4810
 225   2.0000      -0.383833       -10.4446
 226   2.0000      -0.382103       -10.3975
 227   2.0000      -0.380267       -10.3476
 228   2.0000      -0.363543        -9.8925
 229   2.0000      -0.348853        -9.4928
 230   2.0000      -0.347827        -9.4649
 231   2.0000      -0.347345        -9.4517
 232   2.0000      -0.343264        -9.3407
 233   2.0000      -0.338718        -9.2170
 234   2.0000      -0.336090        -9.1455
 235   2.0000      -0.333738        -9.0815
 236   2.0000      -0.329417        -8.9639
 237   2.0000      -0.327791        -8.9196
 238   2.0000      -0.321641        -8.7523
 239   2.0000      -0.321351        -8.7444
 240   2.0000      -0.320050        -8.7090
 241   2.0000      -0.314364        -8.5543
 242   2.0000      -0.312055        -8.4915
 243   2.0000      -0.304561        -8.2875
 244   2.0000      -0.295405        -8.0384
 245   2.0000      -0.293455        -7.9853
 246   2.0000      -0.284148        -7.7321
 247   2.0000      -0.282616        -7.6904
 248   2.0000      -0.271237        -7.3807
 249   2.0000      -0.241983        -6.5847
 250   2.0000      -0.225666        -6.1407
 251   0.0000      -0.104491        -2.8433
 252   0.0000      -0.099834        -2.7166
 253   0.0000      -0.075408        -2.0520
 254   0.0000      -0.040122        -1.0918
 255   0.0000      -0.037906        -1.0315

MULLIKEN ATOMIC CHARGES
-----------------------
   0 C :   -0.135172
   1 S :    0.131961
   2 C :   -0.269392
   3 C :    0.088608
   4 C :   -0.009176
   5 C :    0.142336
   6 C :   -0.047171
   7 C :    0.074858
   8 C :    0.020243
   9 C :   -0.017878
  10 C :   -0.017742
  11 C :    0.027169
  12 N :   -0.037891
  13 C :    0.070453
  14 C :   -0.152913
  15 C :    0.207738
  16 O :   -0.155213
  17 C :   -0.031945
  18 C :   -0.036639
  19 N :   -0.055554
  20 C :    0.082379
  21 C :   -0.095875
  22 C :    0.029447
  23 C :   -0.055585
  24 C :    0.021037
  25 C :    0.093473
  26 C :   -0.103020
  27 C :    0.065887
  28 C :   -0.064550
  29 C :   -0.008955
  30 C :    0.121499
  31 N :   -0.214094
  32 C :    0.109814
  33 N :   -0.222036
  34 C :    0.058636
  35 C :   -0.122041
  36 C :    0.137641
  37 C :   -0.015204
  38 C :    0.008354
  39 C :    0.011898
  40 C :    0.027559
  41 C :    0.008727
  42 C :   -0.015917
  43 C :   -0.024121
  44 C :    0.001013
  45 C :    0.021863
  46 N :   -0.042635
  47 C :    0.068754
  48 C :   -0.175331
  49 C :    0.212052
  50 O :   -0.148982
  51 C :   -0.010791
  52 C :   -0.043747
  53 N :   -0.059516
  54 C :    0.079696
  55 C :   -0.104581
  56 C :    0.062274
  57 C :   -0.068648
  58 C :    0.097692
  59 C :   -0.147291
  60 S :    0.119328
  61 C :   -0.232572
  62 C :    0.067076
  63 C :   -0.011834
  64 C :    0.078478
  65 C :   -0.045184
  66 C :    0.047889
  67 C :    0.036091
  68 C :   -0.063869
  69 C :   -0.023656
  70 H :    0.013779
  71 H :    0.030741
  72 H :    0.010870
  73 H :    0.020239
  74 H :    0.041714
  75 H :    0.025968
  76 H :    0.017529
  77 H :   -0.003632
  78 H :    0.024806
  79 H :    0.020638
  80 H :    0.008342
  81 H :   -0.005414
  82 H :   -0.002007
  83 H :    0.002948
  84 H :   -0.011058
  85 H :   -0.003115
  86 H :    0.011718
  87 H :   -0.034684
  88 H :   -0.018015
  89 H :   -0.007858
  90 H :   -0.007317
  91 H :    0.097990
  92 H :    0.080139
  93 H :    0.001482
  94 H :    0.008200
  95 H :    0.111631
  96 H :    0.107032
  97 H :   -0.013701
  98 H :    0.017855
  99 H :   -0.005710
 100 H :   -0.034976
 101 H :   -0.033126
 102 H :   -0.023187
 103 H :    0.033700
 104 H :    0.012019
 105 H :    0.000847
 106 H :   -0.012584
 107 H :   -0.054095
 108 H :   -0.006242
 109 H :    0.029735
 110 H :    0.025617
 111 H :    0.025931
 112 H :    0.013464
 113 H :    0.025149
 114 H :    0.010424
 115 H :    0.010781
 116 H :    0.004892
 117 H :    0.014860
 118 H :    0.015487
 119 H :    0.017437
 120 H :    0.011769
 121 H :    0.025781
Sum of atomic charges:    0.0000000

LOEWDIN ATOMIC CHARGES
----------------------
   0 C :   -0.198216
   1 S :    0.449520
   2 C :   -0.140859
   3 C :   -0.046245
   4 C :   -0.049724
   5 C :   -0.086838
   6 C :   -0.039715
   7 C :   -0.028683
   8 C :   -0.050566
   9 C :    0.036776
  10 C :   -0.053752
  11 C :    0.074246
  12 N :   -0.110188
  13 C :    0.050142
  14 C :   -0.049266
  15 C :    0.068421
  16 O :   -0.153375
  17 C :   -0.046784
  18 C :    0.009150
  19 N :   -0.097812
  20 C :    0.061721
  21 C :   -0.043616
  22 C :   -0.025536
  23 C :   -0.042694
  24 C :    0.019473
  25 C :   -0.034221
  26 C :   -0.007187
  27 C :   -0.024857
  28 C :   -0.040966
  29 C :   -0.052771
  30 C :    0.021886
  31 N :   -0.106490
  32 C :    0.025019
  33 N :   -0.096530
  34 C :   -0.037848
  35 C :    0.078748
  36 C :   -0.032936
  37 C :   -0.023692
  38 C :   -0.019798
  39 C :   -0.041099
  40 C :   -0.035406
  41 C :   -0.011641
  42 C :   -0.025246
  43 C :    0.082401
  44 C :   -0.053113
  45 C :    0.070933
  46 N :   -0.110524
  47 C :    0.052533
  48 C :   -0.074234
  49 C :    0.067948
  50 O :   -0.151533
  51 C :   -0.042036
  52 C :    0.006372
  53 N :   -0.101178
  54 C :    0.059031
  55 C :   -0.042451
  56 C :   -0.015771
  57 C :   -0.071633
  58 C :    0.012187
  59 C :   -0.191588
  60 S :    0.447117
  61 C :   -0.153368
  62 C :   -0.046973
  63 C :   -0.059348
  64 C :   -0.077628
  65 C :   -0.023634
  66 C :   -0.031325
  67 C :   -0.051003
  68 C :   -0.021241
  69 C :   -0.041161
  70 H :    0.021302
  71 H :    0.035143
  72 H :    0.031988
  73 H :    0.018941
  74 H :    0.031425
  75 H :    0.027080
  76 H :    0.027090
  77 H :    0.030611
  78 H :    0.025487
  79 H :    0.027395
  80 H :    0.025187
  81 H :    0.035143
  82 H :    0.038443
  83 H :    0.020867
  84 H :    0.031672
  85 H :    0.025508
  86 H :    0.034510
  87 H :    0.023064
  88 H :    0.029468
  89 H :    0.021038
  90 H :    0.011561
  91 H :    0.050086
  92 H :    0.038198
  93 H :    0.010321
  94 H :    0.020409
  95 H :    0.064048
  96 H :    0.057622
  97 H :    0.021904
  98 H :    0.049859
  99 H :    0.027018
 100 H :    0.030823
 101 H :    0.028004
 102 H :    0.028393
 103 H :    0.039821
 104 H :    0.033438
 105 H :    0.019563
 106 H :    0.031088
 107 H :    0.022140
 108 H :    0.031521
 109 H :    0.034504
 110 H :    0.036668
 111 H :    0.019162
 112 H :    0.025469
 113 H :    0.026450
 114 H :    0.030386
 115 H :    0.024174
 116 H :    0.024356
 117 H :    0.026258
 118 H :    0.022931
 119 H :    0.031959
 120 H :    0.018170
 121 H :    0.023008

  Mayer bond orders larger than 0.100000
B(  0-C ,  1-S ) :   1.1165 B(  0-C ,  6-C ) :   1.6380 B(  0-C , 70-H ) :   0.9651
B(  1-S ,  2-C ) :   1.2139 B(  2-C ,  3-C ) :   1.0635 B(  2-C ,  5-C ) :   1.4535
B(  3-C ,  4-C ) :   1.0958 B(  3-C , 71-H ) :   0.9190 B(  3-C , 72-H ) :   0.9166
B(  4-C , 73-H ) :   0.9673 B(  4-C , 74-H ) :   0.9651 B(  4-C , 75-H ) :   0.9625
B(  5-C ,  6-C ) :   1.1816 B(  5-C ,  9-C ) :   1.1534 B(  6-C ,  7-C ) :   1.0671
B(  7-C ,  8-C ) :   1.0998 B(  7-C , 76-H ) :   0.9212 B(  7-C , 77-H ) :   0.9199
B(  8-C , 78-H ) :   0.9720 B(  8-C , 79-H ) :   0.9680 B(  8-C , 80-H ) :   0.9625
B(  9-C , 10-C ) :   1.5996 B(  9-C , 81-H ) :   0.9500 B( 10-C , 11-C ) :   1.1499
B( 10-C , 82-H ) :   0.9555 B( 11-C , 12-N ) :   1.5752 B( 11-C , 13-C ) :   0.1063
B( 11-C , 22-C ) :   1.0024 B( 12-N , 13-C ) :   1.3628 B( 13-C , 14-C ) :   1.0417
B( 13-C , 18-C ) :   1.4045 B( 14-C , 15-C ) :   0.8998 B( 14-C , 22-C ) :   1.5943
B( 15-C , 16-O ) :   2.1936 B( 15-C , 17-C ) :   0.9202 B( 17-C , 18-C ) :   1.0718
B( 17-C , 21-C ) :   1.5852 B( 18-C , 19-N ) :   1.3267 B( 19-N , 20-C ) :   1.6437
B( 20-C , 21-C ) :   1.0916 B( 20-C , 83-H ) :   0.9897 B( 21-C , 84-H ) :   1.0099
B( 22-C , 23-C ) :   1.0760 B( 23-C , 24-C ) :   1.7347 B( 23-C , 85-H ) :   0.9506
B( 24-C , 25-C ) :   1.0381 B( 24-C , 86-H ) :   0.9689 B( 25-C , 26-C ) :   1.5124
B( 25-C , 42-C ) :   1.1272 B( 26-C , 27-C ) :   1.1359 B( 26-C , 87-H ) :   0.9899
B( 27-C , 28-C ) :   1.4679 B( 27-C , 40-C ) :   1.1367 B( 28-C , 29-C ) :   1.0391
B( 28-C , 34-C ) :   1.1007 B( 29-C , 30-C ) :   1.0009 B( 29-C , 32-C ) :   1.0345
B( 29-C , 88-H ) :   0.8752 B( 30-C , 31-N ) :   1.1435 B( 30-C , 89-H ) :   0.9421
B( 30-C , 90-H ) :   0.9466 B( 31-N , 91-H ) :   0.9777 B( 31-N , 92-H ) :   0.9800
B( 32-C , 33-N ) :   1.0605 B( 32-C , 93-H ) :   0.9435 B( 32-C , 94-H ) :   0.9543
B( 33-N , 95-H ) :   0.9583 B( 33-N , 96-H ) :   0.9559 B( 33-N , 97-H ) :   0.1414
B( 34-C , 35-C ) :   1.6259 B( 34-C , 39-C ) :   1.0549 B( 35-C , 36-C ) :   0.9832
B( 35-C , 97-H ) :   0.9386 B( 36-C , 37-C ) :   0.9867 B( 36-C , 43-C ) :   0.9483
B( 36-C , 98-H ) :   0.8851 B( 37-C , 38-C ) :   1.7144 B( 37-C , 99-H ) :   0.9659
B( 38-C , 39-C ) :   1.1423 B( 38-C ,100-H ) :   0.9894 B( 39-C , 40-C ) :   1.4074
B( 40-C , 41-C ) :   1.1452 B( 41-C , 42-C ) :   1.5840 B( 41-C ,101-H ) :   0.9906
B( 42-C ,102-H ) :   0.9935 B( 43-C , 44-C ) :   1.7449 B( 43-C ,103-H ) :   0.9746
B( 44-C , 45-C ) :   1.1393 B( 44-C ,104-H ) :   0.9479 B( 45-C , 46-N ) :   1.6219
B( 45-C , 47-C ) :   0.1106 B( 45-C , 56-C ) :   0.9939 B( 46-N , 47-C ) :   1.3322
B( 47-C , 48-C ) :   1.0614 B( 47-C , 52-C ) :   1.4215 B( 48-C , 49-C ) :   0.9090
B( 48-C , 56-C ) :   1.5193 B( 49-C , 50-O ) :   2.1807 B( 49-C , 51-C ) :   0.9313
B( 50-O ,108-H ) :   0.1053 B( 51-C , 52-C ) :   1.0777 B( 51-C , 55-C ) :   1.5966
B( 52-C , 53-N ) :   1.3101 B( 53-N , 54-C ) :   1.6594 B( 54-C , 55-C ) :   1.0768
B( 54-C ,105-H ) :   0.9894 B( 55-C ,106-H ) :   1.0110 B( 56-C , 57-C ) :   1.1682
B( 57-C , 58-C ) :   1.6298 B( 57-C ,107-H ) :   0.9531 B( 58-C , 59-C ) :   1.1516
B( 58-C ,108-H ) :   0.9257 B( 59-C , 60-S ) :   1.1036 B( 59-C , 65-C ) :   1.4796
B( 60-S , 61-C ) :   1.1594 B( 61-C , 62-C ) :   1.0587 B( 61-C , 64-C ) :   1.5315
B( 62-C , 63-C ) :   1.0962 B( 62-C ,109-H ) :   0.9209 B( 62-C ,110-H ) :   0.9260
B( 63-C ,111-H ) :   0.9645 B( 63-C ,112-H ) :   0.9654 B( 63-C ,113-H ) :   0.9757
B( 64-C , 65-C ) :   1.2832 B( 64-C , 68-C ) :   1.0149 B( 65-C , 66-C ) :   1.0792
B( 66-C , 67-C ) :   1.1043 B( 66-C ,114-H ) :   0.9088 B( 66-C ,115-H ) :   0.9138
B( 67-C ,116-H ) :   0.9581 B( 67-C ,117-H ) :   0.9648 B( 67-C ,118-H ) :   0.9618
B( 68-C , 69-C ) :   1.9854 B( 68-C ,119-H ) :   0.9500 B( 69-C ,120-H ) :   0.9603
B( 69-C ,121-H ) :   0.9398

-----------------------------------------------------------------------------
         ABSORPTION SPECTRUM VIA TRANSITION ELECTRIC DIPOLE MOMENTS
-----------------------------------------------------------------------------
State   Energy  Wavelength   fosc         T2         TX        TY        TZ
        (cm-1)    (nm)                  (au**2)     (au)      (au)      (au)
-----------------------------------------------------------------------------
   0   12346.3    810.0   0.089045033   2.37437   0.75676  -0.45444   1.26300
   1   13371.1    747.9   0.044993300   1.10779   0.07773  -0.92090  -0.50368
   2   14176.4    705.4   0.145606453   3.38135  -1.39219   0.28113  -1.16796
   3   14716.6    679.5   0.140108581   3.13424   1.69972   0.29414   0.39833
   4   19148.5    522.2   0.000130962   0.00225  -0.02975  -0.02115  -0.03032
   5   20543.9    486.8   0.021167501   0.33920  -0.29583   0.48265  -0.13688
   6   21404.1    467.2   0.876227054  13.47706  -0.00126  -3.26754  -1.67339
   7   22223.2    450.0   0.000604133   0.00895  -0.08331   0.02222   0.03893
   8   22270.0    449.0   0.000186379   0.00276  -0.02776   0.04133   0.01664
   9   22568.4    443.1   0.013294025   0.19392   0.04070   0.42258   0.11703
  10   24651.1    405.7   0.257969541   3.44515  -1.31343   0.66839  -1.12841
  11   25119.8    398.1   0.029039910   0.38059   0.19757   0.57312   0.11440
  12   25351.8    394.4   0.144322048   1.87413  -1.06022  -0.68326  -0.53218
  13   25505.5    392.1   0.749035784   9.66816  -2.08682  -1.00366  -2.07509
  14   26016.1    384.4   0.036953353   0.46761  -0.10000  -0.53385  -0.41547
  15   26244.5    381.0   0.019154137   0.24027   0.22339   0.35936   0.24744
  16   26346.9    379.6   0.058458950   0.73046   0.62763  -0.22164   0.53611
  17   26383.1    379.0   0.031808490   0.39691  -0.34643   0.39520  -0.34744
  18   26459.2    377.9   0.121646120   1.51355   0.77285  -0.85790   0.42457
  19   26615.8    375.7   0.031636648   0.39131   0.06157   0.39529   0.48090
  20   26695.4    374.6   0.258112611   3.18308  -1.29684   0.78667  -0.93938
  21   27081.7    369.3   0.028969335   0.35216  -0.56173  -0.12877  -0.14156
  22   27432.6    364.5   0.122555033   1.47075   0.97660   0.19815   0.69118
  23   27931.5    358.0   0.017590788   0.20733  -0.41065  -0.10963  -0.16335
  24   27992.8    357.2   0.006299761   0.07409  -0.26280   0.06944  -0.01420
  25   28564.5    350.1   0.049498632   0.57048  -0.10210   0.64275   0.38332
  26   29403.5    340.1   0.091767519   1.02746  -0.61566  -0.33110  -0.73403
  27   29628.9    337.5   0.160683343   1.78538   0.79362  -1.07485  -0.01603
  28   29761.7    336.0   0.241798685   2.67468  -0.86008  -0.68817  -1.20887
  29   29993.5    333.4   0.095150082   1.04438  -0.52375   0.72123  -0.49989
  30   30260.8    330.5   0.052659126   0.57289   0.23068  -0.70149  -0.16611
  31   30870.5    323.9   0.003731380   0.03979  -0.08060   0.16313   0.08176
  32   30916.3    323.5   0.008100314   0.08626   0.06177   0.14733   0.24644
  33   31215.8    320.4   0.004651692   0.04906   0.11141   0.12029   0.14892
  34   31391.0    318.6   0.002913254   0.03055   0.13968   0.01155   0.10445
  35   31976.1    312.7   0.003143436   0.03236  -0.08680  -0.08535  -0.13246
  36   32069.9    311.8   0.017532189   0.17998  -0.14443  -0.12694  -0.37816
  37   32379.1    308.8   0.051220736   0.52078   0.59372   0.29430   0.28577
  38   32766.1    305.2   0.032839912   0.32995  -0.18398   0.54402  -0.01222
  39   33284.9    300.4   0.001916553   0.01896   0.10065   0.06884   0.06392
  40   33656.4    297.1   0.154192603   1.50824   1.00997   0.33136   0.61515
  41   33802.8    295.8   0.077954153   0.75921  -0.58886  -0.58822  -0.25780
  42   34063.1    293.6   0.405163231   3.91580   1.11608   1.22194   1.08491
  43   34499.6    289.9   0.023172687   0.22112  -0.32959   0.32184  -0.09441
  44   34951.6    286.1   0.015635167   0.14727   0.19623   0.18141   0.27542
  45   35129.0    284.7   0.009362108   0.08774  -0.08867  -0.20606  -0.19342
  46   35288.0    283.4   0.059901074   0.55883   0.33126   0.46457   0.48298
  47   35665.4    280.4   0.079386708   0.73279   0.40772   0.65989   0.36207
  48   36233.5    276.0   0.158463832   1.43978  -0.21170  -1.12568  -0.35749
  49   36840.3    271.4   0.003881871   0.03469  -0.02297  -0.17410   0.06206
  50   36922.8    270.8   0.206237177   1.83886   0.29380  -1.27193  -0.36704
  51   37266.0    268.3   0.004876094   0.04308  -0.11544   0.16473  -0.05114
  52   37574.7    266.1   0.010681082   0.09358   0.18691  -0.18625  -0.15478
  53   37647.6    265.6   0.188851759   1.65143  -0.68463   1.06736  -0.20846
  54   37741.7    265.0   0.003154358   0.02751  -0.09033  -0.02054  -0.13760
  55   37798.9    264.6   0.191241639   1.66563   0.50497  -0.96454   0.69303
  56   38058.3    262.8   0.000938463   0.00812  -0.01390  -0.08596  -0.02315
  57   38125.1    262.3   0.038605704   0.33336   0.04865  -0.57532   0.00095
  58   38409.1    260.4   0.022930738   0.19654   0.38685   0.17030   0.13376
  59   38867.7    257.3   0.002796801   0.02369  -0.13026   0.00416   0.08187
  60   39171.0    255.3   0.023433299   0.19694  -0.19701  -0.03308  -0.39628
  61   39319.0    254.3   0.009264760   0.07757  -0.12908   0.14576  -0.19917
  62   39390.9    253.9   0.014350445   0.11993  -0.18530  -0.10435  -0.27333
  63   39578.5    252.7   0.010844525   0.09020  -0.03380   0.29300   0.05671
  64   39903.5    250.6   0.016304567   0.13452  -0.06324  -0.33680  -0.13070
  65   39969.1    250.2   0.038289203   0.31538  -0.44543   0.34072  -0.02961
  66   40084.7    249.5   0.011951196   0.09815  -0.01142   0.31081  -0.03765
  67   40278.3    248.3   0.034404189   0.28120  -0.25670   0.40596  -0.22472

FINAL SINGLE POINT ENERGY     -3588.941902333549

DIPOLE MOMENT
-------------
                                X             Y             Z
Electronic contribution:    -27.21899      18.83055      -0.37749
Nuclear contribution   :     28.22702     -20.80355      -0.15587
                        -----------------------------------------
Total Dipole Moment    :      1.00804      -1.97300      -0.53335
                        -----------------------------------------
Magnitude (a.u.)       :      2.27888
Magnitude (Debye)      :      5.79246

Rotational constants in cm-1:     0.001339     0.000564     0.000425
Rotational constants in MHz :    40.130864    16.922762    12.732869

                             ****ORCA TERMINATED NORMALLY****
TOTAL RUN TIME: 0 days 0 hours 14 minutes 15 seconds 831 msec
