                         Program Version 4.2.0 -  RELEASE  -
|  1> # ORCA input file
|  2> # SCF done       -175.314204164470          0.000914399159
|  3> ! CAM-B3LYP def2-SVP def2/J RIJCOSX Grid4 TightSCF
|  4> %maxcore 5000
|  5> %tddft
|  6>     Mode sTDDFT
|  7>     Ethresh 5.0
|  8>     maxcore 5000
|  9> end
| 10>
| 11> %pal
| 12>   nprocs 6
| 13>   end
| 14> * xyz 0 1
| 15>    N       -7.33579         3.39111         0.97086
| 16>    C       -6.83261         3.24163        -0.31922
| 17>    C       -7.32821         3.82238        -1.44488
| 18>    S       -6.37845         3.47183        -2.83832
| 19>    C       -5.29585         2.51777        -1.91103
| 20>    C       -5.63967         2.48727        -0.58912
| 21>    N       -4.96013         1.85418         0.43500
| 22>    C       -3.93672         0.98828         0.30202
| 23>    C       -3.30275         0.42180         1.36117
| 24>    C       -2.25229        -0.51940         1.28293
| 25>    N       -2.01175        -1.31816         2.32183
| 26>    C       -1.05853        -2.17067         1.92040
| 27>    C       -0.64194        -1.90028         0.53347
| 28>    C        0.40942        -2.84296         0.12209
| 29>    O        0.95939        -2.94159        -0.95820
| 30>    C        0.61367        -3.64900         1.33413
| 31>    C       -0.30424        -3.21949         2.40114
| 32>    N       -0.10547        -3.94494         3.52595
| 33>    C        0.87061        -4.77539         3.22858
| 34>    C        1.37040        -4.63931         1.88463
| 35>    C       -1.35963        -0.80255         0.12937
| 36>    C       -1.22515        -0.00328        -1.04452
| 37>    C       -0.55954        -0.41996        -2.14431
| 38>    C       -0.32323         0.33180        -3.34664
| 39>    C        0.43053        -0.25585        -4.34269
| 40>    C        0.72630         0.44781        -5.52224
| 41>    C        1.46947         0.08451        -6.64212
| 42>    C        2.13057        -1.22908        -6.86873
| 43>    C        1.48510        -1.97533        -8.04946
| 44>    N        0.15437        -2.40888        -7.66564
| 45>    C        3.66503        -1.08445        -7.06119
| 46>    N        4.42392        -2.27494        -6.76099
| 47>    C        1.47215         1.22170        -7.52735
| 48>    C        2.05698         1.43495        -8.72235
| 49>    C        1.97864         2.75877        -9.39740
| 50>    C        1.01876         3.72642        -8.78355
| 51>    C        0.44093         3.50128        -7.58522
| 52>    C        0.65731         2.28357        -6.90545
| 53>    C        0.21951         1.80135        -5.68704
| 54>    C       -0.56850         2.37512        -4.66265
| 55>    C       -0.82553         1.66251        -3.53693
| 56>    C        3.32063         3.41934        -9.21297
| 57>    C        4.09554         3.86622       -10.21197
| 58>    C        5.33737         4.52768        -9.95935
| 59>    N        5.72688         4.82364        -8.72899
| 60>    C        6.92226         5.43630        -8.85778
| 61>    C        7.32443         5.53331       -10.26583
| 62>    C        8.61651         6.20514       -10.38174
| 63>    O        9.25049         6.47042       -11.38977
| 64>    C        8.96552         6.49327        -8.97791
| 65>    C        7.90233         6.01052        -8.08123
| 66>    N        8.21145         6.27162        -6.78618
| 67>    C        9.37768         6.87062        -6.82849
| 68>    C        9.90603         7.04160        -8.16385
| 69>    C        6.31354         4.94686       -10.99321
| 70>    C        6.18123         4.73282       -12.38962
| 71>    C        7.14208         5.13572       -13.25615
| 72>    N        7.13277         4.99549       -14.60589
| 73>    C        6.27116         4.23554       -15.38829
| 74>    C        5.66853         3.06334       -15.03900
| 75>    S        4.73819         2.40358       -16.32122
| 76>    C        5.15230         3.71675       -17.35617
| 77>    C        5.96902         4.62074       -16.74335
| 78>    N        6.48179         5.77781       -17.28652
| 79>    C        6.41250         6.14885       -18.60959
| 80>    C        6.76349         7.34826       -19.05701
| 81>    H       -8.20775         3.90009         0.99519
| 82>    H       -7.40518         2.52773         1.49349
| 83>    H       -8.19255         4.44819        -1.53600
| 84>    H       -4.46383         2.05435        -2.40025
| 85>    H       -5.22582         2.12922         1.37243
| 86>    H       -3.69133         0.71905        -0.71309
| 87>    H       -3.66313         0.61905         2.36233
| 88>    H        1.22456        -5.47880         3.96263
| 89>    H        2.16476        -5.21387         1.45001
| 90>    H       -1.63948         0.99370        -0.99241
| 91>    H       -0.14049        -1.41747        -2.13485
| 92>    H        0.80445        -1.25884        -4.20037
| 93>    H        1.96428        -1.84749        -5.98019
| 94>    H        2.06661        -2.87403        -8.27958
| 95>    H        1.49611        -1.32639        -8.94148
| 96>    H       -0.41939        -1.60594        -7.42872
| 97>    H       -0.29652        -2.90857        -8.42345
| 98>    H        4.03054        -0.28628        -6.41040
| 99>    H        3.88516        -0.80643        -8.09467
|100>    H        4.32586        -2.52705        -5.78393
|101>    H        4.10860        -3.06005        -7.31969
|102>    H        2.67153         0.69181        -9.20875
|103>    H        1.78376         2.63282       -10.46845
|104>    H        0.87180         4.65274        -9.31628
|105>    H       -0.21398         4.23869        -7.14380
|106>    H       -0.95157         3.37806        -4.78415
|107>    H       -1.41918         2.10887        -2.75349
|108>    H        3.64419         3.56290        -8.19278
|109>    H        3.80143         3.72943       -11.24374
|110>    H        9.85730         7.18997        -5.91935
|111>    H       10.84026         7.50635        -8.41134
|112>    H        5.28453         4.25283       -12.74934
|113>    H        8.01114         5.65602       -12.87363
|114>    H        7.89177         5.43518       -15.10661
|115>    H        5.75659         2.52319       -14.11919
|116>    H        4.75239         3.73898       -18.34824
|117>    H        6.78802         6.49126       -16.64055
|118>    H        6.07743         5.36979       -19.27665
|119>    H        7.09902         8.12709       -18.39368
|120>    H        6.72374         7.58363       -20.10248
|121> *
|122>
|123>                          ****END OF INPUT****

CARTESIAN COORDINATES (ANGSTROEM)
---------------------------------
  N     -7.335790    3.391110    0.970860
  C     -6.832610    3.241630   -0.319220
  C     -7.328210    3.822380   -1.444880
  S     -6.378450    3.471830   -2.838320
  C     -5.295850    2.517770   -1.911030
  C     -5.639670    2.487270   -0.589120
  N     -4.960130    1.854180    0.435000
  C     -3.936720    0.988280    0.302020
  C     -3.302750    0.421800    1.361170
  C     -2.252290   -0.519400    1.282930
  N     -2.011750   -1.318160    2.321830
  C     -1.058530   -2.170670    1.920400
  C     -0.641940   -1.900280    0.533470
  C      0.409420   -2.842960    0.122090
  O      0.959390   -2.941590   -0.958200
  C      0.613670   -3.649000    1.334130
  C     -0.304240   -3.219490    2.401140
  N     -0.105470   -3.944940    3.525950
  C      0.870610   -4.775390    3.228580
  C      1.370400   -4.639310    1.884630
  C     -1.359630   -0.802550    0.129370
  C     -1.225150   -0.003280   -1.044520
  C     -0.559540   -0.419960   -2.144310
  C     -0.323230    0.331800   -3.346640
  C      0.430530   -0.255850   -4.342690
  C      0.726300    0.447810   -5.522240
  C      1.469470    0.084510   -6.642120
  C      2.130570   -1.229080   -6.868730
  C      1.485100   -1.975330   -8.049460
  N      0.154370   -2.408880   -7.665640
  C      3.665030   -1.084450   -7.061190
  N      4.423920   -2.274940   -6.760990
  C      1.472150    1.221700   -7.527350
  C      2.056980    1.434950   -8.722350
  C      1.978640    2.758770   -9.397400
  C      1.018760    3.726420   -8.783550
  C      0.440930    3.501280   -7.585220
  C      0.657310    2.283570   -6.905450
  C      0.219510    1.801350   -5.687040
  C     -0.568500    2.375120   -4.662650
  C     -0.825530    1.662510   -3.536930
  C      3.320630    3.419340   -9.212970
  C      4.095540    3.866220  -10.211970
  C      5.337370    4.527680   -9.959350
  N      5.726880    4.823640   -8.728990
  C      6.922260    5.436300   -8.857780
  C      7.324430    5.533310  -10.265830
  C      8.616510    6.205140  -10.381740
  O      9.250490    6.470420  -11.389770
  C      8.965520    6.493270   -8.977910
  C      7.902330    6.010520   -8.081230
  N      8.211450    6.271620   -6.786180
  C      9.377680    6.870620   -6.828490
  C      9.906030    7.041600   -8.163850
  C      6.313540    4.946860  -10.993210
  C      6.181230    4.732820  -12.389620
  C      7.142080    5.135720  -13.256150
  N      7.132770    4.995490  -14.605890
  C      6.271160    4.235540  -15.388290
  C      5.668530    3.063340  -15.039000
  S      4.738190    2.403580  -16.321220
  C      5.152300    3.716750  -17.356170
  C      5.969020    4.620740  -16.743350
  N      6.481790    5.777810  -17.286520
  C      6.412500    6.148850  -18.609590
  C      6.763490    7.348260  -19.057010
  H     -8.207750    3.900090    0.995190
  H     -7.405180    2.527730    1.493490
  H     -8.192550    4.448190   -1.536000
  H     -4.463830    2.054350   -2.400250
  H     -5.225820    2.129220    1.372430
  H     -3.691330    0.719050   -0.713090
  H     -3.663130    0.619050    2.362330
  H      1.224560   -5.478800    3.962630
  H      2.164760   -5.213870    1.450010
  H     -1.639480    0.993700   -0.992410
  H     -0.140490   -1.417470   -2.134850
  H      0.804450   -1.258840   -4.200370
  H      1.964280   -1.847490   -5.980190
  H      2.066610   -2.874030   -8.279580
  H      1.496110   -1.326390   -8.941480
  H     -0.419390   -1.605940   -7.428720
  H     -0.296520   -2.908570   -8.423450
  H      4.030540   -0.286280   -6.410400
  H      3.885160   -0.806430   -8.094670
  H      4.325860   -2.527050   -5.783930
  H      4.108600   -3.060050   -7.319690
  H      2.671530    0.691810   -9.208750
  H      1.783760    2.632820  -10.468450
  H      0.871800    4.652740   -9.316280
  H     -0.213980    4.238690   -7.143800
  H     -0.951570    3.378060   -4.784150
  H     -1.419180    2.108870   -2.753490
  H      3.644190    3.562900   -8.192780
  H      3.801430    3.729430  -11.243740
  H      9.857300    7.189970   -5.919350
  H     10.840260    7.506350   -8.411340
  H      5.284530    4.252830  -12.749340
  H      8.011140    5.656020  -12.873630
  H      7.891770    5.435180  -15.106610
  H      5.756590    2.523190  -14.119190
  H      4.752390    3.738980  -18.348240
  H      6.788020    6.491260  -16.640550
  H      6.077430    5.369790  -19.276650
  H      7.099020    8.127090  -18.393680
  H      6.723740    7.583630  -20.102480

 Total Charge           Charge          ....    0
 Multiplicity           Mult            ....    1
 Number of Electrons    NEL             ....  470
 Basis Dimension        Dim             .... 1132

ORBITAL ENERGIES
----------------

  NO   OCC          E(Eh)            E(eV)
   0   2.0000     -88.955939     -2420.6142
   1   2.0000     -88.953783     -2420.5555
   2   2.0000     -19.195664      -522.3406
   3   2.0000     -19.190002      -522.1865
   4   2.0000     -14.475256      -393.8917
   5   2.0000     -14.461563      -393.5191
   6   2.0000     -14.444889      -393.0654
   7   2.0000     -14.431478      -392.7005
   8   2.0000     -14.394866      -391.7042
   9   2.0000     -14.386269      -391.4703
  10   2.0000     -14.382082      -391.3563
  11   2.0000     -14.378768      -391.2662
  12   2.0000     -14.372966      -391.1083
  13   2.0000     -14.370905      -391.0522
  14   2.0000     -10.354550      -281.7616
  15   2.0000     -10.349942      -281.6363
  16   2.0000     -10.344667      -281.4927
  17   2.0000     -10.330681      -281.1121
  18   2.0000     -10.325962      -280.9837
  19   2.0000     -10.325924      -280.9827
  20   2.0000     -10.321235      -280.8551
  21   2.0000     -10.320370      -280.8315
  22   2.0000     -10.320364      -280.8314
  23   2.0000     -10.319383      -280.8047
  24   2.0000     -10.315834      -280.7081
  25   2.0000     -10.310170      -280.5540
  26   2.0000     -10.309889      -280.5463
  27   2.0000     -10.305971      -280.4397
  28   2.0000     -10.303564      -280.3742
  29   2.0000     -10.302515      -280.3457
  30   2.0000     -10.301162      -280.3089
  31   2.0000     -10.298846      -280.2459
  32   2.0000     -10.296007      -280.1686
  33   2.0000     -10.294519      -280.1281
  34   2.0000     -10.293803      -280.1086
  35   2.0000     -10.293266      -280.0940
  36   2.0000     -10.291611      -280.0490
  37   2.0000     -10.288839      -279.9736
  38   2.0000     -10.287613      -279.9402
  39   2.0000     -10.285504      -279.8828
  40   2.0000     -10.282753      -279.8079
  41   2.0000     -10.281952      -279.7861
  42   2.0000     -10.278998      -279.7058
  43   2.0000     -10.277432      -279.6631
  44   2.0000     -10.276946      -279.6499
  45   2.0000     -10.276359      -279.6340
  46   2.0000     -10.274215      -279.5756
  47   2.0000     -10.273936      -279.5680
  48   2.0000     -10.271393      -279.4988
  49   2.0000     -10.270848      -279.4840
  50   2.0000     -10.270608      -279.4774
  51   2.0000     -10.268616      -279.4232
  52   2.0000     -10.268575      -279.4221
  53   2.0000     -10.268253      -279.4134
  54   2.0000     -10.267761      -279.4000
  55   2.0000     -10.267086      -279.3816
  56   2.0000     -10.266289      -279.3599
  57   2.0000     -10.264906      -279.3223
  58   2.0000     -10.264193      -279.3029
  59   2.0000     -10.262985      -279.2700
  60   2.0000     -10.262703      -279.2623
  61   2.0000     -10.262675      -279.2616
  62   2.0000     -10.261474      -279.2289
  63   2.0000     -10.261366      -279.2260
  64   2.0000     -10.258705      -279.1536
  65   2.0000     -10.250264      -278.9239
  66   2.0000      -8.051783      -219.1002
  67   2.0000      -8.049700      -219.0435
  68   2.0000      -6.021311      -163.8482
  69   2.0000      -6.019221      -163.7913
  70   2.0000      -6.016999      -163.7309
  71   2.0000      -6.014884      -163.6733
  72   2.0000      -6.013635      -163.6393
  73   2.0000      -6.011565      -163.5830
  74   2.0000      -1.107600       -30.1393
  75   2.0000      -1.103120       -30.0174
  76   2.0000      -1.079696       -29.3800
  77   2.0000      -1.068935       -29.0872
  78   2.0000      -1.061031       -28.8721
  79   2.0000      -1.053490       -28.6669
  80   2.0000      -1.039807       -28.2946
  81   2.0000      -1.037951       -28.2441
  82   2.0000      -1.032003       -28.0822
  83   2.0000      -1.017200       -27.6794
  84   2.0000      -0.986661       -26.8484
  85   2.0000      -0.968141       -26.3444
  86   2.0000      -0.963113       -26.2076
  87   2.0000      -0.962897       -26.2018
  88   2.0000      -0.950861       -25.8742
  89   2.0000      -0.946768       -25.7629
  90   2.0000      -0.924436       -25.1552
  91   2.0000      -0.915850       -24.9215
  92   2.0000      -0.914005       -24.8713
  93   2.0000      -0.898460       -24.4483
  94   2.0000      -0.894987       -24.3538
  95   2.0000      -0.880650       -23.9637
  96   2.0000      -0.878660       -23.9095
  97   2.0000      -0.864144       -23.5146
  98   2.0000      -0.858293       -23.3553
  99   2.0000      -0.841922       -22.9099
 100   2.0000      -0.838038       -22.8042
 101   2.0000      -0.834701       -22.7134
 102   2.0000      -0.832054       -22.6413
 103   2.0000      -0.828753       -22.5515
 104   2.0000      -0.823412       -22.4062
 105   2.0000      -0.813382       -22.1332
 106   2.0000      -0.808493       -22.0002
 107   2.0000      -0.803677       -21.8692
 108   2.0000      -0.795712       -21.6524
 109   2.0000      -0.792729       -21.5712
 110   2.0000      -0.762335       -20.7442
 111   2.0000      -0.759982       -20.6802
 112   2.0000      -0.755272       -20.5520
 113   2.0000      -0.744674       -20.2636
 114   2.0000      -0.734468       -19.9859
 115   2.0000      -0.721065       -19.6212
 116   2.0000      -0.718924       -19.5629
 117   2.0000      -0.717582       -19.5264
 118   2.0000      -0.713168       -19.4063
 119   2.0000      -0.700098       -19.0506
 120   2.0000      -0.697344       -18.9757
 121   2.0000      -0.690089       -18.7783
 122   2.0000      -0.687071       -18.6961
 123   2.0000      -0.682504       -18.5719
 124   2.0000      -0.668158       -18.1815
 125   2.0000      -0.665536       -18.1101
 126   2.0000      -0.663058       -18.0427
 127   2.0000      -0.653627       -17.7861
 128   2.0000      -0.652934       -17.7672
 129   2.0000      -0.647315       -17.6143
 130   2.0000      -0.645309       -17.5598
 131   2.0000      -0.641071       -17.4444
 132   2.0000      -0.635097       -17.2819
 133   2.0000      -0.632121       -17.2009
 134   2.0000      -0.630302       -17.1514
 135   2.0000      -0.622078       -16.9276
 136   2.0000      -0.610633       -16.6162
 137   2.0000      -0.601251       -16.3609
 138   2.0000      -0.599232       -16.3059
 139   2.0000      -0.596057       -16.2195
 140   2.0000      -0.591786       -16.1033
 141   2.0000      -0.591250       -16.0887
 142   2.0000      -0.586809       -15.9679
 143   2.0000      -0.578964       -15.7544
 144   2.0000      -0.576953       -15.6997
 145   2.0000      -0.573652       -15.6099
 146   2.0000      -0.569419       -15.4947
 147   2.0000      -0.563599       -15.3363
 148   2.0000      -0.561415       -15.2769
 149   2.0000      -0.558281       -15.1916
 150   2.0000      -0.553018       -15.0484
 151   2.0000      -0.549390       -14.9497
 152   2.0000      -0.548988       -14.9387
 153   2.0000      -0.543771       -14.7968
 154   2.0000      -0.540917       -14.7191
 155   2.0000      -0.533895       -14.5280
 156   2.0000      -0.528934       -14.3930
 157   2.0000      -0.527956       -14.3664
 158   2.0000      -0.526801       -14.3350
 159   2.0000      -0.524025       -14.2594
 160   2.0000      -0.522131       -14.2079
 161   2.0000      -0.518885       -14.1196
 162   2.0000      -0.516382       -14.0515
 163   2.0000      -0.514573       -14.0023
 164   2.0000      -0.511399       -13.9159
 165   2.0000      -0.509103       -13.8534
 166   2.0000      -0.507568       -13.8116
 167   2.0000      -0.505185       -13.7468
 168   2.0000      -0.500703       -13.6248
 169   2.0000      -0.499441       -13.5905
 170   2.0000      -0.497931       -13.5494
 171   2.0000      -0.497855       -13.5473
 172   2.0000      -0.491200       -13.3662
 173   2.0000      -0.489517       -13.3204
 174   2.0000      -0.489135       -13.3100
 175   2.0000      -0.484755       -13.1908
 176   2.0000      -0.481152       -13.0928
 177   2.0000      -0.478492       -13.0204
 178   2.0000      -0.477061       -12.9815
 179   2.0000      -0.476619       -12.9695
 180   2.0000      -0.474999       -12.9254
 181   2.0000      -0.472048       -12.8451
 182   2.0000      -0.466674       -12.6988
 183   2.0000      -0.465075       -12.6553
 184   2.0000      -0.460985       -12.5440
 185   2.0000      -0.459095       -12.4926
 186   2.0000      -0.457587       -12.4516
 187   2.0000      -0.456132       -12.4120
 188   2.0000      -0.454761       -12.3747
 189   2.0000      -0.453773       -12.3478
 190   2.0000      -0.449909       -12.2426
 191   2.0000      -0.449232       -12.2242
 192   2.0000      -0.448752       -12.2112
 193   2.0000      -0.444370       -12.0919
 194   2.0000      -0.441514       -12.0142
 195   2.0000      -0.438709       -11.9379
 196   2.0000      -0.437763       -11.9122
 197   2.0000      -0.432649       -11.7730
 198   2.0000      -0.432412       -11.7665
 199   2.0000      -0.431232       -11.7344
 200   2.0000      -0.429297       -11.6818
 201   2.0000      -0.426322       -11.6008
 202   2.0000      -0.425975       -11.5914
 203   2.0000      -0.421116       -11.4591
 204   2.0000      -0.403776       -10.9873
 205   2.0000      -0.399941       -10.8829
 206   2.0000      -0.394703       -10.7404
 207   2.0000      -0.390716       -10.6319
 208   2.0000      -0.378776       -10.3070
 209   2.0000      -0.377922       -10.2838
 210   2.0000      -0.369579       -10.0567
 211   2.0000      -0.366270        -9.9667
 212   2.0000      -0.361990        -9.8502
 213   2.0000      -0.345858        -9.4113
 214   2.0000      -0.337073        -9.1722
 215   2.0000      -0.336454        -9.1554
 216   2.0000      -0.335898        -9.1403
 217   2.0000      -0.334033        -9.0895
 218   2.0000      -0.328665        -8.9434
 219   2.0000      -0.322282        -8.7697
 220   2.0000      -0.317123        -8.6293
 221   2.0000      -0.314491        -8.5577
 222   2.0000      -0.309570        -8.4238
 223   2.0000      -0.308344        -8.3905
 224   2.0000      -0.307323        -8.3627
 225   2.0000      -0.305641        -8.3169
 226   2.0000      -0.298429        -8.1207
 227   2.0000      -0.294576        -8.0158
 228   2.0000      -0.292466        -7.9584
 229   2.0000      -0.285932        -7.7806
 230   2.0000      -0.267821        -7.2878
 231   2.0000      -0.261688        -7.1209
 232   2.0000      -0.251934        -6.8555
 233   2.0000      -0.244477        -6.6525
 234   2.0000      -0.220905        -6.0111
 235   0.0000      -0.096371        -2.6224
 236   0.0000      -0.089931        -2.4471
 237   0.0000      -0.069548        -1.8925
 238   0.0000      -0.029284        -0.7969
 239   0.0000      -0.028380        -0.7723

MULLIKEN ATOMIC CHARGES
-----------------------
   0 N :   -0.093734
   1 C :    0.070607
   2 C :   -0.191765
   3 S :    0.117249
   4 C :   -0.216002
   5 C :    0.104222
   6 N :   -0.022781
   7 C :    0.079027
   8 C :   -0.043605
   9 C :    0.045378
  10 N :   -0.057042
  11 C :    0.070203
  12 C :   -0.166748
  13 C :    0.207089
  14 O :   -0.158733
  15 C :   -0.019918
  16 C :   -0.048782
  17 N :   -0.065561
  18 C :    0.075797
  19 C :   -0.100160
  20 C :    0.039794
  21 C :   -0.058414
  22 C :    0.007926
  23 C :    0.117834
  24 C :   -0.104347
  25 C :    0.067131
  26 C :   -0.062262
  27 C :   -0.041598
  28 C :    0.153268
  29 N :   -0.222101
  30 C :    0.136755
  31 N :   -0.206410
  32 C :    0.107485
  33 C :   -0.128785
  34 C :    0.118985
  35 C :   -0.035142
  36 C :    0.019053
  37 C :    0.016317
  38 C :    0.039549
  39 C :    0.003042
  40 C :   -0.016719
  41 C :    0.025113
  42 C :   -0.044320
  43 C :    0.031010
  44 N :   -0.043028
  45 C :    0.071620
  46 C :   -0.189819
  47 C :    0.216502
  48 O :   -0.178103
  49 C :   -0.004007
  50 C :   -0.048574
  51 N :   -0.053773
  52 C :    0.077849
  53 C :   -0.105952
  54 C :    0.074230
  55 C :   -0.105399
  56 C :    0.072568
  57 N :   -0.053543
  58 C :    0.110321
  59 C :   -0.178335
  60 S :    0.110075
  61 C :   -0.227325
  62 C :    0.147030
  63 N :   -0.081241
  64 C :    0.054068
  65 C :   -0.072888
  66 H :    0.114033
  67 H :    0.117777
  68 H :    0.002633
  69 H :    0.018955
  70 H :    0.124043
  71 H :    0.032133
  72 H :   -0.005657
  73 H :   -0.004423
  74 H :   -0.017825
  75 H :   -0.024506
  76 H :    0.003139
  77 H :   -0.014950
  78 H :   -0.027219
  79 H :   -0.023121
  80 H :   -0.029905
  81 H :    0.097195
  82 H :    0.089558
  83 H :    0.013550
  84 H :   -0.012698
  85 H :    0.094568
  86 H :    0.084721
  87 H :    0.002765
  88 H :    0.015855
  89 H :   -0.004924
  90 H :   -0.029667
  91 H :   -0.039632
  92 H :   -0.035523
  93 H :    0.046231
  94 H :   -0.017447
  95 H :   -0.001229
  96 H :   -0.015572
  97 H :   -0.031916
  98 H :    0.020779
  99 H :    0.134466
 100 H :    0.021062
 101 H :    0.012567
 102 H :    0.108962
 103 H :    0.013298
 104 H :    0.005233
 105 H :    0.022513
Sum of atomic charges:   -0.0000000

LOEWDIN ATOMIC CHARGES
----------------------
   0 N :   -0.055891
   1 C :   -0.034438
   2 C :   -0.237094
   3 S :    0.436521
   4 C :   -0.229409
   5 C :   -0.037126
   6 N :    0.054367
   7 C :    0.081353
   8 C :   -0.105885
   9 C :    0.074122
  10 N :   -0.124349
  11 C :    0.051017
  12 C :   -0.052165
  13 C :    0.067338
  14 O :   -0.158455
  15 C :   -0.047537
  16 C :   -0.001935
  17 N :   -0.102737
  18 C :    0.050847
  19 C :   -0.049360
  20 C :   -0.026389
  21 C :   -0.060094
  22 C :    0.024859
  23 C :   -0.030457
  24 C :    0.004619
  25 C :   -0.020455
  26 C :   -0.033809
  27 C :   -0.052557
  28 C :    0.025799
  29 N :   -0.118178
  30 C :    0.023786
  31 N :   -0.104475
  32 C :   -0.013518
  33 C :    0.061663
  34 C :   -0.029368
  35 C :   -0.029154
  36 C :   -0.010368
  37 C :   -0.034433
  38 C :   -0.028649
  39 C :   -0.008464
  40 C :   -0.026741
  41 C :    0.083645
  42 C :   -0.073489
  43 C :    0.074658
  44 N :   -0.106069
  45 C :    0.056672
  46 C :   -0.093826
  47 C :    0.071290
  48 O :   -0.171538
  49 C :   -0.043567
  50 C :    0.002519
  51 N :   -0.098362
  52 C :    0.055466
  53 C :   -0.042451
  54 C :   -0.007317
  55 C :   -0.130576
  56 C :    0.077430
  57 N :    0.033950
  58 C :   -0.039182
  59 C :   -0.211385
  60 S :    0.432305
  61 C :   -0.243363
  62 C :   -0.020509
  63 N :    0.002873
  64 C :    0.031822
  65 C :   -0.127073
  66 H :    0.077657
  67 H :    0.067609
  68 H :    0.019918
  69 H :    0.020974
  70 H :    0.089252
  71 H :    0.036682
  72 H :    0.037258
  73 H :    0.017707
  74 H :    0.029019
  75 H :    0.018843
  76 H :    0.034537
  77 H :    0.033709
  78 H :    0.025935
  79 H :    0.008242
  80 H :   -0.005532
  81 H :    0.052551
  82 H :    0.053604
  83 H :    0.023792
  84 H :    0.012565
  85 H :    0.054924
  86 H :    0.047491
  87 H :    0.028480
  88 H :    0.046695
  89 H :    0.027396
  90 H :    0.032060
  91 H :    0.026919
  92 H :    0.021379
  93 H :    0.044286
  94 H :    0.027533
  95 H :    0.018997
  96 H :    0.029997
  97 H :    0.020175
  98 H :    0.031509
  99 H :    0.086836
 100 H :    0.024115
 101 H :    0.019543
 102 H :    0.076206
 103 H :    0.029512
 104 H :    0.017734
 105 H :    0.027165

  Mayer bond orders larger than 0.100000
B(  0-N ,  1-C ) :   1.1669 B(  0-N , 66-H ) :   0.9468 B(  0-N , 67-H ) :   0.9443
B(  1-C ,  2-C ) :   1.5339 B(  1-C ,  5-C ) :   1.2529 B(  2-C ,  3-S ) :   1.1390
B(  2-C , 68-H ) :   0.9798 B(  3-S ,  4-C ) :   1.1586 B(  4-C ,  5-C ) :   1.5195
B(  4-C , 69-H ) :   0.9777 B(  5-C ,  6-N ) :   1.1002 B(  6-N ,  7-C ) :   1.2485
B(  6-N , 70-H ) :   0.9107 B(  7-C ,  8-C ) :   1.5190 B(  7-C , 71-H ) :   0.9641
B(  8-C ,  9-C ) :   1.2287 B(  8-C , 72-H ) :   0.9479 B(  9-C , 10-N ) :   1.5236
B(  9-C , 11-C ) :   0.1065 B(  9-C , 20-C ) :   0.9975 B( 10-N , 11-C ) :   1.3877
B( 11-C , 12-C ) :   1.0485 B( 11-C , 16-C ) :   1.3797 B( 12-C , 13-C ) :   0.8973
B( 12-C , 20-C ) :   1.5795 B( 13-C , 14-O ) :   2.1804 B( 13-C , 15-C ) :   0.9405
B( 15-C , 16-C ) :   1.0890 B( 15-C , 19-C ) :   1.5607 B( 16-C , 17-N ) :   1.3345
B( 17-N , 18-C ) :   1.6340 B( 18-C , 19-C ) :   1.1061 B( 18-C , 73-H ) :   0.9899
B( 19-C , 74-H ) :   1.0118 B( 20-C , 21-C ) :   1.0925 B( 21-C , 22-C ) :   1.6497
B( 21-C , 75-H ) :   0.9506 B( 22-C , 23-C ) :   1.0812 B( 22-C , 76-H ) :   0.9743
B( 23-C , 24-C ) :   1.4951 B( 23-C , 40-C ) :   1.1152 B( 24-C , 25-C ) :   1.1162
B( 24-C , 77-H ) :   1.0100 B( 25-C , 26-C ) :   1.4705 B( 25-C , 38-C ) :   1.1203
B( 26-C , 27-C ) :   1.0253 B( 26-C , 32-C ) :   1.0858 B( 27-C , 28-C ) :   1.0230
B( 27-C , 30-C ) :   1.0027 B( 27-C , 78-H ) :   0.8776 B( 28-C , 29-N ) :   1.0916
B( 28-C , 79-H ) :   0.9303 B( 28-C , 80-H ) :   0.9327 B( 29-N , 81-H ) :   0.9710
B( 29-N , 82-H ) :   0.9666 B( 30-C , 31-N ) :   1.1265 B( 30-C , 83-H ) :   0.9539
B( 30-C , 84-H ) :   0.9359 B( 31-N , 85-H ) :   0.9781 B( 31-N , 86-H ) :   0.9810
B( 32-C , 33-C ) :   1.6482 B( 32-C , 37-C ) :   1.0385 B( 33-C , 34-C ) :   0.9796
B( 33-C , 87-H ) :   0.9683 B( 34-C , 35-C ) :   0.9878 B( 34-C , 41-C ) :   0.9281
B( 34-C , 88-H ) :   0.8922 B( 35-C , 36-C ) :   1.6910 B( 35-C , 89-H ) :   0.9710
B( 36-C , 37-C ) :   1.1464 B( 36-C , 90-H ) :   0.9895 B( 37-C , 38-C ) :   1.4332
B( 38-C , 39-C ) :   1.1381 B( 39-C , 40-C ) :   1.6244 B( 39-C , 91-H ) :   0.9891
B( 40-C , 92-H ) :   0.9792 B( 41-C , 42-C ) :   1.7522 B( 41-C , 93-H ) :   0.9527
B( 42-C , 43-C ) :   1.1083 B( 42-C , 94-H ) :   0.9648 B( 43-C , 44-N ) :   1.6227
B( 43-C , 45-C ) :   0.1085 B( 43-C , 54-C ) :   0.9967 B( 44-N , 45-C ) :   1.3344
B( 45-C , 46-C ) :   1.0595 B( 45-C , 50-C ) :   1.4243 B( 46-C , 47-C ) :   0.9260
B( 46-C , 54-C ) :   1.5054 B( 47-C , 48-O ) :   2.1265 B( 47-C , 49-C ) :   0.9434
B( 48-O , 98-H ) :   0.1338 B( 49-C , 50-C ) :   1.0840 B( 49-C , 53-C ) :   1.5892
B( 50-C , 51-N ) :   1.3114 B( 51-N , 52-C ) :   1.6601 B( 52-C , 53-C ) :   1.0791
B( 52-C , 95-H ) :   0.9895 B( 53-C , 96-H ) :   1.0107 B( 54-C , 55-C ) :   1.1844
B( 55-C , 56-C ) :   1.6092 B( 55-C , 97-H ) :   0.9506 B( 56-C , 57-N ) :   1.2162
B( 56-C , 98-H ) :   0.9212 B( 57-N , 58-C ) :   1.0554 B( 57-N , 99-H ) :   0.9193
B( 58-C , 59-C ) :   1.5356 B( 58-C , 62-C ) :   1.2541 B( 59-C , 60-S ) :   1.1670
B( 59-C ,100-H ) :   0.9728 B( 60-S , 61-C ) :   1.1278 B( 61-C , 62-C ) :   1.5175
B( 61-C ,101-H ) :   0.9771 B( 62-C , 63-N ) :   1.1372 B( 63-N , 64-C ) :   1.1138
B( 63-N ,102-H ) :   0.9182 B( 64-C , 65-C ) :   1.9186 B( 64-C ,103-H ) :   0.9650
B( 65-C ,104-H ) :   0.9609 B( 65-C ,105-H ) :   0.9537

-----------------------------------------------------------------------------
         ABSORPTION SPECTRUM VIA TRANSITION ELECTRIC DIPOLE MOMENTS
-----------------------------------------------------------------------------
State   Energy  Wavelength   fosc         T2         TX        TY        TZ
        (cm-1)    (nm)                  (au**2)     (au)      (au)      (au)
-----------------------------------------------------------------------------
   0   12702.9    787.2   0.148429195   3.84672  -1.41365  -0.36055   1.31085
   1   14648.2    682.7   0.050746051   1.14050   0.20235  -0.05270   1.04727
   2   14939.2    669.4   0.131619222   2.90046   1.02680   0.99246   0.92799
   3   15695.8    637.1   0.168874361   3.54206   0.40451   1.46297  -1.11272
   4   20254.4    493.7   0.661494405  10.75182   2.10166  -2.28365   1.05820
   5   21333.8    468.7   0.247142177   3.81376  -0.89866   1.37133  -1.06096
   6   22799.7    438.6   0.012725998   0.18375  -0.13798  -0.11356  -0.38964
   7   22931.6    436.1   0.008848872   0.12704  -0.27276   0.19943  -0.11345
   8   22974.8    435.3   0.009394337   0.13461   0.02645  -0.07711   0.35773
   9   24615.8    406.2   0.462946830   6.19145  -1.66121  -0.54536   1.77043
  10   25167.1    397.3   0.037164774   0.48615   0.51633   0.42882  -0.18887
  11   25371.4    394.1   0.060180966   0.78089   0.71775   0.51029  -0.07296
  12   25590.0    390.8   0.111555995   1.43515   0.11459  -0.75042   0.92676
  13   26035.2    384.1   0.080244863   1.01469   0.64409   0.10497  -0.76734
  14   26198.6    381.7   0.202372040   2.54301   0.79802   0.50500  -1.28497
  15   26529.0    376.9   0.001843191   0.02287  -0.06081  -0.04094   0.13228
  16   26683.3    374.8   0.004187907   0.05167   0.18743  -0.12765   0.01569
  17   26967.3    370.8   0.209071698   2.55231  -0.39189  -1.04456   1.14351
  18   27188.2    367.8   0.144170655   1.74571   0.22787  -1.23177   0.42015
  19   27597.7    362.3   0.740685265   8.83561  -1.61963  -0.90301  -2.32314
  20   28166.0    355.0   0.002864817   0.03348  -0.00013  -0.00396  -0.18295
  21   28373.6    352.4   0.017294971   0.20067  -0.02485   0.37807  -0.23899
  22   28556.7    350.2   0.004341060   0.05005   0.02582  -0.20387   0.08842
  23   28624.8    349.3   0.170703055   1.96325  -0.41227   0.78372  -1.08585
  24   28749.8    347.8   0.016007842   0.18330   0.07389  -0.04889   0.41887
  25   28938.2    345.6   0.031817076   0.36196   0.07780   0.37400  -0.46479
  26   29017.0    344.6   0.112322275   1.27435   0.59627  -0.43311   0.85512
  27   30403.9    328.9   0.047513986   0.51448  -0.49388   0.21032  -0.47574
  28   30630.4    326.5   0.038940360   0.41853   0.59987   0.11997  -0.21045
  29   30746.4    325.2   0.065808356   0.70463  -0.66418  -0.47695   0.18978
  30   30926.7    323.3   0.182804338   1.94594   1.08130   0.87940   0.05820
  31   31144.6    321.1   0.000655840   0.00693   0.06297  -0.02256  -0.04958
  32   31732.3    315.1   0.053451815   0.55455  -0.23553   0.45381  -0.54141
  33   32123.2    311.3   0.054591140   0.55947  -0.26351   0.33789  -0.61308
  34   32165.7    310.9   0.077360600   0.79178   0.21662   0.14978  -0.84995
  35   32326.1    309.3   0.000800428   0.00815   0.04004   0.02047   0.07829
  36   32848.1    304.4   0.318507718   3.19216  -0.21282   0.69701  -1.63127
  37   32908.9    303.9   0.077858803   0.77888   0.16185  -0.36317   0.78790
  38   33357.9    299.8   0.021773275   0.21488  -0.35455   0.16009   0.25208
  39   33660.4    297.1   0.000997581   0.00976   0.05869   0.00485  -0.07930
  40   34166.8    292.7   0.030046131   0.28951  -0.27734   0.36257  -0.28484
  41   34236.8    292.1   0.010758852   0.10345   0.26246  -0.16807  -0.07950
  42   35040.3    285.4   0.017182460   0.16143   0.30914  -0.11350  -0.23018
  43   35196.4    284.1   0.136344250   1.27530  -0.11114   0.56098   0.97378
  44   35280.9    283.4   0.129243804   1.20599   0.85177  -0.26088  -0.64220
  45   35844.8    279.0   0.008564126   0.07866  -0.06942   0.12677  -0.24035
  46   36128.5    276.8   0.023498986   0.21413  -0.20007  -0.18919   0.37190
  47   36481.9    274.1   0.186531915   1.68326   0.78037  -1.02492  -0.15436
  48   36600.8    273.2   0.223245654   2.00802  -0.73661   0.11114  -1.20544
  49   36838.3    271.5   0.025461294   0.22754  -0.21383   0.23950  -0.35278
  50   37266.3    268.3   0.048994148   0.43282  -0.55920   0.34657   0.00110
  51   37927.7    263.7   0.008677810   0.07532  -0.22811  -0.07071   0.13523
  52   38028.0    263.0   0.011357405   0.09832   0.21296   0.14270  -0.18057
  53   38498.5    259.8   0.040474926   0.34611  -0.15177  -0.48737   0.29249
  54   38689.1    258.5   0.084434987   0.71847   0.82385   0.19911  -0.01017
  55   38724.1    258.2   0.030887716   0.26259  -0.29270  -0.42005   0.02191
  56   39009.2    256.4   0.001174431   0.00991  -0.07751   0.06027   0.01647
  57   39498.8    253.2   0.047261470   0.39391   0.42420  -0.41681  -0.20059
  58   39585.1    252.6   0.005064995   0.04212   0.13377  -0.00502   0.15558
  59   39671.5    252.1   0.020662931   0.17147  -0.06480  -0.01553  -0.40869
  60   39693.1    251.9   0.044248956   0.36700   0.44947  -0.39194  -0.10658
  61   39865.9    250.8   0.125086198   1.03296  -0.55239  -0.34846   0.77872
  62   39958.2    250.3   0.020273113   0.16703  -0.39966  -0.03702   0.07699
  63   40277.7    248.3   0.030020839   0.24538   0.40083  -0.24412   0.15849

FINAL SINGLE POINT ENERGY     -3496.028577605727

DIPOLE MOMENT
-------------
                                X             Y             Z
Electronic contribution:      0.67045       6.64993      29.11499
Nuclear contribution   :     -3.80640      -5.00116     -32.09120
                        -----------------------------------------
Total Dipole Moment    :     -3.13595       1.64877      -2.97621
                        -----------------------------------------
Magnitude (a.u.)       :      4.62714
Magnitude (Debye)      :     11.76126

Rotational constants in cm-1:     0.001425     0.000307     0.000292
Rotational constants in MHz :    42.708333     9.195621     8.752001

                             ****ORCA TERMINATED NORMALLY****
TOTAL RUN TIME: 0 days 0 hours 19 minutes 21 seconds 292 msec
