                         Program Version 4.2.0 -  RELEASE  -
|  1> # ORCA input file
|  2> # SCF done       -171.893661853050          0.000223649835
|  3> ! CAM-B3LYP def2-SVP def2/J RIJCOSX Grid4 TightSCF
|  4> %maxcore 5000
|  5> %tddft
|  6>     Mode sTDDFT
|  7>     Ethresh 5.0
|  8>     maxcore 5000
|  9> end
| 10>
| 11> %pal
| 12>   nprocs 6
| 13>   end
| 14> * xyz 0 1
| 15>    C        4.08133        -7.14591         0.62256
| 16>    S        3.66409        -5.48686         0.76033
| 17>    C        2.01591        -5.80610         0.33756
| 18>    C        1.84243        -7.15905         0.11156
| 19>    C        3.02102        -7.91818         0.27124
| 20>    N        0.57596        -7.78488        -0.14370
| 21>    O       -0.39032        -7.34957         0.43679
| 22>    O        0.58991        -8.74796        -0.87549
| 23>    C        1.04506        -4.77804         0.10203
| 24>    N        0.17561        -4.93237        -0.87559
| 25>    C       -0.59728        -3.82073        -0.85618
| 26>    C       -0.18484        -2.90814         0.21342
| 27>    C       -1.03930        -1.71211         0.22332
| 28>    O       -1.00167        -0.75723         0.97028
| 29>    C       -1.95890        -1.96148        -0.90512
| 30>    C       -1.64940        -3.26181        -1.53805
| 31>    N       -2.48344        -3.49672        -2.58102
| 32>    C       -3.27195        -2.45309        -2.63049
| 33>    C       -2.99941        -1.45433        -1.61138
| 34>    C        0.88856        -3.50433         0.83668
| 35>    C        1.69071        -3.08494         1.93181
| 36>    C        1.47557        -1.93217         2.60846
| 37>    C        2.25475        -1.44939         3.71441
| 38>    C        1.74106        -0.42572         4.48989
| 39>    C        2.45929         0.04757         5.60006
| 40>    C        2.14809         1.02454         6.54413
| 41>    C        0.92056         1.86399         6.57218
| 42>    C        0.16581         1.76819         7.91394
| 43>    N       -1.25681         1.88247         7.66693
| 44>    C        1.26140         3.32752         6.22322
| 45>    N        1.68071         3.40075         4.83953
| 46>    C        3.26636         1.09507         7.45557
| 47>    C        3.48364         1.83598         8.55920
| 48>    C        4.75235         1.74379         9.33106
| 49>    C        5.74159         0.75154         8.79470
| 50>    C        5.50105         0.00218         7.70196
| 51>    C        4.27830         0.12441         7.00611
| 52>    C        3.76879        -0.51514         5.89193
| 53>    C        4.28523        -1.53998         5.06765
| 54>    C        3.54412        -1.99512         4.02540
| 55>    C        5.44547         3.08091         9.34954
| 56>    C        6.35299         3.44154        10.26771
| 57>    C        6.97852         4.72677        10.24561
| 58>    N        6.50030         5.71665         9.50521
| 59>    C        7.27585         6.78441         9.77142
| 60>    C        8.33325         6.45073        10.73846
| 61>    C        9.16753         7.63095        11.01546
| 62>    O       10.12740         7.72003        11.75342
| 63>    C        8.54608         8.67023        10.17849
| 64>    C        7.39909         8.11206         9.43354
| 65>    N        6.82436         9.06141         8.65801
| 66>    C        7.52701        10.14963         8.87229
| 67>    C        8.61621         9.97605         9.80836
| 68>    C        8.15917         5.12332        11.04503
| 69>    C        8.93293         4.24860        11.86180
| 70>    C       10.02849         4.65244        12.54166
| 71>    C       10.86295         3.78664        13.31036
| 72>    S       12.23020         4.46152        14.17193
| 73>    C       12.69533         2.93494        14.75122
| 74>    C       11.84685         1.94835        14.30812
| 75>    C       10.80328         2.42801        13.49006
| 76>    N       12.00952         0.57348        14.63540
| 77>    O       12.94638         0.27071        15.34563
| 78>    O       11.19928        -0.20818        14.17957
| 79>    H        5.08988        -7.45283         0.81471
| 80>    H        3.05127        -8.98380         0.13588
| 81>    H       -4.04002        -2.38714        -3.38142
| 82>    H       -3.53113        -0.53198        -1.48508
| 83>    H        2.48990        -3.75164         2.22422
| 84>    H        0.63243        -1.31658         2.32217
| 85>    H        0.77766        -0.00331         4.24747
| 86>    H        0.23728         1.50221         5.79993
| 87>    H        0.55093         2.53019         8.61295
| 88>    H        0.34242         0.78405         8.35774
| 89>    H       -1.48589         2.79252         7.28357
| 90>    H       -1.78882         1.75294         8.51907
| 91>    H        2.01673         3.70329         6.93544
| 92>    H        0.36221         3.94124         6.32617
| 93>    H        2.53725         2.87682         4.69609
| 94>    H        1.83827         4.35962         4.55414
| 95>    H        2.75937         2.54793         8.92708
| 96>    H        4.50822         1.47019        10.36884
| 97>    H        6.67417         0.67711         9.33142
| 98>    H        6.23724        -0.70551         7.34970
| 99>    H        5.26175        -1.95141         5.27661
|100>    H        3.94193        -2.77132         3.39036
|101>    H        5.23110         3.76256         8.53983
|102>    H        6.62636         2.76798        11.06870
|103>    H        7.27267        11.06667         8.36964
|104>    H        9.30377        10.73921        10.11507
|105>    H        8.62598         3.21300        11.90067
|106>    H       10.32231         5.69342        12.50689
|107>    H       13.55342         2.80529        15.38088
|108>    H       10.06398         1.77682        13.06328
|109> *
|110>
|111>                          ****END OF INPUT****

CARTESIAN COORDINATES (ANGSTROEM)
---------------------------------
  C      4.081330   -7.145910    0.622560
  S      3.664090   -5.486860    0.760330
  C      2.015910   -5.806100    0.337560
  C      1.842430   -7.159050    0.111560
  C      3.021020   -7.918180    0.271240
  N      0.575960   -7.784880   -0.143700
  O     -0.390320   -7.349570    0.436790
  O      0.589910   -8.747960   -0.875490
  C      1.045060   -4.778040    0.102030
  N      0.175610   -4.932370   -0.875590
  C     -0.597280   -3.820730   -0.856180
  C     -0.184840   -2.908140    0.213420
  C     -1.039300   -1.712110    0.223320
  O     -1.001670   -0.757230    0.970280
  C     -1.958900   -1.961480   -0.905120
  C     -1.649400   -3.261810   -1.538050
  N     -2.483440   -3.496720   -2.581020
  C     -3.271950   -2.453090   -2.630490
  C     -2.999410   -1.454330   -1.611380
  C      0.888560   -3.504330    0.836680
  C      1.690710   -3.084940    1.931810
  C      1.475570   -1.932170    2.608460
  C      2.254750   -1.449390    3.714410
  C      1.741060   -0.425720    4.489890
  C      2.459290    0.047570    5.600060
  C      2.148090    1.024540    6.544130
  C      0.920560    1.863990    6.572180
  C      0.165810    1.768190    7.913940
  N     -1.256810    1.882470    7.666930
  C      1.261400    3.327520    6.223220
  N      1.680710    3.400750    4.839530
  C      3.266360    1.095070    7.455570
  C      3.483640    1.835980    8.559200
  C      4.752350    1.743790    9.331060
  C      5.741590    0.751540    8.794700
  C      5.501050    0.002180    7.701960
  C      4.278300    0.124410    7.006110
  C      3.768790   -0.515140    5.891930
  C      4.285230   -1.539980    5.067650
  C      3.544120   -1.995120    4.025400
  C      5.445470    3.080910    9.349540
  C      6.352990    3.441540   10.267710
  C      6.978520    4.726770   10.245610
  N      6.500300    5.716650    9.505210
  C      7.275850    6.784410    9.771420
  C      8.333250    6.450730   10.738460
  C      9.167530    7.630950   11.015460
  O     10.127400    7.720030   11.753420
  C      8.546080    8.670230   10.178490
  C      7.399090    8.112060    9.433540
  N      6.824360    9.061410    8.658010
  C      7.527010   10.149630    8.872290
  C      8.616210    9.976050    9.808360
  C      8.159170    5.123320   11.045030
  C      8.932930    4.248600   11.861800
  C     10.028490    4.652440   12.541660
  C     10.862950    3.786640   13.310360
  S     12.230200    4.461520   14.171930
  C     12.695330    2.934940   14.751220
  C     11.846850    1.948350   14.308120
  C     10.803280    2.428010   13.490060
  N     12.009520    0.573480   14.635400
  O     12.946380    0.270710   15.345630
  O     11.199280   -0.208180   14.179570
  H      5.089880   -7.452830    0.814710
  H      3.051270   -8.983800    0.135880
  H     -4.040020   -2.387140   -3.381420
  H     -3.531130   -0.531980   -1.485080
  H      2.489900   -3.751640    2.224220
  H      0.632430   -1.316580    2.322170
  H      0.777660   -0.003310    4.247470
  H      0.237280    1.502210    5.799930
  H      0.550930    2.530190    8.612950
  H      0.342420    0.784050    8.357740
  H     -1.485890    2.792520    7.283570
  H     -1.788820    1.752940    8.519070
  H      2.016730    3.703290    6.935440
  H      0.362210    3.941240    6.326170
  H      2.537250    2.876820    4.696090
  H      1.838270    4.359620    4.554140
  H      2.759370    2.547930    8.927080
  H      4.508220    1.470190   10.368840
  H      6.674170    0.677110    9.331420
  H      6.237240   -0.705510    7.349700
  H      5.261750   -1.951410    5.276610
  H      3.941930   -2.771320    3.390360
  H      5.231100    3.762560    8.539830
  H      6.626360    2.767980   11.068700
  H      7.272670   11.066670    8.369640
  H      9.303770   10.739210   10.115070
  H      8.625980    3.213000   11.900670
  H     10.322310    5.693420   12.506890
  H     13.553420    2.805290   15.380880
  H     10.063980    1.776820   13.063280

 Total Charge           Charge          ....    0
 Multiplicity           Mult            ....    1
 Number of Electrons    NEL             ....  454
 Basis Dimension        Dim             .... 1054

ORBITAL ENERGIES
----------------

  NO   OCC          E(Eh)            E(eV)
   0   2.0000     -88.992737     -2421.6155
   1   2.0000     -88.986641     -2421.4496
   2   2.0000     -19.243595      -523.6449
   3   2.0000     -19.242433      -523.6132
   4   2.0000     -19.238384      -523.5031
   5   2.0000     -19.237572      -523.4810
   6   2.0000     -19.217263      -522.9283
   7   2.0000     -19.206279      -522.6294
   8   2.0000     -14.651376      -398.6842
   9   2.0000     -14.645999      -398.5379
  10   2.0000     -14.412865      -392.1940
  11   2.0000     -14.410532      -392.1305
  12   2.0000     -14.407740      -392.0545
  13   2.0000     -14.401123      -391.8745
  14   2.0000     -14.377775      -391.2392
  15   2.0000     -14.373928      -391.1345
  16   2.0000     -10.376812      -282.3674
  17   2.0000     -10.365913      -282.0708
  18   2.0000     -10.349115      -281.6137
  19   2.0000     -10.348310      -281.5918
  20   2.0000     -10.339895      -281.3628
  21   2.0000     -10.336834      -281.2796
  22   2.0000     -10.335734      -281.2496
  23   2.0000     -10.335005      -281.2298
  24   2.0000     -10.329289      -281.0742
  25   2.0000     -10.327494      -281.0254
  26   2.0000     -10.326251      -280.9916
  27   2.0000     -10.325168      -280.9621
  28   2.0000     -10.325029      -280.9583
  29   2.0000     -10.324833      -280.9530
  30   2.0000     -10.321063      -280.8504
  31   2.0000     -10.319422      -280.8057
  32   2.0000     -10.316365      -280.7226
  33   2.0000     -10.311337      -280.5857
  34   2.0000     -10.310006      -280.5495
  35   2.0000     -10.309551      -280.5371
  36   2.0000     -10.304787      -280.4075
  37   2.0000     -10.302761      -280.3524
  38   2.0000     -10.301914      -280.3293
  39   2.0000     -10.300812      -280.2993
  40   2.0000     -10.298284      -280.2306
  41   2.0000     -10.297178      -280.2005
  42   2.0000     -10.294060      -280.1156
  43   2.0000     -10.292305      -280.0679
  44   2.0000     -10.291171      -280.0370
  45   2.0000     -10.286432      -279.9080
  46   2.0000     -10.284614      -279.8586
  47   2.0000     -10.284461      -279.8544
  48   2.0000     -10.283982      -279.8414
  49   2.0000     -10.283536      -279.8292
  50   2.0000     -10.282064      -279.7892
  51   2.0000     -10.281398      -279.7711
  52   2.0000     -10.280150      -279.7371
  53   2.0000     -10.278627      -279.6957
  54   2.0000     -10.277718      -279.6709
  55   2.0000     -10.276793      -279.6458
  56   2.0000     -10.273862      -279.5660
  57   2.0000     -10.273255      -279.5495
  58   2.0000     -10.272029      -279.5161
  59   2.0000     -10.269388      -279.4443
  60   2.0000     -10.269293      -279.4417
  61   2.0000     -10.268905      -279.4311
  62   2.0000     -10.268755      -279.4270
  63   2.0000     -10.261975      -279.2425
  64   2.0000      -8.087830      -220.0810
  65   2.0000      -8.082380      -219.9327
  66   2.0000      -6.057106      -164.8222
  67   2.0000      -6.052620      -164.7002
  68   2.0000      -6.051435      -164.6679
  69   2.0000      -6.050368      -164.6389
  70   2.0000      -6.047139      -164.5510
  71   2.0000      -6.045054      -164.4943
  72   2.0000      -1.323936       -36.0261
  73   2.0000      -1.320799       -35.9408
  74   2.0000      -1.142570       -31.0909
  75   2.0000      -1.140534       -31.0355
  76   2.0000      -1.131129       -30.7796
  77   2.0000      -1.120413       -30.4880
  78   2.0000      -1.082006       -29.4429
  79   2.0000      -1.077486       -29.3199
  80   2.0000      -1.061851       -28.8944
  81   2.0000      -1.056940       -28.7608
  82   2.0000      -1.017430       -27.6857
  83   2.0000      -1.016711       -27.6661
  84   2.0000      -0.990916       -26.9642
  85   2.0000      -0.967146       -26.3174
  86   2.0000      -0.957009       -26.0415
  87   2.0000      -0.950725       -25.8705
  88   2.0000      -0.941426       -25.6175
  89   2.0000      -0.932653       -25.3788
  90   2.0000      -0.931692       -25.3526
  91   2.0000      -0.925866       -25.1941
  92   2.0000      -0.907544       -24.6955
  93   2.0000      -0.905246       -24.6330
  94   2.0000      -0.901662       -24.5355
  95   2.0000      -0.890054       -24.2196
  96   2.0000      -0.876231       -23.8435
  97   2.0000      -0.870814       -23.6961
  98   2.0000      -0.868302       -23.6277
  99   2.0000      -0.859249       -23.3813
 100   2.0000      -0.849623       -23.1194
 101   2.0000      -0.845586       -23.0096
 102   2.0000      -0.837144       -22.7798
 103   2.0000      -0.831316       -22.6213
 104   2.0000      -0.825336       -22.4585
 105   2.0000      -0.807210       -21.9653
 106   2.0000      -0.792762       -21.5722
 107   2.0000      -0.785700       -21.3800
 108   2.0000      -0.771376       -20.9902
 109   2.0000      -0.762427       -20.7467
 110   2.0000      -0.760371       -20.6907
 111   2.0000      -0.754921       -20.5424
 112   2.0000      -0.750729       -20.4284
 113   2.0000      -0.733786       -19.9673
 114   2.0000      -0.722443       -19.6587
 115   2.0000      -0.717797       -19.5322
 116   2.0000      -0.713244       -19.4084
 117   2.0000      -0.709807       -19.3148
 118   2.0000      -0.698263       -19.0007
 119   2.0000      -0.689382       -18.7590
 120   2.0000      -0.683090       -18.5878
 121   2.0000      -0.671014       -18.2592
 122   2.0000      -0.662420       -18.0254
 123   2.0000      -0.659037       -17.9333
 124   2.0000      -0.654705       -17.8154
 125   2.0000      -0.652444       -17.7539
 126   2.0000      -0.645148       -17.5554
 127   2.0000      -0.640869       -17.4389
 128   2.0000      -0.636320       -17.3151
 129   2.0000      -0.634886       -17.2761
 130   2.0000      -0.634156       -17.2563
 131   2.0000      -0.633169       -17.2294
 132   2.0000      -0.624130       -16.9834
 133   2.0000      -0.620653       -16.8888
 134   2.0000      -0.619443       -16.8559
 135   2.0000      -0.608654       -16.5623
 136   2.0000      -0.608185       -16.5495
 137   2.0000      -0.604043       -16.4368
 138   2.0000      -0.599219       -16.3056
 139   2.0000      -0.591672       -16.1002
 140   2.0000      -0.587434       -15.9849
 141   2.0000      -0.582950       -15.8629
 142   2.0000      -0.581294       -15.8178
 143   2.0000      -0.579731       -15.7753
 144   2.0000      -0.572455       -15.5773
 145   2.0000      -0.565682       -15.3930
 146   2.0000      -0.562598       -15.3091
 147   2.0000      -0.560361       -15.2482
 148   2.0000      -0.557971       -15.1832
 149   2.0000      -0.553512       -15.0618
 150   2.0000      -0.550335       -14.9754
 151   2.0000      -0.549492       -14.9524
 152   2.0000      -0.547130       -14.8882
 153   2.0000      -0.544437       -14.8149
 154   2.0000      -0.542769       -14.7695
 155   2.0000      -0.532626       -14.4935
 156   2.0000      -0.531407       -14.4603
 157   2.0000      -0.529379       -14.4051
 158   2.0000      -0.525261       -14.2931
 159   2.0000      -0.517432       -14.0800
 160   2.0000      -0.516106       -14.0440
 161   2.0000      -0.514359       -13.9964
 162   2.0000      -0.511741       -13.9252
 163   2.0000      -0.510667       -13.8960
 164   2.0000      -0.507674       -13.8145
 165   2.0000      -0.507186       -13.8012
 166   2.0000      -0.505936       -13.7672
 167   2.0000      -0.502718       -13.6796
 168   2.0000      -0.500962       -13.6319
 169   2.0000      -0.498857       -13.5746
 170   2.0000      -0.498197       -13.5566
 171   2.0000      -0.495797       -13.4913
 172   2.0000      -0.490560       -13.3488
 173   2.0000      -0.487745       -13.2722
 174   2.0000      -0.484471       -13.1831
 175   2.0000      -0.482635       -13.1332
 176   2.0000      -0.479108       -13.0372
 177   2.0000      -0.477533       -12.9943
 178   2.0000      -0.473451       -12.8833
 179   2.0000      -0.471833       -12.8392
 180   2.0000      -0.468295       -12.7430
 181   2.0000      -0.467107       -12.7106
 182   2.0000      -0.463799       -12.6206
 183   2.0000      -0.460887       -12.5414
 184   2.0000      -0.458915       -12.4877
 185   2.0000      -0.457078       -12.4377
 186   2.0000      -0.453129       -12.3303
 187   2.0000      -0.447730       -12.1834
 188   2.0000      -0.445400       -12.1200
 189   2.0000      -0.438971       -11.9450
 190   2.0000      -0.434760       -11.8304
 191   2.0000      -0.429323       -11.6825
 192   2.0000      -0.420531       -11.4432
 193   2.0000      -0.417835       -11.3699
 194   2.0000      -0.410952       -11.1826
 195   2.0000      -0.397090       -10.8054
 196   2.0000      -0.394503       -10.7350
 197   2.0000      -0.389929       -10.6105
 198   2.0000      -0.387914       -10.5557
 199   2.0000      -0.387773       -10.5518
 200   2.0000      -0.382282       -10.4024
 201   2.0000      -0.381406       -10.3786
 202   2.0000      -0.378300       -10.2941
 203   2.0000      -0.377179       -10.2636
 204   2.0000      -0.372085       -10.1249
 205   2.0000      -0.370401       -10.0791
 206   2.0000      -0.364752        -9.9254
 207   2.0000      -0.359009        -9.7691
 208   2.0000      -0.356706        -9.7065
 209   2.0000      -0.356476        -9.7002
 210   2.0000      -0.356128        -9.6907
 211   2.0000      -0.352085        -9.5807
 212   2.0000      -0.349028        -9.4975
 213   2.0000      -0.342437        -9.3182
 214   2.0000      -0.339891        -9.2489
 215   2.0000      -0.336509        -9.1569
 216   2.0000      -0.334975        -9.1151
 217   2.0000      -0.331633        -9.0242
 218   2.0000      -0.326600        -8.8872
 219   2.0000      -0.324454        -8.8288
 220   2.0000      -0.311037        -8.4637
 221   2.0000      -0.306906        -8.3513
 222   2.0000      -0.303545        -8.2599
 223   2.0000      -0.295972        -8.0538
 224   2.0000      -0.280261        -7.6263
 225   2.0000      -0.273281        -7.4364
 226   2.0000      -0.226146        -6.1538
 227   0.0000      -0.117575        -3.1994
 228   0.0000      -0.111627        -3.0375
 229   0.0000      -0.077519        -2.1094
 230   0.0000      -0.062366        -1.6971
 231   0.0000      -0.047413        -1.2902

MULLIKEN ATOMIC CHARGES
-----------------------
   0 C :   -0.046963
   1 S :    0.179681
   2 C :   -0.204392
   3 C :    0.207551
   4 C :    0.020918
   5 N :    0.256976
   6 O :   -0.216898
   7 O :   -0.234406
   8 C :    0.020248
   9 N :   -0.032626
  10 C :    0.071045
  11 C :   -0.172878
  12 C :    0.219552
  13 O :   -0.140771
  14 C :   -0.011409
  15 C :   -0.026200
  16 N :   -0.046449
  17 C :    0.088280
  18 C :   -0.097940
  19 C :    0.068851
  20 C :   -0.042226
  21 C :    0.008683
  22 C :    0.105836
  23 C :   -0.083581
  24 C :    0.059127
  25 C :   -0.074441
  26 C :   -0.022297
  27 C :    0.130597
  28 N :   -0.210232
  29 C :    0.154406
  30 N :   -0.223909
  31 C :    0.104134
  32 C :   -0.141484
  33 C :    0.142841
  34 C :   -0.034972
  35 C :    0.022094
  36 C :    0.008086
  37 C :    0.038620
  38 C :   -0.000300
  39 C :   -0.006432
  40 C :   -0.010737
  41 C :   -0.026176
  42 C :    0.038732
  43 N :   -0.049633
  44 C :    0.074607
  45 C :   -0.170286
  46 C :    0.221887
  47 O :   -0.148690
  48 C :   -0.010609
  49 C :   -0.035443
  50 N :   -0.056550
  51 C :    0.091447
  52 C :   -0.098459
  53 C :    0.058841
  54 C :   -0.042811
  55 C :    0.091516
  56 C :   -0.111168
  57 S :    0.186570
  58 C :   -0.103848
  59 C :    0.149887
  60 C :    0.002598
  61 N :    0.265173
  62 O :   -0.244694
  63 O :   -0.243436
  64 H :    0.047998
  65 H :    0.014926
  66 H :    0.011223
  67 H :   -0.005834
  68 H :   -0.029524
  69 H :    0.006365
  70 H :   -0.009733
  71 H :   -0.005544
  72 H :   -0.021621
  73 H :    0.001604
  74 H :    0.088599
  75 H :    0.090976
  76 H :   -0.025860
  77 H :   -0.015970
  78 H :    0.098662
  79 H :    0.093348
  80 H :   -0.001374
  81 H :    0.043789
  82 H :   -0.013162
  83 H :   -0.031386
  84 H :   -0.039566
  85 H :   -0.033468
  86 H :    0.043309
  87 H :   -0.002647
  88 H :    0.008451
  89 H :   -0.005474
  90 H :   -0.027988
  91 H :    0.002682
  92 H :    0.046248
  93 H :    0.005536
Sum of atomic charges:   -0.0000000

LOEWDIN ATOMIC CHARGES
----------------------
   0 C :   -0.163649
   1 S :    0.499369
   2 C :   -0.176804
   3 C :   -0.031000
   4 C :   -0.040107
   5 N :    0.285302
   6 O :   -0.183938
   7 O :   -0.196061
   8 C :    0.046229
   9 N :   -0.086059
  10 C :    0.049956
  11 C :   -0.061590
  12 C :    0.070019
  13 O :   -0.141025
  14 C :   -0.037409
  15 C :    0.028381
  16 N :   -0.092504
  17 C :    0.075267
  18 C :   -0.032713
  19 C :   -0.017836
  20 C :   -0.065457
  21 C :    0.037038
  22 C :   -0.033232
  23 C :    0.014932
  24 C :   -0.021769
  25 C :   -0.025487
  26 C :   -0.039172
  27 C :    0.026430
  28 N :   -0.113298
  29 C :    0.027451
  30 N :   -0.115463
  31 C :   -0.012992
  32 C :    0.056858
  33 C :   -0.033247
  34 C :   -0.034466
  35 C :   -0.010738
  36 C :   -0.039874
  37 C :   -0.025407
  38 C :   -0.011387
  39 C :   -0.019961
  40 C :    0.084991
  41 C :   -0.064492
  42 C :    0.077149
  43 N :   -0.107757
  44 C :    0.049710
  45 C :   -0.048784
  46 C :    0.069652
  47 O :   -0.147158
  48 C :   -0.040846
  49 C :    0.017807
  50 N :   -0.096915
  51 C :    0.071819
  52 C :   -0.036121
  53 C :   -0.026808
  54 C :   -0.032792
  55 C :   -0.001971
  56 C :   -0.168105
  57 S :    0.499022
  58 C :   -0.153116
  59 C :   -0.076625
  60 C :   -0.036263
  61 N :    0.285690
  62 O :   -0.207749
  63 O :   -0.209252
  64 H :    0.033279
  65 H :    0.045871
  66 H :    0.023855
  67 H :    0.034142
  68 H :    0.008190
  69 H :    0.035214
  70 H :    0.036541
  71 H :    0.033972
  72 H :   -0.005843
  73 H :    0.020079
  74 H :    0.050075
  75 H :    0.054672
  76 H :   -0.005729
  77 H :    0.012145
  78 H :    0.052946
  79 H :    0.055589
  80 H :    0.027894
  81 H :    0.060199
  82 H :    0.022939
  83 H :    0.032442
  84 H :    0.026493
  85 H :    0.023678
  86 H :    0.041759
  87 H :    0.029511
  88 H :    0.023387
  89 H :    0.034319
  90 H :    0.025329
  91 H :    0.033265
  92 H :    0.039621
  93 H :    0.038489

  Mayer bond orders larger than 0.100000
B(  0-C ,  1-S ) :   1.1705 B(  0-C ,  2-C ) :   0.1035 B(  0-C ,  4-C ) :   1.5345
B(  0-C , 64-H ) :   0.9684 B(  1-S ,  2-C ) :   1.1891 B(  2-C ,  3-C ) :   1.5084
B(  2-C ,  8-C ) :   1.0370 B(  3-C ,  4-C ) :   1.2832 B(  3-C ,  5-N ) :   0.8908
B(  4-C , 65-H ) :   0.9999 B(  5-N ,  6-O ) :   1.5598 B(  5-N ,  7-O ) :   1.5367
B(  6-O ,  7-O ) :   0.2824 B(  8-C ,  9-N ) :   1.6618 B(  8-C , 10-C ) :   0.1233
B(  8-C , 19-C ) :   1.0306 B(  9-N , 10-C ) :   1.3136 B( 10-C , 11-C ) :   1.0666
B( 10-C , 15-C ) :   1.4439 B( 11-C , 12-C ) :   0.9009 B( 11-C , 19-C ) :   1.5285
B( 12-C , 13-O ) :   2.1843 B( 12-C , 14-C ) :   0.9266 B( 13-O , 69-H ) :   0.1049
B( 14-C , 15-C ) :   1.0624 B( 14-C , 18-C ) :   1.6185 B( 15-C , 16-N ) :   1.3018
B( 16-N , 17-C ) :   1.6700 B( 17-C , 18-C ) :   1.0567 B( 17-C , 66-H ) :   0.9889
B( 18-C , 67-H ) :   1.0109 B( 19-C , 20-C ) :   1.1308 B( 20-C , 21-C ) :   1.6357
B( 20-C , 68-H ) :   0.9458 B( 21-C , 22-C ) :   1.0809 B( 21-C , 69-H ) :   0.9699
B( 22-C , 23-C ) :   1.4858 B( 22-C , 39-C ) :   1.1163 B( 23-C , 24-C ) :   1.1295
B( 23-C , 70-H ) :   1.0084 B( 24-C , 25-C ) :   1.4850 B( 24-C , 37-C ) :   1.1089
B( 25-C , 26-C ) :   1.0547 B( 25-C , 31-C ) :   1.0724 B( 26-C , 27-C ) :   1.0248
B( 26-C , 29-C ) :   1.0295 B( 26-C , 71-H ) :   0.8728 B( 27-C , 28-N ) :   1.1069
B( 27-C , 72-H ) :   0.9235 B( 27-C , 73-H ) :   0.9469 B( 28-N , 74-H ) :   0.9702
B( 28-N , 75-H ) :   0.9676 B( 29-C , 30-N ) :   1.0957 B( 29-C , 76-H ) :   0.9302
B( 29-C , 77-H ) :   0.9340 B( 30-N , 78-H ) :   0.9701 B( 30-N , 79-H ) :   0.9666
B( 31-C , 32-C ) :   1.6729 B( 31-C , 36-C ) :   1.0466 B( 32-C , 33-C ) :   0.9603
B( 32-C , 80-H ) :   0.9706 B( 33-C , 34-C ) :   0.9815 B( 33-C , 40-C ) :   0.9346
B( 33-C , 81-H ) :   0.8687 B( 34-C , 35-C ) :   1.7232 B( 34-C , 82-H ) :   0.9660
B( 35-C , 36-C ) :   1.1357 B( 35-C , 83-H ) :   0.9897 B( 36-C , 37-C ) :   1.4466
B( 37-C , 38-C ) :   1.1365 B( 38-C , 39-C ) :   1.6237 B( 38-C , 84-H ) :   0.9895
B( 39-C , 85-H ) :   0.9809 B( 40-C , 41-C ) :   1.7565 B( 40-C , 86-H ) :   0.9764
B( 41-C , 42-C ) :   1.1163 B( 41-C , 87-H ) :   0.9558 B( 42-C , 43-N ) :   1.6025
B( 42-C , 44-C ) :   0.1078 B( 42-C , 53-C ) :   1.0019 B( 43-N , 44-C ) :   1.3521
B( 44-C , 45-C ) :   1.0518 B( 44-C , 49-C ) :   1.4113 B( 45-C , 46-C ) :   0.9015
B( 45-C , 53-C ) :   1.5483 B( 46-C , 47-O ) :   2.1715 B( 46-C , 48-C ) :   0.9351
B( 47-O , 91-H ) :   0.1103 B( 48-C , 49-C ) :   1.0728 B( 48-C , 52-C ) :   1.5949
B( 49-C , 50-N ) :   1.3183 B( 50-N , 51-C ) :   1.6494 B( 51-C , 52-C ) :   1.0767
B( 51-C , 88-H ) :   0.9894 B( 52-C , 89-H ) :   1.0112 B( 53-C , 54-C ) :   1.1272
B( 54-C , 55-C ) :   1.7020 B( 54-C , 90-H ) :   0.9632 B( 55-C , 56-C ) :   1.0895
B( 55-C , 91-H ) :   0.9414 B( 56-C , 57-S ) :   1.1427 B( 56-C , 60-C ) :   1.4830
B( 57-S , 58-C ) :   1.2116 B( 58-C , 59-C ) :   1.5178 B( 58-C , 92-H ) :   0.9584
B( 59-C , 60-C ) :   1.2636 B( 59-C , 61-N ) :   0.9120 B( 60-C , 93-H ) :   0.9949
B( 61-N , 62-O ) :   1.5506 B( 61-N , 63-O ) :   1.5478 B( 62-O , 63-O ) :   0.2721

-----------------------------------------------------------------------------
         ABSORPTION SPECTRUM VIA TRANSITION ELECTRIC DIPOLE MOMENTS
-----------------------------------------------------------------------------
State   Energy  Wavelength   fosc         T2         TX        TY        TZ
        (cm-1)    (nm)                  (au**2)     (au)      (au)      (au)
-----------------------------------------------------------------------------
   0   10935.0    914.5   0.176645016   5.31811   1.00679   1.52338   1.40848
   1   11839.4    844.6   0.026135867   0.72675  -0.17401   0.02370  -0.83421
   2   14162.4    706.1   0.092115207   2.14126  -1.32817   0.10949  -0.60434
   3   17583.1    568.7   0.108795938   2.03700   0.50430  -1.14127   0.69295
   4   18561.5    538.7   0.008001500   0.14192  -0.22479   0.07888  -0.29183
   5   21462.0    465.9   0.008163920   0.12523   0.18109  -0.26783   0.14388
   6   22229.9    449.8   0.011438037   0.16939  -0.03901  -0.39905  -0.09288
   7   23649.7    422.8   0.326654357   4.54714  -0.77889  -1.44132  -1.36494
   8   23903.3    418.4   0.082709976   1.13913   0.39037   0.67615   0.72771
   9   24588.1    406.7   0.198985648   2.66424  -0.98029  -1.18430  -0.54837
  10   24667.2    405.4   0.292395688   3.90236   0.32435   1.84491   0.62726
  11   25141.5    397.7   0.317344568   4.15543  -1.47992   0.49558  -1.31136
  12   25334.2    394.7   0.405875770   5.27426  -0.78218  -1.13138  -1.83914
  13   25645.7    389.9   0.004380991   0.05624  -0.12031   0.20425  -0.00683
  14   25836.6    387.0   0.036124882   0.46031  -0.04824  -0.54385   0.40274
  15   26069.5    383.6   0.352341680   4.44946   1.57418  -1.16976   0.77659
  16   26323.8    379.9   0.132858699   1.66156  -0.54224  -1.11467  -0.35361
  17   26674.5    374.9   0.127134278   1.56907   0.12644  -1.07058   0.63792
  18   26874.2    372.1   0.259631995   3.18052  -0.87735   0.63063  -1.41883
  19   27377.0    365.3   0.033454171   0.40229   0.24285  -0.38021   0.44582
  20   28027.3    356.8   0.010421332   0.12241   0.25159   0.22700  -0.08710
  21   28344.3    352.8   0.054461881   0.63256   0.29550   0.19756   0.71148
  22   28669.8    348.8   0.638484658   7.33164   1.39886  -1.83252   1.42010
  23   28781.3    347.4   0.006640139   0.07595   0.23796   0.04438  -0.13176
  24   29332.6    340.9   0.001983475   0.02226  -0.09303   0.00599   0.11650
  25   29978.2    333.6   0.012278661   0.13484   0.23259  -0.01085   0.28394
  26   30017.9    333.1   0.024472193   0.26839  -0.31900  -0.20565  -0.35262
  27   30242.7    330.7   0.000203191   0.00221   0.00890   0.00269   0.04610
  28   30482.2    328.1   0.057683242   0.62299   0.55493   0.32804   0.45544
  29   30799.7    324.7   0.000755466   0.00808   0.06883   0.01670   0.05531
  30   30937.1    323.2   0.165841480   1.76477   0.74325   0.21039   1.08078
  31   31327.7    319.2   0.002132264   0.02241   0.07323   0.09647   0.08796
  32   31582.1    316.6   0.033360863   0.34775   0.50044  -0.29793   0.09247
  33   32456.7    308.1   0.002427532   0.02462   0.08410   0.00802  -0.13224
  34   32521.7    307.5   0.015900881   0.16096  -0.26857  -0.21870  -0.20249
  35   33131.7    301.8   0.023949253   0.23797   0.36808  -0.01720   0.31967
  36   33286.0    300.4   0.015404206   0.15235  -0.08322   0.37476  -0.07057
  37   33573.0    297.9   0.077557597   0.76052  -0.80028   0.21978  -0.26790
  38   33744.4    296.3   0.039484099   0.38521   0.39781  -0.39581   0.26512
  39   34092.3    293.3   0.000028116   0.00027  -0.00457  -0.00181   0.01573
  40   34200.6    292.4   0.013568029   0.13060   0.04924  -0.31305  -0.17372
  41   34657.5    288.5   0.151061246   1.43493   0.20672   0.80941   0.85852
  42   34871.3    286.8   0.035941614   0.33932  -0.33643   0.02839  -0.47468
  43   35021.9    285.5   0.006409842   0.06025   0.15564  -0.15781   0.10548
  44   35294.0    283.3   0.169195481   1.57821  -0.47935  -0.81342  -0.82872
  45   35573.7    281.1   0.044003627   0.40723   0.42389  -0.41920   0.22762
  46   35883.9    278.7   0.034084337   0.31270   0.30489   0.44183   0.15662
  47   36048.1    277.4   0.158434940   1.44692   0.75090  -0.91832   0.19940
  48   36183.4    276.4   0.333473210   3.03408   0.53166  -1.45667   0.79342
  49   36716.5    272.4   0.133145646   1.19383   0.08075   0.92464   0.57650
  50   36818.1    271.6   0.029213692   0.26122   0.35239   0.37018  -0.00118
  51   37021.1    270.1   0.141639554   1.25954   0.00541  -1.09895   0.22763
  52   37274.9    268.3   0.044482230   0.39287   0.29285   0.47065   0.29257
  53   37419.5    267.2   0.004054823   0.03567  -0.07406  -0.04713  -0.16724
  54   37687.7    265.3   0.033485545   0.29250   0.50509  -0.01404   0.19284
  55   37817.6    264.4   0.089199796   0.77651   0.59547   0.28274   0.58479
  56   37884.8    264.0   0.427452683   3.71449   1.24152   1.17287   0.89302
  57   38076.2    262.6   0.006500607   0.05621  -0.16005  -0.13173  -0.11505
  58   38197.2    261.8   0.025665784   0.22121   0.27975   0.37691   0.02977
  59   38505.2    259.7   0.039364948   0.33656  -0.51197  -0.25561  -0.09546
  60   39194.5    255.1   0.052208561   0.43852  -0.22646  -0.17586  -0.59692
  61   39521.7    253.0   0.067926212   0.56582  -0.73004   0.16313  -0.07902
  62   39929.0    250.4   0.026500450   0.21849  -0.46267  -0.00819  -0.06609
  63   40127.1    249.2   0.008352997   0.06853   0.20905   0.03336   0.15399

FINAL SINGLE POINT ENERGY     -3528.809226442476

DIPOLE MOMENT
-------------
                                X             Y             Z
Electronic contribution:     24.86855     -21.86143     -11.79520
Nuclear contribution   :    -23.28691      24.15626      13.38658
                        -----------------------------------------
Total Dipole Moment    :      1.58164       2.29483       1.59138
                        -----------------------------------------
Magnitude (a.u.)       :      3.20941
Magnitude (Debye)      :      8.15767

Rotational constants in cm-1:     0.001716     0.000307     0.000274
Rotational constants in MHz :    51.438634     9.212415     8.207267

                             ****ORCA TERMINATED NORMALLY****
TOTAL RUN TIME: 0 days 0 hours 16 minutes 15 seconds 974 msec
