                         Program Version 4.2.0 -  RELEASE  -
|  1> # ORCA input file
|  2> # SCF done       -211.045038201059          0.000652964567
|  3> ! CAM-B3LYP def2-SVP def2/J RIJCOSX Grid4 TightSCF
|  4> %maxcore 5000
|  5> %tddft
|  6>     Mode sTDDFT
|  7>     Ethresh 5.0
|  8>     maxcore 5000
|  9> end
| 10>
| 11> %pal
| 12>   nprocs 6
| 13>   end
| 14> * xyz 0 1
| 15>    C        6.36168         1.07463        -0.86510
| 16>    S        4.73318         0.52266        -0.79044
| 17>    C        5.23168        -1.11829        -0.62945
| 18>    C        6.60748        -1.20123        -0.63635
| 19>    C        7.24810         0.06027        -0.77542
| 20>    N        7.34238        -2.41221        -0.57368
| 21>    O        6.73305        -3.45830        -0.45583
| 22>    O        8.55373        -2.32955        -0.63901
| 23>    C        4.23874        -2.19284        -0.58295
| 24>    C        3.43262        -2.40194        -1.70841
| 25>    C        3.65953        -1.53045        -2.89262
| 26>    O        4.73052        -1.46564        -3.46353
| 27>    C        2.55019        -0.64843        -3.27781
| 28>    C        1.22813        -0.72664        -2.93442
| 29>    S        0.31404         0.55875        -3.59019
| 30>    C        1.72365         1.24581        -4.31553
| 31>    C        2.83126         0.50470        -4.07861
| 32>    C        4.24167         0.86293        -4.43936
| 33>    O        4.91067         1.51559        -3.66674
| 34>    C        4.72181         0.40901        -5.75701
| 35>    C        6.05323         0.64783        -6.09673
| 36>    C        6.54410         0.23629        -7.31954
| 37>    C        5.71059        -0.41631        -8.21464
| 38>    C        4.38666        -0.65969        -7.88285
| 39>    C        3.89063        -0.25264        -6.65922
| 40>    C        2.49102        -3.42212        -1.69403
| 41>    C        2.33458        -4.20684        -0.56950
| 42>    C        3.10154        -3.98097         0.57431
| 43>    C        4.05341        -2.96623         0.55281
| 44>    C        2.89392        -4.79297         1.77915
| 45>    C        2.67549        -6.13896         1.68427
| 46>    C        2.43404        -6.90182         2.85165
| 47>    C        2.16334        -8.24781         3.02053
| 48>    C        2.17552        -9.29611         1.95650
| 49>    C        3.30232       -10.31763         2.24112
| 50>    N        4.62656        -9.73215         2.33072
| 51>    C        0.80922        -9.98399         1.78858
| 52>    N        0.67996       -10.49378         0.43414
| 53>    C        1.94037        -8.45400         4.43498
| 54>    C        1.57922        -9.54046         5.14074
| 55>    C        1.37731        -9.48965         6.61826
| 56>    C        1.66425        -8.16502         7.24325
| 57>    C        1.99607        -7.07854         6.52257
| 58>    C        2.12965        -7.16243         5.11605
| 59>    C        2.41764        -6.22711         4.14370
| 60>    C        2.66593        -4.83592         4.20484
| 61>    C        2.89944        -4.14872         3.05851
| 62>    C        2.14983       -10.63093         7.23627
| 63>    C        3.26980       -10.46571         7.93156
| 64>    C        4.02671       -11.54610         8.54780
| 65>    C        4.81267       -11.31143         9.69020
| 66>    C        4.91649        -9.95309        10.27928
| 67>    O        3.96395        -9.21135        10.41710
| 68>    C        6.27156        -9.55155        10.70486
| 69>    C        6.44756        -8.59940        11.67292
| 70>    S        8.09005        -8.32818        12.05052
| 71>    C        8.57585        -9.50367        10.89707
| 72>    C        7.52510       -10.06887        10.23934
| 73>    C        7.76392       -11.09187         9.18507
| 74>    O        8.53767       -12.00653         9.38170
| 75>    C        7.07120       -10.91432         7.88908
| 76>    C        6.52407        -9.69835         7.48341
| 77>    C        5.91449        -9.59466         6.24656
| 78>    C        5.84291       -10.69409         5.40452
| 79>    C        6.39339       -11.90327         5.80048
| 80>    C        7.01107       -12.01196         7.02990
| 81>    C        5.49044       -12.36889        10.29389
| 82>    C        5.45092       -13.63757         9.75818
| 83>    C        4.74549       -13.86966         8.57441
| 84>    C        4.03601       -12.82137         7.99606
| 85>    C        4.76035       -15.17486         7.94544
| 86>    S        4.30260       -15.35019         6.26538
| 87>    C        4.58014       -17.02623         6.30071
| 88>    C        5.00037       -17.43647         7.53911
| 89>    C        5.10832       -16.38245         8.47651
| 90>    N        5.29254       -18.79457         7.85063
| 91>    O        5.16052       -19.61285         6.96293
| 92>    O        5.65135       -19.04421         8.98205
| 93>    H        6.54899         2.12137        -0.98987
| 94>    H        8.31683         0.16245        -0.81181
| 95>    H        0.74236        -1.47429        -2.33989
| 96>    H        1.64207         2.15983        -4.86895
| 97>    H        6.68339         1.15354        -5.38072
| 98>    H        7.57627         0.42041        -7.57783
| 99>    H        6.09319        -0.73951        -9.17163
|100>    H        3.74141        -1.17177        -8.58161
|101>    H        2.85929        -0.44712        -6.40298
|102>    H        1.90166        -3.61681        -2.57821
|103>    H        1.59473        -4.99328        -0.56584
|104>    H        4.67828        -2.79449         1.41573
|105>    H        2.69662        -6.62671         0.72069
|106>    H        2.39400        -8.81185         0.99879
|107>    H        3.32638       -11.07514         1.45375
|108>    H        3.10440       -10.81998         3.19313
|109>    H        4.91844        -9.38185         1.42402
|110>    H        4.59991        -8.93307         2.95913
|111>    H        0.01989        -9.24063         1.93368
|112>    H        0.68519       -10.76247         2.55968
|113>    H        1.35371       -11.23313         0.26593
|114>    H       -0.24543       -10.87974         0.28466
|115>    H        1.40760       -10.50066         4.67491
|116>    H        0.30955        -9.70929         6.79359
|117>    H        1.56546        -8.11975         8.31678
|118>    H        2.16794        -6.12816         7.00702
|119>    H        2.65642        -4.33468         5.16175
|120>    H        3.06465        -3.08184         3.08875
|121>    H        1.73356       -11.61497         7.06758
|122>    H        3.62813        -9.46327         8.11018
|123>    H        5.67128        -8.07000        12.18965
|124>    H        9.61673        -9.70624        10.73951
|125>    H        6.59149        -8.83158         8.12497
|126>    H        5.49454        -8.65016         5.93342
|127>    H        5.38370       -10.60251         4.43205
|128>    H        6.34734       -12.75774         5.14180
|129>    H        7.45904       -12.93984         7.35333
|130>    H        6.04609       -12.19620        11.20371
|131>    H        5.99818       -14.43559        10.23217
|132>    H        3.49132       -13.00077         7.08090
|133>    H        4.42694       -17.64059         5.43560
|134>    H        5.41518       -16.54915         9.49200
|135> *
|136>
|137>                          ****END OF INPUT****

CARTESIAN COORDINATES (ANGSTROEM)
---------------------------------
  C      6.361680    1.074630   -0.865100
  S      4.733180    0.522660   -0.790440
  C      5.231680   -1.118290   -0.629450
  C      6.607480   -1.201230   -0.636350
  C      7.248100    0.060270   -0.775420
  N      7.342380   -2.412210   -0.573680
  O      6.733050   -3.458300   -0.455830
  O      8.553730   -2.329550   -0.639010
  C      4.238740   -2.192840   -0.582950
  C      3.432620   -2.401940   -1.708410
  C      3.659530   -1.530450   -2.892620
  O      4.730520   -1.465640   -3.463530
  C      2.550190   -0.648430   -3.277810
  C      1.228130   -0.726640   -2.934420
  S      0.314040    0.558750   -3.590190
  C      1.723650    1.245810   -4.315530
  C      2.831260    0.504700   -4.078610
  C      4.241670    0.862930   -4.439360
  O      4.910670    1.515590   -3.666740
  C      4.721810    0.409010   -5.757010
  C      6.053230    0.647830   -6.096730
  C      6.544100    0.236290   -7.319540
  C      5.710590   -0.416310   -8.214640
  C      4.386660   -0.659690   -7.882850
  C      3.890630   -0.252640   -6.659220
  C      2.491020   -3.422120   -1.694030
  C      2.334580   -4.206840   -0.569500
  C      3.101540   -3.980970    0.574310
  C      4.053410   -2.966230    0.552810
  C      2.893920   -4.792970    1.779150
  C      2.675490   -6.138960    1.684270
  C      2.434040   -6.901820    2.851650
  C      2.163340   -8.247810    3.020530
  C      2.175520   -9.296110    1.956500
  C      3.302320  -10.317630    2.241120
  N      4.626560   -9.732150    2.330720
  C      0.809220   -9.983990    1.788580
  N      0.679960  -10.493780    0.434140
  C      1.940370   -8.454000    4.434980
  C      1.579220   -9.540460    5.140740
  C      1.377310   -9.489650    6.618260
  C      1.664250   -8.165020    7.243250
  C      1.996070   -7.078540    6.522570
  C      2.129650   -7.162430    5.116050
  C      2.417640   -6.227110    4.143700
  C      2.665930   -4.835920    4.204840
  C      2.899440   -4.148720    3.058510
  C      2.149830  -10.630930    7.236270
  C      3.269800  -10.465710    7.931560
  C      4.026710  -11.546100    8.547800
  C      4.812670  -11.311430    9.690200
  C      4.916490   -9.953090   10.279280
  O      3.963950   -9.211350   10.417100
  C      6.271560   -9.551550   10.704860
  C      6.447560   -8.599400   11.672920
  S      8.090050   -8.328180   12.050520
  C      8.575850   -9.503670   10.897070
  C      7.525100  -10.068870   10.239340
  C      7.763920  -11.091870    9.185070
  O      8.537670  -12.006530    9.381700
  C      7.071200  -10.914320    7.889080
  C      6.524070   -9.698350    7.483410
  C      5.914490   -9.594660    6.246560
  C      5.842910  -10.694090    5.404520
  C      6.393390  -11.903270    5.800480
  C      7.011070  -12.011960    7.029900
  C      5.490440  -12.368890   10.293890
  C      5.450920  -13.637570    9.758180
  C      4.745490  -13.869660    8.574410
  C      4.036010  -12.821370    7.996060
  C      4.760350  -15.174860    7.945440
  S      4.302600  -15.350190    6.265380
  C      4.580140  -17.026230    6.300710
  C      5.000370  -17.436470    7.539110
  C      5.108320  -16.382450    8.476510
  N      5.292540  -18.794570    7.850630
  O      5.160520  -19.612850    6.962930
  O      5.651350  -19.044210    8.982050
  H      6.548990    2.121370   -0.989870
  H      8.316830    0.162450   -0.811810
  H      0.742360   -1.474290   -2.339890
  H      1.642070    2.159830   -4.868950
  H      6.683390    1.153540   -5.380720
  H      7.576270    0.420410   -7.577830
  H      6.093190   -0.739510   -9.171630
  H      3.741410   -1.171770   -8.581610
  H      2.859290   -0.447120   -6.402980
  H      1.901660   -3.616810   -2.578210
  H      1.594730   -4.993280   -0.565840
  H      4.678280   -2.794490    1.415730
  H      2.696620   -6.626710    0.720690
  H      2.394000   -8.811850    0.998790
  H      3.326380  -11.075140    1.453750
  H      3.104400  -10.819980    3.193130
  H      4.918440   -9.381850    1.424020
  H      4.599910   -8.933070    2.959130
  H      0.019890   -9.240630    1.933680
  H      0.685190  -10.762470    2.559680
  H      1.353710  -11.233130    0.265930
  H     -0.245430  -10.879740    0.284660
  H      1.407600  -10.500660    4.674910
  H      0.309550   -9.709290    6.793590
  H      1.565460   -8.119750    8.316780
  H      2.167940   -6.128160    7.007020
  H      2.656420   -4.334680    5.161750
  H      3.064650   -3.081840    3.088750
  H      1.733560  -11.614970    7.067580
  H      3.628130   -9.463270    8.110180
  H      5.671280   -8.070000   12.189650
  H      9.616730   -9.706240   10.739510
  H      6.591490   -8.831580    8.124970
  H      5.494540   -8.650160    5.933420
  H      5.383700  -10.602510    4.432050
  H      6.347340  -12.757740    5.141800
  H      7.459040  -12.939840    7.353330
  H      6.046090  -12.196200   11.203710
  H      5.998180  -14.435590   10.232170
  H      3.491320  -13.000770    7.080900
  H      4.426940  -17.640590    5.435600
  H      5.415180  -16.549150    9.492000

 Total Charge           Charge          ....    0
 Multiplicity           Mult            ....    1
 Number of Electrons    NEL             ....  570
 Basis Dimension        Dim             .... 1318

ORBITAL ENERGIES
----------------

  NO   OCC          E(Eh)            E(eV)
   0   2.0000     -88.983806     -2421.3725
   1   2.0000     -88.972432     -2421.0630
   2   2.0000     -88.972024     -2421.0519
   3   2.0000     -88.961952     -2420.7778
   4   2.0000     -19.239198      -523.5252
   5   2.0000     -19.237112      -523.4684
   6   2.0000     -19.222242      -523.0638
   7   2.0000     -19.221402      -523.0409
   8   2.0000     -19.213259      -522.8194
   9   2.0000     -19.210267      -522.7379
  10   2.0000     -19.202223      -522.5191
  11   2.0000     -19.200908      -522.4833
  12   2.0000     -14.646545      -398.5528
  13   2.0000     -14.631123      -398.1331
  14   2.0000     -14.381701      -391.3460
  15   2.0000     -14.380296      -391.3078
  16   2.0000     -10.366196      -282.0785
  17   2.0000     -10.365627      -282.0630
  18   2.0000     -10.359327      -281.8916
  19   2.0000     -10.357867      -281.8519
  20   2.0000     -10.330041      -281.0947
  21   2.0000     -10.324512      -280.9443
  22   2.0000     -10.321798      -280.8704
  23   2.0000     -10.316339      -280.7218
  24   2.0000     -10.314817      -280.6804
  25   2.0000     -10.311036      -280.5776
  26   2.0000     -10.309137      -280.5259
  27   2.0000     -10.305626      -280.4303
  28   2.0000     -10.305446      -280.4254
  29   2.0000     -10.302893      -280.3560
  30   2.0000     -10.301554      -280.3195
  31   2.0000     -10.295442      -280.1532
  32   2.0000     -10.295139      -280.1450
  33   2.0000     -10.293872      -280.1105
  34   2.0000     -10.293344      -280.0961
  35   2.0000     -10.292499      -280.0731
  36   2.0000     -10.289348      -279.9874
  37   2.0000     -10.288590      -279.9668
  38   2.0000     -10.288303      -279.9590
  39   2.0000     -10.287001      -279.9235
  40   2.0000     -10.285914      -279.8940
  41   2.0000     -10.285401      -279.8800
  42   2.0000     -10.285256      -279.8761
  43   2.0000     -10.285043      -279.8702
  44   2.0000     -10.284235      -279.8483
  45   2.0000     -10.283701      -279.8337
  46   2.0000     -10.283128      -279.8181
  47   2.0000     -10.282199      -279.7929
  48   2.0000     -10.282128      -279.7909
  49   2.0000     -10.279728      -279.7256
  50   2.0000     -10.276364      -279.6341
  51   2.0000     -10.276039      -279.6252
  52   2.0000     -10.275898      -279.6214
  53   2.0000     -10.275666      -279.6151
  54   2.0000     -10.274255      -279.5767
  55   2.0000     -10.273865      -279.5661
  56   2.0000     -10.272151      -279.5194
  57   2.0000     -10.271626      -279.5052
  58   2.0000     -10.271243      -279.4947
  59   2.0000     -10.270611      -279.4775
  60   2.0000     -10.270561      -279.4762
  61   2.0000     -10.268642      -279.4239
  62   2.0000     -10.268186      -279.4115
  63   2.0000     -10.268044      -279.4077
  64   2.0000     -10.267558      -279.3945
  65   2.0000     -10.267512      -279.3932
  66   2.0000     -10.267270      -279.3866
  67   2.0000     -10.266402      -279.3630
  68   2.0000     -10.265595      -279.3410
  69   2.0000     -10.265258      -279.3319
  70   2.0000     -10.265169      -279.3294
  71   2.0000     -10.265076      -279.3269
  72   2.0000     -10.264981      -279.3243
  73   2.0000     -10.263313      -279.2789
  74   2.0000     -10.262967      -279.2695
  75   2.0000     -10.262527      -279.2576
  76   2.0000     -10.260319      -279.1975
  77   2.0000     -10.256775      -279.1010
  78   2.0000      -8.079183      -219.8458
  79   2.0000      -8.068741      -219.5616
  80   2.0000      -8.068214      -219.5473
  81   2.0000      -8.057224      -219.2482
  82   2.0000      -6.048309      -164.5829
  83   2.0000      -6.044002      -164.4657
  84   2.0000      -6.041813      -164.4061
  85   2.0000      -6.037762      -164.2959
  86   2.0000      -6.037418      -164.2865
  87   2.0000      -6.033380      -164.1766
  88   2.0000      -6.032926      -164.1643
  89   2.0000      -6.031528      -164.1262
  90   2.0000      -6.030765      -164.1054
  91   2.0000      -6.026539      -163.9905
  92   2.0000      -6.021980      -163.8664
  93   2.0000      -6.019661      -163.8033
  94   2.0000      -1.319399       -35.9027
  95   2.0000      -1.302974       -35.4557
  96   2.0000      -1.138110       -30.9696
  97   2.0000      -1.132960       -30.8294
  98   2.0000      -1.127347       -30.6767
  99   2.0000      -1.120343       -30.4861
 100   2.0000      -1.119867       -30.4731
 101   2.0000      -1.115945       -30.3664
 102   2.0000      -1.014346       -27.6017
 103   2.0000      -0.997372       -27.1399
 104   2.0000      -0.995094       -27.0779
 105   2.0000      -0.994843       -27.0710
 106   2.0000      -0.984469       -26.7888
 107   2.0000      -0.972846       -26.4725
 108   2.0000      -0.968491       -26.3540
 109   2.0000      -0.963870       -26.2282
 110   2.0000      -0.954871       -25.9833
 111   2.0000      -0.947272       -25.7766
 112   2.0000      -0.945887       -25.7389
 113   2.0000      -0.941374       -25.6161
 114   2.0000      -0.914894       -24.8955
 115   2.0000      -0.909166       -24.7397
 116   2.0000      -0.888546       -24.1786
 117   2.0000      -0.885387       -24.0926
 118   2.0000      -0.883882       -24.0517
 119   2.0000      -0.877328       -23.8733
 120   2.0000      -0.867502       -23.6059
 121   2.0000      -0.866377       -23.5753
 122   2.0000      -0.863157       -23.4877
 123   2.0000      -0.858960       -23.3735
 124   2.0000      -0.845196       -22.9990
 125   2.0000      -0.842575       -22.9276
 126   2.0000      -0.835660       -22.7395
 127   2.0000      -0.833731       -22.6870
 128   2.0000      -0.832914       -22.6647
 129   2.0000      -0.831419       -22.6241
 130   2.0000      -0.829593       -22.5744
 131   2.0000      -0.828394       -22.5418
 132   2.0000      -0.827404       -22.5148
 133   2.0000      -0.821872       -22.3643
 134   2.0000      -0.807973       -21.9861
 135   2.0000      -0.789941       -21.4954
 136   2.0000      -0.774004       -21.0617
 137   2.0000      -0.759001       -20.6535
 138   2.0000      -0.756622       -20.5887
 139   2.0000      -0.746009       -20.2999
 140   2.0000      -0.738995       -20.1091
 141   2.0000      -0.729106       -19.8400
 142   2.0000      -0.728357       -19.8196
 143   2.0000      -0.725479       -19.7413
 144   2.0000      -0.720380       -19.6025
 145   2.0000      -0.710778       -19.3412
 146   2.0000      -0.706676       -19.2296
 147   2.0000      -0.690135       -18.7795
 148   2.0000      -0.689250       -18.7555
 149   2.0000      -0.688444       -18.7335
 150   2.0000      -0.686784       -18.6883
 151   2.0000      -0.685019       -18.6403
 152   2.0000      -0.670737       -18.2517
 153   2.0000      -0.665455       -18.1079
 154   2.0000      -0.664377       -18.0786
 155   2.0000      -0.659857       -17.9556
 156   2.0000      -0.658645       -17.9226
 157   2.0000      -0.655081       -17.8257
 158   2.0000      -0.654671       -17.8145
 159   2.0000      -0.646451       -17.5908
 160   2.0000      -0.646257       -17.5855
 161   2.0000      -0.641807       -17.4645
 162   2.0000      -0.634397       -17.2628
 163   2.0000      -0.628508       -17.1026
 164   2.0000      -0.627443       -17.0736
 165   2.0000      -0.625002       -17.0072
 166   2.0000      -0.620589       -16.8871
 167   2.0000      -0.619421       -16.8553
 168   2.0000      -0.616173       -16.7669
 169   2.0000      -0.612525       -16.6676
 170   2.0000      -0.609702       -16.5908
 171   2.0000      -0.600039       -16.3279
 172   2.0000      -0.596386       -16.2285
 173   2.0000      -0.584736       -15.9115
 174   2.0000      -0.580832       -15.8052
 175   2.0000      -0.577873       -15.7247
 176   2.0000      -0.571863       -15.5612
 177   2.0000      -0.571519       -15.5518
 178   2.0000      -0.570037       -15.5115
 179   2.0000      -0.566346       -15.4111
 180   2.0000      -0.565366       -15.3844
 181   2.0000      -0.562752       -15.3133
 182   2.0000      -0.561147       -15.2696
 183   2.0000      -0.552279       -15.0283
 184   2.0000      -0.551283       -15.0012
 185   2.0000      -0.547593       -14.9008
 186   2.0000      -0.543652       -14.7935
 187   2.0000      -0.539982       -14.6937
 188   2.0000      -0.538681       -14.6583
 189   2.0000      -0.535954       -14.5841
 190   2.0000      -0.531847       -14.4723
 191   2.0000      -0.531413       -14.4605
 192   2.0000      -0.529784       -14.4162
 193   2.0000      -0.526211       -14.3189
 194   2.0000      -0.525208       -14.2916
 195   2.0000      -0.523820       -14.2539
 196   2.0000      -0.517483       -14.0814
 197   2.0000      -0.516759       -14.0617
 198   2.0000      -0.515865       -14.0374
 199   2.0000      -0.514982       -14.0134
 200   2.0000      -0.513752       -13.9799
 201   2.0000      -0.512769       -13.9531
 202   2.0000      -0.508221       -13.8294
 203   2.0000      -0.507503       -13.8099
 204   2.0000      -0.505260       -13.7488
 205   2.0000      -0.502114       -13.6632
 206   2.0000      -0.500602       -13.6221
 207   2.0000      -0.499473       -13.5914
 208   2.0000      -0.499207       -13.5841
 209   2.0000      -0.498468       -13.5640
 210   2.0000      -0.497449       -13.5363
 211   2.0000      -0.495869       -13.4933
 212   2.0000      -0.495329       -13.4786
 213   2.0000      -0.493585       -13.4311
 214   2.0000      -0.492241       -13.3946
 215   2.0000      -0.490365       -13.3435
 216   2.0000      -0.488657       -13.2970
 217   2.0000      -0.487098       -13.2546
 218   2.0000      -0.485480       -13.2106
 219   2.0000      -0.483333       -13.1522
 220   2.0000      -0.477538       -12.9945
 221   2.0000      -0.473344       -12.8804
 222   2.0000      -0.470860       -12.8128
 223   2.0000      -0.469811       -12.7842
 224   2.0000      -0.469042       -12.7633
 225   2.0000      -0.464313       -12.6346
 226   2.0000      -0.460935       -12.5427
 227   2.0000      -0.458282       -12.4705
 228   2.0000      -0.456398       -12.4192
 229   2.0000      -0.452366       -12.3095
 230   2.0000      -0.450690       -12.2639
 231   2.0000      -0.446098       -12.1389
 232   2.0000      -0.445125       -12.1125
 233   2.0000      -0.442951       -12.0533
 234   2.0000      -0.441511       -12.0141
 235   2.0000      -0.439346       -11.9552
 236   2.0000      -0.436513       -11.8781
 237   2.0000      -0.434623       -11.8267
 238   2.0000      -0.431414       -11.7394
 239   2.0000      -0.430852       -11.7241
 240   2.0000      -0.428907       -11.6712
 241   2.0000      -0.428442       -11.6585
 242   2.0000      -0.425577       -11.5805
 243   2.0000      -0.424916       -11.5625
 244   2.0000      -0.423146       -11.5144
 245   2.0000      -0.421761       -11.4767
 246   2.0000      -0.413508       -11.2521
 247   2.0000      -0.412587       -11.2271
 248   2.0000      -0.410492       -11.1701
 249   2.0000      -0.404439       -11.0053
 250   2.0000      -0.391565       -10.6550
 251   2.0000      -0.389716       -10.6047
 252   2.0000      -0.383702       -10.4411
 253   2.0000      -0.382519       -10.4089
 254   2.0000      -0.377214       -10.2645
 255   2.0000      -0.371063       -10.0971
 256   2.0000      -0.367534       -10.0011
 257   2.0000      -0.365485        -9.9454
 258   2.0000      -0.362634        -9.8678
 259   2.0000      -0.358518        -9.7558
 260   2.0000      -0.352655        -9.5962
 261   2.0000      -0.348382        -9.4800
 262   2.0000      -0.346216        -9.4210
 263   2.0000      -0.340279        -9.2595
 264   2.0000      -0.336947        -9.1688
 265   2.0000      -0.336538        -9.1577
 266   2.0000      -0.335246        -9.1225
 267   2.0000      -0.330074        -8.9818
 268   2.0000      -0.328692        -8.9442
 269   2.0000      -0.326743        -8.8911
 270   2.0000      -0.324558        -8.8317
 271   2.0000      -0.323964        -8.8155
 272   2.0000      -0.323011        -8.7896
 273   2.0000      -0.318976        -8.6798
 274   2.0000      -0.318574        -8.6688
 275   2.0000      -0.315553        -8.5866
 276   2.0000      -0.314991        -8.5713
 277   2.0000      -0.311280        -8.4704
 278   2.0000      -0.306305        -8.3350
 279   2.0000      -0.303142        -8.2489
 280   2.0000      -0.299816        -8.1584
 281   2.0000      -0.298517        -8.1231
 282   2.0000      -0.290115        -7.8944
 283   2.0000      -0.286786        -7.8038
 284   2.0000      -0.223456        -6.0806
 285   0.0000      -0.067347        -1.8326
 286   0.0000      -0.049160        -1.3377
 287   0.0000      -0.040479        -1.1015
 288   0.0000      -0.033483        -0.9111
 289   0.0000      -0.029531        -0.8036

MULLIKEN ATOMIC CHARGES
-----------------------
   0 C :   -0.031950
   1 S :    0.186335
   2 C :   -0.245878
   3 C :    0.200680
   4 C :    0.016435
   5 N :    0.261387
   6 O :   -0.243440
   7 O :   -0.251242
   8 C :    0.077843
   9 C :   -0.001734
  10 C :    0.095351
  11 O :   -0.162988
  12 C :    0.073791
  13 C :   -0.118556
  14 S :    0.136201
  15 C :   -0.112452
  16 C :   -0.035785
  17 C :    0.150855
  18 O :   -0.185293
  19 C :    0.020619
  20 C :    0.005541
  21 C :    0.027104
  22 C :    0.036174
  23 C :    0.023990
  24 C :    0.019091
  25 C :   -0.022962
  26 C :   -0.012112
  27 C :    0.079030
  28 C :   -0.011471
  29 C :    0.085686
  30 C :   -0.091975
  31 C :    0.052652
  32 C :   -0.079906
  33 C :   -0.029802
  34 C :    0.140521
  35 N :   -0.197237
  36 C :    0.129831
  37 N :   -0.213663
  38 C :    0.091168
  39 C :   -0.117882
  40 C :    0.173085
  41 C :   -0.050430
  42 C :    0.007209
  43 C :    0.008874
  44 C :    0.032939
  45 C :   -0.003384
  46 C :   -0.009314
  47 C :   -0.129184
  48 C :    0.071388
  49 C :    0.129865
  50 C :   -0.067348
  51 C :    0.104030
  52 O :   -0.178618
  53 C :    0.019803
  54 C :   -0.115446
  55 S :    0.150872
  56 C :   -0.109827
  57 C :    0.013891
  58 C :    0.103484
  59 O :   -0.173969
  60 C :    0.005543
  61 C :   -0.012894
  62 C :    0.036137
  63 C :    0.028376
  64 C :    0.017772
  65 C :    0.017421
  66 C :    0.056852
  67 C :   -0.049023
  68 C :    0.175951
  69 C :   -0.114638
  70 C :   -0.105055
  71 S :    0.148252
  72 C :   -0.104798
  73 C :    0.157396
  74 C :    0.005720
  75 N :    0.262370
  76 O :   -0.246618
  77 O :   -0.239352
  78 H :    0.037840
  79 H :    0.004476
  80 H :    0.035424
  81 H :    0.027816
  82 H :   -0.004580
  83 H :   -0.011881
  84 H :   -0.011744
  85 H :   -0.016646
  86 H :   -0.008844
  87 H :   -0.017333
  88 H :   -0.014898
  89 H :   -0.023876
  90 H :   -0.036653
  91 H :   -0.027107
  92 H :   -0.008054
  93 H :   -0.022899
  94 H :    0.093581
  95 H :    0.108697
  96 H :    0.003240
  97 H :   -0.027242
  98 H :    0.084931
  99 H :    0.091127
 100 H :   -0.009420
 101 H :    0.041069
 102 H :    0.008989
 103 H :   -0.036626
 104 H :   -0.037489
 105 H :   -0.024857
 106 H :   -0.008310
 107 H :    0.018331
 108 H :    0.040253
 109 H :    0.035850
 110 H :   -0.000809
 111 H :   -0.010745
 112 H :   -0.022589
 113 H :   -0.019831
 114 H :   -0.005809
 115 H :    0.000498
 116 H :   -0.014606
 117 H :   -0.024428
 118 H :    0.044414
 119 H :    0.009451
Sum of atomic charges:   -0.0000000

LOEWDIN ATOMIC CHARGES
----------------------
   0 C :   -0.160934
   1 S :    0.502734
   2 C :   -0.146854
   3 C :   -0.073584
   4 C :   -0.046376
   5 N :    0.288245
   6 O :   -0.208325
   7 O :   -0.213176
   8 C :   -0.025632
   9 C :   -0.046674
  10 C :    0.083023
  11 O :   -0.120268
  12 C :   -0.103418
  13 C :   -0.159863
  14 S :    0.463114
  15 C :   -0.175093
  16 C :   -0.064811
  17 C :    0.094748
  18 O :   -0.147422
  19 C :   -0.064877
  20 C :    0.020399
  21 C :   -0.022901
  22 C :   -0.006568
  23 C :   -0.027180
  24 C :   -0.004548
  25 C :   -0.018528
  26 C :   -0.009658
  27 C :   -0.005237
  28 C :    0.011424
  29 C :   -0.017540
  30 C :   -0.018864
  31 C :   -0.020187
  32 C :   -0.053720
  33 C :   -0.051205
  34 C :    0.019533
  35 N :   -0.100566
  36 C :    0.025372
  37 N :   -0.118928
  38 C :   -0.023310
  39 C :    0.065969
  40 C :   -0.030513
  41 C :   -0.022787
  42 C :   -0.021577
  43 C :   -0.031232
  44 C :   -0.036468
  45 C :   -0.006557
  46 C :   -0.031019
  47 C :   -0.015743
  48 C :   -0.005578
  49 C :    0.013161
  50 C :   -0.054902
  51 C :    0.086381
  52 O :   -0.144854
  53 C :   -0.107706
  54 C :   -0.145245
  55 S :    0.475196
  56 C :   -0.156346
  57 C :   -0.088564
  58 C :    0.086225
  59 O :   -0.145606
  60 C :   -0.071846
  61 C :   -0.013637
  62 C :   -0.020771
  63 C :   -0.002635
  64 C :   -0.025463
  65 C :    0.014653
  66 C :    0.002388
  67 C :   -0.007658
  68 C :   -0.027546
  69 C :   -0.012013
  70 C :   -0.153561
  71 S :    0.482650
  72 C :   -0.154996
  73 C :   -0.074937
  74 C :   -0.040173
  75 N :    0.284952
  76 O :   -0.210584
  77 O :   -0.204718
  78 H :    0.029681
  79 H :    0.040446
  80 H :    0.028887
  81 H :    0.027790
  82 H :    0.033583
  83 H :    0.029381
  84 H :    0.028817
  85 H :    0.027954
  86 H :    0.028994
  87 H :    0.029347
  88 H :    0.031106
  89 H :    0.031906
  90 H :    0.024693
  91 H :    0.023863
  92 H :    0.013460
  93 H :    0.008308
  94 H :    0.058826
  95 H :    0.054649
  96 H :    0.021701
  97 H :   -0.005465
  98 H :    0.048350
  99 H :    0.054977
 100 H :    0.023201
 101 H :    0.064133
 102 H :    0.032454
 103 H :    0.029912
 104 H :    0.027155
 105 H :    0.025933
 106 H :    0.019766
 107 H :    0.029818
 108 H :    0.032605
 109 H :    0.031944
 110 H :    0.031093
 111 H :    0.029378
 112 H :    0.028309
 113 H :    0.025100
 114 H :    0.031546
 115 H :    0.037438
 116 H :    0.033298
 117 H :    0.016479
 118 H :    0.038820
 119 H :    0.041681

  Mayer bond orders larger than 0.100000
B(  0-C ,  1-S ) :   1.1447 B(  0-C ,  4-C ) :   1.5800 B(  0-C , 78-H ) :   0.9685
B(  1-S ,  2-C ) :   1.2335 B(  2-C ,  3-C ) :   1.5287 B(  2-C ,  8-C ) :   0.9411
B(  3-C ,  4-C ) :   1.2480 B(  3-C ,  5-N ) :   0.9298 B(  4-C , 79-H ) :   0.9917
B(  5-N ,  6-O ) :   1.5255 B(  5-N ,  7-O ) :   1.5401 B(  6-O ,  7-O ) :   0.2626
B(  8-C ,  9-C ) :   1.4488 B(  8-C , 28-C ) :   1.3820 B(  9-C , 10-C ) :   0.9153
B(  9-C , 25-C ) :   1.3673 B( 10-C , 11-O ) :   2.1504 B( 10-C , 12-C ) :   0.9430
B( 12-C , 13-C ) :   1.5095 B( 12-C , 16-C ) :   1.2908 B( 13-C , 14-S ) :   1.2142
B( 13-C , 80-H ) :   0.9480 B( 14-S , 15-C ) :   1.1472 B( 15-C , 16-C ) :   1.6207
B( 15-C , 81-H ) :   0.9740 B( 16-C , 17-C ) :   0.8757 B( 17-C , 18-O ) :   2.1696
B( 17-C , 19-C ) :   0.9555 B( 19-C , 20-C ) :   1.3875 B( 19-C , 24-C ) :   1.3795
B( 20-C , 21-C ) :   1.3793 B( 20-C , 82-H ) :   0.9961 B( 21-C , 22-C ) :   1.3738
B( 21-C , 83-H ) :   0.9926 B( 22-C , 23-C ) :   1.3935 B( 22-C , 84-H ) :   0.9906
B( 23-C , 24-C ) :   1.3867 B( 23-C , 85-H ) :   0.9870 B( 24-C , 86-H ) :   0.9744
B( 25-C , 26-C ) :   1.3788 B( 25-C , 87-H ) :   0.9913 B( 26-C , 27-C ) :   1.3805
B( 26-C , 88-H ) :   0.9935 B( 27-C , 28-C ) :   1.3642 B( 27-C , 29-C ) :   0.9486
B( 28-C , 89-H ) :   0.9944 B( 29-C , 30-C ) :   1.5806 B( 29-C , 46-C ) :   1.1463
B( 30-C , 31-C ) :   1.1224 B( 30-C , 90-H ) :   0.9961 B( 31-C , 32-C ) :   1.5031
B( 31-C , 44-C ) :   1.1183 B( 32-C , 33-C ) :   1.0312 B( 32-C , 38-C ) :   1.0741
B( 33-C , 34-C ) :   1.0150 B( 33-C , 36-C ) :   1.0266 B( 33-C , 91-H ) :   0.8774
B( 34-C , 35-N ) :   1.1192 B( 34-C , 92-H ) :   0.9435 B( 34-C , 93-H ) :   0.9362
B( 35-N , 94-H ) :   0.9680 B( 35-N , 95-H ) :   0.9646 B( 35-N ,112-H ) :   0.1113
B( 36-C , 37-N ) :   1.1009 B( 36-C , 96-H ) :   0.9438 B( 36-C , 97-H ) :   0.9290
B( 37-N , 98-H ) :   0.9714 B( 37-N , 99-H ) :   0.9674 B( 38-C , 39-C ) :   1.6800
B( 38-C , 43-C ) :   1.0542 B( 39-C , 40-C ) :   0.9713 B( 39-C ,100-H ) :   0.9577
B( 40-C , 41-C ) :   1.0102 B( 40-C , 47-C ) :   0.9485 B( 40-C ,101-H ) :   0.8427
B( 41-C , 42-C ) :   1.7070 B( 41-C ,102-H ) :   0.9706 B( 42-C , 43-C ) :   1.1239
B( 42-C ,103-H ) :   0.9941 B( 43-C , 44-C ) :   1.4361 B( 44-C , 45-C ) :   1.1418
B( 45-C , 46-C ) :   1.6004 B( 45-C ,104-H ) :   0.9937 B( 46-C ,105-H ) :   0.9826
B( 47-C , 48-C ) :   1.8932 B( 47-C ,106-H ) :   0.9719 B( 48-C , 49-C ) :   1.0439
B( 48-C ,107-H ) :   0.9100 B( 49-C , 50-C ) :   1.3558 B( 49-C , 69-C ) :   1.3854
B( 50-C , 51-C ) :   0.9240 B( 50-C , 66-C ) :   1.3785 B( 51-C , 52-O ) :   2.1824
B( 51-C , 53-C ) :   0.9461 B( 53-C , 54-C ) :   1.5207 B( 53-C , 57-C ) :   1.2431
B( 54-C , 55-S ) :   1.2104 B( 54-C ,108-H ) :   0.9649 B( 55-S , 56-C ) :   1.1750
B( 56-C , 57-C ) :   1.5787 B( 56-C ,109-H ) :   0.9689 B( 57-C , 58-C ) :   0.9160
B( 58-C , 59-O ) :   2.2225 B( 58-C , 60-C ) :   0.9401 B( 60-C , 61-C ) :   1.3639
B( 60-C , 65-C ) :   1.3994 B( 61-C , 62-C ) :   1.3885 B( 61-C ,110-H ) :   0.9823
B( 62-C , 63-C ) :   1.3757 B( 62-C ,111-H ) :   0.9888 B( 63-C , 64-C ) :   1.3794
B( 63-C ,112-H ) :   0.9687 B( 64-C , 65-C ) :   1.3548 B( 64-C ,113-H ) :   0.9972
B( 65-C ,114-H ) :   0.9894 B( 66-C , 67-C ) :   1.3949 B( 66-C ,115-H ) :   0.9775
B( 67-C , 68-C ) :   1.3495 B( 67-C ,116-H ) :   1.0000 B( 68-C , 69-C ) :   1.3100
B( 68-C , 70-C ) :   1.0376 B( 69-C ,117-H ) :   0.9815 B( 70-C , 71-S ) :   1.1367
B( 70-C , 74-C ) :   1.5317 B( 71-S , 72-C ) :   1.1935 B( 72-C , 73-C ) :   1.5376
B( 72-C ,118-H ) :   0.9589 B( 73-C , 74-C ) :   1.2334 B( 73-C , 75-N ) :   0.9110
B( 74-C ,119-H ) :   0.9967 B( 75-N , 76-O ) :   1.5496 B( 75-N , 77-O ) :   1.5535
B( 76-O , 77-O ) :   0.2724

-----------------------------------------------------------------------------
         ABSORPTION SPECTRUM VIA TRANSITION ELECTRIC DIPOLE MOMENTS
-----------------------------------------------------------------------------
State   Energy  Wavelength   fosc         T2         TX        TY        TZ
        (cm-1)    (nm)                  (au**2)     (au)      (au)      (au)
-----------------------------------------------------------------------------
   0   15123.3    661.2   0.059171204   1.28807  -0.07210   0.44197   1.04285
   1   25311.2    395.1   0.007912052   0.10291  -0.10034   0.03472  -0.30271
   2   27895.1    358.5   0.003108234   0.03668  -0.03767   0.02652  -0.18590
   3   28818.3    347.0   0.009639663   0.11012   0.04364  -0.09137  -0.31602
   4   29258.0    341.8   0.005708322   0.06423   0.07688   0.21982   0.09999
   5   29921.4    334.2   0.004638189   0.05103  -0.00050  -0.19507   0.11393
   6   30151.5    331.7   0.456569370   4.98510   0.13828   1.84232  -1.25373
   7   30737.6    325.3   0.117155414   1.25478  -0.02919   0.78217  -0.80133
   8   31299.6    319.5   0.025423120   0.26740  -0.48327  -0.16457  -0.08230
   9   32989.5    303.1   0.080153616   0.79988   0.41822   0.54064   0.57678
  10   33409.6    299.3   0.013556794   0.13359  -0.18358   0.00463  -0.31601
  11   33655.6    297.1   0.018059109   0.17665   0.27625   0.24469  -0.20115
  12   33778.6    296.0   0.050347923   0.49070   0.12038  -0.36887   0.58322
  13   34771.9    287.6   0.295193412   2.79482  -0.17997  -1.63267  -0.31116
  14   35287.3    283.4   0.027548824   0.25702  -0.00209  -0.43790   0.25546
  15   35444.8    282.1   0.048635032   0.45172  -0.08468  -0.58589   0.31826
  16   35628.5    280.7   0.410405145   3.79220   0.30282   1.43799  -1.27777
  17   35979.9    277.9   0.036146521   0.33074   0.27822   0.18052   0.46983
  18   36042.6    277.4   0.031737884   0.28989   0.20196  -0.44938   0.21717
  19   36448.6    274.4   0.114221024   1.03167  -0.21438  -0.98992   0.07597
  20   36611.3    273.1   0.001750375   0.01574  -0.07921  -0.07737   0.05899
  21   36878.7    271.2   0.101999626   0.91054  -0.35049  -0.80524   0.37321
  22   37289.9    268.2   0.098363981   0.86840   0.10817   0.61443  -0.69222
  23   37663.0    265.5   0.105823102   0.92500   0.24200  -0.73520  -0.57088
  24   37964.3    263.4   0.036923871   0.32019  -0.09604  -0.27285   0.48633
  25   38720.5    258.3   0.110993122   0.94369   0.59378  -0.32116   0.69855
  26   38975.7    256.6   0.385622554   3.25719   0.41108   1.17963  -1.30257
  27   39337.9    254.2   0.103984517   0.87023   0.15512  -0.25036   0.88515
  28   39626.4    252.4   0.206678327   1.71706   0.08541   0.93345  -0.91566
  29   39916.3    250.5   0.048360853   0.39886  -0.27165   0.54874   0.15477

FINAL SINGLE POINT ENERGY     -4796.683724924716

DIPOLE MOMENT
-------------
                                X             Y             Z
Electronic contribution:     18.35336      18.14431      15.70228
Nuclear contribution   :    -21.41075     -16.25441     -16.48782
                        -----------------------------------------
Total Dipole Moment    :     -3.05739       1.88990      -0.78555
                        -----------------------------------------
Magnitude (a.u.)       :      3.67919
Magnitude (Debye)      :      9.35176

Rotational constants in cm-1:     0.001485     0.000249     0.000237
Rotational constants in MHz :    44.523326     7.474895     7.111376

                             ****ORCA TERMINATED NORMALLY****
TOTAL RUN TIME: 0 days 0 hours 13 minutes 26 seconds 335 msec
