                         Program Version 4.2.0 -  RELEASE  -
|  1> # ORCA input file
|  2> # SCF done       -205.345603586308          0.000740149438
|  3> ! CAM-B3LYP def2-SVP def2/J RIJCOSX Grid4 TightSCF
|  4> %maxcore 5000
|  5> %tddft
|  6>     Mode sTDDFT
|  7>     Ethresh 5.0
|  8>     maxcore 5000
|  9> end
| 10>
| 11> %pal
| 12>   nprocs 6
| 13>   end
| 14> * xyz 0 1
| 15>    C       -9.68049        -2.45440         4.00263
| 16>    C      -10.23355        -1.14474         3.56851
| 17>    O       -9.82540        -0.04662         3.83644
| 18>    C      -11.33663        -1.49675         2.62767
| 19>    C      -11.35775        -2.88227         2.40087
| 20>    C      -10.28311        -3.54093         3.18792
| 21>    O       -9.95777        -4.70093         3.18172
| 22>    C      -12.29925        -3.42636         1.54209
| 23>    C      -13.22136        -2.60109         0.90588
| 24>    C      -13.19990        -1.23735         1.12759
| 25>    C      -12.25550        -0.68221         1.98674
| 26>    F      -12.26007         0.63636         2.17817
| 27>    F      -12.34130        -4.73871         1.30827
| 28>    C       -8.76225        -2.68119         4.95749
| 29>    C       -8.23172        -1.68380         5.85080
| 30>    N       -8.99758        -0.89014         6.56152
| 31>    C       -8.15040        -0.11787         7.28889
| 32>    C       -6.75134        -0.45516         7.00840
| 33>    C       -5.85013         0.40592         7.78560
| 34>    O       -4.63636         0.41882         7.80056
| 35>    C       -6.78910         1.25667         8.54408
| 36>    C       -8.18512         0.89737         8.21201
| 37>    N       -9.05535         1.67060         8.90797
| 38>    C       -8.30664         2.46808         9.62665
| 39>    C       -6.87963         2.26523         9.44610
| 40>    C       -6.78504        -1.47761         6.08745
| 41>    C       -5.75375        -2.19805         5.42691
| 42>    C       -4.44032        -1.94967         5.64497
| 43>    C       -3.32774        -2.59028         5.00489
| 44>    C       -2.06087        -2.08293         5.24486
| 45>    C       -0.93952        -2.62909         4.60378
| 46>    C        0.41648        -2.28690         4.63800
| 47>    C        1.08566        -1.23368         5.43582
| 48>    C        0.58872         0.18293         5.01476
| 49>    N        1.31178         1.28636         5.58571
| 50>    C        0.89489        -1.45776         6.96215
| 51>    N        1.41820        -2.70370         7.46113
| 52>    C        1.09406        -3.17916         3.72845
| 53>    C        2.38072        -3.24058         3.33339
| 54>    C        2.84797        -4.25504         2.35381
| 55>    C        1.78157        -5.17347         1.84326
| 56>    C        0.49620        -5.09401         2.24382
| 57>    C        0.09876        -4.10279         3.16653
| 58>    C       -1.12970        -3.75266         3.69946
| 59>    C       -2.42467        -4.27695         3.49577
| 60>    C       -3.48542        -3.70812         4.12497
| 61>    C        3.89162        -5.14086         2.98038
| 62>    C        4.98912        -5.55262         2.32863
| 63>    C        5.96012        -6.41295         2.92474
| 64>    N        5.90948        -6.77537         4.19939
| 65>    C        6.99083        -7.54879         4.40693
| 66>    C        7.78931        -7.69942         3.18203
| 67>    C        8.96971        -8.54801         3.43286
| 68>    O        9.83603        -8.87897         2.65239
| 69>    C        8.82722        -8.88098         4.85861
| 70>    C        7.60958        -8.25512         5.41554
| 71>    N        7.47298        -8.55708         6.72579
| 72>    C        8.50826        -9.31505         7.01281
| 73>    C        9.39205        -9.55605         5.89508
| 74>    C        7.13500        -6.97162         2.21571
| 75>    C        7.40778        -6.76355         0.83873
| 76>    C        8.47336        -7.28315         0.17392
| 77>    C        8.73812        -7.10240        -1.20774
| 78>    C        8.08158        -6.42940        -2.20244
| 79>    C        8.66036        -6.49336        -3.56850
| 80>    O        9.67151        -7.06464        -3.89557
| 81>    C        7.74240        -5.71419        -4.44396
| 82>    C        6.69553        -5.20269        -3.66797
| 83>    C        6.85973        -5.61322        -2.24473
| 84>    O        6.10446        -5.29784        -1.34780
| 85>    C        5.70631        -4.43815        -4.26183
| 86>    C        5.75170        -4.18045        -5.62848
| 87>    C        6.78408        -4.68616        -6.39439
| 88>    C        7.78324        -5.45482        -5.80255
| 89>    F        8.76599        -5.92867        -6.56964
| 90>    F        4.69477        -3.93662        -3.54538
| 91>    H      -13.94684        -3.04132         0.23998
| 92>    H      -13.90935        -0.58773         0.63939
| 93>    H       -8.38873        -3.69508         5.07131
| 94>    H       -8.75674         3.19228        10.28327
| 95>    H       -6.10510         2.81619         9.94219
| 96>    H       -6.07369        -2.94821         4.71694
| 97>    H       -4.18581        -1.17002         6.35202
| 98>    H       -1.95860        -1.24419         5.91621
| 99>    H        2.16435        -1.27295         5.23280
|100>    H       -0.46253         0.29645         5.28057
|101>    H        0.67486         0.25791         3.92650
|102>    H        1.16966         1.35915         6.58514
|103>    H        2.30486         1.22787         5.39437
|104>    H       -0.16600        -1.41879         7.21284
|105>    H        1.40568        -0.65337         7.50007
|106>    H        0.93733        -3.49576         7.05082
|107>    H        2.40971        -2.79635         7.27232
|108>    H        3.13657        -2.56793         3.71564
|109>    H        3.30954        -3.73660         1.50096
|110>    H        2.10560        -5.92007         1.13565
|111>    H       -0.24564        -5.77195         1.84794
|112>    H       -2.55873        -5.12135         2.83616
|113>    H       -4.47382        -4.10915         3.96662
|114>    H        3.69981        -5.49517         3.98248
|115>    H        5.17069        -5.22806         1.31316
|116>    H        8.63888        -9.69770         8.01016
|117>    H       10.28708       -10.14539         5.92188
|118>    H        6.70249        -6.15531         0.29486
|119>    H        9.18610        -7.89159         0.71655
|120>    H        9.63566        -7.60195        -1.56612
|121>    H        4.97258        -3.58381        -6.07623
|122>    H        6.83022        -4.49391        -7.45474
|123> *
|124>
|125>                          ****END OF INPUT****

CARTESIAN COORDINATES (ANGSTROEM)
---------------------------------
  C     -9.680490   -2.454400    4.002630
  C    -10.233550   -1.144740    3.568510
  O     -9.825400   -0.046620    3.836440
  C    -11.336630   -1.496750    2.627670
  C    -11.357750   -2.882270    2.400870
  C    -10.283110   -3.540930    3.187920
  O     -9.957770   -4.700930    3.181720
  C    -12.299250   -3.426360    1.542090
  C    -13.221360   -2.601090    0.905880
  C    -13.199900   -1.237350    1.127590
  C    -12.255500   -0.682210    1.986740
  F    -12.260070    0.636360    2.178170
  F    -12.341300   -4.738710    1.308270
  C     -8.762250   -2.681190    4.957490
  C     -8.231720   -1.683800    5.850800
  N     -8.997580   -0.890140    6.561520
  C     -8.150400   -0.117870    7.288890
  C     -6.751340   -0.455160    7.008400
  C     -5.850130    0.405920    7.785600
  O     -4.636360    0.418820    7.800560
  C     -6.789100    1.256670    8.544080
  C     -8.185120    0.897370    8.212010
  N     -9.055350    1.670600    8.907970
  C     -8.306640    2.468080    9.626650
  C     -6.879630    2.265230    9.446100
  C     -6.785040   -1.477610    6.087450
  C     -5.753750   -2.198050    5.426910
  C     -4.440320   -1.949670    5.644970
  C     -3.327740   -2.590280    5.004890
  C     -2.060870   -2.082930    5.244860
  C     -0.939520   -2.629090    4.603780
  C      0.416480   -2.286900    4.638000
  C      1.085660   -1.233680    5.435820
  C      0.588720    0.182930    5.014760
  N      1.311780    1.286360    5.585710
  C      0.894890   -1.457760    6.962150
  N      1.418200   -2.703700    7.461130
  C      1.094060   -3.179160    3.728450
  C      2.380720   -3.240580    3.333390
  C      2.847970   -4.255040    2.353810
  C      1.781570   -5.173470    1.843260
  C      0.496200   -5.094010    2.243820
  C      0.098760   -4.102790    3.166530
  C     -1.129700   -3.752660    3.699460
  C     -2.424670   -4.276950    3.495770
  C     -3.485420   -3.708120    4.124970
  C      3.891620   -5.140860    2.980380
  C      4.989120   -5.552620    2.328630
  C      5.960120   -6.412950    2.924740
  N      5.909480   -6.775370    4.199390
  C      6.990830   -7.548790    4.406930
  C      7.789310   -7.699420    3.182030
  C      8.969710   -8.548010    3.432860
  O      9.836030   -8.878970    2.652390
  C      8.827220   -8.880980    4.858610
  C      7.609580   -8.255120    5.415540
  N      7.472980   -8.557080    6.725790
  C      8.508260   -9.315050    7.012810
  C      9.392050   -9.556050    5.895080
  C      7.135000   -6.971620    2.215710
  C      7.407780   -6.763550    0.838730
  C      8.473360   -7.283150    0.173920
  C      8.738120   -7.102400   -1.207740
  C      8.081580   -6.429400   -2.202440
  C      8.660360   -6.493360   -3.568500
  O      9.671510   -7.064640   -3.895570
  C      7.742400   -5.714190   -4.443960
  C      6.695530   -5.202690   -3.667970
  C      6.859730   -5.613220   -2.244730
  O      6.104460   -5.297840   -1.347800
  C      5.706310   -4.438150   -4.261830
  C      5.751700   -4.180450   -5.628480
  C      6.784080   -4.686160   -6.394390
  C      7.783240   -5.454820   -5.802550
  F      8.765990   -5.928670   -6.569640
  F      4.694770   -3.936620   -3.545380
  H    -13.946840   -3.041320    0.239980
  H    -13.909350   -0.587730    0.639390
  H     -8.388730   -3.695080    5.071310
  H     -8.756740    3.192280   10.283270
  H     -6.105100    2.816190    9.942190
  H     -6.073690   -2.948210    4.716940
  H     -4.185810   -1.170020    6.352020
  H     -1.958600   -1.244190    5.916210
  H      2.164350   -1.272950    5.232800
  H     -0.462530    0.296450    5.280570
  H      0.674860    0.257910    3.926500
  H      1.169660    1.359150    6.585140
  H      2.304860    1.227870    5.394370
  H     -0.166000   -1.418790    7.212840
  H      1.405680   -0.653370    7.500070
  H      0.937330   -3.495760    7.050820
  H      2.409710   -2.796350    7.272320
  H      3.136570   -2.567930    3.715640
  H      3.309540   -3.736600    1.500960
  H      2.105600   -5.920070    1.135650
  H     -0.245640   -5.771950    1.847940
  H     -2.558730   -5.121350    2.836160
  H     -4.473820   -4.109150    3.966620
  H      3.699810   -5.495170    3.982480
  H      5.170690   -5.228060    1.313160
  H      8.638880   -9.697700    8.010160
  H     10.287080  -10.145390    5.921880
  H      6.702490   -6.155310    0.294860
  H      9.186100   -7.891590    0.716550
  H      9.635660   -7.601950   -1.566120
  H      4.972580   -3.583810   -6.076230
  H      6.830220   -4.493910   -7.454740

 Total Charge           Charge          ....    0
 Multiplicity           Mult            ....    1
 Number of Electrons    NEL             ....  518
 Basis Dimension        Dim             .... 1224

ORBITAL ENERGIES
----------------

  NO   OCC          E(Eh)            E(eV)
   0   2.0000     -24.797746      -674.7810
   1   2.0000     -24.795813      -674.7284
   2   2.0000     -24.795801      -674.7281
   3   2.0000     -24.793949      -674.6777
   4   2.0000     -19.226251      -523.1729
   5   2.0000     -19.225897      -523.1632
   6   2.0000     -19.221750      -523.0504
   7   2.0000     -19.217683      -522.9397
   8   2.0000     -19.214545      -522.8544
   9   2.0000     -19.208300      -522.6844
  10   2.0000     -14.412513      -392.1844
  11   2.0000     -14.411445      -392.1554
  12   2.0000     -14.408683      -392.0802
  13   2.0000     -14.403438      -391.9375
  14   2.0000     -14.376004      -391.1910
  15   2.0000     -14.370309      -391.0360
  16   2.0000     -10.385449      -282.6024
  17   2.0000     -10.384320      -282.5717
  18   2.0000     -10.382602      -282.5250
  19   2.0000     -10.381777      -282.5025
  20   2.0000     -10.380647      -282.4718
  21   2.0000     -10.380125      -282.4576
  22   2.0000     -10.377855      -282.3958
  23   2.0000     -10.377502      -282.3862
  24   2.0000     -10.368901      -282.1521
  25   2.0000     -10.367837      -282.1232
  26   2.0000     -10.346901      -281.5535
  27   2.0000     -10.343136      -281.4510
  28   2.0000     -10.338429      -281.3230
  29   2.0000     -10.329046      -281.0676
  30   2.0000     -10.328389      -281.0498
  31   2.0000     -10.328125      -281.0426
  32   2.0000     -10.323341      -280.9124
  33   2.0000     -10.321557      -280.8639
  34   2.0000     -10.321444      -280.8608
  35   2.0000     -10.313134      -280.6347
  36   2.0000     -10.312952      -280.6297
  37   2.0000     -10.311774      -280.5976
  38   2.0000     -10.311276      -280.5841
  39   2.0000     -10.311015      -280.5770
  40   2.0000     -10.310589      -280.5654
  41   2.0000     -10.309808      -280.5441
  42   2.0000     -10.309324      -280.5310
  43   2.0000     -10.308821      -280.5173
  44   2.0000     -10.308145      -280.4989
  45   2.0000     -10.306543      -280.4553
  46   2.0000     -10.305576      -280.4290
  47   2.0000     -10.305038      -280.4143
  48   2.0000     -10.302579      -280.3474
  49   2.0000     -10.302126      -280.3351
  50   2.0000     -10.301534      -280.3190
  51   2.0000     -10.296834      -280.1911
  52   2.0000     -10.293277      -280.0943
  53   2.0000     -10.292713      -280.0790
  54   2.0000     -10.290568      -280.0206
  55   2.0000     -10.288932      -279.9761
  56   2.0000     -10.287185      -279.9285
  57   2.0000     -10.286711      -279.9156
  58   2.0000     -10.285794      -279.8907
  59   2.0000     -10.282810      -279.8095
  60   2.0000     -10.280904      -279.7576
  61   2.0000     -10.280676      -279.7514
  62   2.0000     -10.280238      -279.7395
  63   2.0000     -10.280070      -279.7349
  64   2.0000     -10.279457      -279.7183
  65   2.0000     -10.279406      -279.7169
  66   2.0000     -10.279311      -279.7143
  67   2.0000     -10.278800      -279.7004
  68   2.0000     -10.275974      -279.6235
  69   2.0000     -10.274245      -279.5764
  70   2.0000     -10.271687      -279.5068
  71   2.0000     -10.271480      -279.5012
  72   2.0000     -10.269388      -279.4442
  73   2.0000     -10.268947      -279.4323
  74   2.0000     -10.268928      -279.4317
  75   2.0000     -10.263062      -279.2721
  76   2.0000      -1.315646       -35.8006
  77   2.0000      -1.314197       -35.7611
  78   2.0000      -1.312555       -35.7164
  79   2.0000      -1.311836       -35.6969
  80   2.0000      -1.144124       -31.1332
  81   2.0000      -1.141280       -31.0558
  82   2.0000      -1.137750       -30.9597
  83   2.0000      -1.131950       -30.8019
  84   2.0000      -1.130932       -30.7742
  85   2.0000      -1.121883       -30.5280
  86   2.0000      -1.082150       -29.4468
  87   2.0000      -1.076971       -29.3059
  88   2.0000      -1.062777       -28.9196
  89   2.0000      -1.057982       -28.7891
  90   2.0000      -0.999481       -27.1973
  91   2.0000      -0.996216       -27.1084
  92   2.0000      -0.990563       -26.9546
  93   2.0000      -0.965861       -26.2824
  94   2.0000      -0.956113       -26.0172
  95   2.0000      -0.948644       -25.8139
  96   2.0000      -0.945195       -25.7201
  97   2.0000      -0.942519       -25.6473
  98   2.0000      -0.939569       -25.5670
  99   2.0000      -0.931265       -25.3410
 100   2.0000      -0.927153       -25.2291
 101   2.0000      -0.922264       -25.0961
 102   2.0000      -0.905749       -24.6467
 103   2.0000      -0.892656       -24.2904
 104   2.0000      -0.888225       -24.1698
 105   2.0000      -0.882699       -24.0194
 106   2.0000      -0.872812       -23.7504
 107   2.0000      -0.860932       -23.4272
 108   2.0000      -0.860418       -23.4132
 109   2.0000      -0.858290       -23.3553
 110   2.0000      -0.856017       -23.2934
 111   2.0000      -0.845971       -23.0200
 112   2.0000      -0.839022       -22.8309
 113   2.0000      -0.836020       -22.7493
 114   2.0000      -0.827558       -22.5190
 115   2.0000      -0.814233       -22.1564
 116   2.0000      -0.807302       -21.9678
 117   2.0000      -0.791496       -21.5377
 118   2.0000      -0.771864       -21.0035
 119   2.0000      -0.767595       -20.8873
 120   2.0000      -0.763544       -20.7771
 121   2.0000      -0.760588       -20.6966
 122   2.0000      -0.760311       -20.6891
 123   2.0000      -0.755451       -20.5569
 124   2.0000      -0.750975       -20.4351
 125   2.0000      -0.734403       -19.9841
 126   2.0000      -0.722394       -19.6573
 127   2.0000      -0.721194       -19.6247
 128   2.0000      -0.716269       -19.4907
 129   2.0000      -0.711718       -19.3668
 130   2.0000      -0.700631       -19.0651
 131   2.0000      -0.692304       -18.8385
 132   2.0000      -0.692088       -18.8327
 133   2.0000      -0.683274       -18.5928
 134   2.0000      -0.680080       -18.5059
 135   2.0000      -0.677465       -18.4348
 136   2.0000      -0.670277       -18.2392
 137   2.0000      -0.665104       -18.0984
 138   2.0000      -0.658863       -17.9286
 139   2.0000      -0.655220       -17.8294
 140   2.0000      -0.651063       -17.7163
 141   2.0000      -0.646593       -17.5947
 142   2.0000      -0.644033       -17.5250
 143   2.0000      -0.634103       -17.2548
 144   2.0000      -0.632892       -17.2219
 145   2.0000      -0.632151       -17.2017
 146   2.0000      -0.628971       -17.1152
 147   2.0000      -0.625230       -17.0134
 148   2.0000      -0.620371       -16.8811
 149   2.0000      -0.615191       -16.7402
 150   2.0000      -0.613626       -16.6976
 151   2.0000      -0.604764       -16.4565
 152   2.0000      -0.596968       -16.2443
 153   2.0000      -0.595385       -16.2012
 154   2.0000      -0.592152       -16.1133
 155   2.0000      -0.590225       -16.0608
 156   2.0000      -0.587935       -15.9985
 157   2.0000      -0.581765       -15.8306
 158   2.0000      -0.580983       -15.8094
 159   2.0000      -0.578957       -15.7542
 160   2.0000      -0.578737       -15.7482
 161   2.0000      -0.572289       -15.5728
 162   2.0000      -0.570866       -15.5341
 163   2.0000      -0.568807       -15.4780
 164   2.0000      -0.563435       -15.3318
 165   2.0000      -0.562663       -15.3108
 166   2.0000      -0.561410       -15.2767
 167   2.0000      -0.561111       -15.2686
 168   2.0000      -0.558214       -15.1898
 169   2.0000      -0.552186       -15.0258
 170   2.0000      -0.550459       -14.9788
 171   2.0000      -0.548024       -14.9125
 172   2.0000      -0.544746       -14.8233
 173   2.0000      -0.540557       -14.7093
 174   2.0000      -0.538483       -14.6529
 175   2.0000      -0.536527       -14.5996
 176   2.0000      -0.535820       -14.5804
 177   2.0000      -0.534071       -14.5328
 178   2.0000      -0.531386       -14.4597
 179   2.0000      -0.529533       -14.4093
 180   2.0000      -0.527662       -14.3584
 181   2.0000      -0.527315       -14.3490
 182   2.0000      -0.525799       -14.3077
 183   2.0000      -0.525293       -14.2940
 184   2.0000      -0.524945       -14.2845
 185   2.0000      -0.523744       -14.2518
 186   2.0000      -0.519386       -14.1332
 187   2.0000      -0.517696       -14.0872
 188   2.0000      -0.516746       -14.0614
 189   2.0000      -0.514417       -13.9980
 190   2.0000      -0.511444       -13.9171
 191   2.0000      -0.509429       -13.8623
 192   2.0000      -0.508297       -13.8315
 193   2.0000      -0.505159       -13.7461
 194   2.0000      -0.504280       -13.7222
 195   2.0000      -0.497871       -13.5478
 196   2.0000      -0.494567       -13.4579
 197   2.0000      -0.492176       -13.3928
 198   2.0000      -0.488309       -13.2876
 199   2.0000      -0.486407       -13.2358
 200   2.0000      -0.481789       -13.1102
 201   2.0000      -0.479512       -13.0482
 202   2.0000      -0.478624       -13.0240
 203   2.0000      -0.478425       -13.0186
 204   2.0000      -0.478186       -13.0121
 205   2.0000      -0.474821       -12.9205
 206   2.0000      -0.473976       -12.8975
 207   2.0000      -0.472868       -12.8674
 208   2.0000      -0.471961       -12.8427
 209   2.0000      -0.469320       -12.7709
 210   2.0000      -0.466543       -12.6953
 211   2.0000      -0.463806       -12.6208
 212   2.0000      -0.462731       -12.5916
 213   2.0000      -0.462492       -12.5850
 214   2.0000      -0.461303       -12.5527
 215   2.0000      -0.458738       -12.4829
 216   2.0000      -0.449913       -12.2428
 217   2.0000      -0.449800       -12.2397
 218   2.0000      -0.448942       -12.2163
 219   2.0000      -0.446940       -12.1618
 220   2.0000      -0.442058       -12.0290
 221   2.0000      -0.439759       -11.9665
 222   2.0000      -0.437108       -11.8943
 223   2.0000      -0.431916       -11.7530
 224   2.0000      -0.427592       -11.6354
 225   2.0000      -0.424905       -11.5623
 226   2.0000      -0.414233       -11.2718
 227   2.0000      -0.404036       -10.9944
 228   2.0000      -0.390997       -10.6396
 229   2.0000      -0.389270       -10.5926
 230   2.0000      -0.388622       -10.5749
 231   2.0000      -0.379987       -10.3400
 232   2.0000      -0.374335       -10.1862
 233   2.0000      -0.367705       -10.0058
 234   2.0000      -0.364038        -9.9060
 235   2.0000      -0.363616        -9.8945
 236   2.0000      -0.360837        -9.8189
 237   2.0000      -0.358544        -9.7565
 238   2.0000      -0.358197        -9.7470
 239   2.0000      -0.357273        -9.7219
 240   2.0000      -0.356868        -9.7109
 241   2.0000      -0.351081        -9.5534
 242   2.0000      -0.340713        -9.2713
 243   2.0000      -0.337490        -9.1836
 244   2.0000      -0.335751        -9.1363
 245   2.0000      -0.334366        -9.0986
 246   2.0000      -0.331261        -9.0141
 247   2.0000      -0.329623        -8.9695
 248   2.0000      -0.328185        -8.9304
 249   2.0000      -0.327741        -8.9183
 250   2.0000      -0.327415        -8.9094
 251   2.0000      -0.325953        -8.8696
 252   2.0000      -0.318865        -8.6768
 253   2.0000      -0.310457        -8.4480
 254   2.0000      -0.305807        -8.3214
 255   2.0000      -0.289556        -7.8792
 256   2.0000      -0.284675        -7.7464
 257   2.0000      -0.273328        -7.4376
 258   2.0000      -0.224908        -6.1201
 259   0.0000      -0.122382        -3.3302
 260   0.0000      -0.113744        -3.0951
 261   0.0000      -0.082736        -2.2514
 262   0.0000      -0.079169        -2.1543
 263   0.0000      -0.058603        -1.5947

MULLIKEN ATOMIC CHARGES
-----------------------
   0 C :   -0.114396
   1 C :    0.176918
   2 O :   -0.093063
   3 C :   -0.071580
   4 C :   -0.043151
   5 C :    0.144910
   6 O :   -0.113057
   7 C :    0.214856
   8 C :   -0.032518
   9 C :   -0.027884
  10 C :    0.217597
  11 F :   -0.154826
  12 F :   -0.157657
  13 C :   -0.043569
  14 C :    0.025958
  15 N :   -0.007579
  16 C :    0.074874
  17 C :   -0.166613
  18 C :    0.222077
  19 O :   -0.148177
  20 C :   -0.005840
  21 C :   -0.031675
  22 N :   -0.047914
  23 C :    0.089364
  24 C :   -0.099093
  25 C :    0.067612
  26 C :   -0.030701
  27 C :    0.005953
  28 C :    0.123655
  29 C :   -0.109077
  30 C :    0.059610
  31 C :   -0.025403
  32 C :   -0.052872
  33 C :    0.131584
  34 N :   -0.205114
  35 C :    0.137244
  36 N :   -0.217299
  37 C :    0.112272
  38 C :   -0.146586
  39 C :    0.132700
  40 C :   -0.036213
  41 C :    0.029809
  42 C :    0.010488
  43 C :    0.035568
  44 C :   -0.000948
  45 C :   -0.010370
  46 C :   -0.003467
  47 C :   -0.036530
  48 C :    0.040777
  49 N :   -0.040756
  50 C :    0.076263
  51 C :   -0.151445
  52 C :    0.218811
  53 O :   -0.135670
  54 C :   -0.016635
  55 C :   -0.036859
  56 N :   -0.054791
  57 C :    0.094672
  58 C :   -0.093424
  59 C :    0.046252
  60 C :    0.009394
  61 C :    0.000694
  62 C :    0.030379
  63 C :   -0.161383
  64 C :    0.135780
  65 O :   -0.123565
  66 C :   -0.030126
  67 C :   -0.049861
  68 C :    0.192755
  69 O :   -0.159776
  70 C :    0.207952
  71 C :   -0.032500
  72 C :   -0.033949
  73 C :    0.210115
  74 F :   -0.158138
  75 F :   -0.164994
  76 H :    0.014324
  77 H :    0.014937
  78 H :    0.048750
  79 H :    0.010815
  80 H :   -0.004158
  81 H :   -0.028742
  82 H :   -0.002642
  83 H :   -0.010088
  84 H :   -0.056776
  85 H :   -0.001398
  86 H :    0.004341
  87 H :    0.096275
  88 H :    0.087319
  89 H :    0.000703
  90 H :   -0.021015
  91 H :    0.097581
  92 H :    0.084994
  93 H :   -0.001426
  94 H :    0.046055
  95 H :   -0.003696
  96 H :   -0.029884
  97 H :   -0.034457
  98 H :   -0.029180
  99 H :    0.039257
 100 H :    0.014155
 101 H :    0.010939
 102 H :   -0.003249
 103 H :   -0.005050
 104 H :    0.009195
 105 H :    0.027728
 106 H :    0.011544
 107 H :    0.012997
Sum of atomic charges:   -0.0000000

LOEWDIN ATOMIC CHARGES
----------------------
   0 C :   -0.076347
   1 C :    0.080002
   2 O :   -0.098146
   3 C :   -0.064563
   4 C :   -0.070661
   5 C :    0.080527
   6 O :   -0.117862
   7 C :    0.096394
   8 C :   -0.020188
   9 C :   -0.017284
  10 C :    0.095819
  11 F :   -0.037981
  12 F :   -0.040462
  13 C :    0.059809
  14 C :    0.061198
  15 N :   -0.071509
  16 C :    0.053146
  17 C :   -0.065811
  18 C :    0.071528
  19 O :   -0.145596
  20 C :   -0.036479
  21 C :    0.029039
  22 N :   -0.092344
  23 C :    0.075878
  24 C :   -0.031238
  25 C :   -0.014632
  26 C :   -0.055467
  27 C :    0.034385
  28 C :   -0.028873
  29 C :    0.003511
  30 C :   -0.021949
  31 C :   -0.027219
  32 C :   -0.069143
  33 C :    0.023766
  34 N :   -0.101321
  35 C :    0.020292
  36 N :   -0.106871
  37 C :   -0.014825
  38 C :    0.061798
  39 C :   -0.030804
  40 C :   -0.029604
  41 C :   -0.009212
  42 C :   -0.037436
  43 C :   -0.025451
  44 C :   -0.005861
  45 C :   -0.021815
  46 C :    0.086237
  47 C :   -0.066326
  48 C :    0.080770
  49 N :   -0.109181
  50 C :    0.047528
  51 C :   -0.021573
  52 C :    0.067064
  53 O :   -0.136796
  54 C :   -0.040251
  55 C :    0.023443
  56 N :   -0.096053
  57 C :    0.077673
  58 C :   -0.035679
  59 C :   -0.039055
  60 C :    0.029440
  61 C :   -0.023778
  62 C :    0.084241
  63 C :   -0.128650
  64 C :    0.078946
  65 O :   -0.128021
  66 C :   -0.066482
  67 C :   -0.065386
  68 C :    0.088144
  69 O :   -0.144727
  70 C :    0.093909
  71 C :   -0.022498
  72 C :   -0.021018
  73 C :    0.094651
  74 F :   -0.041196
  75 F :   -0.047314
  76 H :    0.046794
  77 H :    0.047055
  78 H :    0.052985
  79 H :    0.023951
  80 H :    0.034556
  81 H :    0.022910
  82 H :    0.034148
  83 H :    0.029039
  84 H :    0.011156
  85 H :    0.020706
  86 H :    0.019385
  87 H :    0.050240
  88 H :    0.050521
  89 H :    0.019381
  90 H :    0.008581
  91 H :    0.052130
  92 H :    0.049475
  93 H :    0.030586
  94 H :    0.061835
  95 H :    0.028085
  96 H :    0.032714
  97 H :    0.028497
  98 H :    0.025761
  99 H :    0.041308
 100 H :    0.038074
 101 H :    0.024673
 102 H :    0.035313
 103 H :    0.026733
 104 H :    0.035120
 105 H :    0.048403
 106 H :    0.045674
 107 H :    0.046012

  Mayer bond orders larger than 0.100000
B(  0-C ,  1-C ) :   0.9240 B(  0-C ,  5-C ) :   0.9445 B(  0-C , 13-C ) :   1.8467
B(  1-C ,  2-O ) :   2.3146 B(  1-C ,  3-C ) :   0.8930 B(  3-C ,  4-C ) :   1.3772
B(  3-C , 10-C ) :   1.3167 B(  4-C ,  5-C ) :   0.8883 B(  4-C ,  7-C ) :   1.3006
B(  5-C ,  6-O ) :   2.3153 B(  7-C ,  8-C ) :   1.3562 B(  7-C , 12-F ) :   1.2028
B(  8-C ,  9-C ) :   1.3390 B(  8-C , 76-H ) :   0.9913 B(  9-C , 10-C ) :   1.3531
B(  9-C , 77-H ) :   0.9907 B( 10-C , 11-F ) :   1.2034 B( 13-C , 14-C ) :   0.9735
B( 13-C , 78-H ) :   0.9324 B( 14-C , 15-N ) :   1.6507 B( 14-C , 16-C ) :   0.1158
B( 14-C , 25-C ) :   1.0153 B( 15-N , 16-C ) :   1.2928 B( 16-C , 17-C ) :   1.0629
B( 16-C , 21-C ) :   1.4618 B( 17-C , 18-C ) :   0.9066 B( 17-C , 25-C ) :   1.5317
B( 18-C , 19-O ) :   2.1753 B( 18-C , 20-C ) :   0.9285 B( 19-O , 82-H ) :   0.1076
B( 20-C , 21-C ) :   1.0628 B( 20-C , 24-C ) :   1.6208 B( 21-C , 22-N ) :   1.2977
B( 22-N , 23-C ) :   1.6755 B( 23-C , 24-C ) :   1.0537 B( 23-C , 79-H ) :   0.9887
B( 24-C , 80-H ) :   1.0114 B( 25-C , 26-C ) :   1.1349 B( 26-C , 27-C ) :   1.6198
B( 26-C , 81-H ) :   0.9543 B( 27-C , 28-C ) :   1.0845 B( 27-C , 82-H ) :   0.9720
B( 28-C , 29-C ) :   1.4875 B( 28-C , 45-C ) :   1.1205 B( 29-C , 30-C ) :   1.1126
B( 29-C , 83-H ) :   1.0027 B( 30-C , 31-C ) :   1.4440 B( 30-C , 43-C ) :   1.1271
B( 31-C , 32-C ) :   0.9964 B( 31-C , 37-C ) :   1.1152 B( 32-C , 33-C ) :   0.9962
B( 32-C , 35-C ) :   0.9920 B( 32-C , 84-H ) :   0.8743 B( 33-C , 34-N ) :   1.1280
B( 33-C , 85-H ) :   0.9458 B( 33-C , 86-H ) :   0.9479 B( 34-N , 87-H ) :   0.9818
B( 34-N , 88-H ) :   0.9789 B( 35-C , 36-N ) :   1.1242 B( 35-C , 89-H ) :   0.9512
B( 35-C , 90-H ) :   0.9379 B( 36-N , 91-H ) :   0.9800 B( 36-N , 92-H ) :   0.9774
B( 37-C , 38-C ) :   1.6520 B( 37-C , 42-C ) :   1.0399 B( 38-C , 39-C ) :   0.9551
B( 38-C , 93-H ) :   0.9805 B( 39-C , 40-C ) :   0.9858 B( 39-C , 46-C ) :   0.9371
B( 39-C , 94-H ) :   0.8715 B( 40-C , 41-C ) :   1.6974 B( 40-C , 95-H ) :   0.9696
B( 41-C , 42-C ) :   1.1432 B( 41-C , 96-H ) :   0.9885 B( 42-C , 43-C ) :   1.4349
B( 43-C , 44-C ) :   1.1427 B( 44-C , 45-C ) :   1.6164 B( 44-C , 97-H ) :   0.9912
B( 45-C , 98-H ) :   0.9850 B( 46-C , 47-C ) :   1.7333 B( 46-C , 99-H ) :   0.9702
B( 47-C , 48-C ) :   1.1225 B( 47-C ,100-H ) :   0.9583 B( 48-C , 49-N ) :   1.5978
B( 48-C , 50-C ) :   0.1119 B( 48-C , 59-C ) :   1.0054 B( 49-N , 50-C ) :   1.3621
B( 50-C , 51-C ) :   1.0558 B( 50-C , 55-C ) :   1.3906 B( 51-C , 52-C ) :   0.8906
B( 51-C , 59-C ) :   1.5329 B( 52-C , 53-O ) :   2.2026 B( 52-C , 54-C ) :   0.9289
B( 54-C , 55-C ) :   1.0693 B( 54-C , 58-C ) :   1.5905 B( 55-C , 56-N ) :   1.3293
B( 56-N , 57-C ) :   1.6380 B( 57-C , 58-C ) :   1.0813 B( 57-C ,101-H ) :   0.9897
B( 58-C ,102-H ) :   1.0113 B( 59-C , 60-C ) :   1.1425 B( 60-C , 61-C ) :   1.6296
B( 60-C ,103-H ) :   0.9265 B( 61-C , 62-C ) :   1.1612 B( 61-C ,104-H ) :   0.9621
B( 62-C , 63-C ) :   1.6333 B( 62-C ,105-H ) :   0.9451 B( 63-C , 64-C ) :   0.9781
B( 63-C , 68-C ) :   0.9686 B( 64-C , 65-O ) :   2.2828 B( 64-C , 66-C ) :   0.8844
B( 66-C , 67-C ) :   1.3790 B( 66-C , 73-C ) :   1.3051 B( 67-C , 68-C ) :   0.9298
B( 67-C , 70-C ) :   1.3072 B( 68-C , 69-O ) :   2.1431 B( 69-O ,103-H ) :   0.1124
B( 70-C , 71-C ) :   1.3480 B( 70-C , 75-F ) :   1.1941 B( 71-C , 72-C ) :   1.3427
B( 71-C ,106-H ) :   0.9914 B( 72-C , 73-C ) :   1.3475 B( 72-C ,107-H ) :   0.9908
B( 73-C , 74-F ) :   1.2038

-----------------------------------------------------------------------------
         ABSORPTION SPECTRUM VIA TRANSITION ELECTRIC DIPOLE MOMENTS
-----------------------------------------------------------------------------
State   Energy  Wavelength   fosc         T2         TX        TY        TZ
        (cm-1)    (nm)                  (au**2)     (au)      (au)      (au)
-----------------------------------------------------------------------------
   0   10039.4    996.1   0.189872817   6.22632  -2.26521   1.01725   0.24566
   1   11268.1    887.5   0.024292006   0.70972   0.60838  -0.13755  -0.56629
   2   13943.4    717.2   0.090447703   2.13552  -0.25740   1.19546   0.80009
   3   18009.8    555.3   0.009565224   0.17485   0.14756  -0.25115  -0.30000
   4   19005.4    526.2   0.162994931   2.82340   0.06112  -0.49766   1.60375
   5   19364.4    516.4   0.066514826   1.13081  -0.87101   0.58993   0.15535
   6   21408.7    467.1   0.001571900   0.02417   0.10056  -0.01937   0.11698
   7   21531.3    464.4   0.000974941   0.01491   0.04735  -0.09303   0.06333
   8   22324.0    447.9   0.362781140   5.34993  -1.98199   1.03586   0.59045
   9   23086.4    433.2   0.035394157   0.50472  -0.54533   0.13557   0.43469
  10   23382.7    427.7   0.040519391   0.57048   0.49206  -0.53743   0.19880
  11   23627.7    423.2   0.134554298   1.87479  -0.92789   1.00429   0.07211
  12   23747.1    421.1   0.278253223   3.85749   1.45867  -0.48078   1.22418
  13   24096.7    415.0   0.158981732   2.17203  -0.52007   0.80209  -1.12170
  14   24907.5    401.5   0.078815123   1.04173  -0.82542   0.57708   0.16551
  15   25042.1    399.3   0.320839737   4.21787  -1.50588   0.99771  -0.97712
  16   25274.9    395.6   0.032064497   0.41765   0.58185  -0.26655   0.08974
  17   25505.0    392.1   0.384559275   4.96378   1.60400   0.03337  -1.54591
  18   25533.7    391.6   0.019396338   0.25008   0.13451   0.14675  -0.45875
  19   25688.8    389.3   0.346199138   4.43668   1.21656  -0.47750  -1.65186
  20   25828.0    387.2   0.045684380   0.58231  -0.54937   0.09896   0.52030
  21   26316.7    380.0   0.000316154   0.00395  -0.05953   0.01992  -0.00385
  22   26887.2    371.9   0.551356512   6.75092   0.07965   0.58767  -2.52967
  23   26972.4    370.7   0.013382876   0.16334   0.05700   0.07149   0.39368
  24   27301.2    366.3   0.006348159   0.07655  -0.06340   0.03637   0.26685
  25   27377.9    365.3   0.002130703   0.02562   0.04814   0.13101  -0.07836
  26   27449.8    364.3   0.006201380   0.07437  -0.09883   0.12507  -0.22128
  27   28026.0    356.8   0.405690606   4.76551   0.00999  -1.35488  -1.71164
  28   28781.3    347.4   0.025349937   0.28996   0.21548  -0.46225  -0.17279
  29   29364.7    340.5   0.013170189   0.14765  -0.00357   0.37779   0.07010
  30   29842.1    335.1   0.000223291   0.00246  -0.02408   0.00642   0.04292
  31   29932.2    334.1   0.043112373   0.47418   0.55584  -0.14034  -0.38148
  32   29988.5    333.5   0.080033783   0.87861  -0.36064   0.51647   0.69412
  33   30214.0    331.0   0.004304799   0.04691   0.15884  -0.12759  -0.07345
  34   30749.7    325.2   0.000590787   0.00633  -0.05515   0.05615  -0.01143
  35   30765.0    325.0   0.054813968   0.58656  -0.51266   0.49821   0.27482
  36   31186.0    320.7   0.074446669   0.78589  -0.34652  -0.43490  -0.69042
  37   31222.2    320.3   0.033183098   0.34989  -0.37266   0.26799   0.37309
  38   31382.3    318.7   0.003619706   0.03797   0.12266  -0.06334  -0.13753
  39   31645.7    316.0   0.016479111   0.17143  -0.22072   0.34287  -0.07180
  40   31973.4    312.8   0.465531512   4.79332   1.69079  -1.16392   0.76147
  41   32382.5    308.8   0.048424992   0.49231   0.22340   0.04181   0.66382
  42   32410.1    308.5   0.013681577   0.13897   0.13993  -0.31681  -0.13794
  43   32653.0    306.3   0.222318879   2.24145  -0.70879   0.56280   1.19261
  44   32752.1    305.3   0.008555701   0.08600  -0.21031  -0.08058   0.18781
  45   33006.0    303.0   0.028467970   0.28395   0.19156   0.21655   0.44761
  46   33083.4    302.3   0.000693977   0.00691   0.00397   0.07712  -0.03070
  47   33134.4    301.8   0.004464397   0.04436  -0.13846  -0.10934   0.11502
  48   33489.0    298.6   0.071784165   0.70567   0.04050  -0.49460  -0.67779
  49   33717.2    296.6   0.009607496   0.09381  -0.28145  -0.02890  -0.11730
  50   33914.9    294.9   0.109054570   1.05859  -0.95351  -0.00445  -0.38650
  51   34030.0    293.9   0.074074353   0.71661  -0.50019   0.09091  -0.67687
  52   34135.2    293.0   0.001658279   0.01599  -0.10120   0.05008  -0.05696
  53   34210.0    292.3   0.127813055   1.22998   0.96742   0.52773  -0.12479
  54   34355.1    291.1   0.002471468   0.02368   0.05985   0.01414   0.14107
  55   34584.4    289.1   0.022550893   0.21466   0.31830   0.18771   0.27949
  56   35533.6    281.4   0.091208565   0.84503   0.91458  -0.08940   0.02402
  57   35930.5    278.3   0.039446672   0.36143  -0.59754  -0.02077   0.06278
  58   36127.2    276.8   0.061542555   0.56081   0.70814  -0.02562   0.24227
  59   36397.8    274.7   0.031814243   0.28775   0.29910  -0.32477   0.30466
  60   36505.0    273.9   0.012987998   0.11713  -0.09851   0.08630   0.31619
  61   36601.8    273.2   0.002453362   0.02207  -0.14350   0.02203  -0.03147
  62   36674.9    272.7   0.050465054   0.45300   0.43438   0.27628   0.43358
  63   37089.7    269.6   0.225824020   2.00444  -1.26024   0.59076  -0.25931
  64   37161.3    269.1   0.123146021   1.09095   0.58543   0.37018   0.78179
  65   37266.9    268.3   0.007507327   0.06632   0.15840  -0.05438   0.19563
  66   37558.8    266.2   0.000074479   0.00065   0.02274   0.00902   0.00736
  67   38070.7    262.7   0.002448699   0.02117  -0.11125   0.07163   0.06055
  68   38137.7    262.2   0.005944753   0.05132  -0.20844  -0.06614  -0.05910
  69   38209.9    261.7   0.007361860   0.06343  -0.03814   0.23698   0.07626
  70   38520.7    259.6   0.010093800   0.08627  -0.28728   0.00365  -0.06099
  71   38592.5    259.1   0.144191909   1.23002  -1.07295  -0.15254  -0.23567
  72   38751.9    258.1   0.020580520   0.17484  -0.25514  -0.25102  -0.21618
  73   38848.8    257.4   0.011469842   0.09720   0.12260  -0.05390  -0.28153
  74   38936.2    256.8   0.012963933   0.10961   0.13539   0.14180   0.26679
  75   39140.3    255.5   0.163338027   1.37385   0.38345  -0.55513   0.95846
  76   39167.9    255.3   0.007964904   0.06695   0.05413  -0.17632   0.18145
  77   39178.3    255.2   0.042405249   0.35633   0.29148  -0.18415   0.48730
  78   39435.3    253.6   0.042615443   0.35576  -0.47471  -0.03637  -0.35929
  79   39504.7    253.1   0.192480071   1.60403   1.03054  -0.04181   0.73502
  80   39792.3    251.3   0.008673399   0.07176  -0.20902   0.08200  -0.14610
  81   39908.5    250.6   0.000442300   0.00365   0.04585  -0.02452   0.03073
  82   39952.6    250.3   0.001090010   0.00898  -0.06417   0.03194   0.06200
  83   40204.9    248.7   0.177415735   1.45274   0.80547  -0.71910  -0.53559

FINAL SINGLE POINT ENERGY     -3480.345204568427

DIPOLE MOMENT
-------------
                                X             Y             Z
Electronic contribution:    -35.48798     -14.71639     -43.91252
Nuclear contribution   :     35.23123      14.96877      42.38382
                        -----------------------------------------
Total Dipole Moment    :     -0.25675       0.25238      -1.52869
                        -----------------------------------------
Magnitude (a.u.)       :      1.57051
Magnitude (Debye)      :      3.99193

Rotational constants in cm-1:     0.001072     0.000239     0.000213
Rotational constants in MHz :    32.135877     7.160946     6.379704

                             ****ORCA TERMINATED NORMALLY****
TOTAL RUN TIME: 0 days 0 hours 20 minutes 51 seconds 912 msec
