                         Program Version 4.2.0 -  RELEASE  -
|  1> # ORCA input file
|  2> # SCF done       -200.523601951851          0.000964561242
|  3> ! CAM-B3LYP def2-SVP def2/J RIJCOSX Grid4 TightSCF
|  4> %maxcore 5000
|  5> %tddft
|  6>     Mode sTDDFT
|  7>     Ethresh 5.0
|  8>     maxcore 5000
|  9> end
| 10>
| 11> %pal
| 12>   nprocs 6
| 13>   end
| 14> * xyz 0 1
| 15>    C       -5.72833        -0.69427        -3.07841
| 16>    C       -5.53425        -1.30563        -4.38852
| 17>    O       -5.54435        -2.48933        -4.66216
| 18>    C       -5.31984        -0.17668        -5.33366
| 19>    C       -5.37423         1.04033        -4.63725
| 20>    C       -5.63258         0.77483        -3.19231
| 21>    O       -5.74155         1.58117        -2.30136
| 22>    C       -5.19850         2.23050        -5.31974
| 23>    C       -4.96929         2.21890        -6.69398
| 24>    C       -4.91705         1.02116        -7.37883
| 25>    C       -5.09256        -0.18127        -6.69854
| 26>    F       -5.03699        -1.32330        -7.38664
| 27>    F       -5.24379         3.40405        -4.68771
| 28>    C       -5.97272        -1.30143        -1.88020
| 29>    C       -6.09897        -2.66532        -1.56814
| 30>    C       -6.36722        -3.12705        -0.27557
| 31>    C       -6.44594        -4.50532        -0.21489
| 32>    C       -6.23132        -5.11191        -1.47808
| 33>    S       -5.94280        -3.98832        -2.72368
| 34>    C       -6.32933        -6.51457        -1.31745
| 35>    C       -6.60809        -6.79453         0.03846
| 36>    C       -6.68729        -5.54395         0.77388
| 37>    C       -6.93103        -5.38327         2.10623
| 38>    C       -7.14843        -6.47911         2.96842
| 39>    N       -7.32791        -7.36419         3.67492
| 40>    C       -6.97989        -4.10947         2.71116
| 41>    N       -7.01762        -3.07466         3.20331
| 42>    C       -6.72448        -8.15277         0.29483
| 43>    C       -6.53219        -8.91679        -0.85146
| 44>    S       -6.20308        -7.93044        -2.26524
| 45>    C       -6.57677       -10.33428        -0.93953
| 46>    C       -6.32460       -11.01180        -2.15279
| 47>    C       -6.34893       -12.44082        -2.25715
| 48>    N       -6.09131       -13.01893        -3.44747
| 49>    C       -5.82747       -12.28167        -4.47674
| 50>    C       -5.80442       -10.86490        -4.37357
| 51>    N       -6.04594       -10.27639        -3.24753
| 52>    F       -5.53382       -10.10697        -5.42893
| 53>    F       -5.57857       -12.88871        -5.63106
| 54>    C       -6.63192       -13.27905        -1.15667
| 55>    C       -6.89693       -12.60836         0.06131
| 56>    C       -6.86810       -11.16668         0.16793
| 57>    N       -7.14708       -10.76659         1.40994
| 58>    S       -7.41449       -12.04209         2.33933
| 59>    N       -7.19428       -13.17622         1.23142
| 60>    C       -6.63915       -14.69451        -1.27884
| 61>    C       -6.90379       -15.61216        -0.26734
| 62>    C       -6.81529       -16.92159        -0.71636
| 63>    C       -6.48065       -17.00608        -2.08475
| 64>    S       -6.28078       -15.47024        -2.81017
| 65>    C       -6.40514       -18.37194        -2.43702
| 66>    C       -6.69022       -19.15874        -1.29407
| 67>    C       -6.96547       -18.26606        -0.17886
| 68>    C       -7.30165       -18.59740         1.09963
| 69>    C       -7.44801       -19.92885         1.54895
| 70>    N       -7.58445       -20.99277         1.95226
| 71>    C       -7.54160       -17.61336         2.08407
| 72>    N       -7.73519       -16.82139         2.89014
| 73>    C       -6.62073       -20.52256        -1.54131
| 74>    C       -6.28848       -20.79722        -2.86364
| 75>    S       -6.06555       -19.31651        -3.80621
| 76>    C       -6.10215       -22.01179        -3.55204
| 77>    C       -6.15248       -23.30661        -3.12849
| 78>    C       -5.89827       -24.38464        -4.11154
| 79>    O       -5.65905       -24.24377        -5.28663
| 80>    C       -5.99941       -25.65752        -3.34933
| 81>    C       -6.29380       -25.37418        -2.00838
| 82>    C       -6.40694       -23.90045        -1.80645
| 83>    O       -6.65304       -23.34479        -0.76107
| 84>    C       -6.43247       -26.41004        -1.10058
| 85>    C       -6.27974       -27.72885        -1.52118
| 86>    C       -5.98973       -28.00759        -2.84241
| 87>    C       -5.84892       -26.97037        -3.76045
| 88>    F       -5.56763       -27.27024        -5.02992
| 89>    F       -6.71109       -26.17556         0.18188
| 90>    H       -4.83467         3.15662        -7.20974
| 91>    H       -4.74081         0.99974        -8.44276
| 92>    H       -6.08937        -0.62470        -1.03794
| 93>    H       -6.49404        -2.45939         0.55805
| 94>    H       -6.93576        -8.59955         1.24866
| 95>    H       -7.14249       -15.30150         0.73290
| 96>    H       -6.79268       -21.30298        -0.81987
| 97>    H       -5.86956       -21.90624        -4.60974
| 98>    H       -6.39130       -28.52372        -0.80066
| 99>    H       -5.86871       -29.02524        -3.17902
|100> *
|101>
|102>                          ****END OF INPUT****

CARTESIAN COORDINATES (ANGSTROEM)
---------------------------------
  C     -5.728330   -0.694270   -3.078410
  C     -5.534250   -1.305630   -4.388520
  O     -5.544350   -2.489330   -4.662160
  C     -5.319840   -0.176680   -5.333660
  C     -5.374230    1.040330   -4.637250
  C     -5.632580    0.774830   -3.192310
  O     -5.741550    1.581170   -2.301360
  C     -5.198500    2.230500   -5.319740
  C     -4.969290    2.218900   -6.693980
  C     -4.917050    1.021160   -7.378830
  C     -5.092560   -0.181270   -6.698540
  F     -5.036990   -1.323300   -7.386640
  F     -5.243790    3.404050   -4.687710
  C     -5.972720   -1.301430   -1.880200
  C     -6.098970   -2.665320   -1.568140
  C     -6.367220   -3.127050   -0.275570
  C     -6.445940   -4.505320   -0.214890
  C     -6.231320   -5.111910   -1.478080
  S     -5.942800   -3.988320   -2.723680
  C     -6.329330   -6.514570   -1.317450
  C     -6.608090   -6.794530    0.038460
  C     -6.687290   -5.543950    0.773880
  C     -6.931030   -5.383270    2.106230
  C     -7.148430   -6.479110    2.968420
  N     -7.327910   -7.364190    3.674920
  C     -6.979890   -4.109470    2.711160
  N     -7.017620   -3.074660    3.203310
  C     -6.724480   -8.152770    0.294830
  C     -6.532190   -8.916790   -0.851460
  S     -6.203080   -7.930440   -2.265240
  C     -6.576770  -10.334280   -0.939530
  C     -6.324600  -11.011800   -2.152790
  C     -6.348930  -12.440820   -2.257150
  N     -6.091310  -13.018930   -3.447470
  C     -5.827470  -12.281670   -4.476740
  C     -5.804420  -10.864900   -4.373570
  N     -6.045940  -10.276390   -3.247530
  F     -5.533820  -10.106970   -5.428930
  F     -5.578570  -12.888710   -5.631060
  C     -6.631920  -13.279050   -1.156670
  C     -6.896930  -12.608360    0.061310
  C     -6.868100  -11.166680    0.167930
  N     -7.147080  -10.766590    1.409940
  S     -7.414490  -12.042090    2.339330
  N     -7.194280  -13.176220    1.231420
  C     -6.639150  -14.694510   -1.278840
  C     -6.903790  -15.612160   -0.267340
  C     -6.815290  -16.921590   -0.716360
  C     -6.480650  -17.006080   -2.084750
  S     -6.280780  -15.470240   -2.810170
  C     -6.405140  -18.371940   -2.437020
  C     -6.690220  -19.158740   -1.294070
  C     -6.965470  -18.266060   -0.178860
  C     -7.301650  -18.597400    1.099630
  C     -7.448010  -19.928850    1.548950
  N     -7.584450  -20.992770    1.952260
  C     -7.541600  -17.613360    2.084070
  N     -7.735190  -16.821390    2.890140
  C     -6.620730  -20.522560   -1.541310
  C     -6.288480  -20.797220   -2.863640
  S     -6.065550  -19.316510   -3.806210
  C     -6.102150  -22.011790   -3.552040
  C     -6.152480  -23.306610   -3.128490
  C     -5.898270  -24.384640   -4.111540
  O     -5.659050  -24.243770   -5.286630
  C     -5.999410  -25.657520   -3.349330
  C     -6.293800  -25.374180   -2.008380
  C     -6.406940  -23.900450   -1.806450
  O     -6.653040  -23.344790   -0.761070
  C     -6.432470  -26.410040   -1.100580
  C     -6.279740  -27.728850   -1.521180
  C     -5.989730  -28.007590   -2.842410
  C     -5.848920  -26.970370   -3.760450
  F     -5.567630  -27.270240   -5.029920
  F     -6.711090  -26.175560    0.181880
  H     -4.834670    3.156620   -7.209740
  H     -4.740810    0.999740   -8.442760
  H     -6.089370   -0.624700   -1.037940
  H     -6.494040   -2.459390    0.558050
  H     -6.935760   -8.599550    1.248660
  H     -7.142490  -15.301500    0.732900
  H     -6.792680  -21.302980   -0.819870
  H     -5.869560  -21.906240   -4.609740
  H     -6.391300  -28.523720   -0.800660
  H     -5.868710  -29.025240   -3.179020

 Total Charge           Charge          ....    0
 Multiplicity           Mult            ....    1
 Number of Electrons    NEL             ....  544
 Basis Dimension        Dim             .... 1120

ORBITAL ENERGIES
----------------

  NO   OCC          E(Eh)            E(eV)
   0   2.0000     -89.052862     -2423.2516
   1   2.0000     -88.993495     -2421.6361
   2   2.0000     -88.989399     -2421.5246
   3   2.0000     -88.989013     -2421.5142
   4   2.0000     -88.988915     -2421.5115
   5   2.0000     -24.834051      -675.7689
   6   2.0000     -24.833430      -675.7520
   7   2.0000     -24.794711      -674.6984
   8   2.0000     -24.792940      -674.6502
   9   2.0000     -24.789961      -674.5691
  10   2.0000     -24.788557      -674.5309
  11   2.0000     -19.223371      -523.0945
  12   2.0000     -19.215993      -522.8938
  13   2.0000     -19.213734      -522.8323
  14   2.0000     -19.211549      -522.7728
  15   2.0000     -14.475729      -393.9046
  16   2.0000     -14.475363      -393.8946
  17   2.0000     -14.460869      -393.5003
  18   2.0000     -14.460747      -393.4969
  19   2.0000     -14.430464      -392.6729
  20   2.0000     -14.429830      -392.6556
  21   2.0000     -14.429143      -392.6369
  22   2.0000     -14.424759      -392.5176
  23   2.0000     -10.451148      -284.3902
  24   2.0000     -10.450774      -284.3800
  25   2.0000     -10.381420      -282.4928
  26   2.0000     -10.380359      -282.4639
  27   2.0000     -10.376900      -282.3698
  28   2.0000     -10.376610      -282.3619
  29   2.0000     -10.376547      -282.3602
  30   2.0000     -10.371719      -282.2288
  31   2.0000     -10.368965      -282.1539
  32   2.0000     -10.366173      -282.0779
  33   2.0000     -10.364411      -282.0300
  34   2.0000     -10.364277      -282.0263
  35   2.0000     -10.360872      -281.9337
  36   2.0000     -10.360602      -281.9263
  37   2.0000     -10.352934      -281.7177
  38   2.0000     -10.352835      -281.7150
  39   2.0000     -10.352687      -281.7109
  40   2.0000     -10.350939      -281.6634
  41   2.0000     -10.342292      -281.4281
  42   2.0000     -10.333426      -281.1868
  43   2.0000     -10.331363      -281.1307
  44   2.0000     -10.331120      -281.1241
  45   2.0000     -10.330852      -281.1168
  46   2.0000     -10.330810      -281.1156
  47   2.0000     -10.330799      -281.1153
  48   2.0000     -10.330280      -281.1012
  49   2.0000     -10.329316      -281.0750
  50   2.0000     -10.327987      -281.0388
  51   2.0000     -10.327782      -281.0332
  52   2.0000     -10.325614      -280.9742
  53   2.0000     -10.325518      -280.9716
  54   2.0000     -10.324147      -280.9343
  55   2.0000     -10.323665      -280.9212
  56   2.0000     -10.321500      -280.8623
  57   2.0000     -10.312242      -280.6104
  58   2.0000     -10.307941      -280.4933
  59   2.0000     -10.307493      -280.4811
  60   2.0000     -10.306970      -280.4669
  61   2.0000     -10.305573      -280.4289
  62   2.0000     -10.305516      -280.4273
  63   2.0000     -10.305438      -280.4252
  64   2.0000     -10.305121      -280.4166
  65   2.0000     -10.304178      -280.3909
  66   2.0000     -10.303988      -280.3858
  67   2.0000     -10.303527      -280.3732
  68   2.0000     -10.303102      -280.3617
  69   2.0000     -10.301055      -280.3060
  70   2.0000     -10.300512      -280.2912
  71   2.0000     -10.299863      -280.2735
  72   2.0000     -10.299725      -280.2698
  73   2.0000     -10.283483      -279.8278
  74   2.0000     -10.283245      -279.8213
  75   2.0000      -8.143841      -221.6052
  76   2.0000      -8.088429      -220.0973
  77   2.0000      -8.082249      -219.9292
  78   2.0000      -8.081823      -219.9176
  79   2.0000      -8.081566      -219.9106
  80   2.0000      -6.114920      -166.3954
  81   2.0000      -6.106968      -166.1790
  82   2.0000      -6.106795      -166.1743
  83   2.0000      -6.057447      -164.8315
  84   2.0000      -6.053395      -164.7213
  85   2.0000      -6.051732      -164.6760
  86   2.0000      -6.051229      -164.6623
  87   2.0000      -6.051041      -164.6572
  88   2.0000      -6.050895      -164.6532
  89   2.0000      -6.047030      -164.5481
  90   2.0000      -6.046572      -164.5356
  91   2.0000      -6.046208      -164.5257
  92   2.0000      -6.044703      -164.4847
  93   2.0000      -6.044353      -164.4752
  94   2.0000      -6.044230      -164.4719
  95   2.0000      -1.362855       -37.0852
  96   2.0000      -1.348816       -36.7031
  97   2.0000      -1.312425       -35.7129
  98   2.0000      -1.310865       -35.6704
  99   2.0000      -1.307660       -35.5832
 100   2.0000      -1.306770       -35.5590
 101   2.0000      -1.151034       -31.3212
 102   2.0000      -1.141053       -31.0496
 103   2.0000      -1.134215       -30.8636
 104   2.0000      -1.134132       -30.8613
 105   2.0000      -1.129743       -30.7419
 106   2.0000      -1.127174       -30.6720
 107   2.0000      -1.061785       -28.8926
 108   2.0000      -1.045691       -28.4547
 109   2.0000      -1.044541       -28.4234
 110   2.0000      -1.021906       -27.8075
 111   2.0000      -1.019796       -27.7501
 112   2.0000      -1.008882       -27.4531
 113   2.0000      -1.007740       -27.4220
 114   2.0000      -1.005306       -27.3558
 115   2.0000      -1.003253       -27.2999
 116   2.0000      -0.995338       -27.0845
 117   2.0000      -0.994415       -27.0594
 118   2.0000      -0.990768       -26.9602
 119   2.0000      -0.982808       -26.7436
 120   2.0000      -0.960927       -26.1482
 121   2.0000      -0.956095       -26.0167
 122   2.0000      -0.936668       -25.4880
 123   2.0000      -0.932765       -25.3818
 124   2.0000      -0.921813       -25.0838
 125   2.0000      -0.913876       -24.8678
 126   2.0000      -0.900728       -24.5100
 127   2.0000      -0.897084       -24.4109
 128   2.0000      -0.882621       -24.0173
 129   2.0000      -0.879330       -23.9278
 130   2.0000      -0.868172       -23.6242
 131   2.0000      -0.861672       -23.4473
 132   2.0000      -0.857279       -23.3278
 133   2.0000      -0.856467       -23.3057
 134   2.0000      -0.855268       -23.2730
 135   2.0000      -0.852897       -23.2085
 136   2.0000      -0.833377       -22.6773
 137   2.0000      -0.823472       -22.4078
 138   2.0000      -0.816148       -22.2085
 139   2.0000      -0.798619       -21.7315
 140   2.0000      -0.789361       -21.4796
 141   2.0000      -0.778635       -21.1877
 142   2.0000      -0.776761       -21.1368
 143   2.0000      -0.763018       -20.7628
 144   2.0000      -0.762394       -20.7458
 145   2.0000      -0.761123       -20.7112
 146   2.0000      -0.758459       -20.6387
 147   2.0000      -0.740241       -20.1430
 148   2.0000      -0.721253       -19.6263
 149   2.0000      -0.711886       -19.3714
 150   2.0000      -0.707040       -19.2395
 151   2.0000      -0.697307       -18.9747
 152   2.0000      -0.695986       -18.9388
 153   2.0000      -0.693519       -18.8716
 154   2.0000      -0.690039       -18.7769
 155   2.0000      -0.688153       -18.7256
 156   2.0000      -0.682946       -18.5839
 157   2.0000      -0.681546       -18.5458
 158   2.0000      -0.675984       -18.3945
 159   2.0000      -0.673865       -18.3368
 160   2.0000      -0.667683       -18.1686
 161   2.0000      -0.662158       -18.0182
 162   2.0000      -0.645637       -17.5687
 163   2.0000      -0.643455       -17.5093
 164   2.0000      -0.640046       -17.4165
 165   2.0000      -0.637626       -17.3507
 166   2.0000      -0.633505       -17.2385
 167   2.0000      -0.631744       -17.1906
 168   2.0000      -0.631002       -17.1704
 169   2.0000      -0.627181       -17.0665
 170   2.0000      -0.625801       -17.0289
 171   2.0000      -0.622192       -16.9307
 172   2.0000      -0.617655       -16.8072
 173   2.0000      -0.614962       -16.7340
 174   2.0000      -0.612702       -16.6725
 175   2.0000      -0.602286       -16.3890
 176   2.0000      -0.592858       -16.1325
 177   2.0000      -0.589328       -16.0364
 178   2.0000      -0.585958       -15.9447
 179   2.0000      -0.583633       -15.8815
 180   2.0000      -0.578346       -15.7376
 181   2.0000      -0.577819       -15.7232
 182   2.0000      -0.573459       -15.6046
 183   2.0000      -0.573418       -15.6035
 184   2.0000      -0.567374       -15.4390
 185   2.0000      -0.564455       -15.3596
 186   2.0000      -0.562517       -15.3069
 187   2.0000      -0.560459       -15.2509
 188   2.0000      -0.556022       -15.1301
 189   2.0000      -0.554199       -15.0805
 190   2.0000      -0.549308       -14.9474
 191   2.0000      -0.548788       -14.9333
 192   2.0000      -0.548174       -14.9166
 193   2.0000      -0.543214       -14.7816
 194   2.0000      -0.537424       -14.6241
 195   2.0000      -0.535125       -14.5615
 196   2.0000      -0.534612       -14.5475
 197   2.0000      -0.530431       -14.4338
 198   2.0000      -0.529760       -14.4155
 199   2.0000      -0.529106       -14.3977
 200   2.0000      -0.528740       -14.3878
 201   2.0000      -0.523752       -14.2520
 202   2.0000      -0.523519       -14.2457
 203   2.0000      -0.520651       -14.1676
 204   2.0000      -0.518309       -14.1039
 205   2.0000      -0.514160       -13.9910
 206   2.0000      -0.512676       -13.9506
 207   2.0000      -0.510119       -13.8810
 208   2.0000      -0.509184       -13.8556
 209   2.0000      -0.507487       -13.8094
 210   2.0000      -0.506639       -13.7863
 211   2.0000      -0.503264       -13.6945
 212   2.0000      -0.497905       -13.5487
 213   2.0000      -0.495913       -13.4945
 214   2.0000      -0.493157       -13.4195
 215   2.0000      -0.492222       -13.3940
 216   2.0000      -0.490484       -13.3467
 217   2.0000      -0.485637       -13.2149
 218   2.0000      -0.484343       -13.1796
 219   2.0000      -0.478465       -13.0197
 220   2.0000      -0.477265       -12.9871
 221   2.0000      -0.472866       -12.8673
 222   2.0000      -0.472395       -12.8545
 223   2.0000      -0.471458       -12.8290
 224   2.0000      -0.467979       -12.7344
 225   2.0000      -0.466993       -12.7075
 226   2.0000      -0.465463       -12.6659
 227   2.0000      -0.462436       -12.5835
 228   2.0000      -0.461425       -12.5560
 229   2.0000      -0.460566       -12.5326
 230   2.0000      -0.459203       -12.4955
 231   2.0000      -0.456224       -12.4145
 232   2.0000      -0.455479       -12.3942
 233   2.0000      -0.450031       -12.2460
 234   2.0000      -0.449417       -12.2293
 235   2.0000      -0.446531       -12.1507
 236   2.0000      -0.445624       -12.1260
 237   2.0000      -0.442207       -12.0331
 238   2.0000      -0.440361       -11.9828
 239   2.0000      -0.439198       -11.9512
 240   2.0000      -0.436563       -11.8795
 241   2.0000      -0.435858       -11.8603
 242   2.0000      -0.435573       -11.8525
 243   2.0000      -0.431970       -11.7545
 244   2.0000      -0.425312       -11.5733
 245   2.0000      -0.423280       -11.5180
 246   2.0000      -0.416930       -11.3452
 247   2.0000      -0.415417       -11.3041
 248   2.0000      -0.414502       -11.2792
 249   2.0000      -0.400500       -10.8982
 250   2.0000      -0.396148       -10.7797
 251   2.0000      -0.394998       -10.7484
 252   2.0000      -0.385886       -10.5005
 253   2.0000      -0.376707       -10.2507
 254   2.0000      -0.366367        -9.9693
 255   2.0000      -0.358616        -9.7584
 256   2.0000      -0.356685        -9.7059
 257   2.0000      -0.355339        -9.6693
 258   2.0000      -0.354327        -9.6417
 259   2.0000      -0.353989        -9.6325
 260   2.0000      -0.349908        -9.5215
 261   2.0000      -0.347561        -9.4576
 262   2.0000      -0.346707        -9.4344
 263   2.0000      -0.326559        -8.8861
 264   2.0000      -0.326468        -8.8836
 265   2.0000      -0.323610        -8.8059
 266   2.0000      -0.323066        -8.7911
 267   2.0000      -0.322031        -8.7629
 268   2.0000      -0.321488        -8.7481
 269   2.0000      -0.311064        -8.4645
 270   2.0000      -0.280264        -7.6264
 271   2.0000      -0.246753        -6.7145
 272   0.0000      -0.133668        -3.6373
 273   0.0000      -0.104934        -2.8554
 274   0.0000      -0.098610        -2.6833
 275   0.0000      -0.073241        -1.9930
 276   0.0000      -0.071291        -1.9399

MULLIKEN ATOMIC CHARGES
-----------------------
   0 C :   -0.177272
   1 C :    0.188958
   2 O :   -0.167386
   3 C :   -0.061248
   4 C :   -0.042984
   5 C :    0.149089
   6 O :   -0.121541
   7 C :    0.208639
   8 C :   -0.032865
   9 C :   -0.034448
  10 C :    0.210966
  11 F :   -0.160507
  12 F :   -0.158582
  13 C :   -0.008113
  14 C :   -0.044125
  15 C :   -0.046602
  16 C :    0.032750
  17 C :   -0.075647
  18 S :    0.242518
  19 C :   -0.070110
  20 C :    0.041012
  21 C :    0.311582
  22 C :   -0.300981
  23 C :   -0.186232
  24 N :    0.171581
  25 C :   -0.193429
  26 N :    0.173196
  27 C :   -0.062492
  28 C :   -0.181219
  29 S :    0.212793
  30 C :    0.179440
  31 C :   -0.056890
  32 C :   -0.057010
  33 N :   -0.046428
  34 C :    0.151187
  35 C :    0.151454
  36 N :   -0.044754
  37 F :   -0.130437
  38 F :   -0.131993
  39 C :    0.181311
  40 C :   -0.008271
  41 C :   -0.009481
  42 N :   -0.286364
  43 S :    0.586439
  44 N :   -0.285864
  45 C :   -0.179199
  46 C :   -0.062833
  47 C :    0.040130
  48 C :   -0.069120
  49 S :    0.205958
  50 C :   -0.090892
  51 C :    0.000017
  52 C :    0.316818
  53 C :   -0.302507
  54 C :   -0.198884
  55 N :    0.201300
  56 C :   -0.189959
  57 N :    0.171520
  58 C :   -0.009840
  59 C :   -0.107083
  60 S :    0.198525
  61 C :    0.058521
  62 C :   -0.177447
  63 C :    0.138900
  64 O :   -0.130669
  65 C :   -0.036906
  66 C :   -0.065628
  67 C :    0.185642
  68 O :   -0.127760
  69 C :    0.211506
  70 C :   -0.031831
  71 C :   -0.036396
  72 C :    0.211463
  73 F :   -0.160341
  74 F :   -0.156261
  75 H :    0.011810
  76 H :    0.012055
  77 H :    0.025342
  78 H :    0.017459
  79 H :    0.021828
  80 H :    0.022894
  81 H :    0.035573
  82 H :    0.013770
  83 H :    0.012268
  84 H :    0.010622
Sum of atomic charges:    0.0000000

LOEWDIN ATOMIC CHARGES
----------------------
   0 C :   -0.147608
   1 C :    0.079752
   2 O :   -0.160625
   3 C :   -0.066709
   4 C :   -0.066268
   5 C :    0.077550
   6 O :   -0.131467
   7 C :    0.093783
   8 C :   -0.021171
   9 C :   -0.023158
  10 C :    0.093302
  11 F :   -0.043587
  12 F :   -0.041552
  13 C :    0.067055
  14 C :   -0.183823
  15 C :    0.006159
  16 C :   -0.075725
  17 C :   -0.168613
  18 S :    0.548992
  19 C :   -0.185954
  20 C :   -0.064659
  21 C :    0.079783
  22 C :   -0.104560
  23 C :   -0.016827
  24 N :   -0.033478
  25 C :   -0.017898
  26 N :   -0.032761
  27 C :   -0.012550
  28 C :   -0.161898
  29 S :    0.515676
  30 C :   -0.041098
  31 C :   -0.016479
  32 C :   -0.016476
  33 N :   -0.055666
  34 C :    0.064700
  35 C :    0.064477
  36 N :   -0.054807
  37 F :   -0.020321
  38 F :   -0.021627
  39 C :   -0.041587
  40 C :   -0.037703
  41 C :   -0.037715
  42 N :   -0.273400
  43 S :    0.704596
  44 N :   -0.272798
  45 C :   -0.161208
  46 C :   -0.012913
  47 C :   -0.061892
  48 C :   -0.190272
  49 S :    0.509798
  50 C :   -0.163106
  51 C :   -0.070935
  52 C :    0.074863
  53 C :   -0.094516
  54 C :   -0.025935
  55 N :   -0.012073
  56 C :   -0.014709
  57 N :   -0.032985
  58 C :    0.014241
  59 C :   -0.178963
  60 S :    0.488660
  61 C :    0.052086
  62 C :   -0.133683
  63 C :    0.077982
  64 O :   -0.136751
  65 C :   -0.068474
  66 C :   -0.064948
  67 C :    0.082139
  68 O :   -0.124413
  69 C :    0.093947
  70 C :   -0.022117
  71 C :   -0.023029
  72 C :    0.093650
  73 F :   -0.043191
  74 F :   -0.039796
  75 H :    0.045646
  76 H :    0.045565
  77 H :    0.054453
  78 H :    0.045005
  79 H :    0.037867
  80 H :    0.037999
  81 H :    0.043656
  82 H :    0.042410
  83 H :    0.045562
  84 H :    0.045124

  Mayer bond orders larger than 0.100000
B(  0-C ,  1-C ) :   1.0014 B(  0-C ,  5-C ) :   0.9740 B(  0-C , 13-C ) :   1.5699
B(  1-C ,  2-O ) :   2.1620 B(  1-C ,  3-C ) :   0.9216 B(  3-C ,  4-C ) :   1.3842
B(  3-C , 10-C ) :   1.3084 B(  4-C ,  5-C ) :   0.8823 B(  4-C ,  7-C ) :   1.3120
B(  5-C ,  6-O ) :   2.3008 B(  7-C ,  8-C ) :   1.3422 B(  7-C , 12-F ) :   1.2032
B(  8-C ,  9-C ) :   1.3477 B(  8-C , 75-H ) :   0.9916 B(  9-C , 10-C ) :   1.3440
B(  9-C , 76-H ) :   0.9904 B( 10-C , 11-F ) :   1.2010 B( 13-C , 14-C ) :   1.2015
B( 13-C , 77-H ) :   0.9631 B( 14-C , 15-C ) :   1.3421 B( 14-C , 18-S ) :   1.0776
B( 15-C , 16-C ) :   1.3314 B( 15-C , 78-H ) :   1.0081 B( 16-C , 17-C ) :   1.3572
B( 16-C , 21-C ) :   0.9853 B( 17-C , 18-S ) :   1.1286 B( 17-C , 19-C ) :   1.2068
B( 19-C , 20-C ) :   1.3974 B( 19-C , 29-S ) :   1.0907 B( 20-C , 21-C ) :   0.9964
B( 20-C , 27-C ) :   1.2769 B( 21-C , 22-C ) :   1.7105 B( 22-C , 23-C ) :   1.1384
B( 22-C , 25-C ) :   1.1323 B( 23-C , 24-N ) :   2.9846 B( 25-C , 26-N ) :   2.9939
B( 27-C , 28-C ) :   1.4165 B( 27-C , 79-H ) :   0.9805 B( 28-C , 29-S ) :   1.0962
B( 28-C , 30-C ) :   1.1899 B( 30-C , 31-C ) :   1.2946 B( 30-C , 39-C ) :   0.1302
B( 30-C , 41-C ) :   1.1960 B( 31-C , 32-C ) :   1.1242 B( 31-C , 36-N ) :   1.3793
B( 32-C , 33-N ) :   1.3771 B( 32-C , 39-C ) :   1.2953 B( 33-N , 34-C ) :   1.6545
B( 34-C , 35-C ) :   1.1067 B( 34-C , 38-F ) :   1.1903 B( 35-C , 36-N ) :   1.6550
B( 35-C , 37-F ) :   1.1915 B( 39-C , 40-C ) :   1.1951 B( 39-C , 45-C ) :   1.1884
B( 40-C , 41-C ) :   1.1053 B( 40-C , 44-N ) :   1.5088 B( 41-C , 42-N ) :   1.5086
B( 42-N , 43-S ) :   1.2860 B( 42-N , 44-N ) :   0.1487 B( 43-S , 44-N ) :   1.2866
B( 45-C , 46-C ) :   1.4167 B( 45-C , 49-S ) :   1.0965 B( 46-C , 47-C ) :   1.2789
B( 46-C , 80-H ) :   0.9797 B( 47-C , 48-C ) :   1.4029 B( 47-C , 52-C ) :   0.9911
B( 48-C , 49-S ) :   1.0815 B( 48-C , 50-C ) :   1.2064 B( 50-C , 51-C ) :   1.3803
B( 50-C , 60-S ) :   1.1607 B( 51-C , 52-C ) :   0.9928 B( 51-C , 58-C ) :   1.3042
B( 52-C , 53-C ) :   1.7137 B( 53-C , 54-C ) :   1.1326 B( 53-C , 56-C ) :   1.1421
B( 54-C , 55-N ) :   3.0045 B( 56-C , 57-N ) :   2.9824 B( 58-C , 59-C ) :   1.4096
B( 58-C , 81-H ) :   0.9696 B( 59-C , 60-S ) :   1.0754 B( 59-C , 61-C ) :   1.1494
B( 61-C , 62-C ) :   1.6680 B( 61-C , 82-H ) :   0.9295 B( 62-C , 63-C ) :   0.9800
B( 62-C , 67-C ) :   0.9603 B( 63-C , 64-O ) :   2.2796 B( 63-C , 65-C ) :   0.8876
B( 65-C , 66-C ) :   1.3805 B( 65-C , 72-C ) :   1.3049 B( 66-C , 67-C ) :   0.9147
B( 66-C , 69-C ) :   1.3105 B( 67-C , 68-O ) :   2.1961 B( 68-O , 81-H ) :   0.1011
B( 69-C , 70-C ) :   1.3455 B( 69-C , 74-F ) :   1.2032 B( 70-C , 71-C ) :   1.3442
B( 70-C , 83-H ) :   0.9911 B( 71-C , 72-C ) :   1.3455 B( 71-C , 84-H ) :   0.9917
B( 72-C , 73-F ) :   1.2014

-----------------------------------------------------------------------------
         ABSORPTION SPECTRUM VIA TRANSITION ELECTRIC DIPOLE MOMENTS
-----------------------------------------------------------------------------
State   Energy  Wavelength   fosc         T2         TX        TY        TZ
        (cm-1)    (nm)                  (au**2)     (au)      (au)      (au)
-----------------------------------------------------------------------------
   0    9809.3   1019.4   1.042940027  35.00220  -0.12407  -5.91420  -0.09541
   1   14245.4    702.0   0.009038965   0.20889  -0.13448   0.11579   0.42119
   2   15118.4    661.4   0.000098741   0.00215   0.01164   0.00833   0.04411
   3   18211.3    549.1   0.006494050   0.11740  -0.12527   0.07255   0.31055
   4   22866.6    437.3   1.028144532  14.80228  -0.14235  -3.82296   0.40865
   5   23716.3    421.7   0.154504067   2.14471  -0.36346  -0.61327   1.27926
   6   24032.8    416.1   0.765699920  10.48891   0.04070  -3.23827  -0.02921
   7   25452.9    392.9   0.005472001   0.07078  -0.10377  -0.00810   0.24483
   8   25568.7    391.1   0.138591970   1.78445   0.30800  -0.23607  -1.27823
   9   26083.7    383.4   0.000150182   0.00190   0.01154  -0.01990  -0.03697
  10   26183.4    381.9   0.018606470   0.23394  -0.07891   0.46270   0.11673
  11   26278.5    380.5   0.000963109   0.01207   0.04386   0.08360   0.05616
  12   26638.7    375.4   0.006882025   0.08505   0.00646  -0.28384  -0.06667
  13   26970.1    370.8   0.040488666   0.49423   0.01902   0.67088  -0.20926
  14   29198.2    342.5   0.061861685   0.69750   0.06407   0.83116  -0.05069
  15   29872.0    334.8   0.000184052   0.00203  -0.00385  -0.02595   0.03661
  16   30015.0    333.2   0.135284137   1.48383   0.28379   0.05278  -1.18343
  17   30077.3    332.5   0.000601539   0.00658   0.02403   0.07623  -0.01398
  18   30238.2    330.7   0.003535532   0.03849  -0.00585   0.12289   0.15283
  19   30623.1    326.6   0.028128381   0.30239  -0.08161  -0.43578   0.32531
  20   30790.8    324.8   0.096902685   1.03607   0.10751   0.79392  -0.62786
  21   31066.0    321.9   0.213651346   2.26410  -0.36308   0.36482   1.41392
  22   31260.7    319.9   0.006657316   0.07011  -0.00177   0.20211  -0.17105
  23   31313.8    319.3   0.006058589   0.06370  -0.06905  -0.14616   0.19381
  24   31604.5    316.4   0.000881720   0.00918   0.01789   0.09172  -0.02127
  25   31732.6    315.1   0.142380021   1.47713  -0.02122   0.98211   0.71564
  26   31856.4    313.9   0.028882100   0.29848  -0.10549  -0.11657   0.52322
  27   32263.5    309.9   0.030966894   0.31598   0.11417   0.01711  -0.55014
  28   32285.0    309.7   0.770967242   7.86159  -0.62867  -0.55211   2.67610
  29   32564.8    307.1   0.299470094   3.02748   0.00982  -1.69047  -0.41192
  30   32644.3    306.3   0.000947477   0.00956  -0.09032  -0.03737   0.00120
  31   32906.6    303.9   0.034786038   0.34801  -0.09515  -0.27873   0.51115
  32   33319.9    300.1   0.345248516   3.41117  -0.26583  -1.22867   1.35310
  33   33529.7    298.2   0.195593057   1.92043  -0.09769   1.35048   0.29511
  34   33806.1    295.8   0.159586352   1.55409  -0.00672   1.24287   0.09652
  35   34569.7    289.3   0.001552818   0.01479   0.08177  -0.08662   0.02446
  36   34641.1    288.7   0.001331731   0.01266  -0.10738   0.02155  -0.02570
  37   35052.0    285.3   0.001038584   0.00975  -0.05916   0.06794   0.04047
  38   35115.6    284.8   0.000414096   0.00388   0.00780   0.01814  -0.05910
  39   35547.9    281.3   0.007277888   0.06740   0.07124  -0.06284  -0.24161
  40   35563.6    281.2   0.086352737   0.79937  -0.14030   0.36612   0.80352
  41   35901.5    278.5   0.546310413   5.00959  -0.50978  -0.66821   2.07442
  42   36239.6    275.9   0.213838550   1.94257  -0.19467   1.00345   0.94750
  43   36771.2    272.0   0.018957403   0.16973  -0.06729  -0.06231   0.40164
  44   36875.7    271.2   0.000061001   0.00054  -0.01088   0.01262  -0.01634
  45   37021.4    270.1   0.041858602   0.37223  -0.11097  -0.03134   0.59911
  46   37128.5    269.3   0.004005494   0.03552  -0.02866   0.08316   0.16667
  47   37174.9    269.0   0.005018072   0.04444  -0.03742   0.20393   0.03809
  48   37303.9    268.1   0.003583253   0.03162  -0.02513  -0.08282   0.15534
  49   37580.3    266.1   0.214241286   1.87680   0.31667   0.10476  -1.32874
  50   37785.4    264.7   0.011085982   0.09659   0.04214  -0.22199  -0.21339
  51   37894.9    263.9   0.001959334   0.01702   0.03039   0.05686  -0.11342
  52   38041.7    262.9   0.006786388   0.05873   0.00491   0.24163  -0.01787
  53   38240.1    261.5   0.001965649   0.01692  -0.02088  -0.11025   0.06582
  54   38303.3    261.1   0.004134015   0.03553   0.01463  -0.16384  -0.09205
  55   38465.9    260.0   0.000048920   0.00042   0.01737   0.00831  -0.00693
  56   38819.8    257.6   0.003070713   0.02604  -0.03708  -0.10798   0.11405
  57   38900.9    257.1   0.032602641   0.27591   0.00701  -0.52495  -0.01690
  58   39027.0    256.2   0.045723296   0.38570  -0.10870  -0.15207   0.59225
  59   39105.1    255.7   0.000563090   0.00474   0.00630  -0.03488   0.05903
  60   39446.3    253.5   0.074074245   0.61821  -0.01622  -0.74117   0.26193
  61   39648.6    252.2   0.076214379   0.63283  -0.12832  -0.45245   0.64160
  62   39747.7    251.6   0.077490028   0.64181  -0.01987   0.79886  -0.05695
  63   40213.9    248.7   0.000866433   0.00709   0.00211   0.04617  -0.07040
  64   40238.5    248.5   0.017323427   0.14173  -0.06242   0.36204  -0.08224

FINAL SINGLE POINT ENERGY     -5311.736843899241

DIPOLE MOMENT
-------------
                                X             Y             Z
Electronic contribution:      2.75502       0.95332     -14.13156
Nuclear contribution   :     -2.13718      -0.98146      11.26649
                        -----------------------------------------
Total Dipole Moment    :      0.61784      -0.02815      -2.86506
                        -----------------------------------------
Magnitude (a.u.)       :      2.93106
Magnitude (Debye)      :      7.45016

Rotational constants in cm-1:     0.002102     0.000196     0.000179
Rotational constants in MHz :    63.026122     5.879745     5.380964

                             ****ORCA TERMINATED NORMALLY****
TOTAL RUN TIME: 0 days 0 hours 8 minutes 39 seconds 89 msec
