                         Program Version 4.2.0 -  RELEASE  -
|  1> # ORCA input file
|  2> # SCF done       -192.058634230386          0.000474247665
|  3> ! CAM-B3LYP def2-SVP def2/J RIJCOSX Grid4 TightSCF
|  4> %maxcore 5000
|  5> %tddft
|  6>     Mode sTDDFT
|  7>     Ethresh 5.0
|  8>     maxcore 5000
|  9> end
| 10>
| 11> %pal
| 12>   nprocs 6
| 13>   end
| 14> * xyz 0 1
| 15>    C       -3.98336        -0.16102        -1.66806
| 16>    C       -2.82106        -0.01836        -0.77820
| 17>    O       -2.26805        -0.86265        -0.11188
| 18>    C       -2.43304         1.41981        -0.86478
| 19>    C       -3.30049         2.10333        -1.72800
| 20>    C       -4.30855         1.15216        -2.26804
| 21>    O       -5.20824         1.38812        -3.03851
| 22>    C       -3.12137         3.45625        -1.95684
| 23>    C       -2.07996         4.13637        -1.33112
| 24>    C       -1.22414         3.46289        -0.48183
| 25>    C       -1.39902         2.10149        -0.24651
| 26>    F       -0.55355         1.48088         0.57697
| 27>    F       -3.93077         4.13345        -2.77405
| 28>    C       -4.72813        -1.24614        -2.02598
| 29>    C       -4.65243        -2.59657        -1.63607
| 30>    C       -3.85629        -3.24852        -0.70068
| 31>    C       -4.11784        -4.61033        -0.65048
| 32>    C       -5.12120        -5.01770        -1.56412
| 33>    S       -5.74877        -3.71757        -2.45854
| 34>    C       -5.29220        -6.41528        -1.46329
| 35>    C       -4.40197        -6.90055        -0.48199
| 36>    C       -3.64656        -5.78387         0.06755
| 37>    C       -2.71118        -5.84455         1.05686
| 38>    C       -2.34908        -7.06640         1.66572
| 39>    N       -2.04644        -8.05251         2.16637
| 40>    C       -2.04126        -4.71096         1.56868
| 41>    N       -1.48380        -3.81849         2.02181
| 42>    C       -4.48304        -8.27456        -0.31305
| 43>    C       -5.42464        -8.85243        -1.15769
| 44>    S       -6.22357        -7.65991        -2.17450
| 45>    C       -5.77492       -10.22424        -1.28107
| 46>    C       -5.20572       -11.27347        -0.50702
| 47>    C       -5.58109       -12.64838        -0.68878
| 48>    N       -5.00452       -13.59629         0.07789
| 49>    C       -4.11742       -13.25253         0.96720
| 50>    C       -3.74945       -11.90389         1.14571
| 51>    N       -4.28483       -10.95922         0.42674
| 52>    C       -6.54588       -13.04876        -1.65460
| 53>    C       -7.11542       -12.00252        -2.40716
| 54>    C       -6.74059       -10.62703        -2.22466
| 55>    N       -7.41118        -9.82089        -3.05127
| 56>    S       -8.40462       -10.69444        -3.95801
| 57>    N       -8.04240       -12.13744        -3.35858
| 58>    C       -6.94186       -14.39378        -1.88663
| 59>    C       -6.48596       -15.54878        -1.26043
| 60>    C       -7.10457       -16.68895        -1.75094
| 61>    C       -8.04465       -16.40911        -2.76521
| 62>    S       -8.15905       -14.73859        -3.10893
| 63>    C       -8.61415       -17.62870        -3.19016
| 64>    C       -8.04001       -18.68854        -2.44542
| 65>    C       -7.06438       -18.12666        -1.52471
| 66>    C       -6.26201       -18.78774        -0.64350
| 67>    C       -6.25210       -20.19303        -0.49889
| 68>    N       -6.20338       -21.32919        -0.35891
| 69>    C       -5.35371       -18.10427         0.19475
| 70>    N       -4.61216       -17.56202         0.88088
| 71>    C       -8.55438       -19.93221        -2.78350
| 72>    C       -9.51412       -19.84680        -3.78637
| 73>    S       -9.76924       -18.17446        -4.30880
| 74>    C      -10.28352       -20.82985        -4.43660
| 75>    C      -10.37194       -22.17786        -4.24879
| 76>    C      -11.28055       -22.95705        -5.11908
| 77>    O      -11.96741       -22.52387        -6.01314
| 78>    C      -11.16709       -24.36753        -4.66086
| 79>    C      -10.26531       -24.43669        -3.58993
| 80>    C       -9.72591       -23.07961        -3.28318
| 81>    O       -8.93206       -22.81295        -2.41065
| 82>    C      -10.00158       -25.65608        -2.99023
| 83>    C      -10.62961       -26.80963        -3.45314
| 84>    C      -11.51635       -26.74139        -4.50973
| 85>    C      -11.78729       -25.51772        -5.11610
| 86>    F      -12.64963       -25.48275        -6.13431
| 87>    F       -9.15179       -25.75699        -1.96760
| 88>    H       -1.95378         5.19064        -1.52107
| 89>    H       -0.41290         3.97830         0.00786
| 90>    H       -5.50833        -1.02185        -2.75034
| 91>    H       -3.12628        -2.72603        -0.10667
| 92>    H       -3.90594        -8.86550         0.37310
| 93>    H       -3.68769       -14.05181         1.55456
| 94>    H       -3.01797       -11.59622         1.87974
| 95>    H       -5.73994       -15.51273        -0.48891
| 96>    H       -8.27177       -20.87169        -2.34032
| 97>    H      -10.92725       -20.45585        -5.23002
| 98>    H      -10.41208       -27.75146        -2.97443
| 99>    H      -12.00822       -27.62842        -4.87679
|100> *
|101>
|102>                          ****END OF INPUT****

CARTESIAN COORDINATES (ANGSTROEM)
---------------------------------
  C     -3.983360   -0.161020   -1.668060
  C     -2.821060   -0.018360   -0.778200
  O     -2.268050   -0.862650   -0.111880
  C     -2.433040    1.419810   -0.864780
  C     -3.300490    2.103330   -1.728000
  C     -4.308550    1.152160   -2.268040
  O     -5.208240    1.388120   -3.038510
  C     -3.121370    3.456250   -1.956840
  C     -2.079960    4.136370   -1.331120
  C     -1.224140    3.462890   -0.481830
  C     -1.399020    2.101490   -0.246510
  F     -0.553550    1.480880    0.576970
  F     -3.930770    4.133450   -2.774050
  C     -4.728130   -1.246140   -2.025980
  C     -4.652430   -2.596570   -1.636070
  C     -3.856290   -3.248520   -0.700680
  C     -4.117840   -4.610330   -0.650480
  C     -5.121200   -5.017700   -1.564120
  S     -5.748770   -3.717570   -2.458540
  C     -5.292200   -6.415280   -1.463290
  C     -4.401970   -6.900550   -0.481990
  C     -3.646560   -5.783870    0.067550
  C     -2.711180   -5.844550    1.056860
  C     -2.349080   -7.066400    1.665720
  N     -2.046440   -8.052510    2.166370
  C     -2.041260   -4.710960    1.568680
  N     -1.483800   -3.818490    2.021810
  C     -4.483040   -8.274560   -0.313050
  C     -5.424640   -8.852430   -1.157690
  S     -6.223570   -7.659910   -2.174500
  C     -5.774920  -10.224240   -1.281070
  C     -5.205720  -11.273470   -0.507020
  C     -5.581090  -12.648380   -0.688780
  N     -5.004520  -13.596290    0.077890
  C     -4.117420  -13.252530    0.967200
  C     -3.749450  -11.903890    1.145710
  N     -4.284830  -10.959220    0.426740
  C     -6.545880  -13.048760   -1.654600
  C     -7.115420  -12.002520   -2.407160
  C     -6.740590  -10.627030   -2.224660
  N     -7.411180   -9.820890   -3.051270
  S     -8.404620  -10.694440   -3.958010
  N     -8.042400  -12.137440   -3.358580
  C     -6.941860  -14.393780   -1.886630
  C     -6.485960  -15.548780   -1.260430
  C     -7.104570  -16.688950   -1.750940
  C     -8.044650  -16.409110   -2.765210
  S     -8.159050  -14.738590   -3.108930
  C     -8.614150  -17.628700   -3.190160
  C     -8.040010  -18.688540   -2.445420
  C     -7.064380  -18.126660   -1.524710
  C     -6.262010  -18.787740   -0.643500
  C     -6.252100  -20.193030   -0.498890
  N     -6.203380  -21.329190   -0.358910
  C     -5.353710  -18.104270    0.194750
  N     -4.612160  -17.562020    0.880880
  C     -8.554380  -19.932210   -2.783500
  C     -9.514120  -19.846800   -3.786370
  S     -9.769240  -18.174460   -4.308800
  C    -10.283520  -20.829850   -4.436600
  C    -10.371940  -22.177860   -4.248790
  C    -11.280550  -22.957050   -5.119080
  O    -11.967410  -22.523870   -6.013140
  C    -11.167090  -24.367530   -4.660860
  C    -10.265310  -24.436690   -3.589930
  C     -9.725910  -23.079610   -3.283180
  O     -8.932060  -22.812950   -2.410650
  C    -10.001580  -25.656080   -2.990230
  C    -10.629610  -26.809630   -3.453140
  C    -11.516350  -26.741390   -4.509730
  C    -11.787290  -25.517720   -5.116100
  F    -12.649630  -25.482750   -6.134310
  F     -9.151790  -25.756990   -1.967600
  H     -1.953780    5.190640   -1.521070
  H     -0.412900    3.978300    0.007860
  H     -5.508330   -1.021850   -2.750340
  H     -3.126280   -2.726030   -0.106670
  H     -3.905940   -8.865500    0.373100
  H     -3.687690  -14.051810    1.554560
  H     -3.017970  -11.596220    1.879740
  H     -5.739940  -15.512730   -0.488910
  H     -8.271770  -20.871690   -2.340320
  H    -10.927250  -20.455850   -5.230020
  H    -10.412080  -27.751460   -2.974430
  H    -12.008220  -27.628420   -4.876790

 Total Charge           Charge          ....    0
 Multiplicity           Mult            ....    1
 Number of Electrons    NEL             ....  528
 Basis Dimension        Dim             .... 1102

ORBITAL ENERGIES
----------------

  NO   OCC          E(Eh)            E(eV)
   0   2.0000     -89.058964     -2423.4176
   1   2.0000     -88.992656     -2421.6133
   2   2.0000     -88.992545     -2421.6103
   3   2.0000     -88.987102     -2421.4621
   4   2.0000     -88.987013     -2421.4597
   5   2.0000     -24.789244      -674.5496
   6   2.0000     -24.789175      -674.5477
   7   2.0000     -24.787961      -674.5147
   8   2.0000     -24.787851      -674.5117
   9   2.0000     -19.214946      -522.8653
  10   2.0000     -19.214884      -522.8636
  11   2.0000     -19.210533      -522.7452
  12   2.0000     -19.210514      -522.7447
  13   2.0000     -14.466783      -393.6612
  14   2.0000     -14.466671      -393.6581
  15   2.0000     -14.443536      -393.0286
  16   2.0000     -14.443402      -393.0250
  17   2.0000     -14.429221      -392.6391
  18   2.0000     -14.429172      -392.6377
  19   2.0000     -14.423814      -392.4919
  20   2.0000     -14.423750      -392.4902
  21   2.0000     -10.376209      -282.3510
  22   2.0000     -10.376130      -282.3489
  23   2.0000     -10.375875      -282.3419
  24   2.0000     -10.375808      -282.3401
  25   2.0000     -10.370692      -282.2009
  26   2.0000     -10.370647      -282.1997
  27   2.0000     -10.365283      -282.0537
  28   2.0000     -10.365262      -282.0531
  29   2.0000     -10.363150      -281.9957
  30   2.0000     -10.363114      -281.9947
  31   2.0000     -10.350471      -281.6506
  32   2.0000     -10.350209      -281.6435
  33   2.0000     -10.349964      -281.6369
  34   2.0000     -10.349940      -281.6362
  35   2.0000     -10.345947      -281.5275
  36   2.0000     -10.345677      -281.5202
  37   2.0000     -10.341856      -281.4162
  38   2.0000     -10.341738      -281.4130
  39   2.0000     -10.339109      -281.3414
  40   2.0000     -10.338843      -281.3342
  41   2.0000     -10.329587      -281.0823
  42   2.0000     -10.329527      -281.0807
  43   2.0000     -10.329041      -281.0675
  44   2.0000     -10.328891      -281.0634
  45   2.0000     -10.327255      -281.0189
  46   2.0000     -10.327124      -281.0153
  47   2.0000     -10.324699      -280.9493
  48   2.0000     -10.324548      -280.9452
  49   2.0000     -10.324347      -280.9398
  50   2.0000     -10.324233      -280.9367
  51   2.0000     -10.322815      -280.8981
  52   2.0000     -10.322751      -280.8963
  53   2.0000     -10.320669      -280.8397
  54   2.0000     -10.320539      -280.8361
  55   2.0000     -10.305679      -280.4318
  56   2.0000     -10.305622      -280.4302
  57   2.0000     -10.303350      -280.3684
  58   2.0000     -10.303342      -280.3682
  59   2.0000     -10.303312      -280.3674
  60   2.0000     -10.303269      -280.3662
  61   2.0000     -10.302851      -280.3548
  62   2.0000     -10.302769      -280.3526
  63   2.0000     -10.302341      -280.3410
  64   2.0000     -10.302287      -280.3395
  65   2.0000     -10.300298      -280.2854
  66   2.0000     -10.300243      -280.2839
  67   2.0000     -10.299711      -280.2694
  68   2.0000     -10.299684      -280.2686
  69   2.0000     -10.294654      -280.1318
  70   2.0000     -10.294607      -280.1305
  71   2.0000     -10.282048      -279.7888
  72   2.0000     -10.281947      -279.7860
  73   2.0000      -8.149663      -221.7636
  74   2.0000      -8.087516      -220.0725
  75   2.0000      -8.087436      -220.0703
  76   2.0000      -8.080280      -219.8756
  77   2.0000      -8.080206      -219.8736
  78   2.0000      -6.120748      -166.5540
  79   2.0000      -6.113078      -166.3453
  80   2.0000      -6.112440      -166.3280
  81   2.0000      -6.056549      -164.8071
  82   2.0000      -6.056464      -164.8048
  83   2.0000      -6.052507      -164.6971
  84   2.0000      -6.052426      -164.6949
  85   2.0000      -6.050116      -164.6320
  86   2.0000      -6.050035      -164.6298
  87   2.0000      -6.049692      -164.6205
  88   2.0000      -6.049629      -164.6188
  89   2.0000      -6.045133      -164.4964
  90   2.0000      -6.045048      -164.4941
  91   2.0000      -6.042715      -164.4306
  92   2.0000      -6.042636      -164.4285
  93   2.0000      -1.306823       -35.5605
  94   2.0000      -1.306743       -35.5583
  95   2.0000      -1.305994       -35.5379
  96   2.0000      -1.305899       -35.5353
  97   2.0000      -1.155131       -31.4327
  98   2.0000      -1.133016       -30.8309
  99   2.0000      -1.132971       -30.8297
 100   2.0000      -1.126048       -30.6413
 101   2.0000      -1.126036       -30.6410
 102   2.0000      -1.102389       -29.9975
 103   2.0000      -1.045291       -28.4438
 104   2.0000      -1.044542       -28.4234
 105   2.0000      -1.027871       -27.9698
 106   2.0000      -1.019318       -27.7371
 107   2.0000      -1.019244       -27.7350
 108   2.0000      -1.012583       -27.5538
 109   2.0000      -1.003697       -27.3120
 110   2.0000      -1.003026       -27.2937
 111   2.0000      -1.001527       -27.2529
 112   2.0000      -0.993259       -27.0280
 113   2.0000      -0.990070       -26.9412
 114   2.0000      -0.989843       -26.9350
 115   2.0000      -0.977725       -26.6053
 116   2.0000      -0.958115       -26.0716
 117   2.0000      -0.953313       -25.9410
 118   2.0000      -0.932007       -25.3612
 119   2.0000      -0.931757       -25.3544
 120   2.0000      -0.917898       -24.9773
 121   2.0000      -0.911811       -24.8116
 122   2.0000      -0.892457       -24.2850
 123   2.0000      -0.891567       -24.2608
 124   2.0000      -0.880803       -23.9679
 125   2.0000      -0.877891       -23.8886
 126   2.0000      -0.865668       -23.5560
 127   2.0000      -0.857321       -23.3289
 128   2.0000      -0.853971       -23.2377
 129   2.0000      -0.853421       -23.2228
 130   2.0000      -0.852145       -23.1880
 131   2.0000      -0.852093       -23.1866
 132   2.0000      -0.826358       -22.4863
 133   2.0000      -0.811979       -22.0951
 134   2.0000      -0.808734       -22.0068
 135   2.0000      -0.791361       -21.5340
 136   2.0000      -0.781765       -21.2729
 137   2.0000      -0.774418       -21.0730
 138   2.0000      -0.766127       -20.8474
 139   2.0000      -0.760966       -20.7069
 140   2.0000      -0.757659       -20.6169
 141   2.0000      -0.757578       -20.6147
 142   2.0000      -0.740464       -20.1491
 143   2.0000      -0.721555       -19.6345
 144   2.0000      -0.720551       -19.6072
 145   2.0000      -0.710916       -19.3450
 146   2.0000      -0.699380       -19.0311
 147   2.0000      -0.691255       -18.8100
 148   2.0000      -0.689819       -18.7709
 149   2.0000      -0.685871       -18.6635
 150   2.0000      -0.683190       -18.5906
 151   2.0000      -0.678723       -18.4690
 152   2.0000      -0.675498       -18.3812
 153   2.0000      -0.671135       -18.2625
 154   2.0000      -0.667339       -18.1592
 155   2.0000      -0.655453       -17.8358
 156   2.0000      -0.650877       -17.7113
 157   2.0000      -0.649589       -17.6762
 158   2.0000      -0.634582       -17.2679
 159   2.0000      -0.632063       -17.1993
 160   2.0000      -0.626938       -17.0598
 161   2.0000      -0.625534       -17.0216
 162   2.0000      -0.624753       -17.0004
 163   2.0000      -0.624011       -16.9802
 164   2.0000      -0.619506       -16.8576
 165   2.0000      -0.614842       -16.7307
 166   2.0000      -0.612518       -16.6675
 167   2.0000      -0.608034       -16.5454
 168   2.0000      -0.600163       -16.3313
 169   2.0000      -0.593905       -16.1610
 170   2.0000      -0.587519       -15.9872
 171   2.0000      -0.582189       -15.8422
 172   2.0000      -0.581773       -15.8309
 173   2.0000      -0.573135       -15.5958
 174   2.0000      -0.572664       -15.5830
 175   2.0000      -0.572579       -15.5807
 176   2.0000      -0.569476       -15.4962
 177   2.0000      -0.566352       -15.4112
 178   2.0000      -0.562705       -15.3120
 179   2.0000      -0.555312       -15.1108
 180   2.0000      -0.555194       -15.1076
 181   2.0000      -0.554427       -15.0867
 182   2.0000      -0.553792       -15.0695
 183   2.0000      -0.550121       -14.9695
 184   2.0000      -0.547493       -14.8981
 185   2.0000      -0.547218       -14.8906
 186   2.0000      -0.542689       -14.7673
 187   2.0000      -0.531384       -14.4597
 188   2.0000      -0.530750       -14.4425
 189   2.0000      -0.529737       -14.4149
 190   2.0000      -0.527658       -14.3583
 191   2.0000      -0.522983       -14.2311
 192   2.0000      -0.522734       -14.2243
 193   2.0000      -0.521904       -14.2017
 194   2.0000      -0.519197       -14.1281
 195   2.0000      -0.514720       -14.0062
 196   2.0000      -0.512205       -13.9378
 197   2.0000      -0.511506       -13.9188
 198   2.0000      -0.507642       -13.8136
 199   2.0000      -0.506247       -13.7757
 200   2.0000      -0.506079       -13.7711
 201   2.0000      -0.504371       -13.7246
 202   2.0000      -0.502403       -13.6711
 203   2.0000      -0.497634       -13.5413
 204   2.0000      -0.495480       -13.4827
 205   2.0000      -0.494680       -13.4609
 206   2.0000      -0.492155       -13.3922
 207   2.0000      -0.491525       -13.3751
 208   2.0000      -0.485756       -13.2181
 209   2.0000      -0.482926       -13.1411
 210   2.0000      -0.482114       -13.1190
 211   2.0000      -0.471800       -12.8383
 212   2.0000      -0.471751       -12.8370
 213   2.0000      -0.467663       -12.7258
 214   2.0000      -0.467552       -12.7227
 215   2.0000      -0.464344       -12.6355
 216   2.0000      -0.463893       -12.6232
 217   2.0000      -0.460659       -12.5352
 218   2.0000      -0.459659       -12.5079
 219   2.0000      -0.458485       -12.4760
 220   2.0000      -0.458060       -12.4644
 221   2.0000      -0.457937       -12.4611
 222   2.0000      -0.454972       -12.3804
 223   2.0000      -0.454914       -12.3788
 224   2.0000      -0.450326       -12.2540
 225   2.0000      -0.448923       -12.2158
 226   2.0000      -0.448790       -12.2122
 227   2.0000      -0.445625       -12.1261
 228   2.0000      -0.445458       -12.1215
 229   2.0000      -0.441994       -12.0273
 230   2.0000      -0.441429       -12.0119
 231   2.0000      -0.436226       -11.8703
 232   2.0000      -0.436125       -11.8676
 233   2.0000      -0.435451       -11.8492
 234   2.0000      -0.435078       -11.8391
 235   2.0000      -0.429266       -11.6809
 236   2.0000      -0.422765       -11.5040
 237   2.0000      -0.422114       -11.4863
 238   2.0000      -0.412974       -11.2376
 239   2.0000      -0.412352       -11.2207
 240   2.0000      -0.407829       -11.0976
 241   2.0000      -0.396192       -10.7809
 242   2.0000      -0.395074       -10.7505
 243   2.0000      -0.393887       -10.7182
 244   2.0000      -0.378054       -10.2874
 245   2.0000      -0.364193        -9.9102
 246   2.0000      -0.357835        -9.7372
 247   2.0000      -0.353921        -9.6307
 248   2.0000      -0.353317        -9.6143
 249   2.0000      -0.353023        -9.6063
 250   2.0000      -0.352946        -9.6042
 251   2.0000      -0.348143        -9.4735
 252   2.0000      -0.347614        -9.4591
 253   2.0000      -0.344441        -9.3727
 254   2.0000      -0.337861        -9.1937
 255   2.0000      -0.322729        -8.7819
 256   2.0000      -0.322704        -8.7812
 257   2.0000      -0.321593        -8.7510
 258   2.0000      -0.321440        -8.7468
 259   2.0000      -0.320522        -8.7219
 260   2.0000      -0.320275        -8.7151
 261   2.0000      -0.308624        -8.3981
 262   2.0000      -0.278711        -7.5841
 263   2.0000      -0.243011        -6.6127
 264   0.0000      -0.131945        -3.5904
 265   0.0000      -0.103435        -2.8146
 266   0.0000      -0.096918        -2.6373
 267   0.0000      -0.070311        -1.9133
 268   0.0000      -0.070216        -1.9107

MULLIKEN ATOMIC CHARGES
-----------------------
   0 C :   -0.177751
   1 C :    0.185506
   2 O :   -0.128915
   3 C :   -0.065922
   4 C :   -0.034926
   5 C :    0.139384
   6 O :   -0.133020
   7 C :    0.209181
   8 C :   -0.036065
   9 C :   -0.031213
  10 C :    0.211413
  11 F :   -0.156671
  12 F :   -0.160551
  13 C :    0.054883
  14 C :   -0.105528
  15 C :   -0.010684
  16 C :   -0.001272
  17 C :   -0.089368
  18 S :    0.195602
  19 C :   -0.074091
  20 C :    0.051606
  21 C :    0.317282
  22 C :   -0.305371
  23 C :   -0.188101
  24 N :    0.168170
  25 C :   -0.201194
  26 N :    0.203381
  27 C :   -0.068463
  28 C :   -0.177148
  29 S :    0.205426
  30 C :    0.197586
  31 C :   -0.070994
  32 C :   -0.072739
  33 N :   -0.031453
  34 C :    0.047384
  35 C :    0.043726
  36 N :   -0.029965
  37 C :    0.198428
  38 C :   -0.021374
  39 C :   -0.020332
  40 N :   -0.332536
  41 S :    0.566348
  42 N :   -0.331282
  43 C :   -0.175700
  44 C :   -0.071852
  45 C :    0.051557
  46 C :   -0.073337
  47 S :    0.205595
  48 C :   -0.088697
  49 C :   -0.001250
  50 C :    0.317981
  51 C :   -0.307405
  52 C :   -0.199900
  53 N :    0.200518
  54 C :   -0.187062
  55 N :    0.169094
  56 C :   -0.007881
  57 C :   -0.108218
  58 S :    0.194521
  59 C :    0.057502
  60 C :   -0.176377
  61 C :    0.137628
  62 O :   -0.131976
  63 C :   -0.034140
  64 C :   -0.065067
  65 C :    0.184815
  66 O :   -0.129943
  67 C :    0.209856
  68 C :   -0.030048
  69 C :   -0.033695
  70 C :    0.208962
  71 F :   -0.161618
  72 F :   -0.157504
  73 H :    0.010631
  74 H :    0.011164
  75 H :    0.014421
  76 H :    0.037221
  77 H :    0.023363
  78 H :    0.035941
  79 H :    0.035995
  80 H :    0.025393
  81 H :    0.036476
  82 H :    0.014345
  83 H :    0.010652
  84 H :    0.009663
Sum of atomic charges:   -0.0000000

LOEWDIN ATOMIC CHARGES
----------------------
   0 C :   -0.134899
   1 C :    0.081883
   2 O :   -0.125411
   3 C :   -0.064844
   4 C :   -0.068339
   5 C :    0.078053
   6 O :   -0.138063
   7 C :    0.093468
   8 C :   -0.023376
   9 C :   -0.022358
  10 C :    0.093905
  11 F :   -0.040293
  12 F :   -0.043642
  13 C :    0.052117
  14 C :   -0.179674
  15 C :    0.015039
  16 C :   -0.072365
  17 C :   -0.161171
  18 S :    0.485523
  19 C :   -0.192206
  20 C :   -0.062045
  21 C :    0.076066
  22 C :   -0.096223
  23 C :   -0.011834
  24 N :   -0.037589
  25 C :   -0.026150
  26 N :   -0.013028
  27 C :   -0.013321
  28 C :   -0.154506
  29 S :    0.508791
  30 C :   -0.043341
  31 C :   -0.004303
  32 C :   -0.004228
  33 N :   -0.022215
  34 C :    0.026739
  35 C :    0.026384
  36 N :   -0.021950
  37 C :   -0.043503
  38 C :   -0.048978
  39 C :   -0.048861
  40 N :   -0.303126
  41 S :    0.683509
  42 N :   -0.303126
  43 C :   -0.154431
  44 C :   -0.013667
  45 C :   -0.062017
  46 C :   -0.192412
  47 S :    0.508934
  48 C :   -0.161123
  49 C :   -0.072352
  50 C :    0.076134
  51 C :   -0.096204
  52 C :   -0.025866
  53 N :   -0.013234
  54 C :   -0.011824
  55 N :   -0.037727
  56 C :    0.015098
  57 C :   -0.179794
  58 S :    0.485629
  59 C :    0.052001
  60 C :   -0.134920
  61 C :    0.077876
  62 O :   -0.137971
  63 C :   -0.068394
  64 C :   -0.064796
  65 C :    0.082006
  66 O :   -0.125513
  67 C :    0.094016
  68 C :   -0.022368
  69 C :   -0.023030
  70 C :    0.093609
  71 F :   -0.043820
  72 F :   -0.040359
  73 H :    0.045068
  74 H :    0.045336
  75 H :    0.042401
  76 H :    0.043864
  77 H :    0.036967
  78 H :    0.036433
  79 H :    0.036465
  80 H :    0.037217
  81 H :    0.043824
  82 H :    0.042361
  83 H :    0.045216
  84 H :    0.044862

  Mayer bond orders larger than 0.100000
B(  0-C ,  1-C ) :   0.9624 B(  0-C ,  5-C ) :   0.9813 B(  0-C , 13-C ) :   1.6619
B(  1-C ,  2-O ) :   2.1971 B(  1-C ,  3-C ) :   0.9130 B(  3-C ,  4-C ) :   1.3816
B(  3-C , 10-C ) :   1.3104 B(  4-C ,  5-C ) :   0.8868 B(  4-C ,  7-C ) :   1.3032
B(  5-C ,  6-O ) :   2.2781 B(  7-C ,  8-C ) :   1.3475 B(  7-C , 12-F ) :   1.2012
B(  8-C ,  9-C ) :   1.3445 B(  8-C , 73-H ) :   0.9904 B(  9-C , 10-C ) :   1.3449
B(  9-C , 74-H ) :   0.9912 B( 10-C , 11-F ) :   1.2029 B( 13-C , 14-C ) :   1.1516
B( 13-C , 75-H ) :   0.9312 B( 14-C , 15-C ) :   1.4087 B( 14-C , 18-S ) :   1.0719
B( 15-C , 16-C ) :   1.3048 B( 15-C , 76-H ) :   0.9704 B( 16-C , 17-C ) :   1.3790
B( 16-C , 21-C ) :   0.9925 B( 17-C , 18-S ) :   1.1604 B( 17-C , 19-C ) :   1.2089
B( 19-C , 20-C ) :   1.3971 B( 19-C , 29-S ) :   1.0893 B( 20-C , 21-C ) :   0.9932
B( 20-C , 27-C ) :   1.2599 B( 21-C , 22-C ) :   1.7131 B( 22-C , 23-C ) :   1.1430
B( 22-C , 25-C ) :   1.1331 B( 23-C , 24-N ) :   2.9859 B( 25-C , 26-N ) :   3.0059
B( 27-C , 28-C ) :   1.4052 B( 27-C , 77-H ) :   0.9806 B( 28-C , 29-S ) :   1.1053
B( 28-C , 30-C ) :   1.1900 B( 30-C , 31-C ) :   1.2671 B( 30-C , 37-C ) :   0.1329
B( 30-C , 39-C ) :   1.2031 B( 31-C , 32-C ) :   1.1207 B( 31-C , 36-N ) :   1.4673
B( 32-C , 33-N ) :   1.4676 B( 32-C , 37-C ) :   1.2674 B( 33-N , 34-C ) :   1.6688
B( 34-C , 35-C ) :   1.1795 B( 34-C , 78-H ) :   0.9744 B( 35-C , 36-N ) :   1.6700
B( 35-C , 79-H ) :   0.9748 B( 37-C , 38-C ) :   1.2034 B( 37-C , 43-C ) :   1.1895
B( 38-C , 39-C ) :   1.1210 B( 38-C , 42-N ) :   1.4616 B( 39-C , 40-N ) :   1.4604
B( 40-N , 41-S ) :   1.2797 B( 40-N , 42-N ) :   0.1560 B( 41-S , 42-N ) :   1.2791
B( 43-C , 44-C ) :   1.4047 B( 43-C , 47-S ) :   1.1048 B( 44-C , 45-C ) :   1.2583
B( 44-C , 80-H ) :   0.9818 B( 45-C , 46-C ) :   1.3981 B( 45-C , 50-C ) :   0.9940
B( 46-C , 47-S ) :   1.0890 B( 46-C , 48-C ) :   1.2083 B( 48-C , 49-C ) :   1.3790
B( 48-C , 58-S ) :   1.1602 B( 49-C , 50-C ) :   0.9931 B( 49-C , 56-C ) :   1.3044
B( 50-C , 51-C ) :   1.7131 B( 51-C , 52-C ) :   1.1339 B( 51-C , 54-C ) :   1.1426
B( 52-C , 53-N ) :   3.0042 B( 54-C , 55-N ) :   2.9863 B( 56-C , 57-C ) :   1.4088
B( 56-C , 81-H ) :   0.9703 B( 57-C , 58-S ) :   1.0725 B( 57-C , 59-C ) :   1.1513
B( 59-C , 60-C ) :   1.6640 B( 59-C , 82-H ) :   0.9298 B( 60-C , 61-C ) :   0.9809
B( 60-C , 65-C ) :   0.9631 B( 61-C , 62-O ) :   2.2795 B( 61-C , 63-C ) :   0.8870
B( 63-C , 64-C ) :   1.3819 B( 63-C , 70-C ) :   1.3041 B( 64-C , 65-C ) :   0.9129
B( 64-C , 67-C ) :   1.3105 B( 65-C , 66-O ) :   2.1950 B( 67-C , 68-C ) :   1.3454
B( 67-C , 72-F ) :   1.2015 B( 68-C , 69-C ) :   1.3442 B( 68-C , 83-H ) :   0.9911
B( 69-C , 70-C ) :   1.3474 B( 69-C , 84-H ) :   0.9910 B( 70-C , 71-F ) :   1.1993

-----------------------------------------------------------------------------
         ABSORPTION SPECTRUM VIA TRANSITION ELECTRIC DIPOLE MOMENTS
-----------------------------------------------------------------------------
State   Energy  Wavelength   fosc         T2         TX        TY        TZ
        (cm-1)    (nm)                  (au**2)     (au)      (au)      (au)
-----------------------------------------------------------------------------
   0    9573.8   1044.5   1.104469329  37.97927  -1.68194  -5.88592  -0.71152
   1   13896.2    719.6   0.007149520   0.16938   0.22475  -0.10258   0.32915
   2   14737.7    678.5   0.000427748   0.00956  -0.01369  -0.09413  -0.02252
   3   18161.5    550.6   0.006565204   0.11901   0.16316  -0.07808   0.29375
   4   22539.7    443.7   0.860716183  12.57148  -1.00484  -3.37917  -0.37816
   5   22727.8    440.0   0.002309073   0.03345  -0.13479   0.04407   0.11548
   6   23586.2    424.0   0.075188815   1.04947   0.57158  -0.19849   0.82666
   7   23991.9    416.8   1.121820438  15.39336   1.16198   3.73154   0.34468
   8   25323.9    394.9   0.060628482   0.78817  -0.53647   0.24889  -0.66214
   9   25650.1    389.9   0.038018538   0.48796  -0.18609  -0.66685  -0.09291
  10   26228.4    381.3   0.004014553   0.05039  -0.06827  -0.21320  -0.01661
  11   26270.0    380.7   0.015587977   0.19535   0.31191  -0.15782   0.27047
  12   26323.8    379.9   0.013408353   0.16769  -0.16623  -0.36678  -0.07433
  13   26467.6    377.8   0.000059834   0.00074   0.01199  -0.00053   0.02450
  14   28222.3    354.3   0.004952734   0.05777   0.08655   0.22415   0.00629
  15   29968.6    333.7   0.008454391   0.09287   0.13691   0.17215   0.21093
  16   29977.7    333.6   0.011416047   0.12537   0.19001  -0.23357   0.18632
  17   30169.6    331.5   0.143264189   1.56331   0.80561  -0.33021   0.89736
  18   30784.7    324.8   0.005585528   0.05973  -0.05005   0.21469  -0.10551
  19   30917.5    323.4   0.277433060   2.95413   1.09693  -0.44468   1.24625
  20   30984.4    322.7   0.098006448   1.04133  -0.32158  -0.96452  -0.08722
  21   31544.4    317.0   0.018228072   0.19024  -0.09281  -0.41659  -0.08988
  22   31575.5    316.7   0.002695608   0.02810   0.06874  -0.13395   0.07373
  23   31602.6    316.4   0.092692235   0.96560   0.19320   0.94899   0.16639
  24   31725.6    315.2   0.047013888   0.48786  -0.44113   0.19647  -0.50464
  25   32045.5    312.1   0.371274320   3.81420   1.26270  -0.52896   1.39283
  26   32344.9    309.2   0.007797612   0.07937   0.03931   0.27871   0.01196
  27   32540.7    307.3   0.570120888   5.76786   0.67442   2.29087   0.25487
  28   32597.5    306.8   0.001728500   0.01746   0.04353  -0.10790   0.06260
  29   32788.4    305.0   0.081533307   0.81863   0.67239  -0.18696   0.57583
  30   33375.4    299.6   0.189181218   1.86607  -0.54459  -1.23387  -0.21692
  31   33392.5    299.5   0.052829363   0.52084   0.30708  -0.53509   0.37446
  32   33613.6    297.5   0.067006103   0.65626   0.29854   0.75306   0.00655
  33   33684.0    296.9   0.008176545   0.07991   0.15044   0.23723   0.03167
  34   34019.4    293.9   0.085454559   0.82696   0.25479   0.86710   0.10092
  35   34724.4    288.0   0.000894542   0.00848   0.07702  -0.01752  -0.04735
  36   34790.5    287.4   0.000062007   0.00059   0.02231   0.00927  -0.00178
  37   35280.6    283.4   0.003859588   0.03601  -0.09366   0.09183  -0.13715
  38   35294.0    283.3   0.006586009   0.06143  -0.15625   0.09111  -0.16946
  39   35488.5    281.8   0.039037685   0.36214  -0.12540  -0.58321  -0.07926
  40   35640.0    280.6   0.033575235   0.31014   0.36080  -0.13050   0.40365
  41   35688.3    280.2   0.005967127   0.05504   0.15389  -0.01189   0.17670
  42   36285.5    275.6   0.150208495   1.36282  -0.67936  -0.71090  -0.62920
  43   36299.5    275.5   0.578268370   5.24450   1.38217  -0.88558   1.59683
  44   37271.3    268.3   0.250846946   2.21570  -0.97492   0.36042  -1.06551
  45   37312.9    268.0   0.016542539   0.14596   0.07508  -0.32109   0.19293
  46   37422.8    267.2   0.005578855   0.04908   0.16248   0.05709   0.13935
  47   37430.1    267.2   0.011797365   0.10376  -0.18869   0.16064  -0.20580
  48   37485.7    266.8   0.042047508   0.36928   0.41615  -0.13908   0.42042
  49   37496.0    266.7   0.017389177   0.15268   0.23700  -0.13812   0.27827
  50   38079.8    262.6   0.008574281   0.07413  -0.07766  -0.25948  -0.02768
  51   38243.7    261.5   0.000965322   0.00831  -0.06428   0.00225  -0.06460
  52   38371.0    260.6   0.022150245   0.19004   0.28121  -0.06172   0.32734
  53   38382.6    260.5   0.007146171   0.06129   0.15168  -0.15570   0.11851
  54   38632.6    258.8   0.027667207   0.23577  -0.14532  -0.45728  -0.07448
  55   38645.5    258.8   0.018067519   0.15391   0.24076  -0.13211   0.28017
  56   39079.7    255.9   0.006486844   0.05465   0.01699   0.23314  -0.00086
  57   39200.2    255.1   0.001912657   0.01606  -0.10099  -0.03826  -0.06632
  58   39226.7    254.9   0.005424390   0.04552  -0.09544   0.13745  -0.13238
  59   39369.1    254.0   0.018162690   0.15188  -0.09772   0.34376  -0.15544
  60   39625.2    252.4   0.032964189   0.27387  -0.18106  -0.47063  -0.13999
  61   39814.8    251.2   0.026396901   0.21827   0.04346   0.46487  -0.01653
  62   39865.9    250.8   0.242880646   2.00571  -0.60263  -1.27566  -0.12347
  63   40138.2    249.1   0.058433509   0.47927  -0.16201  -0.67256  -0.02620
  64   40258.0    248.4   0.084962011   0.69478   0.53278  -0.28931   0.57204

FINAL SINGLE POINT ENERGY     -5113.442339078425

DIPOLE MOMENT
-------------
                                X             Y             Z
Electronic contribution:     -8.86182       3.74597     -10.06660
Nuclear contribution   :      7.46678      -3.16428       8.52522
                        -----------------------------------------
Total Dipole Moment    :     -1.39504       0.58170      -1.54138
                        -----------------------------------------
Magnitude (a.u.)       :      2.15878
Magnitude (Debye)      :      5.48719

Rotational constants in cm-1:     0.003259     0.000181     0.000171
Rotational constants in MHz :    97.712895     5.419984     5.140924

                             ****ORCA TERMINATED NORMALLY****
TOTAL RUN TIME: 0 days 0 hours 8 minutes 12 seconds 673 msec
