                         Program Version 4.2.0 -  RELEASE  -
|  1> # ORCA input file
|  2> # SCF done       -196.166024580888          0.000562514735
|  3> ! CAM-B3LYP def2-SVP def2/J RIJCOSX Grid4 TightSCF
|  4> %maxcore 5000
|  5> %tddft
|  6>     Mode sTDDFT
|  7>     Ethresh 5.0
|  8>     maxcore 5000
|  9> end
| 10>
| 11> %pal
| 12>   nprocs 6
| 13>   end
| 14> * xyz 0 1
| 15>    C        3.83845        -4.13023         3.46210
| 16>    C        3.72288        -4.41816         2.16588
| 17>    C        4.75679        -4.12352         1.21354
| 18>    C        4.65078        -4.36444        -0.10691
| 19>    C        5.63591        -4.04394        -1.10444
| 20>    C        6.86923        -3.57548        -0.85205
| 21>    C        7.83968        -3.17535        -1.85867
| 22>    C        8.72883        -2.11508        -1.59812
| 23>    C        8.60394        -1.27073        -0.38807
| 24>    O        9.55893        -0.88367         0.25301
| 25>    C        7.20499        -0.89421        -0.05633
| 26>    C        6.26991        -0.58604        -1.00247
| 27>    S        4.73287        -0.24846        -0.32830
| 28>    C        5.32773        -0.56037         1.25456
| 29>    C        6.65350        -0.85705         1.26253
| 30>    C        7.40655        -1.23199         2.49585
| 31>    O        7.12037        -2.24042         3.10869
| 32>    C        8.48511        -0.31464         2.90180
| 33>    C        8.57020         0.98302         2.39943
| 34>    C        9.59314         1.81427         2.80998
| 35>    C       10.53946         1.36062         3.71595
| 36>    C       10.45726         0.07379         4.22381
| 37>    C        9.43185        -0.75941         3.82391
| 38>    C        9.73481        -1.81626        -2.51189
| 39>    C        9.83533        -2.50570        -3.70151
| 40>    C        8.94073        -3.53661        -3.99783
| 41>    C        7.96265        -3.86145        -3.06208
| 42>    C        9.05725        -4.28514        -5.25455
| 43>    C        8.89847        -5.64354        -5.27695
| 44>    C        9.06583        -6.36173        -6.48372
| 45>    C        8.99575        -7.71587        -6.76083
| 46>    C        8.71482        -8.80136        -5.77334
| 47>    C        7.57642        -9.75694        -6.21176
| 48>    N        8.04522       -10.86208        -7.02985
| 49>    C       10.00363        -9.57486        -5.44797
| 50>    N       11.03025        -8.65309        -4.99548
| 51>    C        9.26200        -7.86473        -8.17267
| 52>    C        9.28933        -8.95640        -8.95948
| 53>    C        9.52609        -8.85486       -10.42272
| 54>    C        9.84444        -7.47187       -10.91221
| 55>    C        9.81522        -6.39382       -10.10839
| 56>    C        9.51002        -6.53141        -8.73286
| 57>    C        9.38702        -5.62434        -7.69925
| 58>    C        9.51591        -4.21766        -7.64611
| 59>    C        9.36374        -3.57615        -6.45976
| 60>    C        8.32919        -9.32587       -11.21697
| 61>    C        7.10487        -9.46507       -10.71548
| 62>    C        5.92237        -9.80766       -11.49393
| 63>    C        4.80071       -10.40624       -10.88654
| 64>    C        4.80124       -10.81332        -9.46912
| 65>    O        5.76176       -11.31166        -8.90786
| 66>    C        3.51824       -10.62895        -8.75696
| 67>    C        3.11744       -11.46971        -7.75720
| 68>    S        1.56310       -11.08685        -7.15190
| 69>    C        1.43184        -9.76762        -8.24514
| 70>    C        2.53562        -9.62221        -9.02867
| 71>    C        2.66893        -8.51233       -10.00856
| 72>    O        1.77035        -8.23133       -10.77342
| 73>    C        3.93561        -7.74629        -9.95158
| 74>    C        4.32754        -7.02951       -11.08130
| 75>    C        5.48849        -6.28263       -11.06251
| 76>    C        6.25363        -6.21994        -9.90898
| 77>    C        5.85900        -6.91062        -8.77426
| 78>    C        4.70938        -7.67876        -8.79377
| 79>    C        3.66933       -10.68189       -11.65865
| 80>    C        3.61697       -10.35999       -12.99424
| 81>    C        4.70021        -9.72204       -13.61172
| 82>    C        5.83334        -9.46448       -12.83774
| 83>    C        4.70263        -9.32375       -15.00116
| 84>    C        3.65995        -9.39050       -15.85189
| 85>    C        3.66921        -8.99963       -17.23258
| 86>    C        4.73055        -8.57228       -17.94535
| 87>    C        4.65107        -8.20764       -19.33187
| 88>    C        5.69541        -7.79033       -20.04736
| 89>    H        3.05790        -4.34965         4.17048
| 90>    H        4.73010        -3.66369         3.84784
| 91>    H        2.82289        -4.88565         1.78453
| 92>    H        5.64535        -3.66695         1.62523
| 93>    H        3.73288        -4.80491        -0.47872
| 94>    H        5.31797        -4.15693        -2.13368
| 95>    H        7.18945        -3.45967         0.17374
| 96>    H        6.41092        -0.52972        -2.06380
| 97>    H        4.66907        -0.48761         2.09696
| 98>    H        7.83374         1.33857         1.69352
| 99>    H        9.65943         2.81898         2.41937
|100>    H       11.34334         2.01244         4.02575
|101>    H       11.19586        -0.27787         4.92882
|102>    H        9.35042        -1.76727         4.20279
|103>    H       10.42290        -1.01734        -2.27714
|104>    H       10.62634        -2.26672        -4.39628
|105>    H        7.28603        -4.67755        -3.26863
|106>    H        8.68660        -6.17723        -4.36153
|107>    H        8.38227        -8.31614        -4.84815
|108>    H        6.85612        -9.18249        -6.80028
|109>    H        7.05652       -10.10518        -5.30368
|110>    H        7.28466       -11.23693        -7.58660
|111>    H        8.41285       -11.60851        -6.45173
|112>    H       10.37091       -10.05687        -6.35572
|113>    H        9.76514       -10.36012        -4.70677
|114>    H       10.72940        -8.16503        -4.15838
|115>    H       11.88435        -9.15288        -4.77630
|116>    H        9.09080        -9.93942        -8.55219
|117>    H       10.36623        -9.51988       -10.67746
|118>    H       10.07312        -7.37985       -11.96374
|119>    H       10.03613        -5.41058       -10.50182
|120>    H        9.73936        -3.66667        -8.54884
|121>    H        9.44933        -2.50034        -6.40806
|122>    H        8.52606        -9.50144       -12.26593
|123>    H        6.95522        -9.32917        -9.65483
|124>    H        3.65659       -12.31430        -7.37533
|125>    H        0.55826        -9.14632        -8.23700
|126>    H        3.71024        -7.08434       -11.96562
|127>    H        5.79455        -5.74114       -11.94503
|128>    H        7.15812        -5.63275        -9.88646
|129>    H        6.45529        -6.84720        -7.87608
|130>    H        4.39828        -8.20511        -7.90235
|131>    H        2.82852       -11.18758       -11.20574
|132>    H        2.73021       -10.60083       -13.55750
|133>    H        6.66593        -8.95230       -13.29691
|134>    H        5.64459        -8.92639       -15.35530
|135>    H        2.70947        -9.75856       -15.49039
|136>    H        2.71512        -9.07076       -17.74104
|137>    H        5.70616        -8.49275       -17.48652
|138>    H        3.67586        -8.28674       -19.79551
|139>    H        6.67734        -7.70268       -19.61195
|140>    H        5.60602        -7.52422       -21.08609
|141> *
|142>
|143>                          ****END OF INPUT****

CARTESIAN COORDINATES (ANGSTROEM)
---------------------------------
  C      3.838450   -4.130230    3.462100
  C      3.722880   -4.418160    2.165880
  C      4.756790   -4.123520    1.213540
  C      4.650780   -4.364440   -0.106910
  C      5.635910   -4.043940   -1.104440
  C      6.869230   -3.575480   -0.852050
  C      7.839680   -3.175350   -1.858670
  C      8.728830   -2.115080   -1.598120
  C      8.603940   -1.270730   -0.388070
  O      9.558930   -0.883670    0.253010
  C      7.204990   -0.894210   -0.056330
  C      6.269910   -0.586040   -1.002470
  S      4.732870   -0.248460   -0.328300
  C      5.327730   -0.560370    1.254560
  C      6.653500   -0.857050    1.262530
  C      7.406550   -1.231990    2.495850
  O      7.120370   -2.240420    3.108690
  C      8.485110   -0.314640    2.901800
  C      8.570200    0.983020    2.399430
  C      9.593140    1.814270    2.809980
  C     10.539460    1.360620    3.715950
  C     10.457260    0.073790    4.223810
  C      9.431850   -0.759410    3.823910
  C      9.734810   -1.816260   -2.511890
  C      9.835330   -2.505700   -3.701510
  C      8.940730   -3.536610   -3.997830
  C      7.962650   -3.861450   -3.062080
  C      9.057250   -4.285140   -5.254550
  C      8.898470   -5.643540   -5.276950
  C      9.065830   -6.361730   -6.483720
  C      8.995750   -7.715870   -6.760830
  C      8.714820   -8.801360   -5.773340
  C      7.576420   -9.756940   -6.211760
  N      8.045220  -10.862080   -7.029850
  C     10.003630   -9.574860   -5.447970
  N     11.030250   -8.653090   -4.995480
  C      9.262000   -7.864730   -8.172670
  C      9.289330   -8.956400   -8.959480
  C      9.526090   -8.854860  -10.422720
  C      9.844440   -7.471870  -10.912210
  C      9.815220   -6.393820  -10.108390
  C      9.510020   -6.531410   -8.732860
  C      9.387020   -5.624340   -7.699250
  C      9.515910   -4.217660   -7.646110
  C      9.363740   -3.576150   -6.459760
  C      8.329190   -9.325870  -11.216970
  C      7.104870   -9.465070  -10.715480
  C      5.922370   -9.807660  -11.493930
  C      4.800710  -10.406240  -10.886540
  C      4.801240  -10.813320   -9.469120
  O      5.761760  -11.311660   -8.907860
  C      3.518240  -10.628950   -8.756960
  C      3.117440  -11.469710   -7.757200
  S      1.563100  -11.086850   -7.151900
  C      1.431840   -9.767620   -8.245140
  C      2.535620   -9.622210   -9.028670
  C      2.668930   -8.512330  -10.008560
  O      1.770350   -8.231330  -10.773420
  C      3.935610   -7.746290   -9.951580
  C      4.327540   -7.029510  -11.081300
  C      5.488490   -6.282630  -11.062510
  C      6.253630   -6.219940   -9.908980
  C      5.859000   -6.910620   -8.774260
  C      4.709380   -7.678760   -8.793770
  C      3.669330  -10.681890  -11.658650
  C      3.616970  -10.359990  -12.994240
  C      4.700210   -9.722040  -13.611720
  C      5.833340   -9.464480  -12.837740
  C      4.702630   -9.323750  -15.001160
  C      3.659950   -9.390500  -15.851890
  C      3.669210   -8.999630  -17.232580
  C      4.730550   -8.572280  -17.945350
  C      4.651070   -8.207640  -19.331870
  C      5.695410   -7.790330  -20.047360
  H      3.057900   -4.349650    4.170480
  H      4.730100   -3.663690    3.847840
  H      2.822890   -4.885650    1.784530
  H      5.645350   -3.666950    1.625230
  H      3.732880   -4.804910   -0.478720
  H      5.317970   -4.156930   -2.133680
  H      7.189450   -3.459670    0.173740
  H      6.410920   -0.529720   -2.063800
  H      4.669070   -0.487610    2.096960
  H      7.833740    1.338570    1.693520
  H      9.659430    2.818980    2.419370
  H     11.343340    2.012440    4.025750
  H     11.195860   -0.277870    4.928820
  H      9.350420   -1.767270    4.202790
  H     10.422900   -1.017340   -2.277140
  H     10.626340   -2.266720   -4.396280
  H      7.286030   -4.677550   -3.268630
  H      8.686600   -6.177230   -4.361530
  H      8.382270   -8.316140   -4.848150
  H      6.856120   -9.182490   -6.800280
  H      7.056520  -10.105180   -5.303680
  H      7.284660  -11.236930   -7.586600
  H      8.412850  -11.608510   -6.451730
  H     10.370910  -10.056870   -6.355720
  H      9.765140  -10.360120   -4.706770
  H     10.729400   -8.165030   -4.158380
  H     11.884350   -9.152880   -4.776300
  H      9.090800   -9.939420   -8.552190
  H     10.366230   -9.519880  -10.677460
  H     10.073120   -7.379850  -11.963740
  H     10.036130   -5.410580  -10.501820
  H      9.739360   -3.666670   -8.548840
  H      9.449330   -2.500340   -6.408060
  H      8.526060   -9.501440  -12.265930
  H      6.955220   -9.329170   -9.654830
  H      3.656590  -12.314300   -7.375330
  H      0.558260   -9.146320   -8.237000
  H      3.710240   -7.084340  -11.965620
  H      5.794550   -5.741140  -11.945030
  H      7.158120   -5.632750   -9.886460
  H      6.455290   -6.847200   -7.876080
  H      4.398280   -8.205110   -7.902350
  H      2.828520  -11.187580  -11.205740
  H      2.730210  -10.600830  -13.557500
  H      6.665930   -8.952300  -13.296910
  H      5.644590   -8.926390  -15.355300
  H      2.709470   -9.758560  -15.490390
  H      2.715120   -9.070760  -17.741040
  H      5.706160   -8.492750  -17.486520
  H      3.675860   -8.286740  -19.795510
  H      6.677340   -7.702680  -19.611950
  H      5.606020   -7.524220  -21.086090

 Total Charge           Charge          ....    0
 Multiplicity           Mult            ....    1
 Number of Electrons    NEL             ....  526
 Basis Dimension        Dim             .... 1304

ORBITAL ENERGIES
----------------

  NO   OCC          E(Eh)            E(eV)
   0   2.0000     -88.971928     -2421.0492
   1   2.0000     -88.960156     -2420.7289
   2   2.0000     -19.212212      -522.7909
   3   2.0000     -19.204914      -522.5923
   4   2.0000     -19.200317      -522.4672
   5   2.0000     -19.198387      -522.4147
   6   2.0000     -14.368575      -390.9888
   7   2.0000     -14.365526      -390.9058
   8   2.0000     -10.366736      -282.0932
   9   2.0000     -10.356608      -281.8176
  10   2.0000     -10.355249      -281.7806
  11   2.0000     -10.352361      -281.7021
  12   2.0000     -10.309653      -280.5399
  13   2.0000     -10.306224      -280.4466
  14   2.0000     -10.297929      -280.2209
  15   2.0000     -10.295880      -280.1651
  16   2.0000     -10.287832      -279.9461
  17   2.0000     -10.286879      -279.9202
  18   2.0000     -10.284230      -279.8481
  19   2.0000     -10.283928      -279.8399
  20   2.0000     -10.278960      -279.7047
  21   2.0000     -10.278228      -279.6848
  22   2.0000     -10.277647      -279.6690
  23   2.0000     -10.277531      -279.6658
  24   2.0000     -10.276970      -279.6506
  25   2.0000     -10.276533      -279.6387
  26   2.0000     -10.276447      -279.6363
  27   2.0000     -10.274820      -279.5921
  28   2.0000     -10.273047      -279.5438
  29   2.0000     -10.272954      -279.5413
  30   2.0000     -10.272115      -279.5185
  31   2.0000     -10.271347      -279.4976
  32   2.0000     -10.271264      -279.4953
  33   2.0000     -10.270985      -279.4877
  34   2.0000     -10.270959      -279.4870
  35   2.0000     -10.270719      -279.4805
  36   2.0000     -10.270579      -279.4767
  37   2.0000     -10.270066      -279.4627
  38   2.0000     -10.269363      -279.4436
  39   2.0000     -10.269082      -279.4359
  40   2.0000     -10.267049      -279.3806
  41   2.0000     -10.265666      -279.3430
  42   2.0000     -10.265364      -279.3348
  43   2.0000     -10.265256      -279.3318
  44   2.0000     -10.264602      -279.3140
  45   2.0000     -10.264289      -279.3055
  46   2.0000     -10.263595      -279.2866
  47   2.0000     -10.263272      -279.2778
  48   2.0000     -10.262836      -279.2660
  49   2.0000     -10.262443      -279.2553
  50   2.0000     -10.262129      -279.2467
  51   2.0000     -10.261698      -279.2350
  52   2.0000     -10.261348      -279.2255
  53   2.0000     -10.261255      -279.2229
  54   2.0000     -10.260595      -279.2050
  55   2.0000     -10.260400      -279.1997
  56   2.0000     -10.260139      -279.1926
  57   2.0000     -10.260060      -279.1904
  58   2.0000     -10.260010      -279.1891
  59   2.0000     -10.258308      -279.1427
  60   2.0000     -10.257608      -279.1237
  61   2.0000     -10.256902      -279.1045
  62   2.0000     -10.255306      -279.0611
  63   2.0000     -10.255245      -279.0594
  64   2.0000     -10.255073      -279.0547
  65   2.0000     -10.255018      -279.0532
  66   2.0000     -10.254146      -279.0295
  67   2.0000     -10.251760      -278.9646
  68   2.0000     -10.251708      -278.9631
  69   2.0000     -10.246914      -278.8327
  70   2.0000     -10.246616      -278.8246
  71   2.0000     -10.245637      -278.7980
  72   2.0000     -10.245004      -278.7807
  73   2.0000     -10.243458      -278.7387
  74   2.0000      -8.068096      -219.5441
  75   2.0000      -8.056202      -219.2204
  76   2.0000      -6.037196      -164.2805
  77   2.0000      -6.032769      -164.1600
  78   2.0000      -6.030828      -164.1072
  79   2.0000      -6.025358      -163.9583
  80   2.0000      -6.020969      -163.8389
  81   2.0000      -6.018811      -163.7802
  82   2.0000      -1.127376       -30.6775
  83   2.0000      -1.119978       -30.4762
  84   2.0000      -1.117282       -30.4028
  85   2.0000      -1.114225       -30.3196
  86   2.0000      -0.994631       -27.0653
  87   2.0000      -0.984626       -26.7930
  88   2.0000      -0.969889       -26.3920
  89   2.0000      -0.963495       -26.2180
  90   2.0000      -0.957029       -26.0421
  91   2.0000      -0.951959       -25.9041
  92   2.0000      -0.944795       -25.7092
  93   2.0000      -0.940931       -25.6040
  94   2.0000      -0.940528       -25.5931
  95   2.0000      -0.927980       -25.2516
  96   2.0000      -0.914157       -24.8755
  97   2.0000      -0.903698       -24.5909
  98   2.0000      -0.894328       -24.3359
  99   2.0000      -0.889381       -24.2013
 100   2.0000      -0.877472       -23.8772
 101   2.0000      -0.869226       -23.6529
 102   2.0000      -0.864674       -23.5290
 103   2.0000      -0.859229       -23.3808
 104   2.0000      -0.857042       -23.3213
 105   2.0000      -0.849966       -23.1287
 106   2.0000      -0.847966       -23.0743
 107   2.0000      -0.836794       -22.7703
 108   2.0000      -0.832876       -22.6637
 109   2.0000      -0.830265       -22.5927
 110   2.0000      -0.828251       -22.5378
 111   2.0000      -0.826702       -22.4957
 112   2.0000      -0.825583       -22.4653
 113   2.0000      -0.822191       -22.3730
 114   2.0000      -0.820005       -22.3135
 115   2.0000      -0.815535       -22.1918
 116   2.0000      -0.806735       -21.9524
 117   2.0000      -0.796773       -21.6813
 118   2.0000      -0.777930       -21.1685
 119   2.0000      -0.777360       -21.1530
 120   2.0000      -0.746184       -20.3047
 121   2.0000      -0.741753       -20.1841
 122   2.0000      -0.734687       -19.9919
 123   2.0000      -0.727981       -19.8094
 124   2.0000      -0.722494       -19.6600
 125   2.0000      -0.717002       -19.5106
 126   2.0000      -0.716607       -19.4999
 127   2.0000      -0.709292       -19.3008
 128   2.0000      -0.700487       -19.0612
 129   2.0000      -0.696529       -18.9535
 130   2.0000      -0.686541       -18.6817
 131   2.0000      -0.682288       -18.5660
 132   2.0000      -0.673628       -18.3304
 133   2.0000      -0.672770       -18.3070
 134   2.0000      -0.668158       -18.1815
 135   2.0000      -0.666212       -18.1285
 136   2.0000      -0.661011       -17.9870
 137   2.0000      -0.658764       -17.9259
 138   2.0000      -0.653655       -17.7869
 139   2.0000      -0.650975       -17.7139
 140   2.0000      -0.648089       -17.6354
 141   2.0000      -0.645051       -17.5527
 142   2.0000      -0.635965       -17.3055
 143   2.0000      -0.633529       -17.2392
 144   2.0000      -0.630480       -17.1562
 145   2.0000      -0.620900       -16.8956
 146   2.0000      -0.616371       -16.7723
 147   2.0000      -0.612110       -16.6564
 148   2.0000      -0.610508       -16.6128
 149   2.0000      -0.605863       -16.4864
 150   2.0000      -0.604450       -16.4479
 151   2.0000      -0.597142       -16.2491
 152   2.0000      -0.584204       -15.8970
 153   2.0000      -0.580365       -15.7925
 154   2.0000      -0.572774       -15.5860
 155   2.0000      -0.571211       -15.5434
 156   2.0000      -0.565345       -15.3838
 157   2.0000      -0.563060       -15.3216
 158   2.0000      -0.561063       -15.2673
 159   2.0000      -0.559989       -15.2381
 160   2.0000      -0.552809       -15.0427
 161   2.0000      -0.548707       -14.9311
 162   2.0000      -0.546591       -14.8735
 163   2.0000      -0.542140       -14.7524
 164   2.0000      -0.540197       -14.6995
 165   2.0000      -0.537632       -14.6297
 166   2.0000      -0.536871       -14.6090
 167   2.0000      -0.532386       -14.4870
 168   2.0000      -0.528866       -14.3912
 169   2.0000      -0.528312       -14.3761
 170   2.0000      -0.526060       -14.3148
 171   2.0000      -0.523381       -14.2419
 172   2.0000      -0.521584       -14.1930
 173   2.0000      -0.520924       -14.1751
 174   2.0000      -0.517839       -14.0911
 175   2.0000      -0.516778       -14.0623
 176   2.0000      -0.510325       -13.8867
 177   2.0000      -0.509639       -13.8680
 178   2.0000      -0.508617       -13.8402
 179   2.0000      -0.506834       -13.7916
 180   2.0000      -0.504978       -13.7412
 181   2.0000      -0.503415       -13.6986
 182   2.0000      -0.501747       -13.6532
 183   2.0000      -0.499547       -13.5934
 184   2.0000      -0.498812       -13.5734
 185   2.0000      -0.494896       -13.4668
 186   2.0000      -0.494446       -13.4546
 187   2.0000      -0.493422       -13.4267
 188   2.0000      -0.492595       -13.4042
 189   2.0000      -0.491333       -13.3698
 190   2.0000      -0.489047       -13.3076
 191   2.0000      -0.487731       -13.2718
 192   2.0000      -0.486376       -13.2350
 193   2.0000      -0.483074       -13.1451
 194   2.0000      -0.480269       -13.0688
 195   2.0000      -0.479803       -13.0561
 196   2.0000      -0.475087       -12.9278
 197   2.0000      -0.474799       -12.9199
 198   2.0000      -0.472546       -12.8586
 199   2.0000      -0.469896       -12.7865
 200   2.0000      -0.467306       -12.7160
 201   2.0000      -0.467035       -12.7087
 202   2.0000      -0.463236       -12.6053
 203   2.0000      -0.463024       -12.5995
 204   2.0000      -0.457123       -12.4390
 205   2.0000      -0.454323       -12.3628
 206   2.0000      -0.453443       -12.3388
 207   2.0000      -0.450286       -12.2529
 208   2.0000      -0.445914       -12.1339
 209   2.0000      -0.442442       -12.0395
 210   2.0000      -0.440479       -11.9860
 211   2.0000      -0.440244       -11.9796
 212   2.0000      -0.439810       -11.9678
 213   2.0000      -0.434049       -11.8111
 214   2.0000      -0.433697       -11.8015
 215   2.0000      -0.430765       -11.7217
 216   2.0000      -0.429838       -11.6965
 217   2.0000      -0.427649       -11.6369
 218   2.0000      -0.424976       -11.5642
 219   2.0000      -0.423371       -11.5205
 220   2.0000      -0.422583       -11.4991
 221   2.0000      -0.422255       -11.4901
 222   2.0000      -0.421323       -11.4648
 223   2.0000      -0.415098       -11.2954
 224   2.0000      -0.411876       -11.2077
 225   2.0000      -0.411621       -11.2008
 226   2.0000      -0.410630       -11.1738
 227   2.0000      -0.409935       -11.1549
 228   2.0000      -0.408013       -11.1026
 229   2.0000      -0.404382       -11.0038
 230   2.0000      -0.403286       -10.9740
 231   2.0000      -0.400524       -10.8988
 232   2.0000      -0.396133       -10.7793
 233   2.0000      -0.390592       -10.6286
 234   2.0000      -0.383295       -10.4300
 235   2.0000      -0.380536       -10.3549
 236   2.0000      -0.372019       -10.1232
 237   2.0000      -0.363600        -9.8941
 238   2.0000      -0.359393        -9.7796
 239   2.0000      -0.349290        -9.5047
 240   2.0000      -0.337507        -9.1840
 241   2.0000      -0.335231        -9.1221
 242   2.0000      -0.333661        -9.0794
 243   2.0000      -0.330671        -8.9980
 244   2.0000      -0.329305        -8.9609
 245   2.0000      -0.327623        -8.9151
 246   2.0000      -0.326840        -8.8938
 247   2.0000      -0.319473        -8.6933
 248   2.0000      -0.317756        -8.6466
 249   2.0000      -0.314411        -8.5556
 250   2.0000      -0.314124        -8.5477
 251   2.0000      -0.313080        -8.5193
 252   2.0000      -0.311469        -8.4755
 253   2.0000      -0.309396        -8.4191
 254   2.0000      -0.305349        -8.3090
 255   2.0000      -0.300845        -8.1864
 256   2.0000      -0.293590        -7.9890
 257   2.0000      -0.287302        -7.8179
 258   2.0000      -0.282069        -7.6755
 259   2.0000      -0.276438        -7.5223
 260   2.0000      -0.257270        -7.0007
 261   2.0000      -0.246861        -6.7174
 262   2.0000      -0.207631        -5.6499
 263   0.0000      -0.053551        -1.4572
 264   0.0000      -0.050490        -1.3739
 265   0.0000      -0.029270        -0.7965
 266   0.0000      -0.020839        -0.5671
 267   0.0000      -0.015209        -0.4139

MULLIKEN ATOMIC CHARGES
-----------------------
   0 C :   -0.023640
   1 C :   -0.009752
   2 C :    0.020834
   3 C :   -0.004523
   4 C :    0.004290
   5 C :    0.026334
   6 C :    0.105882
   7 C :   -0.030529
   8 C :    0.090648
   9 O :   -0.167285
  10 C :    0.004376
  11 C :   -0.099461
  12 S :    0.135613
  13 C :   -0.103139
  14 C :   -0.029724
  15 C :    0.121249
  16 O :   -0.171744
  17 C :    0.030817
  18 C :    0.038582
  19 C :    0.022633
  20 C :    0.038096
  21 C :    0.024685
  22 C :    0.007232
  23 C :    0.004704
  24 C :   -0.021254
  25 C :    0.101446
  26 C :   -0.094445
  27 C :    0.080834
  28 C :   -0.091691
  29 C :    0.054728
  30 C :    0.003961
  31 C :   -0.034259
  32 C :    0.124705
  33 N :   -0.223825
  34 C :    0.131400
  35 N :   -0.211494
  36 C :    0.065096
  37 C :   -0.130702
  38 C :    0.182621
  39 C :   -0.036165
  40 C :    0.007462
  41 C :    0.005974
  42 C :    0.030004
  43 C :   -0.006890
  44 C :   -0.018535
  45 C :   -0.113148
  46 C :    0.043726
  47 C :    0.155916
  48 C :   -0.068643
  49 C :    0.124538
  50 O :   -0.197924
  51 C :    0.022067
  52 C :   -0.117745
  53 S :    0.143488
  54 C :   -0.108300
  55 C :    0.001277
  56 C :    0.116548
  57 O :   -0.170203
  58 C :   -0.017775
  59 C :    0.022182
  60 C :    0.019754
  61 C :    0.051511
  62 C :    0.012032
  63 C :    0.008321
  64 C :    0.060350
  65 C :   -0.039971
  66 C :    0.153784
  67 C :   -0.125423
  68 C :    0.001164
  69 C :    0.029873
  70 C :    0.011084
  71 C :    0.024283
  72 C :    0.001665
  73 C :   -0.016451
  74 H :    0.014601
  75 H :    0.031074
  76 H :   -0.020198
  77 H :    0.005071
  78 H :   -0.026702
  79 H :   -0.017513
  80 H :    0.006428
  81 H :    0.037839
  82 H :    0.029560
  83 H :   -0.006334
  84 H :   -0.019109
  85 H :   -0.012689
  86 H :   -0.014870
  87 H :   -0.007469
  88 H :   -0.011909
  89 H :   -0.018926
  90 H :   -0.034035
  91 H :   -0.047417
  92 H :   -0.030359
  93 H :   -0.004044
  94 H :   -0.015468
  95 H :    0.108464
  96 H :    0.094647
  97 H :   -0.000141
  98 H :   -0.024936
  99 H :    0.085555
 100 H :    0.087722
 101 H :   -0.005223
 102 H :    0.023982
 103 H :   -0.022804
 104 H :   -0.044207
 105 H :   -0.044481
 106 H :   -0.029805
 107 H :   -0.008948
 108 H :    0.023573
 109 H :    0.034711
 110 H :    0.034594
 111 H :   -0.005032
 112 H :   -0.019163
 113 H :   -0.002474
 114 H :    0.000253
 115 H :   -0.000550
 116 H :   -0.002994
 117 H :   -0.025715
 118 H :   -0.034693
 119 H :   -0.027785
 120 H :   -0.012757
 121 H :   -0.016758
 122 H :   -0.013813
 123 H :   -0.008716
 124 H :    0.013745
 125 H :    0.023089
Sum of atomic charges:   -0.0000000

LOEWDIN ATOMIC CHARGES
----------------------
   0 C :   -0.043233
   1 C :   -0.029425
   2 C :   -0.005533
   3 C :   -0.046094
   4 C :   -0.026582
   5 C :   -0.014822
   6 C :   -0.005871
   7 C :   -0.071213
   8 C :    0.082909
   9 O :   -0.133475
  10 C :   -0.096642
  11 C :   -0.156522
  12 S :    0.465255
  13 C :   -0.163654
  14 C :   -0.083341
  15 C :    0.097394
  16 O :   -0.142215
  17 C :   -0.067079
  18 C :    0.010342
  19 C :   -0.025564
  20 C :   -0.003319
  21 C :   -0.025564
  22 C :    0.018415
  23 C :    0.008682
  24 C :   -0.027989
  25 C :    0.001636
  26 C :   -0.016453
  27 C :   -0.027787
  28 C :   -0.012913
  29 C :   -0.025148
  30 C :   -0.023215
  31 C :   -0.042039
  32 C :    0.026947
  33 N :   -0.094637
  34 C :    0.022560
  35 N :   -0.114469
  36 C :   -0.025574
  37 C :    0.079574
  38 C :   -0.031897
  39 C :   -0.031786
  40 C :   -0.026102
  41 C :   -0.041554
  42 C :   -0.035668
  43 C :   -0.012393
  44 C :   -0.033235
  45 C :    0.000974
  46 C :   -0.018357
  47 C :    0.015226
  48 C :   -0.069334
  49 C :    0.100427
  50 O :   -0.151157
  51 C :   -0.101936
  52 C :   -0.149896
  53 S :    0.467901
  54 C :   -0.157591
  55 C :   -0.088706
  56 C :    0.086119
  57 O :   -0.143648
  58 C :   -0.073433
  59 C :    0.015428
  60 C :   -0.021447
  61 C :    0.004821
  62 C :   -0.019341
  63 C :   -0.016383
  64 C :    0.003040
  65 C :   -0.015653
  66 C :   -0.006917
  67 C :   -0.010996
  68 C :   -0.015393
  69 C :   -0.017721
  70 C :   -0.034079
  71 C :   -0.008345
  72 C :   -0.025559
  73 C :   -0.042965
  74 H :    0.020642
  75 H :    0.026698
  76 H :    0.023155
  77 H :    0.026600
  78 H :    0.022100
  79 H :    0.024488
  80 H :    0.030000
  81 H :    0.029210
  82 H :    0.028927
  83 H :    0.030820
  84 H :    0.027582
  85 H :    0.028437
  86 H :    0.028232
  87 H :    0.032380
  88 H :    0.033507
  89 H :    0.028868
  90 H :    0.025789
  91 H :    0.019197
  92 H :    0.020709
  93 H :    0.018076
  94 H :    0.003134
  95 H :    0.047062
  96 H :    0.052226
  97 H :    0.017090
  98 H :   -0.007915
  99 H :    0.049642
 100 H :    0.053510
 101 H :    0.022419
 102 H :    0.054998
 103 H :    0.019118
 104 H :    0.025523
 105 H :    0.024241
 106 H :    0.023998
 107 H :    0.020026
 108 H :    0.028384
 109 H :    0.030650
 110 H :    0.031611
 111 H :    0.033033
 112 H :    0.027668
 113 H :    0.032707
 114 H :    0.033168
 115 H :    0.029147
 116 H :    0.034993
 117 H :    0.028373
 118 H :    0.024160
 119 H :    0.024467
 120 H :    0.028091
 121 H :    0.027801
 122 H :    0.024733
 123 H :    0.028666
 124 H :    0.021281
 125 H :    0.024798

  Mayer bond orders larger than 0.100000
B(  0-C ,  1-C ) :   1.8953 B(  0-C ,  3-C ) :   0.1015 B(  0-C , 74-H ) :   0.9527
B(  0-C , 75-H ) :   0.9524 B(  1-C ,  2-C ) :   1.1176 B(  1-C , 76-H ) :   0.9787
B(  2-C ,  3-C ) :   1.7349 B(  2-C , 77-H ) :   0.9544 B(  3-C ,  4-C ) :   1.0966
B(  3-C , 78-H ) :   0.9744 B(  4-C ,  5-C ) :   1.8016 B(  4-C , 79-H ) :   0.9732
B(  5-C ,  6-C ) :   1.0371 B(  5-C , 80-H ) :   0.9258 B(  6-C ,  7-C ) :   1.3441
B(  6-C , 26-C ) :   1.3603 B(  7-C ,  8-C ) :   0.9358 B(  7-C , 23-C ) :   1.3755
B(  8-C ,  9-O ) :   2.2059 B(  8-C , 10-C ) :   0.9034 B( 10-C , 11-C ) :   1.5457
B( 10-C , 14-C ) :   1.2941 B( 11-C , 12-S ) :   1.2010 B( 11-C , 81-H ) :   0.9580
B( 12-S , 13-C ) :   1.1694 B( 13-C , 14-C ) :   1.5916 B( 13-C , 82-H ) :   0.9723
B( 14-C , 15-C ) :   0.8863 B( 15-C , 16-O ) :   2.1670 B( 15-C , 17-C ) :   0.9743
B( 17-C , 18-C ) :   1.3714 B( 17-C , 22-C ) :   1.3767 B( 18-C , 19-C ) :   1.3995
B( 18-C , 83-H ) :   0.9759 B( 19-C , 20-C ) :   1.3858 B( 19-C , 84-H ) :   0.9875
B( 20-C , 21-C ) :   1.3781 B( 20-C , 85-H ) :   0.9907 B( 21-C , 22-C ) :   1.3782
B( 21-C , 86-H ) :   0.9925 B( 22-C , 87-H ) :   0.9978 B( 23-C , 24-C ) :   1.3679
B( 23-C , 88-H ) :   0.9985 B( 24-C , 25-C ) :   1.3562 B( 24-C , 89-H ) :   0.9964
B( 25-C , 26-C ) :   1.3627 B( 25-C , 27-C ) :   0.9489 B( 26-C , 90-H ) :   0.9967
B( 27-C , 28-C ) :   1.5842 B( 27-C , 44-C ) :   1.1467 B( 28-C , 29-C ) :   1.1186
B( 28-C , 91-H ) :   0.9877 B( 29-C , 30-C ) :   1.4938 B( 29-C , 42-C ) :   1.1303
B( 30-C , 31-C ) :   1.0295 B( 30-C , 36-C ) :   1.0951 B( 31-C , 32-C ) :   1.0169
B( 31-C , 34-C ) :   1.0503 B( 31-C , 92-H ) :   0.8875 B( 32-C , 33-N ) :   1.0919
B( 32-C , 93-H ) :   0.9508 B( 32-C , 94-H ) :   0.9387 B( 33-N , 95-H ) :   0.9313
B( 33-N , 96-H ) :   0.9610 B( 33-N ,101-H ) :   0.1649 B( 34-C , 35-N ) :   1.0954
B( 34-C , 97-H ) :   0.9263 B( 34-C , 98-H ) :   0.9433 B( 35-N , 99-H ) :   0.9695
B( 35-N ,100-H ) :   0.9694 B( 36-C , 37-C ) :   1.6547 B( 36-C , 41-C ) :   1.0721
B( 37-C , 38-C ) :   0.9748 B( 37-C ,101-H ) :   0.9160 B( 38-C , 39-C ) :   0.9758
B( 38-C , 45-C ) :   0.9455 B( 38-C ,102-H ) :   0.8546 B( 39-C , 40-C ) :   1.7364
B( 39-C ,103-H ) :   0.9655 B( 40-C , 41-C ) :   1.1194 B( 40-C ,104-H ) :   0.9868
B( 41-C , 42-C ) :   1.4124 B( 42-C , 43-C ) :   1.1423 B( 43-C , 44-C ) :   1.5926
B( 43-C ,105-H ) :   0.9921 B( 44-C ,106-H ) :   0.9836 B( 45-C , 46-C ) :   1.8950
B( 45-C ,107-H ) :   0.9681 B( 46-C , 47-C ) :   1.0377 B( 46-C ,108-H ) :   0.9163
B( 47-C , 48-C ) :   1.3377 B( 47-C , 67-C ) :   1.3527 B( 48-C , 49-C ) :   0.9542
B( 48-C , 64-C ) :   1.3561 B( 49-C , 50-O ) :   2.0863 B( 49-C , 51-C ) :   0.9465
B( 51-C , 52-C ) :   1.5293 B( 51-C , 55-C ) :   1.2490 B( 52-C , 53-S ) :   1.2015
B( 52-C ,109-H ) :   0.9669 B( 53-S , 54-C ) :   1.1729 B( 54-C , 55-C ) :   1.5826
B( 54-C ,110-H ) :   0.9678 B( 55-C , 56-C ) :   0.9088 B( 56-C , 57-O ) :   2.2376
B( 56-C , 58-C ) :   0.9383 B( 58-C , 59-C ) :   1.3838 B( 58-C , 63-C ) :   1.3714
B( 59-C , 60-C ) :   1.3698 B( 59-C ,111-H ) :   0.9970 B( 60-C , 61-C ) :   1.3566
B( 60-C ,112-H ) :   0.9966 B( 61-C , 62-C ) :   1.4020 B( 61-C ,113-H ) :   0.9872
B( 62-C , 63-C ) :   1.3766 B( 62-C ,114-H ) :   0.9849 B( 63-C ,115-H ) :   0.9841
B( 64-C , 65-C ) :   1.4233 B( 64-C ,116-H ) :   0.9751 B( 65-C , 66-C ) :   1.3184
B( 65-C ,117-H ) :   0.9940 B( 66-C , 67-C ) :   1.3046 B( 66-C , 68-C ) :   1.0756
B( 67-C ,118-H ) :   0.9980 B( 68-C , 69-C ) :   1.7204 B( 68-C ,119-H ) :   0.9772
B( 69-C , 70-C ) :   1.1082 B( 69-C ,120-H ) :   0.9701 B( 70-C , 71-C ) :   1.7345
B( 70-C , 73-C ) :   0.1010 B( 70-C ,121-H ) :   0.9731 B( 71-C , 72-C ) :   1.1139
B( 71-C ,122-H ) :   0.9658 B( 72-C , 73-C ) :   1.8983 B( 72-C ,123-H ) :   0.9771
B( 73-C ,124-H ) :   0.9574 B( 73-C ,125-H ) :   0.9528

-----------------------------------------------------------------------------
         ABSORPTION SPECTRUM VIA TRANSITION ELECTRIC DIPOLE MOMENTS
-----------------------------------------------------------------------------
State   Energy  Wavelength   fosc         T2         TX        TY        TZ
        (cm-1)    (nm)                  (au**2)     (au)      (au)      (au)
-----------------------------------------------------------------------------
   0   15821.8    632.0   0.058419744   1.21557   0.13432   0.51806  -0.96392
   1   19952.0    501.2   0.012805188   0.21129   0.25938   0.26841   0.26826
   2   25258.7    395.9   0.159113924   2.07383   0.10042  -0.65976  -1.27611
   3   26116.1    382.9   0.001458790   0.01839  -0.04775   0.01152   0.12640
   4   27828.7    359.3   0.152988578   1.80985  -0.95836  -0.60729   0.72291
   5   28876.0    346.3   0.783099081   8.92803  -0.23472  -0.79324   2.87119
   6   28960.5    345.3   0.237900465   2.70436   0.18487  -0.21059  -1.62044
   7   29275.8    341.6   0.014583285   0.16399  -0.05458  -0.01758   0.40088
   8   30268.1    330.4   0.402766216   4.38069   0.32803   1.06797   1.76989
   9   30701.6    325.7   0.053382128   0.57241   0.18117   0.10547  -0.72696
  10   30744.4    325.3   0.080776441   0.86496  -0.62719   0.15967  -0.66790
  11   31032.0    322.2   0.004632718   0.04915  -0.08196   0.14471   0.14659
  12   31151.4    321.0   0.052419278   0.55397   0.32140  -0.27610  -0.61192
  13   31858.3    313.9   0.249438937   2.57761  -0.01896   1.32709   0.90338
  14   32203.8    310.5   0.062561917   0.63956   0.11461  -0.29041  -0.73626
  15   32376.8    308.9   0.051193602   0.52054   0.25589   0.61597   0.27505
  16   32757.4    305.3   0.079528493   0.79926   0.12237  -0.60165  -0.64985
  17   34146.8    292.9   0.029067832   0.28025   0.06065  -0.16292  -0.50002
  18   34603.8    289.0   0.001170250   0.01113   0.03893   0.04174  -0.08875
  19   34805.1    287.3   0.096961894   0.91714  -0.17500   0.46697  -0.81759
  20   34899.4    286.5   0.035571120   0.33555  -0.05568  -0.07425   0.57178
  21   35075.0    285.1   0.655809147   6.15539   1.39669  -0.07758  -2.04906
  22   35533.6    281.4   0.012766011   0.11827  -0.15316  -0.15495   0.26610
  23   36037.8    277.5   0.135590426   1.23865   0.46932   0.98039   0.23922
  24   36388.6    274.8   0.038060920   0.34434   0.17313   0.16111  -0.53704
  25   36902.3    271.0   0.192923615   1.72111  -0.12145   0.36486  -1.25429
  26   37309.5    268.0   0.068279248   0.60248  -0.23762  -0.65345  -0.34500
  27   37392.6    267.4   0.128253534   1.12917  -0.08095   0.54070   0.91119
  28   37512.5    266.6   0.002386819   0.02095   0.12583  -0.03519   0.06226
  29   37751.6    264.9   0.030160792   0.26302  -0.17398  -0.09286   0.47342
  30   38076.5    262.6   0.051165426   0.44238   0.28319   0.21732   0.56121
  31   38439.8    260.1   0.000929373   0.00796   0.03908   0.01953   0.07779
  32   38689.1    258.5   0.173141522   1.47329   0.13314   0.94044   0.75573
  33   38949.9    256.7   0.039891310   0.33717  -0.36628  -0.27689   0.35544
  34   39645.5    252.2   0.291942035   2.42425   0.23007  -0.84339  -1.28841
  35   39745.9    251.6   0.058227707   0.48230   0.49136   0.47275   0.13178
  36   39937.1    250.4   0.106769722   0.88013   0.15610  -0.32758  -0.86513
  37   40049.1    249.7   0.005166359   0.04247  -0.04942   0.08471   0.18125
  38   40068.9    249.6   0.002735295   0.02247  -0.14006  -0.05049   0.01756
  39   40238.5    248.5   0.128151624   1.04847   0.81758  -0.30873  -0.53359

FINAL SINGLE POINT ENERGY     -3748.916649422619

DIPOLE MOMENT
-------------
                                X             Y             Z
Electronic contribution:    -18.11519      16.76757      27.56318
Nuclear contribution   :     17.46548     -17.47825     -29.00028
                        -----------------------------------------
Total Dipole Moment    :     -0.64971      -0.71068      -1.43710
                        -----------------------------------------
Magnitude (a.u.)       :      1.72987
Magnitude (Debye)      :      4.39698

Rotational constants in cm-1:     0.001651     0.000330     0.000313
Rotational constants in MHz :    49.492864     9.882682     9.397484

                             ****ORCA TERMINATED NORMALLY****
TOTAL RUN TIME: 0 days 0 hours 13 minutes 48 seconds 756 msec
