                         Program Version 4.2.0 -  RELEASE  -
|  1> # ORCA input file
|  2> # SCF done       -196.389404206138          0.000237471826
|  3> ! CAM-B3LYP def2-SVP def2/J RIJCOSX Grid4 TightSCF
|  4> %maxcore 5000
|  5> %tddft
|  6>     Mode sTDDFT
|  7>     Ethresh 5.0
|  8>     maxcore 5000
|  9> end
| 10>
| 11> %pal
| 12>   nprocs 6
| 13>   end
| 14> * xyz 0 1
| 15>    C        1.37377         9.00147         4.08425
| 16>    C        1.27989         9.21467         2.71260
| 17>    C        0.52905         8.32163         1.87624
| 18>    N        0.49825         8.52593         0.54227
| 19>    C        1.07411         9.58991         0.06587
| 20>    C        1.73634        10.51775         0.90257
| 21>    N        1.86448        10.31781         2.18005
| 22>    C       -0.18042         7.24143         2.44735
| 23>    C        0.03124         6.97126         3.82228
| 24>    C        0.78037         7.87480         4.64400
| 25>    N        0.87062         7.66924         5.98192
| 26>    C        0.28528         6.61910         6.47602
| 27>    C       -0.38798         5.68596         5.65441
| 28>    N       -0.51632         5.86274         4.37051
| 29>    C       -1.22684         6.51045         1.78825
| 30>    C       -1.83848         6.89380         0.64859
| 31>    C       -3.08868         6.41407         0.10954
| 32>    C       -3.60874         7.14748        -0.97671
| 33>    C       -4.87749         6.88727        -1.42896
| 34>    C       -5.67413         5.91439        -0.81213
| 35>    C       -6.98783         5.89402        -1.49262
| 36>    O       -7.95655         5.20860        -1.27866
| 37>    N       -6.89908         6.85728        -2.48822
| 38>    C       -5.66908         7.50134        -2.52102
| 39>    O       -5.36442         8.36508        -3.30375
| 40>    C       -7.99498         7.18974        -3.37236
| 41>    C       -8.90493         8.24391        -2.75108
| 42>    C       -5.18297         5.16708         0.23274
| 43>    C       -3.87513         5.38702         0.68148
| 44>    C       -3.39033         4.49066         1.72831
| 45>    C       -4.01879         4.32491         2.90211
| 46>    C       -3.66792         3.33694         3.88055
| 47>    S       -2.94832         1.85254         3.33474
| 48>    C       -3.16042         1.10533         4.84525
| 49>    C       -3.74898         1.94896         5.76199
| 50>    C       -3.98729         3.26752         5.23422
| 51>    C       -4.46744         4.29397         6.11260
| 52>    C       -4.94036         3.88435         7.35869
| 53>    C       -4.81459         2.55047         7.81161
| 54>    C       -4.17157         1.61176         7.06736
| 55>    O       -5.46556         4.81443         8.20518
| 56>    C       -4.28952         5.71888         5.93999
| 57>    C       -3.44783         6.34253         5.09554
| 58>    C       -2.97045         7.70552         5.23113
| 59>    C       -2.66090         8.42755         4.06773
| 60>    C       -2.07664         9.66554         4.18457
| 61>    C       -1.82049        10.22613         5.44429
| 62>    C       -1.14855        11.52657         5.23783
| 63>    O       -0.76377        12.33424         6.04414
| 64>    N       -1.01753        11.65928         3.85909
| 65>    C       -1.54690        10.59072         3.15792
| 66>    O       -1.52749        10.46968         1.95520
| 67>    C       -0.36870        12.79444         3.23760
| 68>    C       -1.36912        13.67504         2.49915
| 69>    C       -2.13072         9.54960         6.59779
| 70>    C       -2.68684         8.26435         6.50236
| 71>    C       -2.85159         7.46127         7.69044
| 72>    C       -3.19608         7.90798         8.91230
| 73>    C       -3.43204         7.05855        10.04378
| 74>    C       -3.10543         5.68335        10.09893
| 75>    C       -3.62505         4.85474        11.14733
| 76>    N       -3.38428         3.52102        11.13083
| 77>    C       -2.65266         3.02891        10.17472
| 78>    C       -2.07642         3.85702         9.18901
| 79>    N       -2.29669         5.13975         9.16201
| 80>    C       -4.41243         5.37761        12.19732
| 81>    C       -4.59070         6.77717        12.23083
| 82>    C       -4.12176         7.59942        11.15535
| 83>    N       -4.35704         8.93099        11.17217
| 84>    C       -4.99754         9.43841        12.18417
| 85>    C       -5.41215         8.63669        13.27000
| 86>    N       -5.20842         7.35229        13.28790
| 87>    C       -4.97746         4.45387        13.15643
| 88>    C       -5.94725         4.70767        14.03320
| 89>    H        1.87568         9.71911         4.71258
| 90>    H        1.04884         9.71957        -1.00769
| 91>    H        2.19423        11.41147         0.49882
| 92>    H        0.34916         6.47736         7.54610
| 93>    H       -0.81909         4.78261         6.06512
| 94>    H       -1.60335         5.68599         2.37488
| 95>    H       -1.42353         7.74644         0.12887
| 96>    H       -3.01536         7.92445        -1.43409
| 97>    H       -8.55454         6.27063        -3.56326
| 98>    H       -7.56014         7.56181        -4.30315
| 99>    H       -9.32630         7.87281        -1.81958
|100>    H       -9.71674         8.47874        -3.43364
|101>    H       -8.34299         9.15284        -2.54840
|102>    H       -5.78666         4.39842         0.69113
|103>    H       -2.51088         3.90307         1.49397
|104>    H       -4.86194         4.95546         3.15434
|105>    H       -2.88057         0.08039         4.98537
|106>    H       -5.18697         2.30770         8.79871
|107>    H       -4.00209         0.61434         7.44138
|108>    H       -5.75936         4.38485         9.01804
|109>    H       -4.79759         6.30935         6.69069
|110>    H       -2.99719         5.80163         4.27774
|111>    H       -2.87356         8.00651         3.09689
|112>    H        0.39103        12.41750         2.54745
|113>    H        0.11753        13.34975         4.04318
|114>    H       -1.85931        13.10524         1.71351
|115>    H       -0.85323        14.51950         2.05088
|116>    H       -2.12374        14.05011         3.18696
|117>    H       -1.89568         9.96911         7.56313
|118>    H       -2.69487         6.40019         7.56263
|119>    H       -3.43980         8.94857         9.07665
|120>    H       -2.48191         1.96074        10.18896
|121>    H       -1.41073         3.45782         8.43509
|122>    H       -5.16616        10.50678        12.17041
|123>    H       -5.89029         9.06645        14.14027
|124>    H       -4.55517         3.45950        13.09072
|125>    H       -6.41411         5.67337        14.10404
|126>    H       -6.28964         3.94372        14.71100
|127> *
|128>
|129>                          ****END OF INPUT****

CARTESIAN COORDINATES (ANGSTROEM)
---------------------------------
  C      1.373770    9.001470    4.084250
  C      1.279890    9.214670    2.712600
  C      0.529050    8.321630    1.876240
  N      0.498250    8.525930    0.542270
  C      1.074110    9.589910    0.065870
  C      1.736340   10.517750    0.902570
  N      1.864480   10.317810    2.180050
  C     -0.180420    7.241430    2.447350
  C      0.031240    6.971260    3.822280
  C      0.780370    7.874800    4.644000
  N      0.870620    7.669240    5.981920
  C      0.285280    6.619100    6.476020
  C     -0.387980    5.685960    5.654410
  N     -0.516320    5.862740    4.370510
  C     -1.226840    6.510450    1.788250
  C     -1.838480    6.893800    0.648590
  C     -3.088680    6.414070    0.109540
  C     -3.608740    7.147480   -0.976710
  C     -4.877490    6.887270   -1.428960
  C     -5.674130    5.914390   -0.812130
  C     -6.987830    5.894020   -1.492620
  O     -7.956550    5.208600   -1.278660
  N     -6.899080    6.857280   -2.488220
  C     -5.669080    7.501340   -2.521020
  O     -5.364420    8.365080   -3.303750
  C     -7.994980    7.189740   -3.372360
  C     -8.904930    8.243910   -2.751080
  C     -5.182970    5.167080    0.232740
  C     -3.875130    5.387020    0.681480
  C     -3.390330    4.490660    1.728310
  C     -4.018790    4.324910    2.902110
  C     -3.667920    3.336940    3.880550
  S     -2.948320    1.852540    3.334740
  C     -3.160420    1.105330    4.845250
  C     -3.748980    1.948960    5.761990
  C     -3.987290    3.267520    5.234220
  C     -4.467440    4.293970    6.112600
  C     -4.940360    3.884350    7.358690
  C     -4.814590    2.550470    7.811610
  C     -4.171570    1.611760    7.067360
  O     -5.465560    4.814430    8.205180
  C     -4.289520    5.718880    5.939990
  C     -3.447830    6.342530    5.095540
  C     -2.970450    7.705520    5.231130
  C     -2.660900    8.427550    4.067730
  C     -2.076640    9.665540    4.184570
  C     -1.820490   10.226130    5.444290
  C     -1.148550   11.526570    5.237830
  O     -0.763770   12.334240    6.044140
  N     -1.017530   11.659280    3.859090
  C     -1.546900   10.590720    3.157920
  O     -1.527490   10.469680    1.955200
  C     -0.368700   12.794440    3.237600
  C     -1.369120   13.675040    2.499150
  C     -2.130720    9.549600    6.597790
  C     -2.686840    8.264350    6.502360
  C     -2.851590    7.461270    7.690440
  C     -3.196080    7.907980    8.912300
  C     -3.432040    7.058550   10.043780
  C     -3.105430    5.683350   10.098930
  C     -3.625050    4.854740   11.147330
  N     -3.384280    3.521020   11.130830
  C     -2.652660    3.028910   10.174720
  C     -2.076420    3.857020    9.189010
  N     -2.296690    5.139750    9.162010
  C     -4.412430    5.377610   12.197320
  C     -4.590700    6.777170   12.230830
  C     -4.121760    7.599420   11.155350
  N     -4.357040    8.930990   11.172170
  C     -4.997540    9.438410   12.184170
  C     -5.412150    8.636690   13.270000
  N     -5.208420    7.352290   13.287900
  C     -4.977460    4.453870   13.156430
  C     -5.947250    4.707670   14.033200
  H      1.875680    9.719110    4.712580
  H      1.048840    9.719570   -1.007690
  H      2.194230   11.411470    0.498820
  H      0.349160    6.477360    7.546100
  H     -0.819090    4.782610    6.065120
  H     -1.603350    5.685990    2.374880
  H     -1.423530    7.746440    0.128870
  H     -3.015360    7.924450   -1.434090
  H     -8.554540    6.270630   -3.563260
  H     -7.560140    7.561810   -4.303150
  H     -9.326300    7.872810   -1.819580
  H     -9.716740    8.478740   -3.433640
  H     -8.342990    9.152840   -2.548400
  H     -5.786660    4.398420    0.691130
  H     -2.510880    3.903070    1.493970
  H     -4.861940    4.955460    3.154340
  H     -2.880570    0.080390    4.985370
  H     -5.186970    2.307700    8.798710
  H     -4.002090    0.614340    7.441380
  H     -5.759360    4.384850    9.018040
  H     -4.797590    6.309350    6.690690
  H     -2.997190    5.801630    4.277740
  H     -2.873560    8.006510    3.096890
  H      0.391030   12.417500    2.547450
  H      0.117530   13.349750    4.043180
  H     -1.859310   13.105240    1.713510
  H     -0.853230   14.519500    2.050880
  H     -2.123740   14.050110    3.186960
  H     -1.895680    9.969110    7.563130
  H     -2.694870    6.400190    7.562630
  H     -3.439800    8.948570    9.076650
  H     -2.481910    1.960740   10.188960
  H     -1.410730    3.457820    8.435090
  H     -5.166160   10.506780   12.170410
  H     -5.890290    9.066450   14.140270
  H     -4.555170    3.459500   13.090720
  H     -6.414110    5.673370   14.104040
  H     -6.289640    3.943720   14.711000

 Total Charge           Charge          ....    0
 Multiplicity           Mult            ....    1
 Number of Electrons    NEL             ....  512
 Basis Dimension        Dim             .... 1230

ORBITAL ENERGIES
----------------

  NO   OCC          E(Eh)            E(eV)
   0   2.0000     -88.967641     -2420.9326
   1   2.0000     -19.260204      -524.0968
   2   2.0000     -19.201915      -522.5107
   3   2.0000     -19.199534      -522.4459
   4   2.0000     -19.199328      -522.4403
   5   2.0000     -19.199190      -522.4365
   6   2.0000     -14.441390      -392.9702
   7   2.0000     -14.440580      -392.9482
   8   2.0000     -14.432556      -392.7298
   9   2.0000     -14.432428      -392.7263
  10   2.0000     -14.428102      -392.6086
  11   2.0000     -14.426329      -392.5604
  12   2.0000     -14.422529      -392.4570
  13   2.0000     -14.420082      -392.3904
  14   2.0000     -14.418774      -392.3548
  15   2.0000     -14.418366      -392.3437
  16   2.0000     -10.380749      -282.4746
  17   2.0000     -10.379355      -282.4366
  18   2.0000     -10.379062      -282.4286
  19   2.0000     -10.378286      -282.4075
  20   2.0000     -10.345271      -281.5091
  21   2.0000     -10.328778      -281.0603
  22   2.0000     -10.328465      -281.0518
  23   2.0000     -10.324175      -280.9351
  24   2.0000     -10.323669      -280.9213
  25   2.0000     -10.323382      -280.9135
  26   2.0000     -10.323081      -280.9053
  27   2.0000     -10.321639      -280.8661
  28   2.0000     -10.320991      -280.8484
  29   2.0000     -10.316993      -280.7396
  30   2.0000     -10.316504      -280.7264
  31   2.0000     -10.316060      -280.7143
  32   2.0000     -10.314845      -280.6812
  33   2.0000     -10.314188      -280.6633
  34   2.0000     -10.313729      -280.6508
  35   2.0000     -10.313137      -280.6347
  36   2.0000     -10.312415      -280.6151
  37   2.0000     -10.301557      -280.3196
  38   2.0000     -10.300199      -280.2827
  39   2.0000     -10.295938      -280.1667
  40   2.0000     -10.293470      -280.0996
  41   2.0000     -10.292265      -280.0668
  42   2.0000     -10.292251      -280.0664
  43   2.0000     -10.291242      -280.0389
  44   2.0000     -10.290900      -280.0296
  45   2.0000     -10.289880      -280.0019
  46   2.0000     -10.289457      -279.9903
  47   2.0000     -10.287885      -279.9476
  48   2.0000     -10.287183      -279.9285
  49   2.0000     -10.287074      -279.9255
  50   2.0000     -10.286263      -279.9034
  51   2.0000     -10.285389      -279.8797
  52   2.0000     -10.284001      -279.8419
  53   2.0000     -10.283491      -279.8280
  54   2.0000     -10.283088      -279.8170
  55   2.0000     -10.282794      -279.8091
  56   2.0000     -10.281216      -279.7661
  57   2.0000     -10.280954      -279.7590
  58   2.0000     -10.280568      -279.7485
  59   2.0000     -10.280197      -279.7384
  60   2.0000     -10.279202      -279.7113
  61   2.0000     -10.278695      -279.6975
  62   2.0000     -10.277645      -279.6689
  63   2.0000     -10.274610      -279.5864
  64   2.0000     -10.272591      -279.5314
  65   2.0000     -10.267066      -279.3811
  66   2.0000     -10.266335      -279.3612
  67   2.0000     -10.266034      -279.3530
  68   2.0000     -10.264707      -279.3169
  69   2.0000     -10.263375      -279.2806
  70   2.0000     -10.263092      -279.2729
  71   2.0000     -10.256271      -279.0873
  72   2.0000     -10.250446      -278.9288
  73   2.0000     -10.248258      -278.8693
  74   2.0000      -8.063090      -219.4078
  75   2.0000      -6.031944      -164.1375
  76   2.0000      -6.027736      -164.0230
  77   2.0000      -6.026218      -163.9817
  78   2.0000      -1.154742       -31.4221
  79   2.0000      -1.145889       -31.1812
  80   2.0000      -1.145217       -31.1629
  81   2.0000      -1.122387       -30.5417
  82   2.0000      -1.121595       -30.5202
  83   2.0000      -1.090053       -29.6619
  84   2.0000      -1.081985       -29.4423
  85   2.0000      -1.079064       -29.3628
  86   2.0000      -1.072001       -29.1706
  87   2.0000      -1.036172       -28.1957
  88   2.0000      -1.035988       -28.1907
  89   2.0000      -1.013332       -27.5742
  90   2.0000      -1.005811       -27.3695
  91   2.0000      -1.002189       -27.2709
  92   2.0000      -0.998283       -27.1647
  93   2.0000      -0.996536       -27.1171
  94   2.0000      -0.969407       -26.3789
  95   2.0000      -0.967775       -26.3345
  96   2.0000      -0.953480       -25.9455
  97   2.0000      -0.943819       -25.6826
  98   2.0000      -0.935986       -25.4695
  99   2.0000      -0.914660       -24.8892
 100   2.0000      -0.908774       -24.7290
 101   2.0000      -0.899600       -24.4794
 102   2.0000      -0.892103       -24.2753
 103   2.0000      -0.883195       -24.0330
 104   2.0000      -0.870869       -23.6975
 105   2.0000      -0.869232       -23.6530
 106   2.0000      -0.867000       -23.5923
 107   2.0000      -0.858145       -23.3513
 108   2.0000      -0.852239       -23.1906
 109   2.0000      -0.847259       -23.0551
 110   2.0000      -0.837134       -22.7796
 111   2.0000      -0.833184       -22.6721
 112   2.0000      -0.827171       -22.5085
 113   2.0000      -0.814301       -22.1583
 114   2.0000      -0.807646       -21.9772
 115   2.0000      -0.799801       -21.7637
 116   2.0000      -0.794412       -21.6170
 117   2.0000      -0.788277       -21.4501
 118   2.0000      -0.784251       -21.3406
 119   2.0000      -0.768363       -20.9082
 120   2.0000      -0.756183       -20.5768
 121   2.0000      -0.751721       -20.4554
 122   2.0000      -0.750533       -20.4230
 123   2.0000      -0.747877       -20.3508
 124   2.0000      -0.742040       -20.1919
 125   2.0000      -0.728898       -19.8343
 126   2.0000      -0.723066       -19.6756
 127   2.0000      -0.719998       -19.5921
 128   2.0000      -0.717882       -19.5346
 129   2.0000      -0.712788       -19.3960
 130   2.0000      -0.701802       -19.0970
 131   2.0000      -0.701465       -19.0878
 132   2.0000      -0.691738       -18.8232
 133   2.0000      -0.686807       -18.6890
 134   2.0000      -0.685107       -18.6427
 135   2.0000      -0.681530       -18.5454
 136   2.0000      -0.677786       -18.4435
 137   2.0000      -0.671628       -18.2759
 138   2.0000      -0.659744       -17.9525
 139   2.0000      -0.655836       -17.8462
 140   2.0000      -0.649515       -17.6742
 141   2.0000      -0.649031       -17.6610
 142   2.0000      -0.641027       -17.4432
 143   2.0000      -0.630520       -17.1573
 144   2.0000      -0.628078       -17.0909
 145   2.0000      -0.627179       -17.0664
 146   2.0000      -0.614882       -16.7318
 147   2.0000      -0.614595       -16.7240
 148   2.0000      -0.612269       -16.6607
 149   2.0000      -0.607300       -16.5255
 150   2.0000      -0.595823       -16.2132
 151   2.0000      -0.591815       -16.1041
 152   2.0000      -0.588228       -16.0065
 153   2.0000      -0.586601       -15.9622
 154   2.0000      -0.585359       -15.9284
 155   2.0000      -0.582917       -15.8620
 156   2.0000      -0.578813       -15.7503
 157   2.0000      -0.573103       -15.5949
 158   2.0000      -0.570878       -15.5344
 159   2.0000      -0.569461       -15.4958
 160   2.0000      -0.567346       -15.4383
 161   2.0000      -0.565481       -15.3875
 162   2.0000      -0.558629       -15.2011
 163   2.0000      -0.555715       -15.1218
 164   2.0000      -0.550211       -14.9720
 165   2.0000      -0.548882       -14.9358
 166   2.0000      -0.547443       -14.8967
 167   2.0000      -0.539624       -14.6839
 168   2.0000      -0.539429       -14.6786
 169   2.0000      -0.536781       -14.6066
 170   2.0000      -0.532745       -14.4967
 171   2.0000      -0.530833       -14.4447
 172   2.0000      -0.527841       -14.3633
 173   2.0000      -0.526547       -14.3281
 174   2.0000      -0.524050       -14.2601
 175   2.0000      -0.520854       -14.1731
 176   2.0000      -0.518816       -14.1177
 177   2.0000      -0.518324       -14.1043
 178   2.0000      -0.517410       -14.0794
 179   2.0000      -0.516310       -14.0495
 180   2.0000      -0.514820       -14.0090
 181   2.0000      -0.512869       -13.9559
 182   2.0000      -0.509538       -13.8652
 183   2.0000      -0.508546       -13.8382
 184   2.0000      -0.506236       -13.7754
 185   2.0000      -0.504630       -13.7317
 186   2.0000      -0.503338       -13.6965
 187   2.0000      -0.499888       -13.6027
 188   2.0000      -0.496664       -13.5149
 189   2.0000      -0.496425       -13.5084
 190   2.0000      -0.494043       -13.4436
 191   2.0000      -0.488120       -13.2824
 192   2.0000      -0.486451       -13.2370
 193   2.0000      -0.484666       -13.1884
 194   2.0000      -0.482063       -13.1176
 195   2.0000      -0.475306       -12.9337
 196   2.0000      -0.472943       -12.8694
 197   2.0000      -0.471155       -12.8208
 198   2.0000      -0.468476       -12.7479
 199   2.0000      -0.467155       -12.7119
 200   2.0000      -0.466321       -12.6892
 201   2.0000      -0.465395       -12.6640
 202   2.0000      -0.461041       -12.5456
 203   2.0000      -0.457635       -12.4529
 204   2.0000      -0.452120       -12.3028
 205   2.0000      -0.451417       -12.2837
 206   2.0000      -0.449238       -12.2244
 207   2.0000      -0.448190       -12.1959
 208   2.0000      -0.446880       -12.1602
 209   2.0000      -0.443695       -12.0736
 210   2.0000      -0.442480       -12.0405
 211   2.0000      -0.442314       -12.0360
 212   2.0000      -0.437657       -11.9092
 213   2.0000      -0.437468       -11.9041
 214   2.0000      -0.436056       -11.8657
 215   2.0000      -0.433915       -11.8074
 216   2.0000      -0.430154       -11.7051
 217   2.0000      -0.428643       -11.6640
 218   2.0000      -0.422489       -11.4965
 219   2.0000      -0.417976       -11.3737
 220   2.0000      -0.417069       -11.3490
 221   2.0000      -0.415667       -11.3109
 222   2.0000      -0.414765       -11.2863
 223   2.0000      -0.411040       -11.1850
 224   2.0000      -0.406147       -11.0518
 225   2.0000      -0.400215       -10.8904
 226   2.0000      -0.390688       -10.6312
 227   2.0000      -0.387704       -10.5500
 228   2.0000      -0.382585       -10.4107
 229   2.0000      -0.379367       -10.3231
 230   2.0000      -0.378053       -10.2873
 231   2.0000      -0.375522       -10.2185
 232   2.0000      -0.372083       -10.1249
 233   2.0000      -0.363575        -9.8934
 234   2.0000      -0.353481        -9.6187
 235   2.0000      -0.353092        -9.6081
 236   2.0000      -0.351872        -9.5749
 237   2.0000      -0.342217        -9.3122
 238   2.0000      -0.337214        -9.1761
 239   2.0000      -0.335716        -9.1353
 240   2.0000      -0.332928        -9.0594
 241   2.0000      -0.331767        -9.0278
 242   2.0000      -0.330940        -9.0053
 243   2.0000      -0.328468        -8.9381
 244   2.0000      -0.325935        -8.8691
 245   2.0000      -0.323903        -8.8139
 246   2.0000      -0.319007        -8.6806
 247   2.0000      -0.316490        -8.6121
 248   2.0000      -0.315767        -8.5925
 249   2.0000      -0.312535        -8.5045
 250   2.0000      -0.309322        -8.4171
 251   2.0000      -0.304836        -8.2950
 252   2.0000      -0.287500        -7.8233
 253   2.0000      -0.260294        -7.0830
 254   2.0000      -0.252444        -6.8693
 255   2.0000      -0.238621        -6.4932
 256   0.0000      -0.088046        -2.3959
 257   0.0000      -0.078790        -2.1440
 258   0.0000      -0.052190        -1.4202
 259   0.0000      -0.045570        -1.2400
 260   0.0000      -0.031694        -0.8624

MULLIKEN ATOMIC CHARGES
-----------------------
   0 C :   -0.099969
   1 C :    0.039994
   2 C :   -0.040952
   3 N :   -0.021243
   4 C :    0.045025
   5 C :    0.040225
   6 N :   -0.042559
   7 C :    0.111002
   8 C :   -0.047419
   9 C :    0.049118
  10 N :   -0.011512
  11 C :    0.026397
  12 C :    0.039560
  13 N :   -0.036974
  14 C :   -0.120345
  15 C :    0.031080
  16 C :    0.127352
  17 C :   -0.108954
  18 C :    0.027624
  19 C :    0.011609
  20 C :    0.184023
  21 O :   -0.163029
  22 N :   -0.302477
  23 C :    0.187652
  24 O :   -0.160048
  25 C :    0.138088
  26 C :   -0.010168
  27 C :   -0.082036
  28 C :    0.016696
  29 C :   -0.052056
  30 C :    0.008850
  31 C :   -0.208872
  32 S :    0.160916
  33 C :   -0.125323
  34 C :    0.083589
  35 C :    0.128803
  36 C :   -0.014244
  37 C :    0.084938
  38 C :   -0.010073
  39 C :   -0.015426
  40 O :   -0.182586
  41 C :   -0.024032
  42 C :   -0.058867
  43 C :    0.057145
  44 C :   -0.066141
  45 C :    0.006257
  46 C :    0.028416
  47 C :    0.183400
  48 O :   -0.153070
  49 N :   -0.302881
  50 C :    0.209342
  51 O :   -0.186624
  52 C :    0.132029
  53 C :   -0.011417
  54 C :   -0.094714
  55 C :    0.106667
  56 C :   -0.031810
  57 C :   -0.065219
  58 C :    0.092083
  59 C :   -0.047057
  60 C :   -0.071672
  61 N :   -0.019243
  62 C :    0.018753
  63 C :    0.040358
  64 N :   -0.033200
  65 C :    0.051276
  66 C :   -0.053160
  67 C :   -0.037142
  68 N :   -0.015040
  69 C :    0.022571
  70 C :    0.030037
  71 N :   -0.022399
  72 C :   -0.071586
  73 C :    0.024905
  74 H :   -0.031258
  75 H :    0.011647
  76 H :    0.014290
  77 H :    0.016850
  78 H :    0.007649
  79 H :    0.015527
  80 H :    0.003686
  81 H :   -0.004250
  82 H :    0.027409
  83 H :    0.029005
  84 H :    0.026768
  85 H :    0.020002
  86 H :    0.024938
  87 H :   -0.010091
  88 H :    0.030202
  89 H :    0.023364
  90 H :    0.017755
  91 H :   -0.022012
  92 H :   -0.021772
  93 H :    0.188719
  94 H :    0.023764
  95 H :    0.046529
  96 H :   -0.016453
  97 H :    0.023801
  98 H :    0.034466
  99 H :    0.033386
 100 H :    0.015730
 101 H :    0.017169
 102 H :   -0.010098
 103 H :    0.055385
 104 H :   -0.005647
 105 H :    0.009733
 106 H :    0.010178
 107 H :    0.017054
 108 H :    0.014266
 109 H :   -0.002018
 110 H :    0.025294
 111 H :    0.014789
Sum of atomic charges:   -0.0000000

LOEWDIN ATOMIC CHARGES
----------------------
   0 C :   -0.010783
   1 C :   -0.015026
   2 C :   -0.002542
   3 N :   -0.022177
   4 C :    0.015911
   5 C :    0.010788
   6 N :   -0.036284
   7 C :   -0.008597
   8 C :   -0.008519
   9 C :   -0.014790
  10 N :   -0.032666
  11 C :    0.009791
  12 C :    0.012555
  13 N :   -0.035009
  14 C :   -0.019938
  15 C :    0.000582
  16 C :   -0.009329
  17 C :    0.021789
  18 C :   -0.055700
  19 C :   -0.054807
  20 C :    0.087562
  21 O :   -0.164522
  22 N :   -0.038197
  23 C :    0.089297
  24 O :   -0.161241
  25 C :    0.044090
  26 C :   -0.060354
  27 C :    0.013479
  28 C :   -0.005523
  29 C :   -0.030734
  30 C :   -0.033703
  31 C :   -0.195988
  32 S :    0.494651
  33 C :   -0.191160
  34 C :   -0.065547
  35 C :   -0.034003
  36 C :   -0.068631
  37 C :    0.059407
  38 C :   -0.066819
  39 C :   -0.000895
  40 O :   -0.041306
  41 C :   -0.006263
  42 C :   -0.034137
  43 C :   -0.006367
  44 C :    0.018420
  45 C :   -0.058121
  46 C :   -0.054658
  47 C :    0.090347
  48 O :   -0.157033
  49 N :   -0.030777
  50 C :    0.090797
  51 O :   -0.177428
  52 C :    0.042082
  53 C :   -0.061954
  54 C :    0.023766
  55 C :   -0.008945
  56 C :    0.006997
  57 C :   -0.027858
  58 C :   -0.007545
  59 C :   -0.009783
  60 C :   -0.016420
  61 N :   -0.036752
  62 C :    0.005645
  63 C :    0.008652
  64 N :   -0.025064
  65 C :   -0.024799
  66 C :   -0.007166
  67 C :   -0.006672
  68 N :   -0.028149
  69 C :    0.006731
  70 C :    0.009356
  71 N :   -0.024642
  72 C :   -0.035056
  73 C :   -0.018672
  74 H :    0.041684
  75 H :    0.026560
  76 H :    0.025527
  77 H :    0.027719
  78 H :    0.024429
  79 H :    0.028050
  80 H :    0.030240
  81 H :    0.040086
  82 H :    0.030736
  83 H :    0.031177
  84 H :    0.027865
  85 H :    0.028937
  86 H :    0.027581
  87 H :    0.037972
  88 H :    0.028365
  89 H :    0.039355
  90 H :    0.024090
  91 H :    0.028300
  92 H :    0.031809
  93 H :    0.094759
  94 H :    0.035349
  95 H :    0.030234
  96 H :    0.038572
  97 H :    0.026078
  98 H :    0.032867
  99 H :    0.027626
 100 H :    0.027701
 101 H :    0.025215
 102 H :    0.039079
 103 H :    0.028092
 104 H :    0.028394
 105 H :    0.025100
 106 H :    0.023329
 107 H :    0.028071
 108 H :    0.026879
 109 H :    0.028476
 110 H :    0.018619
 111 H :    0.021431

  Mayer bond orders larger than 0.100000
B(  0-C ,  1-C ) :   1.2316 B(  0-C ,  7-C ) :   0.1340 B(  0-C ,  9-C ) :   1.2366
B(  0-C , 74-H ) :   1.0560 B(  1-C ,  2-C ) :   1.1695 B(  1-C ,  6-N ) :   1.3604
B(  2-C ,  3-N ) :   1.4177 B(  2-C ,  7-C ) :   1.2486 B(  3-N ,  4-C ) :   1.6826
B(  4-C ,  5-C ) :   1.1739 B(  4-C , 75-H ) :   0.9732 B(  5-C ,  6-N ) :   1.6894
B(  5-C , 76-H ) :   0.9709 B(  7-C ,  8-C ) :   1.2357 B(  7-C , 14-C ) :   1.1433
B(  8-C ,  9-C ) :   1.1887 B(  8-C , 13-N ) :   1.4268 B(  9-C , 10-N ) :   1.3717
B( 10-N , 11-C ) :   1.7117 B( 11-C , 12-C ) :   1.1786 B( 11-C , 77-H ) :   0.9735
B( 12-C , 13-N ) :   1.6734 B( 12-C , 78-H ) :   0.9699 B( 14-C , 15-C ) :   1.6307
B( 14-C , 79-H ) :   0.9376 B( 15-C , 16-C ) :   1.0935 B( 15-C , 80-H ) :   0.9549
B( 16-C , 17-C ) :   1.2652 B( 16-C , 28-C ) :   1.3337 B( 17-C , 18-C ) :   1.3829
B( 17-C , 81-H ) :   1.0183 B( 18-C , 19-C ) :   1.3525 B( 18-C , 23-C ) :   0.8785
B( 19-C , 20-C ) :   0.8787 B( 19-C , 27-C ) :   1.3665 B( 20-C , 21-O ) :   2.2235
B( 20-C , 22-N ) :   1.0634 B( 22-N , 23-C ) :   1.0594 B( 22-N , 25-C ) :   0.9219
B( 23-C , 24-O ) :   2.2280 B( 25-C , 26-C ) :   1.1236 B( 25-C , 82-H ) :   0.9429
B( 25-C , 83-H ) :   0.9418 B( 26-C , 84-H ) :   0.9700 B( 26-C , 85-H ) :   0.9702
B( 26-C , 86-H ) :   0.9696 B( 27-C , 28-C ) :   1.3575 B( 27-C , 87-H ) :   1.0127
B( 28-C , 29-C ) :   1.0061 B( 29-C , 30-C ) :   1.8019 B( 29-C , 88-H ) :   0.9268
B( 30-C , 31-C ) :   1.1097 B( 30-C , 89-H ) :   0.9668 B( 31-C , 32-S ) :   1.1573
B( 31-C , 33-C ) :   0.1069 B( 31-C , 35-C ) :   1.4170 B( 32-S , 33-C ) :   1.2216
B( 33-C , 34-C ) :   1.4158 B( 33-C , 90-H ) :   0.9714 B( 34-C , 35-C ) :   1.2076
B( 34-C , 39-C ) :   1.1573 B( 35-C , 36-C ) :   1.1405 B( 36-C , 37-C ) :   1.4675
B( 36-C , 41-C ) :   1.1267 B( 37-C , 38-C ) :   1.1839 B( 37-C , 40-O ) :   1.2009
B( 38-C , 39-C ) :   1.5439 B( 38-C , 91-H ) :   0.9680 B( 39-C , 92-H ) :   0.9999
B( 40-O , 93-H ) :   0.9510 B( 41-C , 42-C ) :   1.7201 B( 41-C , 94-H ) :   0.9543
B( 42-C , 43-C ) :   1.0766 B( 42-C , 95-H ) :   0.9352 B( 43-C , 44-C ) :   1.2775
B( 43-C , 55-C ) :   1.3468 B( 44-C , 45-C ) :   1.4018 B( 44-C , 96-H ) :   1.0125
B( 45-C , 46-C ) :   1.3291 B( 45-C , 50-C ) :   0.8901 B( 46-C , 47-C ) :   0.8826
B( 46-C , 54-C ) :   1.3890 B( 47-C , 48-O ) :   2.2335 B( 47-C , 49-N ) :   1.0484
B( 49-N , 50-C ) :   1.0845 B( 49-N , 52-C ) :   0.9171 B( 50-C , 51-O ) :   2.1471
B( 52-C , 53-C ) :   1.1183 B( 52-C , 97-H ) :   0.9451 B( 52-C , 98-H ) :   0.9378
B( 53-C , 99-H ) :   0.9692 B( 53-C ,100-H ) :   0.9685 B( 53-C ,101-H ) :   0.9669
B( 54-C , 55-C ) :   1.2964 B( 54-C ,102-H ) :   1.0132 B( 55-C , 56-C ) :   1.0415
B( 56-C , 57-C ) :   1.6733 B( 56-C ,103-H ) :   0.9200 B( 57-C , 58-C ) :   1.1674
B( 57-C ,104-H ) :   0.9619 B( 58-C , 59-C ) :   1.2399 B( 58-C , 65-C ) :   0.1338
B( 58-C , 67-C ) :   1.2408 B( 59-C , 60-C ) :   1.1558 B( 59-C , 64-N ) :   1.4111
B( 60-C , 61-N ) :   1.4426 B( 60-C , 65-C ) :   1.2614 B( 61-N , 62-C ) :   1.7009
B( 62-C , 63-C ) :   1.1763 B( 62-C ,105-H ) :   0.9759 B( 63-C , 64-N ) :   1.6708
B( 63-C ,106-H ) :   0.9715 B( 65-C , 66-C ) :   1.2555 B( 65-C , 72-C ) :   1.1491
B( 66-C , 67-C ) :   1.1589 B( 66-C , 71-N ) :   1.4348 B( 67-C , 68-N ) :   1.4562
B( 68-N , 69-C ) :   1.6988 B( 69-C , 70-C ) :   1.1835 B( 69-C ,107-H ) :   0.9748
B( 70-C , 71-N ) :   1.6901 B( 70-C ,108-H ) :   0.9728 B( 72-C , 73-C ) :   1.9041
B( 72-C ,109-H ) :   0.9443 B( 73-C ,110-H ) :   0.9361 B( 73-C ,111-H ) :   0.9447

-----------------------------------------------------------------------------
         ABSORPTION SPECTRUM VIA TRANSITION ELECTRIC DIPOLE MOMENTS
-----------------------------------------------------------------------------
State   Energy  Wavelength   fosc         T2         TX        TY        TZ
        (cm-1)    (nm)                  (au**2)     (au)      (au)      (au)
-----------------------------------------------------------------------------
   0   16283.2    614.1   0.118829844   2.40248   0.13916   0.11125  -1.53972
   1   18708.0    534.5   0.119384425   2.10086   1.07147   0.91627  -0.33654
   2   19466.6    513.7   0.225844297   3.81939  -0.49012  -0.81892   1.70545
   3   21916.8    456.3   0.258357172   3.88078   1.50600   0.61395   1.11166
   4   23480.7    425.9   0.069285755   0.97142   0.32284   0.67408   0.64250
   5   23848.3    419.3   0.235719527   3.25398  -0.27579  -1.64198   0.69412
   6   24739.5    404.2   0.064059965   0.85245   0.33031   0.81881  -0.27000
   7   24852.6    402.4   0.078394533   1.03846  -0.72558  -0.71237   0.06723
   8   25542.0    391.5   0.041079690   0.52948  -0.25362   0.13891  -0.66773
   9   25768.8    388.1   0.061571278   0.78661  -0.12156  -0.21675  -0.85138
  10   26731.2    374.1   0.008377769   0.10318   0.21168   0.07426  -0.22990
  11   26960.4    370.9   0.013286127   0.16224   0.02518  -0.39388   0.08040
  12   27087.6    369.2   0.094381366   1.14707   0.25656   0.48797  -0.91822
  13   27955.5    357.7   0.038344066   0.45155   0.10901   0.01494   0.66291
  14   28685.8    348.6   0.084871851   0.97403  -0.31989  -0.10756  -0.92743
  15   28844.2    346.7   0.095788796   1.09328  -0.43705   0.66289  -0.68033
  16   29161.6    342.9   0.128561255   1.45136  -0.75821  -0.19111  -0.91649
  17   29543.3    338.5   0.014473781   0.16129   0.07381  -0.21807  -0.32906
  18   29760.1    336.0   0.019832030   0.21939   0.43649   0.04836  -0.16286
  19   30330.8    329.7   0.025040998   0.27180  -0.03590  -0.05777   0.51689
  20   30852.4    324.1   0.043833579   0.46773   0.17862   0.08940   0.65409
  21   31099.1    321.6   0.134760698   1.42656   0.34032   1.08682  -0.35996
  22   31195.5    320.6   0.008733776   0.09217   0.24734   0.04690  -0.16969
  23   31387.1    318.6   0.061659068   0.64673   0.65961   0.46002   0.00500
  24   32719.5    305.6   0.030560410   0.30749   0.08716   0.28307   0.46879
  25   32905.5    303.9   0.023245107   0.23256  -0.43240  -0.21181  -0.02700
  26   33421.5    299.2   0.183882010   1.81130   0.93660   0.80265  -0.53835
  27   33746.2    296.3   0.028042320   0.27357   0.16458  -0.42954   0.24895
  28   33758.3    296.2   0.145058240   1.41461  -0.88768  -0.67410   0.41499
  29   34180.6    292.6   0.024685501   0.23776   0.07888  -0.48015  -0.03153
  30   34507.6    289.8   0.023524589   0.22443  -0.00413   0.34500  -0.32464
  31   34580.1    289.2   0.015255781   0.14524   0.04814  -0.08132   0.36920
  32   34585.8    289.1   0.144974081   1.37996   0.09125  -0.48208   1.06735
  33   34731.6    287.9   0.008460826   0.08020  -0.11948  -0.12554  -0.22397
  34   34966.2    286.0   0.014736631   0.13875  -0.03894  -0.19629   0.31417
  35   35146.3    284.5   0.088131167   0.82551   0.30567  -0.76809   0.37698
  36   35244.4    283.7   0.015194175   0.14193  -0.26964   0.15251   0.21438
  37   35635.8    280.6   0.029733251   0.27468  -0.39629  -0.33976   0.04692
  38   35758.8    279.7   0.055286661   0.50899  -0.18171  -0.29358   0.62433
  39   35866.6    278.8   0.057538821   0.52814  -0.35161  -0.32565  -0.54631
  40   36054.3    277.4   0.031017148   0.28322   0.20161   0.15957  -0.46595
  41   36361.3    275.0   0.139255326   1.26080   0.13385  -0.57248   0.95664
  42   36458.8    274.3   0.065728563   0.59351   0.05209   0.10615  -0.76127
  43   36716.9    272.4   0.200272468   1.79569   0.18401  -0.54068   1.21223
  44   36758.7    272.0   0.023538422   0.21081  -0.00794   0.31468  -0.33425
  45   37098.1    269.6   0.179352918   1.59159   0.12816  -0.50604  -1.14852
  46   37284.3    268.2   0.128331816   1.13314  -0.19746   0.97001   0.39144
  47   37486.0    266.8   0.201049854   1.76567  -0.00100   1.12169   0.71238
  48   37637.7    265.7   0.171382849   1.49906  -0.73830   0.22289   0.95094
  49   37931.2    263.6   0.080323863   0.69714   0.45800  -0.28440  -0.63757
  50   38167.0    262.0   0.055611510   0.47968   0.52867  -0.03290  -0.44621
  51   38256.0    261.4   0.384518655   3.30898   0.73847  -1.34989  -0.97028
  52   38428.2    260.2   0.014767155   0.12651   0.25635   0.01306  -0.24622
  53   38528.8    259.5   0.148121429   1.26563  -0.80640   0.59613   0.50989
  54   38551.0    259.4   0.110614443   0.94461   0.63426   0.61053  -0.41179
  55   38785.5    257.8   0.065150844   0.55300   0.48713   0.01976  -0.56153
  56   39073.3    255.9   0.019118381   0.16108   0.21969   0.27103  -0.19840
  57   39355.3    254.1   0.153989112   1.28814   0.30897  -0.96949  -0.50275
  58   39397.5    253.8   0.020254368   0.16925  -0.18284   0.35264   0.10705
  59   39467.4    253.4   0.038450922   0.32073   0.22590  -0.10369  -0.50887
  60   39663.0    252.1   0.167572050   1.39088  -0.03483   0.68356   0.96043
  61   39934.6    250.4   0.146676748   1.20917   0.83198   0.53780  -0.47724
  62   40251.2    248.4   0.183906503   1.50416   0.19580  -0.73332   0.96336
  63   40319.6    248.0   0.059038155   0.48205   0.16845   0.51557  -0.43343

FINAL SINGLE POINT ENERGY     -3550.823060294559

DIPOLE MOMENT
-------------
                                X             Y             Z
Electronic contribution:     16.54094     -14.93866       7.35276
Nuclear contribution   :    -16.55729      13.21496      -5.60154
                        -----------------------------------------
Total Dipole Moment    :     -0.01634      -1.72370       1.75122
                        -----------------------------------------
Magnitude (a.u.)       :      2.45727
Magnitude (Debye)      :      6.24588

Rotational constants in cm-1:     0.001270     0.000689     0.000563
Rotational constants in MHz :    38.059052    20.641957    16.875425

                             ****ORCA TERMINATED NORMALLY****
TOTAL RUN TIME: 0 days 0 hours 14 minutes 40 seconds 101 msec
