                         Program Version 4.2.0 -  RELEASE  -
|  1> # ORCA input file
|  2> # SCF done       -157.689110646938          0.000245687682
|  3> ! CAM-B3LYP def2-SVP def2/J RIJCOSX Grid4 TightSCF
|  4> %maxcore 5000
|  5> %tddft
|  6>     Mode sTDDFT
|  7>     Ethresh 5.0
|  8>     maxcore 5000
|  9> end
| 10>
| 11> %pal
| 12>   nprocs 6
| 13>   end
| 14> * xyz 0 1
| 15>    C       -3.08752         0.67846         3.02287
| 16>    C       -2.31025         1.54249         3.78625
| 17>    C       -1.52159         2.55672         3.15370
| 18>    N       -0.77123         3.39041         3.90737
| 19>    C       -0.79105         3.23643         5.20057
| 20>    C       -1.56781         2.23178         5.82287
| 21>    N       -2.30645         1.41004         5.13811
| 22>    C       -1.50666         2.70833         1.74109
| 23>    C       -2.31246         1.82009         0.98356
| 24>    C       -3.09520         0.80911         1.63780
| 25>    N       -3.86081        -0.04633         0.91257
| 26>    C       -3.86037         0.08402        -0.38060
| 27>    C       -3.09680         1.08154        -1.02741
| 28>    N       -2.35064         1.91726        -0.36280
| 29>    C       -0.67510         3.73329         1.19951
| 30>    C       -0.48848         4.04240        -0.10665
| 31>    C        0.38928         5.06027        -0.54516
| 32>    C        0.66803         5.40807        -1.86113
| 33>    C        1.61887         6.44602        -1.97257
| 34>    S        2.35671         6.98234        -3.48049
| 35>    C        0.94610         6.69690        -4.59750
| 36>    C        0.62268         5.22370        -4.66854
| 37>    S       -0.20300         4.60890        -3.15819
| 38>    C        2.04666         6.91879        -0.74476
| 39>    S        1.32006         6.03295         0.56337
| 40>    C        2.94812         7.99396        -0.46142
| 41>    S        4.12818         7.84221         0.80172
| 42>    C        4.72681         9.41718         0.46281
| 43>    C        4.07782        10.03532        -0.55868
| 44>    C        4.39829        11.42129        -1.01066
| 45>    C        3.03096         9.22495        -1.09446
| 46>    C        2.07827         9.59748        -2.10912
| 47>    C        2.32987        10.32527        -3.21338
| 48>    C        1.37844        10.51825        -4.26661
| 49>    C        0.03687        10.47484        -4.12268
| 50>    C       -0.92813        10.56662        -5.17065
| 51>    C       -0.83928        10.27245        -6.51462
| 52>    C       -2.03906        10.48259        -7.22958
| 53>    S       -2.18771        10.17821        -8.94404
| 54>    C       -0.51259        10.63921        -9.63032
| 55>    C        0.57280        10.93426        -8.63260
| 56>    S        0.60807         9.66397        -7.31808
| 57>    C       -3.07254        10.95329        -6.42035
| 58>    S       -2.52079        11.15932        -4.78062
| 59>    C       -4.42580        11.26957        -6.72496
| 60>    C       -5.11769        10.74736        -7.84039
| 61>    C       -6.45262        11.16584        -8.16702
| 62>    N       -7.06089        10.62505        -9.24650
| 63>    C       -6.43090         9.72096        -9.94079
| 64>    C       -5.14350         9.27688        -9.59058
| 65>    N       -4.51657         9.78976        -8.56677
| 66>    C       -7.13948        12.10592        -7.36888
| 67>    C       -6.49322        12.53153        -6.18435
| 68>    C       -5.16886        12.10683        -5.85782
| 69>    N       -4.59544        12.50090        -4.70891
| 70>    C       -5.25681        13.28818        -3.90718
| 71>    C       -6.55291        13.73020        -4.23971
| 72>    N       -7.14705        13.35952        -5.33794
| 73>    C       -8.45282        12.64120        -7.65010
| 74>    C       -9.16654        12.49058        -8.76514
| 75>    H       -3.67760        -0.08753         3.49794
| 76>    H       -0.18217         3.91780         5.77989
| 77>    H       -1.57364         2.11375         6.89865
| 78>    H       -4.47489        -0.60719        -0.94242
| 79>    H       -3.10387         1.19050        -2.10402
| 80>    H       -0.13705         4.30267         1.94865
| 81>    H       -1.01300         3.49404        -0.87642
| 82>    H        1.26759         7.07508        -5.56778
| 83>    H        0.09930         7.28785        -4.24795
| 84>    H        1.52658         4.63530        -4.83010
| 85>    H       -0.09236         5.01644        -5.46531
| 86>    H        5.53544         9.80403         1.05143
| 87>    H        4.93517        11.95575        -0.23059
| 88>    H        3.48568        11.96164        -1.25288
| 89>    H        5.02874        11.39664        -1.89927
| 90>    H        1.09603         9.15771        -1.98659
| 91>    H        3.33219        10.67751        -3.40536
| 92>    H        1.79779        10.69797        -5.24603
| 93>    H       -0.38935        10.42509        -3.12859
| 94>    H       -0.69314        11.50367       -10.27018
| 95>    H       -0.24328         9.78501       -10.25090
| 96>    H        0.42840        11.89680        -8.14047
| 97>    H        1.55223        10.91317        -9.11014
| 98>    H       -6.95782         9.30842       -10.79099
| 99>    H       -4.62784         8.50118       -10.13814
|100>    H       -4.76802        13.57489        -2.98688
|101>    H       -7.10769        14.39076        -3.58688
|102>    H       -8.84212        13.24410        -6.84010
|103>    H       -8.80778        11.91665        -9.59964
|104>    H      -10.13874        12.94558        -8.85698
|105> *
|106>
|107>                          ****END OF INPUT****

CARTESIAN COORDINATES (ANGSTROEM)
---------------------------------
  C     -3.087520    0.678460    3.022870
  C     -2.310250    1.542490    3.786250
  C     -1.521590    2.556720    3.153700
  N     -0.771230    3.390410    3.907370
  C     -0.791050    3.236430    5.200570
  C     -1.567810    2.231780    5.822870
  N     -2.306450    1.410040    5.138110
  C     -1.506660    2.708330    1.741090
  C     -2.312460    1.820090    0.983560
  C     -3.095200    0.809110    1.637800
  N     -3.860810   -0.046330    0.912570
  C     -3.860370    0.084020   -0.380600
  C     -3.096800    1.081540   -1.027410
  N     -2.350640    1.917260   -0.362800
  C     -0.675100    3.733290    1.199510
  C     -0.488480    4.042400   -0.106650
  C      0.389280    5.060270   -0.545160
  C      0.668030    5.408070   -1.861130
  C      1.618870    6.446020   -1.972570
  S      2.356710    6.982340   -3.480490
  C      0.946100    6.696900   -4.597500
  C      0.622680    5.223700   -4.668540
  S     -0.203000    4.608900   -3.158190
  C      2.046660    6.918790   -0.744760
  S      1.320060    6.032950    0.563370
  C      2.948120    7.993960   -0.461420
  S      4.128180    7.842210    0.801720
  C      4.726810    9.417180    0.462810
  C      4.077820   10.035320   -0.558680
  C      4.398290   11.421290   -1.010660
  C      3.030960    9.224950   -1.094460
  C      2.078270    9.597480   -2.109120
  C      2.329870   10.325270   -3.213380
  C      1.378440   10.518250   -4.266610
  C      0.036870   10.474840   -4.122680
  C     -0.928130   10.566620   -5.170650
  C     -0.839280   10.272450   -6.514620
  C     -2.039060   10.482590   -7.229580
  S     -2.187710   10.178210   -8.944040
  C     -0.512590   10.639210   -9.630320
  C      0.572800   10.934260   -8.632600
  S      0.608070    9.663970   -7.318080
  C     -3.072540   10.953290   -6.420350
  S     -2.520790   11.159320   -4.780620
  C     -4.425800   11.269570   -6.724960
  C     -5.117690   10.747360   -7.840390
  C     -6.452620   11.165840   -8.167020
  N     -7.060890   10.625050   -9.246500
  C     -6.430900    9.720960   -9.940790
  C     -5.143500    9.276880   -9.590580
  N     -4.516570    9.789760   -8.566770
  C     -7.139480   12.105920   -7.368880
  C     -6.493220   12.531530   -6.184350
  C     -5.168860   12.106830   -5.857820
  N     -4.595440   12.500900   -4.708910
  C     -5.256810   13.288180   -3.907180
  C     -6.552910   13.730200   -4.239710
  N     -7.147050   13.359520   -5.337940
  C     -8.452820   12.641200   -7.650100
  C     -9.166540   12.490580   -8.765140
  H     -3.677600   -0.087530    3.497940
  H     -0.182170    3.917800    5.779890
  H     -1.573640    2.113750    6.898650
  H     -4.474890   -0.607190   -0.942420
  H     -3.103870    1.190500   -2.104020
  H     -0.137050    4.302670    1.948650
  H     -1.013000    3.494040   -0.876420
  H      1.267590    7.075080   -5.567780
  H      0.099300    7.287850   -4.247950
  H      1.526580    4.635300   -4.830100
  H     -0.092360    5.016440   -5.465310
  H      5.535440    9.804030    1.051430
  H      4.935170   11.955750   -0.230590
  H      3.485680   11.961640   -1.252880
  H      5.028740   11.396640   -1.899270
  H      1.096030    9.157710   -1.986590
  H      3.332190   10.677510   -3.405360
  H      1.797790   10.697970   -5.246030
  H     -0.389350   10.425090   -3.128590
  H     -0.693140   11.503670  -10.270180
  H     -0.243280    9.785010  -10.250900
  H      0.428400   11.896800   -8.140470
  H      1.552230   10.913170   -9.110140
  H     -6.957820    9.308420  -10.790990
  H     -4.627840    8.501180  -10.138140
  H     -4.768020   13.574890   -2.986880
  H     -7.107690   14.390760   -3.586880
  H     -8.842120   13.244100   -6.840100
  H     -8.807780   11.916650   -9.599640
  H    -10.138740   12.945580   -8.856980

 Total Charge           Charge          ....    0
 Multiplicity           Mult            ....    1
 Number of Electrons    NEL             ....  468
 Basis Dimension        Dim             .... 1018

ORBITAL ENERGIES
----------------

  NO   OCC          E(Eh)            E(eV)
   0   2.0000     -88.942932     -2420.2602
   1   2.0000     -88.942270     -2420.2422
   2   2.0000     -88.940215     -2420.1863
   3   2.0000     -88.921054     -2419.6649
   4   2.0000     -88.918527     -2419.5961
   5   2.0000     -88.917420     -2419.5660
   6   2.0000     -88.916200     -2419.5328
   7   2.0000     -14.428913      -392.6307
   8   2.0000     -14.427611      -392.5952
   9   2.0000     -14.424516      -392.5110
  10   2.0000     -14.418590      -392.3498
  11   2.0000     -14.417869      -392.3302
  12   2.0000     -14.417737      -392.3266
  13   2.0000     -14.416027      -392.2800
  14   2.0000     -14.414964      -392.2511
  15   2.0000     -10.323357      -280.9128
  16   2.0000     -10.320894      -280.8458
  17   2.0000     -10.318970      -280.7934
  18   2.0000     -10.318934      -280.7925
  19   2.0000     -10.317883      -280.7639
  20   2.0000     -10.317120      -280.7431
  21   2.0000     -10.316250      -280.7194
  22   2.0000     -10.315890      -280.7096
  23   2.0000     -10.313943      -280.6567
  24   2.0000     -10.312958      -280.6298
  25   2.0000     -10.312510      -280.6177
  26   2.0000     -10.312233      -280.6101
  27   2.0000     -10.309981      -280.5488
  28   2.0000     -10.308908      -280.5196
  29   2.0000     -10.308817      -280.5172
  30   2.0000     -10.308114      -280.4980
  31   2.0000     -10.299515      -280.2640
  32   2.0000     -10.298262      -280.2300
  33   2.0000     -10.297579      -280.2114
  34   2.0000     -10.296671      -280.1867
  35   2.0000     -10.296270      -280.1758
  36   2.0000     -10.295960      -280.1673
  37   2.0000     -10.294487      -280.1272
  38   2.0000     -10.294378      -280.1243
  39   2.0000     -10.294187      -280.1191
  40   2.0000     -10.293150      -280.0909
  41   2.0000     -10.288221      -279.9567
  42   2.0000     -10.286594      -279.9125
  43   2.0000     -10.285363      -279.8789
  44   2.0000     -10.285057      -279.8706
  45   2.0000     -10.284103      -279.8447
  46   2.0000     -10.281921      -279.7853
  47   2.0000     -10.276790      -279.6457
  48   2.0000     -10.268324      -279.4153
  49   2.0000     -10.267469      -279.3920
  50   2.0000     -10.266898      -279.3765
  51   2.0000     -10.266773      -279.3731
  52   2.0000     -10.264198      -279.3030
  53   2.0000     -10.263270      -279.2778
  54   2.0000     -10.262447      -279.2554
  55   2.0000     -10.258212      -279.1401
  56   2.0000     -10.257869      -279.1308
  57   2.0000     -10.255216      -279.0586
  58   2.0000     -10.253501      -279.0119
  59   2.0000     -10.245101      -278.7834
  60   2.0000      -8.038865      -218.7486
  61   2.0000      -8.037632      -218.7151
  62   2.0000      -8.033989      -218.6160
  63   2.0000      -8.016351      -218.1360
  64   2.0000      -8.012489      -218.0309
  65   2.0000      -8.011664      -218.0085
  66   2.0000      -8.011091      -217.9929
  67   2.0000      -6.008118      -163.4892
  68   2.0000      -6.006916      -163.4565
  69   2.0000      -6.003874      -163.3737
  70   2.0000      -6.003520      -163.3641
  71   2.0000      -6.003040      -163.3510
  72   2.0000      -6.001161      -163.2999
  73   2.0000      -5.999477      -163.2541
  74   2.0000      -5.999044      -163.2423
  75   2.0000      -5.995980      -163.1589
  76   2.0000      -5.986811      -162.9094
  77   2.0000      -5.982890      -162.8027
  78   2.0000      -5.982638      -162.7958
  79   2.0000      -5.982362      -162.7883
  80   2.0000      -5.981652      -162.7690
  81   2.0000      -5.979270      -162.7042
  82   2.0000      -5.977905      -162.6671
  83   2.0000      -5.977642      -162.6599
  84   2.0000      -5.976050      -162.6166
  85   2.0000      -5.971860      -162.5026
  86   2.0000      -5.971232      -162.4855
  87   2.0000      -5.970424      -162.4635
  88   2.0000      -1.086675       -29.5699
  89   2.0000      -1.078431       -29.3456
  90   2.0000      -1.075150       -29.2563
  91   2.0000      -1.068328       -29.0707
  92   2.0000      -1.011674       -27.5290
  93   2.0000      -1.002410       -27.2770
  94   2.0000      -0.998303       -27.1652
  95   2.0000      -0.992871       -27.0174
  96   2.0000      -0.991319       -26.9752
  97   2.0000      -0.981868       -26.7180
  98   2.0000      -0.967873       -26.3372
  99   2.0000      -0.946984       -25.7687
 100   2.0000      -0.937843       -25.5200
 101   2.0000      -0.920074       -25.0365
 102   2.0000      -0.915657       -24.9163
 103   2.0000      -0.902115       -24.5478
 104   2.0000      -0.891355       -24.2550
 105   2.0000      -0.883114       -24.0307
 106   2.0000      -0.867093       -23.5948
 107   2.0000      -0.866287       -23.5729
 108   2.0000      -0.863986       -23.5102
 109   2.0000      -0.854480       -23.2516
 110   2.0000      -0.850510       -23.1436
 111   2.0000      -0.839634       -22.8476
 112   2.0000      -0.835032       -22.7224
 113   2.0000      -0.833376       -22.6773
 114   2.0000      -0.825862       -22.4729
 115   2.0000      -0.821496       -22.3540
 116   2.0000      -0.802353       -21.8331
 117   2.0000      -0.790698       -21.5160
 118   2.0000      -0.783889       -21.3307
 119   2.0000      -0.777986       -21.1701
 120   2.0000      -0.764278       -20.7971
 121   2.0000      -0.758959       -20.6523
 122   2.0000      -0.752204       -20.4685
 123   2.0000      -0.747860       -20.3503
 124   2.0000      -0.732796       -19.9404
 125   2.0000      -0.727659       -19.8006
 126   2.0000      -0.723555       -19.6889
 127   2.0000      -0.717026       -19.5113
 128   2.0000      -0.716469       -19.4961
 129   2.0000      -0.711970       -19.3737
 130   2.0000      -0.703621       -19.1465
 131   2.0000      -0.692332       -18.8393
 132   2.0000      -0.686012       -18.6673
 133   2.0000      -0.675834       -18.3904
 134   2.0000      -0.666276       -18.1303
 135   2.0000      -0.661006       -17.9869
 136   2.0000      -0.646938       -17.6041
 137   2.0000      -0.643682       -17.5155
 138   2.0000      -0.637287       -17.3415
 139   2.0000      -0.629032       -17.1168
 140   2.0000      -0.624362       -16.9897
 141   2.0000      -0.619327       -16.8527
 142   2.0000      -0.613250       -16.6874
 143   2.0000      -0.611970       -16.6525
 144   2.0000      -0.600481       -16.3399
 145   2.0000      -0.591894       -16.1062
 146   2.0000      -0.589733       -16.0475
 147   2.0000      -0.587587       -15.9891
 148   2.0000      -0.583261       -15.8713
 149   2.0000      -0.582524       -15.8513
 150   2.0000      -0.573611       -15.6087
 151   2.0000      -0.570447       -15.5227
 152   2.0000      -0.563687       -15.3387
 153   2.0000      -0.560038       -15.2394
 154   2.0000      -0.559195       -15.2165
 155   2.0000      -0.549480       -14.9521
 156   2.0000      -0.545150       -14.8343
 157   2.0000      -0.540890       -14.7184
 158   2.0000      -0.536336       -14.5944
 159   2.0000      -0.532327       -14.4854
 160   2.0000      -0.531111       -14.4523
 161   2.0000      -0.524980       -14.2854
 162   2.0000      -0.523534       -14.2461
 163   2.0000      -0.521879       -14.2011
 164   2.0000      -0.519757       -14.1433
 165   2.0000      -0.514837       -14.0094
 166   2.0000      -0.512802       -13.9541
 167   2.0000      -0.511439       -13.9170
 168   2.0000      -0.509274       -13.8581
 169   2.0000      -0.508494       -13.8368
 170   2.0000      -0.503903       -13.7119
 171   2.0000      -0.503437       -13.6992
 172   2.0000      -0.501376       -13.6431
 173   2.0000      -0.497221       -13.5301
 174   2.0000      -0.490234       -13.3400
 175   2.0000      -0.489615       -13.3231
 176   2.0000      -0.484079       -13.1725
 177   2.0000      -0.482119       -13.1191
 178   2.0000      -0.479999       -13.0614
 179   2.0000      -0.476076       -12.9547
 180   2.0000      -0.475224       -12.9315
 181   2.0000      -0.473606       -12.8875
 182   2.0000      -0.468380       -12.7453
 183   2.0000      -0.462505       -12.5854
 184   2.0000      -0.458160       -12.4672
 185   2.0000      -0.455619       -12.3980
 186   2.0000      -0.454612       -12.3706
 187   2.0000      -0.450450       -12.2574
 188   2.0000      -0.444661       -12.0998
 189   2.0000      -0.443286       -12.0624
 190   2.0000      -0.439005       -11.9459
 191   2.0000      -0.434725       -11.8295
 192   2.0000      -0.431231       -11.7344
 193   2.0000      -0.430801       -11.7227
 194   2.0000      -0.428989       -11.6734
 195   2.0000      -0.424928       -11.5629
 196   2.0000      -0.417768       -11.3681
 197   2.0000      -0.415774       -11.3138
 198   2.0000      -0.415064       -11.2945
 199   2.0000      -0.412986       -11.2379
 200   2.0000      -0.411144       -11.1878
 201   2.0000      -0.410609       -11.1733
 202   2.0000      -0.407231       -11.0813
 203   2.0000      -0.403108       -10.9691
 204   2.0000      -0.399784       -10.8787
 205   2.0000      -0.398495       -10.8436
 206   2.0000      -0.395089       -10.7509
 207   2.0000      -0.389098       -10.5879
 208   2.0000      -0.378045       -10.2871
 209   2.0000      -0.377569       -10.2742
 210   2.0000      -0.370880       -10.0922
 211   2.0000      -0.367865       -10.0101
 212   2.0000      -0.363515        -9.8918
 213   2.0000      -0.359349        -9.7784
 214   2.0000      -0.352717        -9.5979
 215   2.0000      -0.349069        -9.4987
 216   2.0000      -0.340016        -9.2523
 217   2.0000      -0.333513        -9.0754
 218   2.0000      -0.329495        -8.9660
 219   2.0000      -0.323432        -8.8010
 220   2.0000      -0.320522        -8.7219
 221   2.0000      -0.316053        -8.6002
 222   2.0000      -0.315128        -8.5751
 223   2.0000      -0.310872        -8.4593
 224   2.0000      -0.309089        -8.4107
 225   2.0000      -0.301506        -8.2044
 226   2.0000      -0.298711        -8.1283
 227   2.0000      -0.290188        -7.8964
 228   2.0000      -0.279275        -7.5994
 229   2.0000      -0.272858        -7.4248
 230   2.0000      -0.260826        -7.0974
 231   2.0000      -0.254698        -6.9307
 232   2.0000      -0.229586        -6.2474
 233   2.0000      -0.220659        -6.0044
 234   0.0000      -0.083326        -2.2674
 235   0.0000      -0.073587        -2.0024
 236   0.0000      -0.030819        -0.8386
 237   0.0000      -0.009983        -0.2717
 238   0.0000      -0.005288        -0.1439

MULLIKEN ATOMIC CHARGES
-----------------------
   0 C :   -0.081204
   1 C :    0.034723
   2 C :   -0.057662
   3 N :   -0.014215
   4 C :    0.020267
   5 C :    0.020328
   6 N :   -0.019977
   7 C :    0.134887
   8 C :   -0.054794
   9 C :    0.031483
  10 N :   -0.019401
  11 C :    0.019492
  12 C :    0.032388
  13 N :   -0.020951
  14 C :   -0.117532
  15 C :    0.030383
  16 C :   -0.093793
  17 C :   -0.012337
  18 C :   -0.026442
  19 S :    0.013208
  20 C :   -0.076157
  21 C :   -0.014940
  22 S :   -0.015014
  23 C :   -0.145047
  24 S :    0.135317
  25 C :   -0.180808
  26 S :    0.131017
  27 C :   -0.127227
  28 C :   -0.093720
  29 C :    0.116185
  30 C :    0.139543
  31 C :   -0.016406
  32 C :    0.014043
  33 C :    0.008283
  34 C :    0.005574
  35 C :   -0.075112
  36 C :   -0.089020
  37 C :    0.034505
  38 S :    0.012034
  39 C :    0.005199
  40 C :   -0.083144
  41 S :   -0.012829
  42 C :   -0.225915
  43 S :    0.159364
  44 C :    0.153267
  45 C :   -0.039695
  46 C :   -0.046750
  47 N :   -0.024701
  48 C :    0.034614
  49 C :    0.058116
  50 N :   -0.071907
  51 C :    0.053683
  52 C :   -0.045807
  53 C :   -0.035466
  54 N :   -0.062764
  55 C :    0.042259
  56 C :    0.021724
  57 N :   -0.017034
  58 C :   -0.070171
  59 C :    0.024867
  60 H :   -0.039782
  61 H :    0.011521
  62 H :    0.013262
  63 H :    0.012707
  64 H :    0.012284
  65 H :   -0.003034
  66 H :    0.018094
  67 H :    0.062622
  68 H :    0.070720
  69 H :    0.065304
  70 H :    0.055496
  71 H :    0.009822
  72 H :    0.006296
  73 H :    0.026693
  74 H :    0.032183
  75 H :    0.009832
  76 H :   -0.024528
  77 H :   -0.004905
  78 H :   -0.010101
  79 H :    0.045877
  80 H :    0.041751
  81 H :    0.062201
  82 H :    0.050388
  83 H :    0.011229
  84 H :    0.009002
  85 H :    0.012809
  86 H :    0.015881
  87 H :   -0.005169
  88 H :    0.023769
  89 H :    0.008968
Sum of atomic charges:   -0.0000000

LOEWDIN ATOMIC CHARGES
----------------------
   0 C :   -0.015072
   1 C :   -0.013334
   2 C :   -0.012246
   3 N :   -0.030299
   4 C :    0.001699
   5 C :    0.004474
   6 N :   -0.038242
   7 C :   -0.005996
   8 C :   -0.012995
   9 C :   -0.011104
  10 N :   -0.035620
  11 C :    0.003625
  12 C :    0.006529
  13 N :   -0.023415
  14 C :   -0.040501
  15 C :   -0.016701
  16 C :   -0.196903
  17 C :   -0.196538
  18 C :   -0.213939
  19 S :    0.322760
  20 C :   -0.140681
  21 C :   -0.143917
  22 S :    0.298836
  23 C :   -0.206935
  24 S :    0.435189
  25 C :   -0.198395
  26 S :    0.431182
  27 C :   -0.196742
  28 C :   -0.054392
  29 C :   -0.045670
  30 C :   -0.060895
  31 C :   -0.008741
  32 C :   -0.040975
  33 C :   -0.014213
  34 C :   -0.058673
  35 C :   -0.182009
  36 C :   -0.229267
  37 C :   -0.186915
  38 S :    0.339301
  39 C :   -0.165301
  40 C :   -0.136293
  41 S :    0.279093
  42 C :   -0.194962
  43 S :    0.476158
  44 C :   -0.031100
  45 C :   -0.009154
  46 C :   -0.002511
  47 N :   -0.028677
  48 C :    0.012796
  49 C :    0.004976
  50 N :   -0.040255
  51 C :   -0.025060
  52 C :   -0.003635
  53 C :   -0.017093
  54 N :   -0.046812
  55 C :    0.012513
  56 C :    0.007326
  57 N :   -0.027776
  58 C :   -0.033293
  59 C :   -0.023367
  60 H :    0.039559
  61 H :    0.025771
  62 H :    0.026088
  63 H :    0.025973
  64 H :    0.026227
  65 H :    0.020241
  66 H :    0.023973
  67 H :    0.030217
  68 H :    0.027655
  69 H :    0.023713
  70 H :    0.031545
  71 H :    0.019501
  72 H :    0.030936
  73 H :    0.034377
  74 H :    0.034121
  75 H :    0.026705
  76 H :    0.024400
  77 H :    0.015427
  78 H :    0.025056
  79 H :    0.021707
  80 H :    0.020553
  81 H :    0.028090
  82 H :    0.028436
  83 H :    0.026000
  84 H :    0.023901
  85 H :    0.027586
  86 H :    0.027315
  87 H :    0.028659
  88 H :    0.017111
  89 H :    0.019314

  Mayer bond orders larger than 0.100000
B(  0-C ,  1-C ) :   1.2456 B(  0-C ,  7-C ) :   0.1361 B(  0-C ,  9-C ) :   1.2436
B(  0-C , 60-H ) :   1.0539 B(  1-C ,  2-C ) :   1.1734 B(  1-C ,  6-N ) :   1.3707
B(  2-C ,  3-N ) :   1.4505 B(  2-C ,  7-C ) :   1.2403 B(  3-N ,  4-C ) :   1.7012
B(  4-C ,  5-C ) :   1.1798 B(  4-C , 61-H ) :   0.9745 B(  5-C ,  6-N ) :   1.7206
B(  5-C , 62-H ) :   0.9732 B(  7-C ,  8-C ) :   1.2280 B(  7-C , 14-C ) :   1.1859
B(  8-C ,  9-C ) :   1.1710 B(  8-C , 13-N ) :   1.4438 B(  9-C , 10-N ) :   1.3726
B( 10-N , 11-C ) :   1.7181 B( 11-C , 12-C ) :   1.1838 B( 11-C , 63-H ) :   0.9739
B( 12-C , 13-N ) :   1.6811 B( 12-C , 64-H ) :   0.9730 B( 14-C , 15-C ) :   1.6118
B( 14-C , 65-H ) :   0.9561 B( 15-C , 16-C ) :   1.1485 B( 15-C , 66-H ) :   0.9401
B( 16-C , 17-C ) :   1.5419 B( 16-C , 23-C ) :   0.1143 B( 16-C , 24-S ) :   1.0809
B( 17-C , 18-C ) :   1.2508 B( 17-C , 22-S ) :   1.0197 B( 18-C , 19-S ) :   1.0319
B( 18-C , 23-C ) :   1.5749 B( 19-S , 20-C ) :   1.0185 B( 20-C , 21-C ) :   1.0191
B( 20-C , 67-H ) :   0.9446 B( 20-C , 68-H ) :   0.9459 B( 21-C , 22-S ) :   1.0053
B( 21-C , 69-H ) :   0.9462 B( 21-C , 70-H ) :   0.9429 B( 23-C , 24-S ) :   1.1333
B( 23-C , 25-C ) :   1.0699 B( 25-C , 26-S ) :   1.1518 B( 25-C , 30-C ) :   1.4821
B( 26-S , 27-C ) :   1.1319 B( 27-C , 28-C ) :   1.5964 B( 27-C , 71-H ) :   0.9688
B( 28-C , 29-C ) :   1.0938 B( 28-C , 30-C ) :   1.2341 B( 29-C , 72-H ) :   0.9480
B( 29-C , 73-H ) :   0.9439 B( 29-C , 74-H ) :   0.9426 B( 30-C , 31-C ) :   1.1021
B( 31-C , 32-C ) :   1.7284 B( 31-C , 75-H ) :   0.9413 B( 32-C , 33-C ) :   1.1099
B( 32-C , 76-H ) :   0.9702 B( 33-C , 34-C ) :   1.7269 B( 33-C , 77-H ) :   0.9554
B( 34-C , 35-C ) :   1.1012 B( 34-C , 78-H ) :   0.9505 B( 35-C , 36-C ) :   1.5452
B( 35-C , 42-C ) :   0.1039 B( 35-C , 43-S ) :   1.0942 B( 36-C , 37-C ) :   1.2614
B( 36-C , 41-S ) :   1.0103 B( 37-C , 38-S ) :   1.0566 B( 37-C , 42-C ) :   1.5039
B( 38-S , 39-C ) :   0.9256 B( 39-C , 40-C ) :   1.0509 B( 39-C , 79-H ) :   0.9416
B( 39-C , 80-H ) :   0.9473 B( 40-C , 41-S ) :   1.0081 B( 40-C , 81-H ) :   0.9458
B( 40-C , 82-H ) :   0.9485 B( 42-C , 43-S ) :   1.1163 B( 42-C , 44-C ) :   1.1516
B( 44-C , 45-C ) :   1.2652 B( 44-C , 51-C ) :   0.1290 B( 44-C , 53-C ) :   1.2429
B( 45-C , 46-C ) :   1.1379 B( 45-C , 50-N ) :   1.4025 B( 46-C , 47-N ) :   1.4400
B( 46-C , 51-C ) :   1.2610 B( 47-N , 48-C ) :   1.6802 B( 48-C , 49-C ) :   1.2052
B( 48-C , 83-H ) :   0.9752 B( 49-C , 50-N ) :   1.6073 B( 49-C , 84-H ) :   0.9696
B( 51-C , 52-C ) :   1.2516 B( 51-C , 58-C ) :   1.1614 B( 52-C , 53-C ) :   1.1601
B( 52-C , 57-N ) :   1.4560 B( 53-C , 54-N ) :   1.4081 B( 54-N , 55-C ) :   1.6523
B( 55-C , 56-C ) :   1.1999 B( 55-C , 85-H ) :   0.9736 B( 56-C , 57-N ) :   1.6919
B( 56-C , 86-H ) :   0.9758 B( 58-C , 59-C ) :   1.9032 B( 58-C , 87-H ) :   0.9430
B( 59-C , 88-H ) :   0.9301 B( 59-C , 89-H ) :   0.9419

-----------------------------------------------------------------------------
         ABSORPTION SPECTRUM VIA TRANSITION ELECTRIC DIPOLE MOMENTS
-----------------------------------------------------------------------------
State   Energy  Wavelength   fosc         T2         TX        TY        TZ
        (cm-1)    (nm)                  (au**2)     (au)      (au)      (au)
-----------------------------------------------------------------------------
   0   14522.3    688.6   0.493164633  11.17977  -2.67573   1.41866  -1.41690
   1   16771.2    596.3   0.558939708  10.97175   1.99506   2.07037  -1.64471
   2   20632.5    484.7   0.025659449   0.40942  -0.21195  -0.26827   0.54086
   3   21655.4    461.8   0.037389269   0.56840  -0.02331  -0.11932  -0.74406
   4   22703.7    440.5   0.058508259   0.84839  -0.61419   0.35600  -0.58688
   5   23685.9    422.2   0.011728354   0.16301   0.29598   0.25906   0.09109
   6   24331.9    411.0   0.027902285   0.37752   0.05785   0.55718   0.25245
   7   24654.6    405.6   0.018197971   0.24300  -0.09652  -0.45842   0.15341
   8   25889.4    386.3   0.018576218   0.23622   0.07104   0.14515  -0.45837
   9   25937.8    385.5   0.097612014   1.23893   0.18957  -0.81166   0.73770
  10   25972.7    385.0   0.266162066   3.37369   0.50298  -1.32531   1.16802
  11   26454.0    378.0   0.028315419   0.35238   0.05813  -0.37362   0.45760
  12   27378.3    365.3   0.001534569   0.01845  -0.11693   0.06510  -0.02329
  13   27864.8    358.9   0.259141262   3.06165  -1.67646  -0.25872  -0.42918
  14   28307.0    353.3   0.042726649   0.49691  -0.52894  -0.10513  -0.45397
  15   28747.2    347.9   0.018278967   0.20933   0.21129  -0.06279   0.40093
  16   29075.1    343.9   0.053193804   0.60230   0.72019   0.25993   0.12673
  17   29297.9    341.3   0.142086294   1.59658   0.58312  -0.22750   1.09763
  18   30062.9    332.6   0.193378863   2.11765   1.29493   0.65743  -0.09276
  19   30294.8    330.1   0.026463004   0.28757   0.31010   0.19261   0.39282
  20   31055.2    322.0   0.161252463   1.70941   1.12204   0.58426  -0.33028
  21   31732.3    315.1   0.067707542   0.70244  -0.50023  -0.30744  -0.59807
  22   31991.6    312.6   0.040169284   0.41336  -0.57203  -0.29331   0.01084
  23   32736.9    305.5   0.021962426   0.22086  -0.26292  -0.04274   0.38718
  24   33062.0    302.5   0.052281259   0.52059  -0.07525   0.59972   0.39404
  25   33146.7    301.7   0.021886570   0.21738  -0.37020   0.20135  -0.19945
  26   33507.8    298.4   0.007480091   0.07349  -0.05102   0.25063   0.08984
  27   33836.5    295.5   0.038578370   0.37535   0.38108   0.22728  -0.42246
  28   34237.5    292.1   0.058134945   0.55900  -0.20934   0.69604   0.17522
  29   35112.1    284.8   0.433117226   4.06092   0.43014   0.98345   1.70550
  30   35260.5    283.6   0.029813182   0.27835  -0.50779   0.08723   0.11355
  31   35927.1    278.3   0.060002749   0.54983  -0.42217   0.42716   0.43490
  32   36073.2    277.2   0.039795369   0.36318  -0.52323   0.16733   0.24782
  33   36382.1    274.9   0.401770605   3.63551  -0.87104  -0.36869  -1.65556
  34   36505.4    273.9   0.122047458   1.10065   0.07231  -0.64679  -0.82285
  35   36752.0    272.1   0.007030565   0.06298  -0.06664   0.18903   0.15101
  36   37558.5    266.3   0.034790514   0.30495  -0.26367   0.13618  -0.46571
  37   37638.7    265.7   0.051869024   0.45368  -0.17339   0.36639  -0.53794
  38   37945.3    263.5   0.072873032   0.63224  -0.01406  -0.08707   0.79023
  39   38072.6    262.7   0.026409904   0.22837   0.27910   0.37512   0.09876
  40   38152.7    262.1   0.187840583   1.62084  -0.36098  -0.35977  -1.16666
  41   38434.6    260.2   0.181077374   1.55102   0.09881  -0.24644  -1.21677
  42   38629.4    258.9   0.063027565   0.53714   0.66776  -0.13921   0.26806
  43   38722.8    258.2   0.032288950   0.27451   0.14956  -0.12479  -0.48638
  44   38974.1    256.6   0.040502677   0.34212   0.53408  -0.19652  -0.13515
  45   39346.8    254.2   0.077728583   0.65035  -0.00406  -0.47149  -0.65424
  46   39693.1    251.9   0.065380686   0.54226  -0.70159  -0.10192  -0.19912
  47   40005.1    250.0   0.047564671   0.39142  -0.14951   0.10803  -0.59783

FINAL SINGLE POINT ENERGY     -4954.508225524679

DIPOLE MOMENT
-------------
                                X             Y             Z
Electronic contribution:     -4.56513     -16.47117      16.11452
Nuclear contribution   :      5.04105      17.62777     -17.30534
                        -----------------------------------------
Total Dipole Moment    :      0.47592       1.15660      -1.19082
                        -----------------------------------------
Magnitude (a.u.)       :      1.72692
Magnitude (Debye)      :      4.38949

Rotational constants in cm-1:     0.001371     0.000546     0.000460
Rotational constants in MHz :    41.086934    16.360988    13.801564

                             ****ORCA TERMINATED NORMALLY****
TOTAL RUN TIME: 0 days 0 hours 11 minutes 35 seconds 201 msec
