                         Program Version 4.2.0 -  RELEASE  -
|  1> # ORCA input file
|  2> # SCF done       -175.043145086958          0.000998769710
|  3> ! CAM-B3LYP def2-SVP def2/J RIJCOSX Grid4 TightSCF
|  4> %maxcore 5000
|  5> %tddft
|  6>     Mode sTDDFT
|  7>     Ethresh 5.0
|  8>     maxcore 5000
|  9> end
| 10>
| 11> %pal
| 12>   nprocs 6
| 13>   end
| 14> * xyz 0 1
| 15>    C        1.28515        -1.03342         1.25375
| 16>    C        1.32559        -0.45093        -0.00959
| 17>    C        1.25276         0.97388        -0.17300
| 18>    N        1.29834         1.49725        -1.41721
| 19>    C        1.40321         0.68664        -2.43182
| 20>    C        1.47078        -0.71502        -2.26646
| 21>    N        1.43448        -1.26564        -1.08990
| 22>    C        1.13572         1.82370         0.95872
| 23>    C        1.09947         1.20071         2.23732
| 24>    C        1.17333        -0.22169         2.37769
| 25>    N        1.13306        -0.79693         3.60710
| 26>    C        1.02547        -0.01212         4.63751
| 27>    C        0.95386         1.39433         4.50205
| 28>    N        0.99032         1.97702         3.33796
| 29>    C        1.04688         3.24632         0.92558
| 30>    C        1.03561         4.05340        -0.17001
| 31>    C        0.92858         5.46394        -0.10932
| 32>    C        0.83701         6.29135         0.99284
| 33>    C        0.72974         7.64133         0.55768
| 34>    C        0.76768         7.57694        -0.90693
| 35>    C        0.88719         6.30432        -1.31064
| 36>    F        0.69316         8.65797        -1.69745
| 37>    C        0.60015         8.77891         1.32474
| 38>    C        0.45296        10.12417         0.89095
| 39>    C        0.31748        10.94460         1.99189
| 40>    C        0.39301        10.10820         3.19413
| 41>    C        0.55821         8.84102         2.79065
| 42>    F        0.67246         7.76567         3.58089
| 43>    C        0.11091        12.34436         2.05009
| 44>    C        0.03015        13.15585         0.96286
| 45>    C       -0.22048        14.55034         1.00533
| 46>    S       -0.30845        15.43980        -0.50735
| 47>    C       -0.66942        16.90971         0.32566
| 48>    O       -0.85948        18.05356        -0.34197
| 49>    C       -0.71476        16.74216         1.70528
| 50>    C       -0.45136        15.39605         2.05895
| 51>    C       -1.00438        17.77935         2.65335
| 52>    C       -0.89196        17.69820         4.01713
| 53>    C       -1.30710        18.93749         4.59494
| 54>    C       -1.68602        19.77718         3.45646
| 55>    C       -1.50288        19.11159         2.30625
| 56>    F       -2.13858        21.03309         3.57962
| 57>    C       -1.34964        19.29068         5.92221
| 58>    C       -1.80438        20.51081         6.49948
| 59>    C       -1.67074        20.44763         7.87100
| 60>    C       -1.09624        19.13974         8.21127
| 61>    C       -0.92375        18.47146         7.06232
| 62>    F       -0.42551        17.23293         6.93451
| 63>    C       -2.04820        21.46607         8.77579
| 64>    C       -1.85391        21.40645        10.12154
| 65>    C       -2.23790        22.37337        11.09342
| 66>    C       -3.08947        23.48387        10.85726
| 67>    C       -3.36198        24.44780        11.88603
| 68>    N       -4.19582        25.47954        11.62522
| 69>    C       -4.70947        25.59153        10.43492
| 70>    C       -4.44731        24.64142         9.42857
| 71>    N       -3.67396        23.61671         9.64872
| 72>    C       -2.78821        24.33461        13.17290
| 73>    C       -2.00859        23.18273        13.43177
| 74>    C       -1.74262        22.21598        12.41564
| 75>    N       -0.98797        21.13072        12.69659
| 76>    C       -0.50167        21.00692        13.89851
| 77>    C       -0.75294        21.96855        14.90007
| 78>    N       -1.49107        23.01538        14.67198
| 79>    C       -2.93582        25.30156        14.23573
| 80>    C       -3.42684        26.53751        14.14307
| 81>    H        1.33828        -2.10451         1.35768
| 82>    H        1.43702         1.14077        -3.41344
| 83>    H        1.55679        -1.37909        -3.11633
| 84>    H        0.99373        -0.48418         5.61052
| 85>    H        0.86568         2.04016         5.36548
| 86>    H        0.97155         3.69456         1.90685
| 87>    H        1.10216         3.60829        -1.15174
| 88>    H        0.84053         5.98413         2.01934
| 89>    H        0.94190         5.93752        -2.31707
| 90>    H        0.43943        10.42877        -0.13611
| 91>    H        0.32393        10.47214         4.20078
| 92>    H        0.00245        12.77229         3.03703
| 93>    H        0.15102        12.72674        -0.02169
| 94>    H       -0.74906        17.92986        -1.29260
| 95>    H       -0.45312        15.06277         3.07923
| 96>    H       -0.54555        16.85679         4.58244
| 97>    H       -1.68660        19.46247         1.31139
| 98>    H       -2.19714        21.34209         5.94778
| 99>    H       -0.87110        18.79210         9.19982
|100>    H       -2.51994        22.33847         8.34773
|101>    H       -1.32338        20.56395        10.54375
|102>    H       -5.37433        26.42879        10.26729
|103>    H       -4.90250        24.70683         8.44900
|104>    H        0.09152        20.12450        14.09613
|105>    H       -0.35353        21.86229        15.89963
|106>    H       -2.56479        24.94101        15.18635
|107>    H       -3.77059        26.94781        13.21087
|108>    H       -3.49532        27.16559        15.01575
|109> *
|110>
|111>                          ****END OF INPUT****

CARTESIAN COORDINATES (ANGSTROEM)
---------------------------------
  C      1.285150   -1.033420    1.253750
  C      1.325590   -0.450930   -0.009590
  C      1.252760    0.973880   -0.173000
  N      1.298340    1.497250   -1.417210
  C      1.403210    0.686640   -2.431820
  C      1.470780   -0.715020   -2.266460
  N      1.434480   -1.265640   -1.089900
  C      1.135720    1.823700    0.958720
  C      1.099470    1.200710    2.237320
  C      1.173330   -0.221690    2.377690
  N      1.133060   -0.796930    3.607100
  C      1.025470   -0.012120    4.637510
  C      0.953860    1.394330    4.502050
  N      0.990320    1.977020    3.337960
  C      1.046880    3.246320    0.925580
  C      1.035610    4.053400   -0.170010
  C      0.928580    5.463940   -0.109320
  C      0.837010    6.291350    0.992840
  C      0.729740    7.641330    0.557680
  C      0.767680    7.576940   -0.906930
  C      0.887190    6.304320   -1.310640
  F      0.693160    8.657970   -1.697450
  C      0.600150    8.778910    1.324740
  C      0.452960   10.124170    0.890950
  C      0.317480   10.944600    1.991890
  C      0.393010   10.108200    3.194130
  C      0.558210    8.841020    2.790650
  F      0.672460    7.765670    3.580890
  C      0.110910   12.344360    2.050090
  C      0.030150   13.155850    0.962860
  C     -0.220480   14.550340    1.005330
  S     -0.308450   15.439800   -0.507350
  C     -0.669420   16.909710    0.325660
  O     -0.859480   18.053560   -0.341970
  C     -0.714760   16.742160    1.705280
  C     -0.451360   15.396050    2.058950
  C     -1.004380   17.779350    2.653350
  C     -0.891960   17.698200    4.017130
  C     -1.307100   18.937490    4.594940
  C     -1.686020   19.777180    3.456460
  C     -1.502880   19.111590    2.306250
  F     -2.138580   21.033090    3.579620
  C     -1.349640   19.290680    5.922210
  C     -1.804380   20.510810    6.499480
  C     -1.670740   20.447630    7.871000
  C     -1.096240   19.139740    8.211270
  C     -0.923750   18.471460    7.062320
  F     -0.425510   17.232930    6.934510
  C     -2.048200   21.466070    8.775790
  C     -1.853910   21.406450   10.121540
  C     -2.237900   22.373370   11.093420
  C     -3.089470   23.483870   10.857260
  C     -3.361980   24.447800   11.886030
  N     -4.195820   25.479540   11.625220
  C     -4.709470   25.591530   10.434920
  C     -4.447310   24.641420    9.428570
  N     -3.673960   23.616710    9.648720
  C     -2.788210   24.334610   13.172900
  C     -2.008590   23.182730   13.431770
  C     -1.742620   22.215980   12.415640
  N     -0.987970   21.130720   12.696590
  C     -0.501670   21.006920   13.898510
  C     -0.752940   21.968550   14.900070
  N     -1.491070   23.015380   14.671980
  C     -2.935820   25.301560   14.235730
  C     -3.426840   26.537510   14.143070
  H      1.338280   -2.104510    1.357680
  H      1.437020    1.140770   -3.413440
  H      1.556790   -1.379090   -3.116330
  H      0.993730   -0.484180    5.610520
  H      0.865680    2.040160    5.365480
  H      0.971550    3.694560    1.906850
  H      1.102160    3.608290   -1.151740
  H      0.840530    5.984130    2.019340
  H      0.941900    5.937520   -2.317070
  H      0.439430   10.428770   -0.136110
  H      0.323930   10.472140    4.200780
  H      0.002450   12.772290    3.037030
  H      0.151020   12.726740   -0.021690
  H     -0.749060   17.929860   -1.292600
  H     -0.453120   15.062770    3.079230
  H     -0.545550   16.856790    4.582440
  H     -1.686600   19.462470    1.311390
  H     -2.197140   21.342090    5.947780
  H     -0.871100   18.792100    9.199820
  H     -2.519940   22.338470    8.347730
  H     -1.323380   20.563950   10.543750
  H     -5.374330   26.428790   10.267290
  H     -4.902500   24.706830    8.449000
  H      0.091520   20.124500   14.096130
  H     -0.353530   21.862290   15.899630
  H     -2.564790   24.941010   15.186350
  H     -3.770590   26.947810   13.210870
  H     -3.495320   27.165590   15.015750

 Total Charge           Charge          ....    0
 Multiplicity           Mult            ....    1
 Number of Electrons    NEL             ....  456
 Basis Dimension        Dim             .... 1068

ORBITAL ENERGIES
----------------

  NO   OCC          E(Eh)            E(eV)
   0   2.0000     -88.965200     -2420.8662
   1   2.0000     -24.778729      -674.2635
   2   2.0000     -24.777934      -674.2419
   3   2.0000     -24.776967      -674.2156
   4   2.0000     -24.776765      -674.2101
   5   2.0000     -19.281426      -524.6743
   6   2.0000     -14.424837      -392.5198
   7   2.0000     -14.424821      -392.5193
   8   2.0000     -14.423701      -392.4889
   9   2.0000     -14.423692      -392.4886
  10   2.0000     -14.423643      -392.4873
  11   2.0000     -14.422950      -392.4684
  12   2.0000     -14.422664      -392.4606
  13   2.0000     -14.421346      -392.4248
  14   2.0000     -10.371936      -282.2347
  15   2.0000     -10.343695      -281.4663
  16   2.0000     -10.342352      -281.4297
  17   2.0000     -10.340831      -281.3883
  18   2.0000     -10.340108      -281.3686
  19   2.0000     -10.321437      -280.8606
  20   2.0000     -10.320668      -280.8396
  21   2.0000     -10.320291      -280.8294
  22   2.0000     -10.320189      -280.8266
  23   2.0000     -10.319710      -280.8136
  24   2.0000     -10.319436      -280.8061
  25   2.0000     -10.318911      -280.7919
  26   2.0000     -10.318561      -280.7823
  27   2.0000     -10.318335      -280.7762
  28   2.0000     -10.318243      -280.7737
  29   2.0000     -10.317512      -280.7538
  30   2.0000     -10.317138      -280.7436
  31   2.0000     -10.316757      -280.7332
  32   2.0000     -10.316136      -280.7163
  33   2.0000     -10.316121      -280.7159
  34   2.0000     -10.315076      -280.6875
  35   2.0000     -10.303749      -280.3793
  36   2.0000     -10.291907      -280.0570
  37   2.0000     -10.291725      -280.0521
  38   2.0000     -10.291244      -280.0390
  39   2.0000     -10.290726      -280.0249
  40   2.0000     -10.289734      -279.9979
  41   2.0000     -10.288447      -279.9629
  42   2.0000     -10.288091      -279.9532
  43   2.0000     -10.286697      -279.9153
  44   2.0000     -10.281883      -279.7843
  45   2.0000     -10.281316      -279.7688
  46   2.0000     -10.279929      -279.7311
  47   2.0000     -10.278712      -279.6980
  48   2.0000     -10.275927      -279.6222
  49   2.0000     -10.274324      -279.5786
  50   2.0000     -10.273115      -279.5457
  51   2.0000     -10.271133      -279.4917
  52   2.0000     -10.264735      -279.3176
  53   2.0000     -10.263931      -279.2958
  54   2.0000     -10.262392      -279.2539
  55   2.0000     -10.261468      -279.2287
  56   2.0000     -10.261124      -279.2194
  57   2.0000     -10.260324      -279.1976
  58   2.0000     -10.258545      -279.1492
  59   2.0000     -10.258197      -279.1397
  60   2.0000     -10.256695      -279.0989
  61   2.0000     -10.251638      -278.9612
  62   2.0000     -10.250155      -278.9209
  63   2.0000     -10.248746      -278.8826
  64   2.0000     -10.248614      -278.8790
  65   2.0000     -10.248299      -278.8704
  66   2.0000      -8.062142      -219.3820
  67   2.0000      -6.031431      -164.1236
  68   2.0000      -6.027530      -164.0174
  69   2.0000      -6.023783      -163.9155
  70   2.0000      -1.290787       -35.1241
  71   2.0000      -1.289489       -35.0888
  72   2.0000      -1.288578       -35.0640
  73   2.0000      -1.288247       -35.0550
  74   2.0000      -1.179485       -32.0954
  75   2.0000      -1.083752       -29.4904
  76   2.0000      -1.081995       -29.4426
  77   2.0000      -1.076823       -29.3019
  78   2.0000      -1.075082       -29.2545
  79   2.0000      -1.006804       -27.3965
  80   2.0000      -1.004990       -27.3472
  81   2.0000      -1.000496       -27.2249
  82   2.0000      -0.999550       -27.1991
  83   2.0000      -0.987382       -26.8680
  84   2.0000      -0.974401       -26.5148
  85   2.0000      -0.972645       -26.4670
  86   2.0000      -0.955799       -26.0086
  87   2.0000      -0.954267       -25.9669
  88   2.0000      -0.947098       -25.7719
  89   2.0000      -0.944154       -25.6917
  90   2.0000      -0.895409       -24.3653
  91   2.0000      -0.892098       -24.2752
  92   2.0000      -0.883395       -24.0384
  93   2.0000      -0.867253       -23.5992
  94   2.0000      -0.863579       -23.4992
  95   2.0000      -0.861341       -23.4383
  96   2.0000      -0.856078       -23.2951
  97   2.0000      -0.847658       -23.0660
  98   2.0000      -0.830916       -22.6104
  99   2.0000      -0.827848       -22.5269
 100   2.0000      -0.814849       -22.1732
 101   2.0000      -0.812132       -22.0992
 102   2.0000      -0.789473       -21.4827
 103   2.0000      -0.788916       -21.4675
 104   2.0000      -0.786821       -21.4105
 105   2.0000      -0.782551       -21.2943
 106   2.0000      -0.777524       -21.1575
 107   2.0000      -0.770842       -20.9757
 108   2.0000      -0.761308       -20.7162
 109   2.0000      -0.760869       -20.7043
 110   2.0000      -0.757487       -20.6123
 111   2.0000      -0.745067       -20.2743
 112   2.0000      -0.723291       -19.6818
 113   2.0000      -0.723189       -19.6790
 114   2.0000      -0.721860       -19.6428
 115   2.0000      -0.712072       -19.3765
 116   2.0000      -0.703944       -19.1553
 117   2.0000      -0.691897       -18.8275
 118   2.0000      -0.689767       -18.7695
 119   2.0000      -0.682343       -18.5675
 120   2.0000      -0.667547       -18.1649
 121   2.0000      -0.661249       -17.9935
 122   2.0000      -0.656934       -17.8761
 123   2.0000      -0.655111       -17.8265
 124   2.0000      -0.648345       -17.6424
 125   2.0000      -0.646332       -17.5876
 126   2.0000      -0.644768       -17.5450
 127   2.0000      -0.642466       -17.4824
 128   2.0000      -0.639845       -17.4111
 129   2.0000      -0.634389       -17.2626
 130   2.0000      -0.632907       -17.2223
 131   2.0000      -0.626711       -17.0537
 132   2.0000      -0.615263       -16.7422
 133   2.0000      -0.614776       -16.7289
 134   2.0000      -0.609637       -16.5891
 135   2.0000      -0.608131       -16.5481
 136   2.0000      -0.594708       -16.1828
 137   2.0000      -0.592501       -16.1228
 138   2.0000      -0.590326       -16.0636
 139   2.0000      -0.589270       -16.0349
 140   2.0000      -0.581261       -15.8169
 141   2.0000      -0.573390       -15.6027
 142   2.0000      -0.572917       -15.5899
 143   2.0000      -0.570886       -15.5346
 144   2.0000      -0.569632       -15.5005
 145   2.0000      -0.563069       -15.3219
 146   2.0000      -0.556011       -15.1298
 147   2.0000      -0.553091       -15.0504
 148   2.0000      -0.548220       -14.9178
 149   2.0000      -0.548123       -14.9152
 150   2.0000      -0.543444       -14.7879
 151   2.0000      -0.541304       -14.7296
 152   2.0000      -0.541110       -14.7243
 153   2.0000      -0.541017       -14.7218
 154   2.0000      -0.538683       -14.6583
 155   2.0000      -0.537824       -14.6349
 156   2.0000      -0.534307       -14.5392
 157   2.0000      -0.533113       -14.5067
 158   2.0000      -0.528659       -14.3855
 159   2.0000      -0.525803       -14.3078
 160   2.0000      -0.522108       -14.2073
 161   2.0000      -0.520442       -14.1619
 162   2.0000      -0.517008       -14.0685
 163   2.0000      -0.512822       -13.9546
 164   2.0000      -0.512168       -13.9368
 165   2.0000      -0.510523       -13.8920
 166   2.0000      -0.510475       -13.8907
 167   2.0000      -0.509660       -13.8686
 168   2.0000      -0.507691       -13.8150
 169   2.0000      -0.503098       -13.6900
 170   2.0000      -0.500549       -13.6206
 171   2.0000      -0.498763       -13.5720
 172   2.0000      -0.495425       -13.4812
 173   2.0000      -0.482719       -13.1355
 174   2.0000      -0.479454       -13.0466
 175   2.0000      -0.476424       -12.9642
 176   2.0000      -0.469937       -12.7876
 177   2.0000      -0.466435       -12.6923
 178   2.0000      -0.465266       -12.6605
 179   2.0000      -0.463769       -12.6198
 180   2.0000      -0.460669       -12.5354
 181   2.0000      -0.456757       -12.4290
 182   2.0000      -0.455564       -12.3965
 183   2.0000      -0.454253       -12.3609
 184   2.0000      -0.453890       -12.3510
 185   2.0000      -0.450540       -12.2598
 186   2.0000      -0.446524       -12.1505
 187   2.0000      -0.445195       -12.1144
 188   2.0000      -0.444602       -12.0982
 189   2.0000      -0.442872       -12.0512
 190   2.0000      -0.435990       -11.8639
 191   2.0000      -0.434418       -11.8211
 192   2.0000      -0.431150       -11.7322
 193   2.0000      -0.430399       -11.7117
 194   2.0000      -0.427694       -11.6381
 195   2.0000      -0.426620       -11.6089
 196   2.0000      -0.425035       -11.5658
 197   2.0000      -0.423993       -11.5374
 198   2.0000      -0.420185       -11.4338
 199   2.0000      -0.416919       -11.3449
 200   2.0000      -0.410420       -11.1681
 201   2.0000      -0.409586       -11.1454
 202   2.0000      -0.401472       -10.9246
 203   2.0000      -0.400806       -10.9065
 204   2.0000      -0.383774       -10.4430
 205   2.0000      -0.383626       -10.4390
 206   2.0000      -0.380924       -10.3655
 207   2.0000      -0.377424       -10.2702
 208   2.0000      -0.371498       -10.1090
 209   2.0000      -0.368140       -10.0176
 210   2.0000      -0.356917        -9.7122
 211   2.0000      -0.349288        -9.5046
 212   2.0000      -0.335650        -9.1335
 213   2.0000      -0.330255        -8.9867
 214   2.0000      -0.327204        -8.9037
 215   2.0000      -0.323379        -8.7996
 216   2.0000      -0.322325        -8.7709
 217   2.0000      -0.316052        -8.6002
 218   2.0000      -0.315358        -8.5813
 219   2.0000      -0.309935        -8.4338
 220   2.0000      -0.301330        -8.1996
 221   2.0000      -0.291925        -7.9437
 222   2.0000      -0.287867        -7.8333
 223   2.0000      -0.283030        -7.7016
 224   2.0000      -0.265715        -7.2305
 225   2.0000      -0.252204        -6.8628
 226   2.0000      -0.234077        -6.3695
 227   2.0000      -0.222824        -6.0634
 228   0.0000      -0.100690        -2.7399
 229   0.0000      -0.094405        -2.5689
 230   0.0000      -0.068292        -1.8583
 231   0.0000      -0.065845        -1.7917
 232   0.0000      -0.009661        -0.2629

MULLIKEN ATOMIC CHARGES
-----------------------
   0 C :   -0.076869
   1 C :    0.030920
   2 C :   -0.053241
   3 N :   -0.019987
   4 C :    0.035480
   5 C :    0.020083
   6 N :   -0.017879
   7 C :    0.135826
   8 C :   -0.054492
   9 C :    0.035653
  10 N :   -0.017755
  11 C :    0.022938
  12 C :    0.024670
  13 N :   -0.015283
  14 C :   -0.080686
  15 C :    0.023094
  16 C :    0.110753
  17 C :   -0.089990
  18 C :    0.008084
  19 C :    0.255946
  20 C :   -0.081193
  21 F :   -0.183225
  22 C :    0.009513
  23 C :   -0.101166
  24 C :    0.111881
  25 C :   -0.085642
  26 C :    0.259493
  27 F :   -0.177253
  28 C :   -0.013916
  29 C :    0.083008
  30 C :   -0.075336
  31 S :    0.080198
  32 C :   -0.053101
  33 O :   -0.152109
  34 C :    0.114304
  35 C :   -0.010162
  36 C :    0.083798
  37 C :   -0.114462
  38 C :    0.023698
  39 C :    0.258439
  40 C :   -0.093566
  41 F :   -0.181622
  42 C :    0.000799
  43 C :   -0.086208
  44 C :    0.119364
  45 C :   -0.080281
  46 C :    0.255402
  47 F :   -0.181258
  48 C :    0.030435
  49 C :   -0.094805
  50 C :    0.108806
  51 C :   -0.035842
  52 C :   -0.045929
  53 N :   -0.024584
  54 C :    0.029095
  55 C :    0.034518
  56 N :   -0.027617
  57 C :    0.058110
  58 C :   -0.042369
  59 C :   -0.037258
  60 N :   -0.019705
  61 C :    0.024987
  62 C :    0.025355
  63 N :   -0.018376
  64 C :   -0.069395
  65 C :    0.028758
  66 H :   -0.035563
  67 H :    0.010247
  68 H :    0.015563
  69 H :    0.014125
  70 H :    0.015284
  71 H :   -0.001713
  72 H :   -0.010206
  73 H :   -0.013374
  74 H :   -0.024113
  75 H :   -0.022479
  76 H :   -0.021979
  77 H :   -0.024374
  78 H :   -0.015120
  79 H :    0.199316
  80 H :   -0.010807
  81 H :   -0.026582
  82 H :   -0.015726
  83 H :   -0.019170
  84 H :   -0.016922
  85 H :   -0.007498
  86 H :   -0.008123
  87 H :    0.013098
  88 H :    0.012781
  89 H :    0.013333
  90 H :    0.012852
  91 H :   -0.001362
  92 H :    0.024791
  93 H :    0.012875
Sum of atomic charges:   -0.0000000

LOEWDIN ATOMIC CHARGES
----------------------
   0 C :   -0.005963
   1 C :   -0.012172
   2 C :   -0.009090
   3 N :   -0.025250
   4 C :    0.008631
   5 C :    0.004669
   6 N :   -0.033479
   7 C :   -0.010983
   8 C :   -0.007550
   9 C :   -0.014443
  10 N :   -0.036415
  11 C :    0.006643
  12 C :    0.006607
  13 N :   -0.030373
  14 C :   -0.002771
  15 C :   -0.003643
  16 C :   -0.005975
  17 C :   -0.053864
  18 C :   -0.002940
  19 C :    0.074606
  20 C :   -0.057680
  21 F :   -0.059291
  22 C :    0.002581
  23 C :   -0.071128
  24 C :    0.000357
  25 C :   -0.061130
  26 C :    0.080117
  27 F :   -0.053912
  28 C :   -0.028038
  29 C :   -0.012319
  30 C :   -0.176910
  31 S :    0.394071
  32 C :   -0.085709
  33 O :   -0.027026
  34 C :   -0.100773
  35 C :   -0.018650
  36 C :    0.008722
  37 C :   -0.075107
  38 C :    0.002510
  39 C :    0.076517
  40 C :   -0.059424
  41 F :   -0.057235
  42 C :   -0.003705
  43 C :   -0.051170
  44 C :   -0.002642
  45 C :   -0.055651
  46 C :    0.078076
  47 F :   -0.058379
  48 C :    0.002657
  49 C :   -0.016893
  50 C :   -0.017553
  51 C :   -0.004053
  52 C :   -0.005783
  53 N :   -0.021514
  54 C :    0.007644
  55 C :    0.008586
  56 N :   -0.022631
  57 C :   -0.013207
  58 C :   -0.008364
  59 C :   -0.005775
  60 N :   -0.031446
  61 C :    0.006745
  62 C :    0.006611
  63 N :   -0.029441
  64 C :   -0.032965
  65 C :   -0.016436
  66 H :    0.041411
  67 H :    0.025780
  68 H :    0.027123
  69 H :    0.026939
  70 H :    0.027408
  71 H :    0.030405
  72 H :    0.024063
  73 H :    0.021581
  74 H :    0.027862
  75 H :    0.017520
  76 H :    0.028229
  77 H :    0.028007
  78 H :    0.030549
  79 H :    0.103022
  80 H :    0.033284
  81 H :    0.017682
  82 H :    0.026609
  83 H :    0.022437
  84 H :    0.029851
  85 H :    0.028206
  86 H :    0.027468
  87 H :    0.026420
  88 H :    0.026714
  89 H :    0.026852
  90 H :    0.026797
  91 H :    0.029764
  92 H :    0.017806
  93 H :    0.020713

  Mayer bond orders larger than 0.100000
B(  0-C ,  1-C ) :   1.2392 B(  0-C ,  7-C ) :   0.1353 B(  0-C ,  9-C ) :   1.2443
B(  0-C , 66-H ) :   1.0547 B(  1-C ,  2-C ) :   1.1737 B(  1-C ,  6-N ) :   1.3759
B(  2-C ,  3-N ) :   1.4452 B(  2-C ,  7-C ) :   1.2228 B(  3-N ,  4-C ) :   1.6807
B(  4-C ,  5-C ) :   1.1855 B(  4-C , 67-H ) :   0.9731 B(  5-C ,  6-N ) :   1.7167
B(  5-C , 68-H ) :   0.9740 B(  7-C ,  8-C ) :   1.2351 B(  7-C , 14-C ) :   1.1726
B(  8-C ,  9-C ) :   1.1740 B(  8-C , 13-N ) :   1.4501 B(  9-C , 10-N ) :   1.3726
B( 10-N , 11-C ) :   1.7209 B( 11-C , 12-C ) :   1.1780 B( 11-C , 69-H ) :   0.9739
B( 12-C , 13-N ) :   1.7005 B( 12-C , 70-H ) :   0.9747 B( 14-C , 15-C ) :   1.5930
B( 14-C , 71-H ) :   0.9617 B( 15-C , 16-C ) :   1.0990 B( 15-C , 72-H ) :   0.9619
B( 16-C , 17-C ) :   1.5280 B( 16-C , 20-C ) :   1.0101 B( 17-C , 18-C ) :   1.1378
B( 17-C , 73-H ) :   1.0116 B( 18-C , 19-C ) :   1.0159 B( 18-C , 22-C ) :   1.4393
B( 19-C , 20-C ) :   1.6540 B( 19-C , 21-F ) :   1.1131 B( 20-C , 74-H ) :   1.0232
B( 22-C , 23-C ) :   1.1524 B( 22-C , 26-C ) :   1.0121 B( 23-C , 24-C ) :   1.5235
B( 23-C , 75-H ) :   1.0095 B( 24-C , 25-C ) :   1.0074 B( 24-C , 28-C ) :   1.1374
B( 25-C , 26-C ) :   1.6601 B( 25-C , 76-H ) :   1.0218 B( 26-C , 27-F ) :   1.1200
B( 28-C , 29-C ) :   1.6597 B( 28-C , 77-H ) :   0.9772 B( 29-C , 30-C ) :   1.1221
B( 29-C , 78-H ) :   0.9616 B( 30-C , 31-S ) :   1.0630 B( 30-C , 35-C ) :   1.5213
B( 31-S , 32-C ) :   1.1248 B( 32-C , 33-O ) :   1.2205 B( 32-C , 34-C ) :   1.4116
B( 33-O , 79-H ) :   0.9459 B( 34-C , 35-C ) :   1.2407 B( 34-C , 36-C ) :   1.0365
B( 35-C , 80-H ) :   0.9987 B( 36-C , 37-C ) :   1.5795 B( 36-C , 40-C ) :   1.0343
B( 37-C , 38-C ) :   1.1139 B( 37-C , 81-H ) :   1.0099 B( 38-C , 39-C ) :   1.0218
B( 38-C , 42-C ) :   1.4605 B( 39-C , 40-C ) :   1.6361 B( 39-C , 41-F ) :   1.1194
B( 40-C , 82-H ) :   1.0197 B( 42-C , 43-C ) :   1.1133 B( 42-C , 46-C ) :   1.0185
B( 43-C , 44-C ) :   1.5060 B( 43-C , 83-H ) :   1.0236 B( 44-C , 45-C ) :   1.0140
B( 44-C , 48-C ) :   1.1254 B( 45-C , 46-C ) :   1.6652 B( 45-C , 84-H ) :   1.0165
B( 46-C , 47-F ) :   1.1175 B( 48-C , 49-C ) :   1.5659 B( 48-C , 85-H ) :   0.9679
B( 49-C , 50-C ) :   1.1841 B( 49-C , 86-H ) :   0.9543 B( 50-C , 51-C ) :   1.2197
B( 50-C , 57-C ) :   0.1373 B( 50-C , 59-C ) :   1.2320 B( 51-C , 52-C ) :   1.1551
B( 51-C , 56-N ) :   1.4482 B( 52-C , 53-N ) :   1.4427 B( 52-C , 57-C ) :   1.2447
B( 53-N , 54-C ) :   1.6825 B( 54-C , 55-C ) :   1.1945 B( 54-C , 87-H ) :   0.9732
B( 55-C , 56-N ) :   1.6725 B( 55-C , 88-H ) :   0.9729 B( 57-C , 58-C ) :   1.2586
B( 57-C , 64-C ) :   1.1622 B( 58-C , 59-C ) :   1.1582 B( 58-C , 63-N ) :   1.4478
B( 59-C , 60-N ) :   1.4497 B( 60-N , 61-C ) :   1.6954 B( 61-C , 62-C ) :   1.1844
B( 61-C , 89-H ) :   0.9743 B( 62-C , 63-N ) :   1.7045 B( 62-C , 90-H ) :   0.9742
B( 64-C , 65-C ) :   1.8989 B( 64-C , 91-H ) :   0.9420 B( 65-C , 92-H ) :   0.9323
B( 65-C , 93-H ) :   0.9434

-----------------------------------------------------------------------------
         ABSORPTION SPECTRUM VIA TRANSITION ELECTRIC DIPOLE MOMENTS
-----------------------------------------------------------------------------
State   Energy  Wavelength   fosc         T2         TX        TY        TZ
        (cm-1)    (nm)                  (au**2)     (au)      (au)      (au)
-----------------------------------------------------------------------------
   0   12001.8    833.2   1.443089314  39.58428   0.80703  -5.77760  -2.35634
   1   14217.5    703.4   0.510933136  11.83088   0.40562  -0.48040  -3.38165
   2   16048.4    623.1   0.014411267   0.29563   0.00639  -0.24461  -0.48554
   3   17337.3    576.8   0.018057576   0.34289   0.11026  -0.46598  -0.33704
   4   18655.5    536.0   0.007039939   0.12423  -0.12290   0.33017   0.01096
   5   19103.1    523.5   0.080249112   1.38297  -0.01847   1.10769  -0.39452
   6   19955.7    501.1   0.016815778   0.27741  -0.09240   0.47741   0.20237
   7   20377.8    490.7   0.070649519   1.14137  -0.19343   1.04310  -0.12607
   8   23319.5    428.8   0.769717791  10.86645  -0.41722   3.11120   1.00639
   9   23552.5    424.6   0.111399479   1.55712   0.04264   0.48941  -1.14708
  10   24021.9    416.3   0.057626441   0.78975  -0.25545  -0.00132   0.85117
  11   24814.6    403.0   0.022465126   0.29804   0.00193   0.54367  -0.04960
  12   25341.6    394.6   0.005973228   0.07760  -0.27487  -0.04102  -0.01906
  13   25892.3    386.2   0.001366189   0.01737   0.04439  -0.11969  -0.03279
  14   26279.5    380.5   0.108471361   1.35886   0.13021  -0.56613  -1.01064
  15   26430.1    378.4   0.004962313   0.06181  -0.02475   0.15135   0.19568
  16   26746.5    373.9   0.000461501   0.00568  -0.07473  -0.00844   0.00490
  17   26952.2    371.0   0.005113159   0.06246  -0.18039   0.04676  -0.16651
  18   27259.8    366.8   0.053612355   0.64747  -0.15279   0.75567   0.23039
  19   28380.6    352.4   0.249869353   2.89846   0.17440  -0.47982  -1.62414
  20   29479.4    339.2   0.005053991   0.05644   0.11121  -0.09473   0.18735
  21   30065.4    332.6   0.013592683   0.14884  -0.03928   0.13894   0.35776
  22   30169.2    331.5   0.007711179   0.08415  -0.04304   0.13641   0.25236
  23   30378.6    329.2   0.028132492   0.30487   0.05157  -0.10498  -0.53962
  24   30688.3    325.9   0.007152864   0.07673   0.13062  -0.10384   0.22111
  25   30822.6    324.4   0.009801218   0.10469  -0.01879  -0.00877  -0.32289
  26   31326.5    319.2   0.230420639   2.42150   0.19475  -1.54388   0.00469
  27   31937.3    313.1   0.025812118   0.26607   0.10236  -0.47023   0.18568
  28   32229.6    310.3   0.037078565   0.37874   0.10035  -0.30334   0.52598
  29   32431.5    308.3   0.002994083   0.03039  -0.04514   0.04236   0.16298
  30   32817.9    304.7   0.041150589   0.41280  -0.07306   0.25794   0.58389
  31   33534.1    298.2   0.046370576   0.45523   0.11520  -0.44049   0.49792
  32   34020.5    293.9   0.015484125   0.14984   0.00012   0.04879   0.38400
  33   34341.7    291.2   0.013910384   0.13335  -0.02473   0.02410   0.36353
  34   34528.4    289.6   0.002990212   0.02851  -0.16824  -0.00531  -0.01335
  35   34717.6    288.0   0.095926818   0.90963  -0.25056   0.44703   0.80437
  36   34848.9    287.0   0.214485819   2.02621   0.15741  -0.77273  -1.18504
  37   35084.5    285.0   0.003874048   0.03635  -0.01852   0.12052   0.14657
  38   35123.7    284.7   0.003091220   0.02897   0.03175  -0.09544   0.13732
  39   35586.6    281.0   0.021491901   0.19882   0.13893  -0.33365  -0.26114
  40   35974.0    278.0   0.384111996   3.51516  -0.12069   0.62965   1.76186
  41   36015.4    277.7   0.628781817   5.74762  -1.41149   1.50836  -1.21662
  42   36445.8    274.4   0.000417243   0.00377  -0.05790   0.01162  -0.01677
  43   36601.4    273.2   0.271422513   2.44131   0.32700   0.36464   1.48372
  44   36652.9    272.8   0.025002427   0.22457   0.22785  -0.24194  -0.33782
  45   37358.4    267.7   0.044651837   0.39348   0.02600  -0.60836   0.15070
  46   37696.6    265.3   0.345506574   3.01738   0.10926  -1.52602   0.82262
  47   37942.0    263.6   0.007452754   0.06467   0.12933  -0.16153  -0.14780
  48   37965.6    263.4   0.138736413   1.20303  -0.03049   0.39137   1.02417
  49   38385.8    260.5   0.040484416   0.34721  -0.01556   0.21001   0.55033
  50   39147.3    255.4   0.025829771   0.21722  -0.02936   0.22836   0.40522
  51   39442.5    253.5   0.012005770   0.10021  -0.07049   0.13599   0.27703
  52   39569.4    252.7   0.067647658   0.56282   0.05949  -0.36548  -0.65246
  53   39824.1    251.1   0.065296122   0.53978   0.05803  -0.14077  -0.71875
  54   40158.0    249.0   0.042941418   0.35203   0.00286  -0.13469   0.57782

FINAL SINGLE POINT ENERGY     -3305.259156603523

DIPOLE MOMENT
-------------
                                X             Y             Z
Electronic contribution:      4.41709     -10.36867     -22.93866
Nuclear contribution   :     -4.53912      10.88550      22.25006
                        -----------------------------------------
Total Dipole Moment    :     -0.12203       0.51683      -0.68860
                        -----------------------------------------
Magnitude (a.u.)       :      0.86958
Magnitude (Debye)      :      2.21030

Rotational constants in cm-1:     0.001893     0.000196     0.000179
Rotational constants in MHz :    56.747525     5.890350     5.377145

                             ****ORCA TERMINATED NORMALLY****
TOTAL RUN TIME: 0 days 0 hours 8 minutes 57 seconds 561 msec
