                         Program Version 4.2.0 -  RELEASE  -
|  1> # ORCA input file
|  2> # SCF done       -191.564874853779          0.000508108529
|  3> ! CAM-B3LYP def2-SVP def2/J RIJCOSX Grid4 TightSCF
|  4> %maxcore 5000
|  5> %tddft
|  6>     Mode sTDDFT
|  7>     Ethresh 5.0
|  8>     maxcore 5000
|  9> end
| 10>
| 11> %pal
| 12>   nprocs 6
| 13>   end
| 14> * xyz 0 1
| 15>    C       -4.37784         9.49160         1.31840
| 16>    C       -3.62325         9.45394         0.15249
| 17>    C       -3.13113         8.20626        -0.34719
| 18>    N       -2.38752         8.18509        -1.47846
| 19>    C       -2.13459         9.31540        -2.06849
| 20>    C       -2.62025        10.54924        -1.56835
| 21>    N       -3.34799        10.61566        -0.49526
| 22>    C       -3.39554         6.98426         0.31890
| 23>    C       -4.20574         7.03889         1.48012
| 24>    C       -4.67082         8.30429         1.97981
| 25>    N       -5.40260         8.37290         3.12088
| 26>    C       -5.67796         7.26403         3.73798
| 27>    C       -5.24882         6.01516         3.23788
| 28>    N       -4.54181         5.91017         2.14832
| 29>    C       -2.74294         5.81004        -0.19500
| 30>    C       -2.77112         4.58818         0.36575
| 31>    C       -2.04195         3.42568        -0.09194
| 32>    C       -1.90146         3.17584        -1.46529
| 33>    C       -1.35111         1.98472        -1.87335
| 34>    C       -0.93503         1.02211        -0.94188
| 35>    C       -0.43517        -0.15568        -1.68678
| 36>    O        0.02042        -1.19224        -1.27419
| 37>    N       -0.59721         0.16468        -3.02708
| 38>    C       -1.12958         1.43122        -3.22942
| 39>    O       -1.35611         1.91984        -4.30739
| 40>    C       -0.20467        -0.71435        -4.10704
| 41>    C        1.23642        -0.45795        -4.53354
| 42>    C       -1.04211         1.25068         0.40568
| 43>    C       -1.57301         2.47374         0.84940
| 44>    C       -1.68681         2.68251         2.26846
| 45>    C       -1.75104         3.86759         2.91832
| 46>    C       -2.16227         3.97216         4.27465
| 47>    S       -2.52286         2.53518         5.16406
| 48>    C       -3.28221         3.39234         6.44959
| 49>    C       -3.21712         4.77050         6.23092
| 50>    C       -2.56118         5.10283         4.99659
| 51>    C       -2.43016         6.47497         4.64524
| 52>    C       -1.76656         6.90416         3.47697
| 53>    N       -1.24395         7.32422         2.54488
| 54>    C       -2.96358         7.44546         5.46809
| 55>    C       -3.65701         7.09984         6.63807
| 56>    C       -3.78772         5.79386         7.01920
| 57>    C       -3.86313         2.64220         7.54483
| 58>    C       -3.70761         3.08604         8.86462
| 59>    C       -4.19935         2.30292         9.88276
| 60>    C       -4.82194         1.07682         9.62226
| 61>    C       -5.20546         0.47423        10.92135
| 62>    O       -5.76403        -0.56819        11.14988
| 63>    N       -4.79007         1.38350        11.88508
| 64>    C       -4.17519         2.50565        11.35019
| 65>    O       -3.74164         3.43061        11.98977
| 66>    C       -4.93881         1.16132        13.30744
| 67>    C       -3.71327         0.46416        13.88748
| 68>    C       -4.97715         0.61877         8.33311
| 69>    C       -4.51227         1.41012         7.27930
| 70>    C       -4.69061         0.99471         5.89446
| 71>    C       -4.37269        -0.22385         5.42459
| 72>    C       -4.29760        -0.61610         4.04076
| 73>    C       -3.93119        -1.95452         3.76268
| 74>    C       -3.67387        -2.40220         2.43097
| 75>    N       -3.33349        -3.69460         2.20992
| 76>    C       -3.24421        -4.49651         3.22824
| 77>    C       -3.48366        -4.04899         4.54796
| 78>    N       -3.81631        -2.81792         4.80050
| 79>    C       -3.76460        -1.52660         1.32392
| 80>    C       -4.19605        -0.20800         1.58873
| 81>    C       -4.44874         0.24694         2.92953
| 82>    N       -4.81979         1.53458         3.13016
| 83>    C       -4.97717         2.31604         2.10223
| 84>    C       -4.78450         1.85065         0.78506
| 85>    N       -4.39586         0.63411         0.54931
| 86>    C       -3.42166        -2.05205         0.02148
| 87>    C       -3.35447        -1.39161        -1.13463
| 88>    H       -4.72544        10.43137         1.71448
| 89>    H       -1.54016         9.27095        -2.97139
| 90>    H       -2.40660        11.48156        -2.07400
| 91>    H       -6.25766         7.33557         4.64867
| 92>    H       -5.49897         5.09523         3.75215
| 93>    H       -2.11653         6.00328        -1.05513
| 94>    H       -3.37586         4.44532         1.24891
| 95>    H       -2.26121         3.89353        -2.18612
| 96>    H       -0.88581        -0.53253        -4.94203
| 97>    H       -0.31772        -1.74040        -3.74851
| 98>    H        1.35022         0.56981        -4.87046
| 99>    H        1.50417        -1.12497        -5.34806
|100>    H        1.91143        -0.63445        -3.69924
|101>    H       -0.71817         0.50589         1.11699
|102>    H       -1.75861         1.77364         2.85718
|103>    H       -1.54886         4.79115         2.39837
|104>    H       -2.85855         8.48514         5.19555
|105>    H       -4.08828         7.88624         7.23782
|106>    H       -4.33597         5.53421         7.91096
|107>    H       -3.17319         3.99684         9.08438
|108>    H       -5.83064         0.54646        13.44959
|109>    H       -5.07934         2.13705        13.77882
|110>    H       -3.56715        -0.50046        13.40681
|111>    H       -3.84937         0.30696        14.95361
|112>    H       -2.82654         1.07492        13.73387
|113>    H       -5.46526        -0.32194         8.13185
|114>    H       -5.03887         1.74796         5.20282
|115>    H       -4.04105        -0.99238         6.11050
|116>    H       -2.97960        -5.52424         3.01893
|117>    H       -3.40324        -4.71650         5.39545
|118>    H       -5.27259         3.33688         2.29875
|119>    H       -4.95604         2.48745        -0.07210
|120>    H       -3.18119        -3.10652         0.04712
|121>    H       -3.57259        -0.34188        -1.21110
|122>    H       -3.08452        -1.90990        -2.03967
|123> *
|124>
|125>                          ****END OF INPUT****

CARTESIAN COORDINATES (ANGSTROEM)
---------------------------------
  C     -4.377840    9.491600    1.318400
  C     -3.623250    9.453940    0.152490
  C     -3.131130    8.206260   -0.347190
  N     -2.387520    8.185090   -1.478460
  C     -2.134590    9.315400   -2.068490
  C     -2.620250   10.549240   -1.568350
  N     -3.347990   10.615660   -0.495260
  C     -3.395540    6.984260    0.318900
  C     -4.205740    7.038890    1.480120
  C     -4.670820    8.304290    1.979810
  N     -5.402600    8.372900    3.120880
  C     -5.677960    7.264030    3.737980
  C     -5.248820    6.015160    3.237880
  N     -4.541810    5.910170    2.148320
  C     -2.742940    5.810040   -0.195000
  C     -2.771120    4.588180    0.365750
  C     -2.041950    3.425680   -0.091940
  C     -1.901460    3.175840   -1.465290
  C     -1.351110    1.984720   -1.873350
  C     -0.935030    1.022110   -0.941880
  C     -0.435170   -0.155680   -1.686780
  O      0.020420   -1.192240   -1.274190
  N     -0.597210    0.164680   -3.027080
  C     -1.129580    1.431220   -3.229420
  O     -1.356110    1.919840   -4.307390
  C     -0.204670   -0.714350   -4.107040
  C      1.236420   -0.457950   -4.533540
  C     -1.042110    1.250680    0.405680
  C     -1.573010    2.473740    0.849400
  C     -1.686810    2.682510    2.268460
  C     -1.751040    3.867590    2.918320
  C     -2.162270    3.972160    4.274650
  S     -2.522860    2.535180    5.164060
  C     -3.282210    3.392340    6.449590
  C     -3.217120    4.770500    6.230920
  C     -2.561180    5.102830    4.996590
  C     -2.430160    6.474970    4.645240
  C     -1.766560    6.904160    3.476970
  N     -1.243950    7.324220    2.544880
  C     -2.963580    7.445460    5.468090
  C     -3.657010    7.099840    6.638070
  C     -3.787720    5.793860    7.019200
  C     -3.863130    2.642200    7.544830
  C     -3.707610    3.086040    8.864620
  C     -4.199350    2.302920    9.882760
  C     -4.821940    1.076820    9.622260
  C     -5.205460    0.474230   10.921350
  O     -5.764030   -0.568190   11.149880
  N     -4.790070    1.383500   11.885080
  C     -4.175190    2.505650   11.350190
  O     -3.741640    3.430610   11.989770
  C     -4.938810    1.161320   13.307440
  C     -3.713270    0.464160   13.887480
  C     -4.977150    0.618770    8.333110
  C     -4.512270    1.410120    7.279300
  C     -4.690610    0.994710    5.894460
  C     -4.372690   -0.223850    5.424590
  C     -4.297600   -0.616100    4.040760
  C     -3.931190   -1.954520    3.762680
  C     -3.673870   -2.402200    2.430970
  N     -3.333490   -3.694600    2.209920
  C     -3.244210   -4.496510    3.228240
  C     -3.483660   -4.048990    4.547960
  N     -3.816310   -2.817920    4.800500
  C     -3.764600   -1.526600    1.323920
  C     -4.196050   -0.208000    1.588730
  C     -4.448740    0.246940    2.929530
  N     -4.819790    1.534580    3.130160
  C     -4.977170    2.316040    2.102230
  C     -4.784500    1.850650    0.785060
  N     -4.395860    0.634110    0.549310
  C     -3.421660   -2.052050    0.021480
  C     -3.354470   -1.391610   -1.134630
  H     -4.725440   10.431370    1.714480
  H     -1.540160    9.270950   -2.971390
  H     -2.406600   11.481560   -2.074000
  H     -6.257660    7.335570    4.648670
  H     -5.498970    5.095230    3.752150
  H     -2.116530    6.003280   -1.055130
  H     -3.375860    4.445320    1.248910
  H     -2.261210    3.893530   -2.186120
  H     -0.885810   -0.532530   -4.942030
  H     -0.317720   -1.740400   -3.748510
  H      1.350220    0.569810   -4.870460
  H      1.504170   -1.124970   -5.348060
  H      1.911430   -0.634450   -3.699240
  H     -0.718170    0.505890    1.116990
  H     -1.758610    1.773640    2.857180
  H     -1.548860    4.791150    2.398370
  H     -2.858550    8.485140    5.195550
  H     -4.088280    7.886240    7.237820
  H     -4.335970    5.534210    7.910960
  H     -3.173190    3.996840    9.084380
  H     -5.830640    0.546460   13.449590
  H     -5.079340    2.137050   13.778820
  H     -3.567150   -0.500460   13.406810
  H     -3.849370    0.306960   14.953610
  H     -2.826540    1.074920   13.733870
  H     -5.465260   -0.321940    8.131850
  H     -5.038870    1.747960    5.202820
  H     -4.041050   -0.992380    6.110500
  H     -2.979600   -5.524240    3.018930
  H     -3.403240   -4.716500    5.395450
  H     -5.272590    3.336880    2.298750
  H     -4.956040    2.487450   -0.072100
  H     -3.181190   -3.106520    0.047120
  H     -3.572590   -0.341880   -1.211100
  H     -3.084520   -1.909900   -2.039670

 Total Charge           Charge          ....    0
 Multiplicity           Mult            ....    1
 Number of Electrons    NEL             ....  502
 Basis Dimension        Dim             .... 1201

ORBITAL ENERGIES
----------------

  NO   OCC          E(Eh)            E(eV)
   0   2.0000     -88.977727     -2421.2071
   1   2.0000     -19.209954      -522.7294
   2   2.0000     -19.209665      -522.7216
   3   2.0000     -19.201290      -522.4937
   4   2.0000     -19.200120      -522.4618
   5   2.0000     -14.450698      -393.2235
   6   2.0000     -14.442830      -393.0094
   7   2.0000     -14.433192      -392.7471
   8   2.0000     -14.431794      -392.7091
   9   2.0000     -14.430029      -392.6610
  10   2.0000     -14.428698      -392.6248
  11   2.0000     -14.428454      -392.6182
  12   2.0000     -14.427174      -392.5834
  13   2.0000     -14.424420      -392.5084
  14   2.0000     -14.422423      -392.4541
  15   2.0000     -14.411623      -392.1602
  16   2.0000     -10.389648      -282.7167
  17   2.0000     -10.389470      -282.7119
  18   2.0000     -10.381079      -282.4835
  19   2.0000     -10.379977      -282.4535
  20   2.0000     -10.328214      -281.0450
  21   2.0000     -10.327277      -281.0195
  22   2.0000     -10.326359      -280.9945
  23   2.0000     -10.326029      -280.9855
  24   2.0000     -10.324388      -280.9409
  25   2.0000     -10.323913      -280.9279
  26   2.0000     -10.323877      -280.9270
  27   2.0000     -10.323709      -280.9224
  28   2.0000     -10.323431      -280.9148
  29   2.0000     -10.322047      -280.8772
  30   2.0000     -10.321833      -280.8714
  31   2.0000     -10.321084      -280.8510
  32   2.0000     -10.320037      -280.8225
  33   2.0000     -10.319465      -280.8069
  34   2.0000     -10.319289      -280.8021
  35   2.0000     -10.318880      -280.7910
  36   2.0000     -10.317295      -280.7479
  37   2.0000     -10.316225      -280.7188
  38   2.0000     -10.314954      -280.6842
  39   2.0000     -10.311861      -280.6000
  40   2.0000     -10.310806      -280.5713
  41   2.0000     -10.305539      -280.4280
  42   2.0000     -10.304134      -280.3897
  43   2.0000     -10.303267      -280.3661
  44   2.0000     -10.302796      -280.3533
  45   2.0000     -10.301536      -280.3190
  46   2.0000     -10.299948      -280.2758
  47   2.0000     -10.299908      -280.2748
  48   2.0000     -10.297986      -280.2225
  49   2.0000     -10.295984      -280.1680
  50   2.0000     -10.295358      -280.1509
  51   2.0000     -10.294425      -280.1255
  52   2.0000     -10.294354      -280.1236
  53   2.0000     -10.294231      -280.1203
  54   2.0000     -10.294019      -280.1145
  55   2.0000     -10.293784      -280.1081
  56   2.0000     -10.292321      -280.0683
  57   2.0000     -10.291807      -280.0543
  58   2.0000     -10.290479      -280.0182
  59   2.0000     -10.286706      -279.9155
  60   2.0000     -10.286352      -279.9059
  61   2.0000     -10.284248      -279.8486
  62   2.0000     -10.284045      -279.8431
  63   2.0000     -10.283194      -279.8199
  64   2.0000     -10.278140      -279.6824
  65   2.0000     -10.275561      -279.6122
  66   2.0000     -10.273970      -279.5689
  67   2.0000     -10.267604      -279.3957
  68   2.0000     -10.266881      -279.3760
  69   2.0000     -10.259744      -279.1818
  70   2.0000     -10.257655      -279.1250
  71   2.0000     -10.253577      -279.0140
  72   2.0000     -10.252034      -278.9720
  73   2.0000      -8.072066      -219.6521
  74   2.0000      -6.040867      -164.3803
  75   2.0000      -6.036629      -164.2650
  76   2.0000      -6.035322      -164.2295
  77   2.0000      -1.155651       -31.4469
  78   2.0000      -1.146761       -31.2050
  79   2.0000      -1.132117       -30.8065
  80   2.0000      -1.122904       -30.5558
  81   2.0000      -1.089636       -29.6505
  82   2.0000      -1.086378       -29.5619
  83   2.0000      -1.082552       -29.4577
  84   2.0000      -1.077460       -29.3192
  85   2.0000      -1.046568       -28.4786
  86   2.0000      -1.037741       -28.2384
  87   2.0000      -1.019356       -27.7381
  88   2.0000      -1.012760       -27.5586
  89   2.0000      -1.009766       -27.4771
  90   2.0000      -1.006432       -27.3864
  91   2.0000      -1.001984       -27.2654
  92   2.0000      -0.997783       -27.1510
  93   2.0000      -0.980124       -26.6705
  94   2.0000      -0.973354       -26.4863
  95   2.0000      -0.954500       -25.9733
  96   2.0000      -0.952487       -25.9185
  97   2.0000      -0.947269       -25.7765
  98   2.0000      -0.924338       -25.1525
  99   2.0000      -0.913332       -24.8530
 100   2.0000      -0.903903       -24.5965
 101   2.0000      -0.892133       -24.2762
 102   2.0000      -0.886921       -24.1343
 103   2.0000      -0.873145       -23.7595
 104   2.0000      -0.871043       -23.7023
 105   2.0000      -0.869122       -23.6500
 106   2.0000      -0.864430       -23.5223
 107   2.0000      -0.858042       -23.3485
 108   2.0000      -0.855150       -23.2698
 109   2.0000      -0.846289       -23.0287
 110   2.0000      -0.840170       -22.8622
 111   2.0000      -0.832027       -22.6406
 112   2.0000      -0.813805       -22.1448
 113   2.0000      -0.809146       -22.0180
 114   2.0000      -0.795465       -21.6457
 115   2.0000      -0.793389       -21.5892
 116   2.0000      -0.790600       -21.5133
 117   2.0000      -0.767445       -20.8832
 118   2.0000      -0.763160       -20.7666
 119   2.0000      -0.762646       -20.7526
 120   2.0000      -0.759953       -20.6794
 121   2.0000      -0.752772       -20.4840
 122   2.0000      -0.748491       -20.3675
 123   2.0000      -0.742601       -20.2072
 124   2.0000      -0.729152       -19.8412
 125   2.0000      -0.727425       -19.7943
 126   2.0000      -0.726306       -19.7638
 127   2.0000      -0.720340       -19.6014
 128   2.0000      -0.707796       -19.2601
 129   2.0000      -0.706304       -19.2195
 130   2.0000      -0.700064       -19.0497
 131   2.0000      -0.692826       -18.8528
 132   2.0000      -0.690122       -18.7792
 133   2.0000      -0.684674       -18.6309
 134   2.0000      -0.682918       -18.5831
 135   2.0000      -0.673089       -18.3157
 136   2.0000      -0.660661       -17.9775
 137   2.0000      -0.657611       -17.8945
 138   2.0000      -0.652444       -17.7539
 139   2.0000      -0.650236       -17.6938
 140   2.0000      -0.642943       -17.4954
 141   2.0000      -0.637266       -17.3409
 142   2.0000      -0.634615       -17.2687
 143   2.0000      -0.629832       -17.1386
 144   2.0000      -0.619565       -16.8592
 145   2.0000      -0.611621       -16.6430
 146   2.0000      -0.607284       -16.5250
 147   2.0000      -0.603490       -16.4218
 148   2.0000      -0.595844       -16.2137
 149   2.0000      -0.592737       -16.1292
 150   2.0000      -0.589937       -16.0530
 151   2.0000      -0.586896       -15.9702
 152   2.0000      -0.583829       -15.8868
 153   2.0000      -0.580475       -15.7955
 154   2.0000      -0.577329       -15.7099
 155   2.0000      -0.575518       -15.6606
 156   2.0000      -0.572763       -15.5857
 157   2.0000      -0.570321       -15.5192
 158   2.0000      -0.567523       -15.4431
 159   2.0000      -0.565450       -15.3867
 160   2.0000      -0.564032       -15.3481
 161   2.0000      -0.556574       -15.1452
 162   2.0000      -0.549858       -14.9624
 163   2.0000      -0.547718       -14.9042
 164   2.0000      -0.547118       -14.8878
 165   2.0000      -0.544452       -14.8153
 166   2.0000      -0.540986       -14.7210
 167   2.0000      -0.536976       -14.6119
 168   2.0000      -0.535027       -14.5588
 169   2.0000      -0.532927       -14.5017
 170   2.0000      -0.530418       -14.4334
 171   2.0000      -0.528937       -14.3931
 172   2.0000      -0.525918       -14.3110
 173   2.0000      -0.524373       -14.2689
 174   2.0000      -0.522918       -14.2293
 175   2.0000      -0.520375       -14.1601
 176   2.0000      -0.519583       -14.1386
 177   2.0000      -0.516610       -14.0577
 178   2.0000      -0.515246       -14.0206
 179   2.0000      -0.512804       -13.9541
 180   2.0000      -0.511174       -13.9097
 181   2.0000      -0.508696       -13.8423
 182   2.0000      -0.507405       -13.8072
 183   2.0000      -0.505951       -13.7676
 184   2.0000      -0.505652       -13.7595
 185   2.0000      -0.503016       -13.6878
 186   2.0000      -0.498123       -13.5546
 187   2.0000      -0.492649       -13.4057
 188   2.0000      -0.486835       -13.2475
 189   2.0000      -0.483714       -13.1625
 190   2.0000      -0.482355       -13.1256
 191   2.0000      -0.479462       -13.0468
 192   2.0000      -0.478802       -13.0289
 193   2.0000      -0.473820       -12.8933
 194   2.0000      -0.472176       -12.8486
 195   2.0000      -0.470372       -12.7995
 196   2.0000      -0.469496       -12.7756
 197   2.0000      -0.465726       -12.6731
 198   2.0000      -0.463880       -12.6228
 199   2.0000      -0.460187       -12.5223
 200   2.0000      -0.458510       -12.4767
 201   2.0000      -0.456696       -12.4273
 202   2.0000      -0.454511       -12.3679
 203   2.0000      -0.454253       -12.3608
 204   2.0000      -0.451565       -12.2877
 205   2.0000      -0.447531       -12.1779
 206   2.0000      -0.446969       -12.1626
 207   2.0000      -0.443857       -12.0780
 208   2.0000      -0.442934       -12.0529
 209   2.0000      -0.440605       -11.9895
 210   2.0000      -0.438918       -11.9436
 211   2.0000      -0.435907       -11.8616
 212   2.0000      -0.434666       -11.8279
 213   2.0000      -0.430138       -11.7046
 214   2.0000      -0.429182       -11.6786
 215   2.0000      -0.426129       -11.5956
 216   2.0000      -0.424772       -11.5586
 217   2.0000      -0.419459       -11.4141
 218   2.0000      -0.418710       -11.3937
 219   2.0000      -0.414742       -11.2857
 220   2.0000      -0.410546       -11.1715
 221   2.0000      -0.406649       -11.0655
 222   2.0000      -0.397183       -10.8079
 223   2.0000      -0.389920       -10.6103
 224   2.0000      -0.388056       -10.5595
 225   2.0000      -0.382215       -10.4006
 226   2.0000      -0.380780       -10.3616
 227   2.0000      -0.373193       -10.1551
 228   2.0000      -0.368707       -10.0330
 229   2.0000      -0.364470        -9.9177
 230   2.0000      -0.363609        -9.8943
 231   2.0000      -0.354611        -9.6495
 232   2.0000      -0.353543        -9.6204
 233   2.0000      -0.346659        -9.4331
 234   2.0000      -0.341928        -9.3043
 235   2.0000      -0.339922        -9.2497
 236   2.0000      -0.335863        -9.1393
 237   2.0000      -0.335037        -9.1168
 238   2.0000      -0.332755        -9.0547
 239   2.0000      -0.330998        -9.0069
 240   2.0000      -0.330446        -8.9919
 241   2.0000      -0.329623        -8.9695
 242   2.0000      -0.326074        -8.8729
 243   2.0000      -0.324908        -8.8412
 244   2.0000      -0.319958        -8.7065
 245   2.0000      -0.318102        -8.6560
 246   2.0000      -0.314030        -8.5452
 247   2.0000      -0.310398        -8.4463
 248   2.0000      -0.272181        -7.4064
 249   2.0000      -0.258048        -7.0218
 250   2.0000      -0.243528        -6.6267
 251   0.0000      -0.088862        -2.4181
 252   0.0000      -0.085229        -2.3192
 253   0.0000      -0.075518        -2.0550
 254   0.0000      -0.045838        -1.2473
 255   0.0000      -0.042260        -1.1499

MULLIKEN ATOMIC CHARGES
-----------------------
   0 C :   -0.084134
   1 C :    0.044533
   2 C :   -0.035240
   3 N :   -0.019923
   4 C :    0.026402
   5 C :    0.023815
   6 N :   -0.020266
   7 C :    0.118658
   8 C :   -0.046792
   9 C :    0.039887
  10 N :   -0.019306
  11 C :    0.031739
  12 C :    0.040367
  13 N :   -0.059502
  14 C :   -0.060308
  15 C :   -0.070474
  16 C :    0.106413
  17 C :   -0.097534
  18 C :    0.024354
  19 C :    0.016760
  20 C :    0.189231
  21 O :   -0.159327
  22 N :   -0.303834
  23 C :    0.181593
  24 O :   -0.160596
  25 C :    0.133392
  26 C :   -0.009096
  27 C :   -0.093783
  28 C :    0.095627
  29 C :   -0.061552
  30 C :    0.009269
  31 C :   -0.157945
  32 S :    0.188254
  33 C :   -0.196262
  34 C :    0.125582
  35 C :    0.169195
  36 C :   -0.153275
  37 C :   -0.179014
  38 N :    0.115643
  39 C :    0.045547
  40 C :    0.007928
  41 C :   -0.025399
  42 C :    0.110189
  43 C :   -0.096928
  44 C :    0.004266
  45 C :    0.013703
  46 C :    0.189396
  47 O :   -0.155988
  48 N :   -0.303410
  49 C :    0.188272
  50 O :   -0.160563
  51 C :    0.132957
  52 C :   -0.008761
  53 C :   -0.088354
  54 C :    0.064976
  55 C :   -0.044241
  56 C :   -0.050298
  57 C :    0.067295
  58 C :   -0.044862
  59 C :   -0.047621
  60 N :   -0.009159
  61 C :    0.025288
  62 C :    0.025103
  63 N :   -0.017987
  64 C :    0.065490
  65 C :   -0.057111
  66 C :   -0.030788
  67 N :   -0.028436
  68 C :    0.041255
  69 C :    0.034071
  70 N :   -0.018444
  71 C :   -0.079712
  72 C :    0.048725
  73 H :   -0.037902
  74 H :    0.015459
  75 H :    0.015176
  76 H :    0.011562
  77 H :    0.017113
  78 H :   -0.000307
  79 H :    0.045956
  80 H :   -0.007948
  81 H :    0.029085
  82 H :    0.029863
  83 H :    0.026627
  84 H :    0.020153
  85 H :    0.026584
  86 H :   -0.014331
  87 H :    0.009944
  88 H :    0.043432
  89 H :    0.002517
  90 H :   -0.001649
  91 H :   -0.010463
  92 H :   -0.002448
  93 H :    0.031259
  94 H :    0.030310
  95 H :    0.025526
  96 H :    0.022627
  97 H :    0.027800
  98 H :   -0.003291
  99 H :    0.051481
 100 H :   -0.000423
 101 H :    0.016887
 102 H :    0.017444
 103 H :    0.006891
 104 H :    0.017545
 105 H :    0.002216
 106 H :    0.035505
 107 H :    0.010850
Sum of atomic charges:   -0.0000000

LOEWDIN ATOMIC CHARGES
----------------------
   0 C :   -0.004109
   1 C :   -0.009726
   2 C :   -0.000585
   3 N :   -0.029598
   4 C :    0.009274
   5 C :    0.008590
   6 N :   -0.035689
   7 C :   -0.001881
   8 C :   -0.008536
   9 C :   -0.012185
  10 N :   -0.032644
  11 C :    0.004563
  12 C :    0.005923
  13 N :   -0.035451
  14 C :   -0.017881
  15 C :   -0.013543
  16 C :   -0.003787
  17 C :    0.019266
  18 C :   -0.052927
  19 C :   -0.051387
  20 C :    0.087907
  21 O :   -0.160447
  22 N :   -0.035899
  23 C :    0.087453
  24 O :   -0.162665
  25 C :    0.043370
  26 C :   -0.060258
  27 C :    0.018294
  28 C :   -0.011785
  29 C :   -0.033151
  30 C :   -0.022310
  31 C :   -0.178091
  32 S :    0.566855
  33 C :   -0.171285
  34 C :   -0.048465
  35 C :   -0.033584
  36 C :   -0.073049
  37 C :   -0.022689
  38 N :   -0.061046
  39 C :    0.019023
  40 C :   -0.032802
  41 C :    0.005032
  42 C :   -0.029949
  43 C :    0.013130
  44 C :   -0.055397
  45 C :   -0.049254
  46 C :    0.088204
  47 O :   -0.157625
  48 N :   -0.037001
  49 C :    0.087529
  50 O :   -0.161992
  51 C :    0.044097
  52 C :   -0.059886
  53 C :    0.018341
  54 C :   -0.004179
  55 C :   -0.038152
  56 C :   -0.018962
  57 C :   -0.026115
  58 C :   -0.004907
  59 C :   -0.009378
  60 N :   -0.024614
  61 C :    0.008209
  62 C :    0.010951
  63 N :   -0.033805
  64 C :   -0.005157
  65 C :   -0.010128
  66 C :   -0.006387
  67 N :   -0.032383
  68 C :    0.014260
  69 C :    0.016123
  70 N :   -0.015839
  71 C :   -0.030585
  72 C :   -0.011678
  73 H :    0.040671
  74 H :    0.027552
  75 H :    0.027204
  76 H :    0.025859
  77 H :    0.022029
  78 H :    0.029918
  79 H :    0.023490
  80 H :    0.039762
  81 H :    0.031066
  82 H :    0.030602
  83 H :    0.028024
  84 H :    0.029066
  85 H :    0.028072
  86 H :    0.037143
  87 H :    0.018861
  88 H :    0.044924
  89 H :    0.042298
  90 H :    0.035863
  91 H :    0.034876
  92 H :    0.039190
  93 H :    0.032025
  94 H :    0.031772
  95 H :    0.027824
  96 H :    0.030160
  97 H :    0.028279
  98 H :    0.042034
  99 H :    0.022837
 100 H :    0.029588
 101 H :    0.028274
 102 H :    0.028278
 103 H :    0.025510
 104 H :    0.029752
 105 H :    0.032093
 106 H :    0.017776
 107 H :    0.021763

  Mayer bond orders larger than 0.100000
B(  0-C ,  1-C ) :   1.2414 B(  0-C ,  7-C ) :   0.1398 B(  0-C ,  9-C ) :   1.2393
B(  0-C , 73-H ) :   1.0543 B(  1-C ,  2-C ) :   1.1791 B(  1-C ,  6-N ) :   1.3674
B(  2-C ,  3-N ) :   1.4408 B(  2-C ,  7-C ) :   1.2573 B(  3-N ,  4-C ) :   1.7105
B(  4-C ,  5-C ) :   1.1720 B(  4-C , 74-H ) :   0.9740 B(  5-C ,  6-N ) :   1.7269
B(  5-C , 75-H ) :   0.9733 B(  7-C ,  8-C ) :   1.2434 B(  7-C , 14-C ) :   1.1519
B(  8-C ,  9-C ) :   1.1703 B(  8-C , 13-N ) :   1.4168 B(  9-C , 10-N ) :   1.3644
B( 10-N , 11-C ) :   1.7150 B( 11-C , 12-C ) :   1.1882 B( 11-C , 76-H ) :   0.9738
B( 12-C , 13-N ) :   1.6473 B( 12-C , 77-H ) :   0.9596 B( 14-C , 15-C ) :   1.7005
B( 14-C , 78-H ) :   0.9617 B( 15-C , 16-C ) :   1.0176 B( 15-C , 79-H ) :   0.9209
B( 16-C , 17-C ) :   1.3138 B( 16-C , 28-C ) :   1.3259 B( 17-C , 18-C ) :   1.3833
B( 17-C , 80-H ) :   1.0135 B( 18-C , 19-C ) :   1.3375 B( 18-C , 23-C ) :   0.8782
B( 19-C , 20-C ) :   0.8733 B( 19-C , 27-C ) :   1.4017 B( 20-C , 21-O ) :   2.2247
B( 20-C , 22-N ) :   1.0627 B( 22-N , 23-C ) :   1.0601 B( 22-N , 25-C ) :   0.9213
B( 23-C , 24-O ) :   2.2274 B( 25-C , 26-C ) :   1.1249 B( 25-C , 81-H ) :   0.9426
B( 25-C , 82-H ) :   0.9417 B( 26-C , 83-H ) :   0.9697 B( 26-C , 84-H ) :   0.9699
B( 26-C , 85-H ) :   0.9694 B( 27-C , 28-C ) :   1.2617 B( 27-C , 86-H ) :   1.0189
B( 28-C , 29-C ) :   1.1156 B( 29-C , 30-C ) :   1.6590 B( 29-C , 87-H ) :   0.9573
B( 30-C , 31-C ) :   1.1482 B( 30-C , 88-H ) :   0.9577 B( 31-C , 32-S ) :   1.1535
B( 31-C , 33-C ) :   0.1139 B( 31-C , 35-C ) :   1.3475 B( 32-S , 33-C ) :   1.2161
B( 33-C , 34-C ) :   1.3772 B( 33-C , 42-C ) :   0.9998 B( 34-C , 35-C ) :   1.1863
B( 34-C , 41-C ) :   1.1936 B( 35-C , 36-C ) :   1.1900 B( 36-C , 37-C ) :   1.1075
B( 36-C , 39-C ) :   1.5666 B( 37-C , 38-N ) :   2.9484 B( 39-C , 40-C ) :   1.1972
B( 39-C , 89-H ) :   0.9908 B( 40-C , 41-C ) :   1.5238 B( 40-C , 90-H ) :   0.9888
B( 41-C , 91-H ) :   0.9943 B( 42-C , 43-C ) :   1.3182 B( 42-C , 54-C ) :   1.3492
B( 43-C , 44-C ) :   1.3932 B( 43-C , 92-H ) :   1.0083 B( 44-C , 45-C ) :   1.3573
B( 44-C , 49-C ) :   0.8757 B( 45-C , 46-C ) :   0.8761 B( 45-C , 53-C ) :   1.3689
B( 46-C , 47-O ) :   2.2311 B( 46-C , 48-N ) :   1.0602 B( 48-N , 49-C ) :   1.0652
B( 48-N , 51-C ) :   0.9193 B( 49-C , 50-O ) :   2.2258 B( 51-C , 52-C ) :   1.1257
B( 51-C , 93-H ) :   0.9422 B( 51-C , 94-H ) :   0.9424 B( 52-C , 95-H ) :   0.9693
B( 52-C , 96-H ) :   0.9699 B( 52-C , 97-H ) :   0.9695 B( 53-C , 54-C ) :   1.3364
B( 53-C , 98-H ) :   1.0172 B( 54-C , 55-C ) :   1.0111 B( 55-C , 56-C ) :   1.7073
B( 55-C , 99-H ) :   0.9121 B( 56-C , 57-C ) :   1.1717 B( 56-C ,100-H ) :   0.9595
B( 57-C , 58-C ) :   1.2444 B( 57-C , 64-C ) :   0.1369 B( 57-C , 66-C ) :   1.2457
B( 58-C , 59-C ) :   1.1568 B( 58-C , 63-N ) :   1.4530 B( 59-C , 60-N ) :   1.4499
B( 59-C , 64-C ) :   1.2554 B( 60-N , 61-C ) :   1.7097 B( 61-C , 62-C ) :   1.1770
B( 61-C ,101-H ) :   0.9745 B( 62-C , 63-N ) :   1.7035 B( 62-C ,102-H ) :   0.9745
B( 64-C , 65-C ) :   1.2466 B( 64-C , 71-C ) :   1.1691 B( 65-C , 66-C ) :   1.1573
B( 65-C , 70-N ) :   1.4316 B( 66-C , 67-N ) :   1.4132 B( 67-N , 68-C ) :   1.6662
B( 68-C , 69-C ) :   1.1916 B( 68-C ,103-H ) :   0.9570 B( 69-C , 70-N ) :   1.6848
B( 69-C ,104-H ) :   0.9701 B( 71-C , 72-C ) :   1.9033 B( 71-C ,105-H ) :   0.9436
B( 72-C ,106-H ) :   0.9207 B( 72-C ,107-H ) :   0.9307

-----------------------------------------------------------------------------
         ABSORPTION SPECTRUM VIA TRANSITION ELECTRIC DIPOLE MOMENTS
-----------------------------------------------------------------------------
State   Energy  Wavelength   fosc         T2         TX        TY        TZ
        (cm-1)    (nm)                  (au**2)     (au)      (au)      (au)
-----------------------------------------------------------------------------
   0   17113.2    584.3   0.038190893   0.73469   0.18685   0.78639   0.28525
   1   17646.5    566.7   0.206821496   3.85844   0.08816  -1.43871   1.33446
   2   19619.6    509.7   0.020992020   0.35224  -0.58215  -0.09750   0.06194
   3   20364.4    491.1   0.441814754   7.14240  -0.67425   0.69795   2.49011
   4   21911.1    456.4   0.131018067   1.96853   0.05210  -0.65833   1.23791
   5   23690.1    422.1   0.276182864   3.83801   0.78815  -1.27475  -1.26168
   6   24019.9    416.3   0.010100005   0.13843  -0.33432  -0.14676   0.07155
   7   25032.2    399.5   0.024986446   0.32861   0.15192  -0.07201  -0.54804
   8   25407.1    393.6   0.113948109   1.47648  -0.70655  -0.06234   0.98660
   9   25966.4    385.1   0.006895068   0.08742   0.23301   0.10452   0.14900
  10   26439.5    378.2   0.055118335   0.68631   0.11583  -0.16837   0.80283
  11   26926.8    371.4   0.013013910   0.15911  -0.27617  -0.28779  -0.00375
  12   27023.9    370.0   0.001329410   0.01620  -0.09742   0.04383  -0.06916
  13   27169.0    368.1   0.004873840   0.05906   0.07836   0.21423   0.08379
  14   27313.9    366.1   0.201597549   2.42984   0.01743   1.06460   1.13849
  15   30024.1    333.1   0.003668259   0.04022   0.12115  -0.02774   0.15740
  16   30303.8    330.0   0.078299500   0.85062  -0.06382   0.86243   0.32058
  17   30792.8    324.8   0.097395824   1.04128  -0.08270  -0.76243   0.67316
  18   31226.5    320.2   0.024209216   0.25523  -0.17126  -0.11316  -0.46162
  19   31316.2    319.3   0.079657212   0.83740  -0.07803  -0.57739  -0.70564
  20   31695.9    315.5   0.126357846   1.31243   0.55407  -0.19870  -0.98283
  21   32183.4    310.7   0.255747679   2.61611  -0.32522   0.36411   1.54200
  22   32639.0    306.4   0.001183754   0.01194  -0.09388   0.03595  -0.04283
  23   32739.9    305.4   0.009745467   0.09799  -0.01078  -0.12180  -0.28817
  24   32981.2    303.2   0.022375716   0.22335   0.35160   0.19445  -0.24883
  25   33615.8    297.5   0.086954407   0.85158   0.30705  -0.59733  -0.63284
  26   33992.8    294.2   0.080521165   0.77983   0.01613   0.87904  -0.08278
  27   34111.2    293.2   0.056532220   0.54560   0.03882   0.67715   0.29251
  28   34577.2    289.2   0.052965435   0.50429  -0.07636   0.67838  -0.19560
  29   34716.2    288.1   0.035297006   0.33472  -0.12729   0.52288  -0.21240
  30   34999.9    285.7   0.165223467   1.55411  -0.12580   1.24026   0.00634
  31   35346.3    282.9   0.074337091   0.69237   0.05723   0.31226  -0.76915
  32   35492.0    281.8   0.065623417   0.60870   0.21214  -0.50475  -0.55581
  33   35738.3    279.8   0.040961674   0.37733   0.13176   0.59877  -0.03798
  34   35805.3    279.3   0.208791938   1.91974   0.52739   0.23915  -1.25873
  35   36033.6    277.5   0.165891320   1.51562  -0.12486   1.22394  -0.04469
  36   36130.6    276.8   0.023246809   0.21182   0.27536  -0.03881  -0.36673
  37   36238.6    275.9   0.039663827   0.36033  -0.02379   0.42849   0.41971
  38   36332.3    275.2   0.022719828   0.20587   0.36349   0.26916   0.03602
  39   36677.0    272.7   0.012536369   0.11253  -0.03346   0.29258   0.16063
  40   36721.9    272.3   0.057843833   0.51857  -0.15083  -0.64707   0.27771
  41   36841.3    271.4   0.013630970   0.12181   0.18451   0.20729   0.21165
  42   36876.4    271.2   0.007399536   0.06606   0.07223   0.22581  -0.09926
  43   37078.7    269.7   0.015970118   0.14179  -0.00969  -0.37231  -0.05554
  44   37302.2    268.1   0.090350292   0.79739  -0.17622   0.78870   0.37985
  45   37388.6    267.5   0.032805598   0.28886   0.08880  -0.51603   0.12118
  46   37608.3    265.9   0.046904715   0.41059  -0.06492   0.18821   0.60906
  47   37669.6    265.5   0.194399742   1.69895   0.21714  -1.04766  -0.74445
  48   37691.7    265.3   0.089634455   0.78290   0.22503  -0.61722  -0.59271
  49   37939.1    263.6   0.035240329   0.30579  -0.09170  -0.47103  -0.27479
  50   38388.4    260.5   0.320419214   2.74786   0.05231   1.52330  -0.65167
  51   38468.8    260.0   0.713237795   6.10381   0.42680  -2.26364   0.89308
  52   38757.1    258.0   0.073526047   0.62455   0.10615  -0.77175  -0.13299
  53   38932.1    256.9   0.001258021   0.01064   0.02965  -0.06872  -0.07097
  54   38948.4    256.8   0.041741140   0.35282   0.26645   0.15662   0.50724
  55   39052.4    256.1   0.122403549   1.03186   0.43367  -0.85384  -0.33874
  56   39245.1    254.8   0.021738600   0.18236   0.08304  -0.03377  -0.41752
  57   39372.9    254.0   0.123864381   1.03568   0.15314   0.86321  -0.51681
  58   39411.0    253.7   0.037929569   0.31684  -0.12912   0.48821  -0.24864
  59   39691.5    251.9   0.012437696   0.10316   0.00585   0.30709  -0.09393
  60   39743.0    251.6   0.012660901   0.10488  -0.32179   0.03541  -0.00859
  61   39918.4    250.5   0.024505990   0.20210   0.08899  -0.31689  -0.30621
  62   39973.1    250.2   0.060952904   0.50200   0.19548  -0.48779  -0.47523
  63   40129.5    249.2   0.009124267   0.07485  -0.18294   0.03828   0.19980
  64   40289.1    248.2   0.024481246   0.20004   0.05230   0.01477  -0.44395

FINAL SINGLE POINT ENERGY     -3490.520284767331

DIPOLE MOMENT
-------------
                                X             Y             Z
Electronic contribution:     -7.28551      16.33548       1.00129
Nuclear contribution   :      6.59628     -16.31612      -0.34499
                        -----------------------------------------
Total Dipole Moment    :     -0.68922       0.01936       0.65631
                        -----------------------------------------
Magnitude (a.u.)       :      0.95192
Magnitude (Debye)      :      2.41958

Rotational constants in cm-1:     0.001184     0.000773     0.000504
Rotational constants in MHz :    35.495723    23.167711    15.112912

                             ****ORCA TERMINATED NORMALLY****
TOTAL RUN TIME: 0 days 0 hours 12 minutes 45 seconds 152 msec
