                         Program Version 4.2.0 -  RELEASE  -
|  1> # ORCA input file
|  2> # SCF done       -163.315119806603          0.000404584162
|  3> ! CAM-B3LYP def2-SVP def2/J RIJCOSX Grid4 TightSCF
|  4> %maxcore 5000
|  5> %tddft
|  6>     Mode sTDDFT
|  7>     Ethresh 5.0
|  8>     maxcore 5000
|  9> end
| 10>
| 11> %pal
| 12>   nprocs 6
| 13>   end
| 14> * xyz 0 1
| 15>    C        1.84873        -0.71622         3.19767
| 16>    C        2.46280         0.46835         3.59080
| 17>    C        2.46688         1.60519         2.72050
| 18>    N        3.06658         2.74807         3.11246
| 19>    C        3.63052         2.77526         4.28951
| 20>    C        3.62476         1.65425         5.14633
| 21>    N        3.05775         0.53212         4.80947
| 22>    C        1.84934         1.55845         1.43704
| 23>    C        1.22801         0.33595         1.05883
| 24>    C        1.23666        -0.79029         1.95018
| 25>    N        0.64406        -1.95755         1.59139
| 26>    C        0.07350        -2.01684         0.42338
| 27>    C        0.06125        -0.91313        -0.45322
| 28>    N        0.62201         0.22413        -0.14050
| 29>    C        1.90311         2.73340         0.64433
| 30>    C        1.40458         2.91311        -0.61323
| 31>    C        1.50058         4.11711        -1.32329
| 32>    C        1.02901         4.39081        -2.62444
| 33>    C        1.29140         5.72535        -3.04707
| 34>    C        0.88024         6.14097        -4.32517
| 35>    C        0.23219         5.25742        -5.14530
| 36>    C       -0.02811         3.94155        -4.72692
| 37>    C        0.36031         3.50677        -3.48880
| 38>    C        1.96463         6.48953        -2.06959
| 39>    S        2.26161         5.53016        -0.65164
| 40>    C        2.35857         7.83480        -2.14828
| 41>    C        2.99238         8.50080        -1.13980
| 42>    C        3.38594         9.85334        -1.15426
| 43>    N        3.99030        10.41248        -0.04320
| 44>    C        4.24605        11.72062        -0.29639
| 45>    C        4.76135        12.88875         0.24455
| 46>    C        4.62694        13.87335        -0.74820
| 47>    N        4.04635        13.31198        -1.86891
| 48>    C        3.79826        11.99889        -1.61693
| 49>    C        3.26243        10.83590        -2.15186
| 50>    C        4.98997        15.23122        -0.62212
| 51>    C        4.92127        16.17811        -1.60166
| 52>    C        5.23655        17.54520        -1.46482
| 53>    C        5.34232        18.37635        -0.32861
| 54>    C        5.77120        19.69685        -0.65488
| 55>    C        5.94041        20.65115         0.36295
| 56>    C        5.65989        20.31337         1.65858
| 57>    C        5.17701        19.03359         1.97569
| 58>    C        5.01347        18.08004         1.00754
| 59>    C        5.96470        19.90089        -2.03803
| 60>    S        5.59162        18.44612        -2.91035
| 61>    C        6.38855        21.07986        -2.66370
| 62>    C        6.55411        21.22579        -4.01059
| 63>    C        6.97251        22.39283        -4.69779
| 64>    C        7.12212        22.31287        -6.11235
| 65>    C        7.58261        23.42003        -6.89493
| 66>    N        7.67849        23.28783        -8.23809
| 67>    C        7.37412        22.14294        -8.77935
| 68>    C        6.94660        21.04874        -8.00497
| 69>    N        6.81814        21.14274        -6.71010
| 70>    C        7.92362        24.64783        -6.28482
| 71>    C        7.73240        24.74659        -4.88548
| 72>    C        7.26352        23.64720        -4.09563
| 73>    N        7.09480        23.80834        -2.76726
| 74>    C        7.37806        24.96310        -2.22899
| 75>    C        7.84858        26.03909        -3.00280
| 76>    N        8.01360        25.92938        -4.28962
| 77>    C        8.44598        25.80517        -6.97461
| 78>    C        8.83289        25.88899        -8.24759
| 79>    H        1.84615        -1.57145         3.85257
| 80>    H        4.10474         3.70412         4.57841
| 81>    H        4.09558         1.68986         6.12028
| 82>    H       -0.39424        -2.95497         0.15424
| 83>    H       -0.41674        -0.96705        -1.42285
| 84>    H        2.40930         3.56391         1.12214
| 85>    H        0.90549         2.08868        -1.09916
| 86>    H        1.07735         7.15021        -4.65277
| 87>    H       -0.08586         5.56862        -6.12924
| 88>    H       -0.54247         3.26982        -5.39802
| 89>    H        0.15886         2.49611        -3.16963
| 90>    H        2.12963         8.35691        -3.06550
| 91>    H        3.20929         7.95235        -0.23071
| 92>    H        4.18394         9.91236         0.80700
| 93>    H        5.18326        13.04487         1.21704
| 94>    H        3.83304        13.81030        -2.71442
| 95>    H        2.83500        10.69020        -3.12297
| 96>    H        5.38272        15.49963         0.34582
| 97>    H        4.65985        15.87378        -2.60809
| 98>    H        6.27918        21.64441         0.11336
| 99>    H        5.78638        21.03961         2.44754
|100>    H        4.92170        18.80662         3.00018
|101>    H        4.60036        17.11862         1.26411
|102>    H        6.59393        21.92539        -2.02550
|103>    H        6.35998        20.37564        -4.65353
|104>    H        7.45663        22.07797        -9.85673
|105>    H        6.69576        20.09567        -8.45163
|106>    H        7.22417        25.05279        -1.16140
|107>    H        8.08098        26.99928        -2.56095
|108>    H        8.53332        26.67180        -6.33222
|109>    H        8.78342        25.05021        -8.91702
|110>    H        9.20869        26.81833        -8.64306
|111> *
|112>
|113>                          ****END OF INPUT****

CARTESIAN COORDINATES (ANGSTROEM)
---------------------------------
  C      1.848730   -0.716220    3.197670
  C      2.462800    0.468350    3.590800
  C      2.466880    1.605190    2.720500
  N      3.066580    2.748070    3.112460
  C      3.630520    2.775260    4.289510
  C      3.624760    1.654250    5.146330
  N      3.057750    0.532120    4.809470
  C      1.849340    1.558450    1.437040
  C      1.228010    0.335950    1.058830
  C      1.236660   -0.790290    1.950180
  N      0.644060   -1.957550    1.591390
  C      0.073500   -2.016840    0.423380
  C      0.061250   -0.913130   -0.453220
  N      0.622010    0.224130   -0.140500
  C      1.903110    2.733400    0.644330
  C      1.404580    2.913110   -0.613230
  C      1.500580    4.117110   -1.323290
  C      1.029010    4.390810   -2.624440
  C      1.291400    5.725350   -3.047070
  C      0.880240    6.140970   -4.325170
  C      0.232190    5.257420   -5.145300
  C     -0.028110    3.941550   -4.726920
  C      0.360310    3.506770   -3.488800
  C      1.964630    6.489530   -2.069590
  S      2.261610    5.530160   -0.651640
  C      2.358570    7.834800   -2.148280
  C      2.992380    8.500800   -1.139800
  C      3.385940    9.853340   -1.154260
  N      3.990300   10.412480   -0.043200
  C      4.246050   11.720620   -0.296390
  C      4.761350   12.888750    0.244550
  C      4.626940   13.873350   -0.748200
  N      4.046350   13.311980   -1.868910
  C      3.798260   11.998890   -1.616930
  C      3.262430   10.835900   -2.151860
  C      4.989970   15.231220   -0.622120
  C      4.921270   16.178110   -1.601660
  C      5.236550   17.545200   -1.464820
  C      5.342320   18.376350   -0.328610
  C      5.771200   19.696850   -0.654880
  C      5.940410   20.651150    0.362950
  C      5.659890   20.313370    1.658580
  C      5.177010   19.033590    1.975690
  C      5.013470   18.080040    1.007540
  C      5.964700   19.900890   -2.038030
  S      5.591620   18.446120   -2.910350
  C      6.388550   21.079860   -2.663700
  C      6.554110   21.225790   -4.010590
  C      6.972510   22.392830   -4.697790
  C      7.122120   22.312870   -6.112350
  C      7.582610   23.420030   -6.894930
  N      7.678490   23.287830   -8.238090
  C      7.374120   22.142940   -8.779350
  C      6.946600   21.048740   -8.004970
  N      6.818140   21.142740   -6.710100
  C      7.923620   24.647830   -6.284820
  C      7.732400   24.746590   -4.885480
  C      7.263520   23.647200   -4.095630
  N      7.094800   23.808340   -2.767260
  C      7.378060   24.963100   -2.228990
  C      7.848580   26.039090   -3.002800
  N      8.013600   25.929380   -4.289620
  C      8.445980   25.805170   -6.974610
  C      8.832890   25.888990   -8.247590
  H      1.846150   -1.571450    3.852570
  H      4.104740    3.704120    4.578410
  H      4.095580    1.689860    6.120280
  H     -0.394240   -2.954970    0.154240
  H     -0.416740   -0.967050   -1.422850
  H      2.409300    3.563910    1.122140
  H      0.905490    2.088680   -1.099160
  H      1.077350    7.150210   -4.652770
  H     -0.085860    5.568620   -6.129240
  H     -0.542470    3.269820   -5.398020
  H      0.158860    2.496110   -3.169630
  H      2.129630    8.356910   -3.065500
  H      3.209290    7.952350   -0.230710
  H      4.183940    9.912360    0.807000
  H      5.183260   13.044870    1.217040
  H      3.833040   13.810300   -2.714420
  H      2.835000   10.690200   -3.122970
  H      5.382720   15.499630    0.345820
  H      4.659850   15.873780   -2.608090
  H      6.279180   21.644410    0.113360
  H      5.786380   21.039610    2.447540
  H      4.921700   18.806620    3.000180
  H      4.600360   17.118620    1.264110
  H      6.593930   21.925390   -2.025500
  H      6.359980   20.375640   -4.653530
  H      7.456630   22.077970   -9.856730
  H      6.695760   20.095670   -8.451630
  H      7.224170   25.052790   -1.161400
  H      8.080980   26.999280   -2.560950
  H      8.533320   26.671800   -6.332220
  H      8.783420   25.050210   -8.917020
  H      9.208690   26.818330   -8.643060

 Total Charge           Charge          ....    0
 Multiplicity           Mult            ....    1
 Number of Electrons    NEL             ....  446
 Basis Dimension        Dim             .... 1064

ORBITAL ENERGIES
----------------

  NO   OCC          E(Eh)            E(eV)
   0   2.0000     -88.952615     -2420.5237
   1   2.0000     -88.951981     -2420.5064
   2   2.0000     -14.455039      -393.3416
   3   2.0000     -14.453320      -393.2948
   4   2.0000     -14.419739      -392.3810
   5   2.0000     -14.419580      -392.3767
   6   2.0000     -14.418153      -392.3379
   7   2.0000     -14.417781      -392.3278
   8   2.0000     -14.417109      -392.3095
   9   2.0000     -14.415684      -392.2707
  10   2.0000     -14.414230      -392.2311
  11   2.0000     -14.414200      -392.2303
  12   2.0000     -10.314936      -280.6837
  13   2.0000     -10.314293      -280.6662
  14   2.0000     -10.314116      -280.6614
  15   2.0000     -10.313350      -280.6405
  16   2.0000     -10.313059      -280.6326
  17   2.0000     -10.312118      -280.6070
  18   2.0000     -10.311824      -280.5990
  19   2.0000     -10.311751      -280.5970
  20   2.0000     -10.310361      -280.5592
  21   2.0000     -10.310072      -280.5513
  22   2.0000     -10.309721      -280.5418
  23   2.0000     -10.309103      -280.5250
  24   2.0000     -10.308818      -280.5172
  25   2.0000     -10.308708      -280.5142
  26   2.0000     -10.308381      -280.5053
  27   2.0000     -10.307626      -280.4848
  28   2.0000     -10.303778      -280.3800
  29   2.0000     -10.302179      -280.3365
  30   2.0000     -10.300197      -280.2826
  31   2.0000     -10.299338      -280.2592
  32   2.0000     -10.292301      -280.0678
  33   2.0000     -10.290071      -280.0071
  34   2.0000     -10.289389      -279.9885
  35   2.0000     -10.288528      -279.9651
  36   2.0000     -10.285655      -279.8869
  37   2.0000     -10.282753      -279.8079
  38   2.0000     -10.279571      -279.7214
  39   2.0000     -10.278525      -279.6929
  40   2.0000     -10.277889      -279.6756
  41   2.0000     -10.276481      -279.6373
  42   2.0000     -10.273955      -279.5685
  43   2.0000     -10.273233      -279.5489
  44   2.0000     -10.273117      -279.5457
  45   2.0000     -10.272867      -279.5389
  46   2.0000     -10.272738      -279.5354
  47   2.0000     -10.269315      -279.4423
  48   2.0000     -10.267845      -279.4023
  49   2.0000     -10.266940      -279.3776
  50   2.0000     -10.266774      -279.3731
  51   2.0000     -10.265764      -279.3457
  52   2.0000     -10.265453      -279.3372
  53   2.0000     -10.265044      -279.3261
  54   2.0000     -10.264794      -279.3192
  55   2.0000     -10.264527      -279.3120
  56   2.0000     -10.263987      -279.2973
  57   2.0000     -10.262587      -279.2592
  58   2.0000     -10.262517      -279.2573
  59   2.0000     -10.261463      -279.2286
  60   2.0000     -10.255243      -279.0594
  61   2.0000     -10.254496      -279.0390
  62   2.0000     -10.247136      -278.8387
  63   2.0000     -10.238711      -278.6095
  64   2.0000      -8.047752      -218.9905
  65   2.0000      -8.046844      -218.9658
  66   2.0000      -6.016637      -163.7210
  67   2.0000      -6.015758      -163.6971
  68   2.0000      -6.012714      -163.6143
  69   2.0000      -6.011882      -163.5916
  70   2.0000      -6.010578      -163.5561
  71   2.0000      -6.009617      -163.5300
  72   2.0000      -1.086337       -29.5607
  73   2.0000      -1.076560       -29.2947
  74   2.0000      -1.074958       -29.2511
  75   2.0000      -1.069579       -29.1047
  76   2.0000      -1.068123       -29.0651
  77   2.0000      -1.049831       -28.5674
  78   2.0000      -0.999674       -27.2025
  79   2.0000      -0.997988       -27.1566
  80   2.0000      -0.993180       -27.0258
  81   2.0000      -0.992472       -27.0065
  82   2.0000      -0.985416       -26.8145
  83   2.0000      -0.984675       -26.7944
  84   2.0000      -0.939462       -25.5641
  85   2.0000      -0.937217       -25.5030
  86   2.0000      -0.922557       -25.1041
  87   2.0000      -0.921340       -25.0709
  88   2.0000      -0.903344       -24.5812
  89   2.0000      -0.902709       -24.5640
  90   2.0000      -0.883303       -24.0359
  91   2.0000      -0.878478       -23.9046
  92   2.0000      -0.867081       -23.5945
  93   2.0000      -0.862049       -23.4575
  94   2.0000      -0.856874       -23.3167
  95   2.0000      -0.854910       -23.2633
  96   2.0000      -0.853674       -23.2296
  97   2.0000      -0.843762       -22.9599
  98   2.0000      -0.834287       -22.7021
  99   2.0000      -0.823778       -22.4161
 100   2.0000      -0.819773       -22.3072
 101   2.0000      -0.816218       -22.2104
 102   2.0000      -0.809343       -22.0233
 103   2.0000      -0.798138       -21.7184
 104   2.0000      -0.783155       -21.3107
 105   2.0000      -0.782457       -21.2917
 106   2.0000      -0.776019       -21.1166
 107   2.0000      -0.756504       -20.5855
 108   2.0000      -0.753199       -20.4956
 109   2.0000      -0.750466       -20.4212
 110   2.0000      -0.737752       -20.0753
 111   2.0000      -0.716771       -19.5043
 112   2.0000      -0.716434       -19.4952
 113   2.0000      -0.712247       -19.3812
 114   2.0000      -0.701072       -19.0771
 115   2.0000      -0.696798       -18.9608
 116   2.0000      -0.696343       -18.9485
 117   2.0000      -0.690906       -18.8005
 118   2.0000      -0.689100       -18.7514
 119   2.0000      -0.685775       -18.6609
 120   2.0000      -0.678204       -18.4549
 121   2.0000      -0.674594       -18.3566
 122   2.0000      -0.656229       -17.8569
 123   2.0000      -0.655101       -17.8262
 124   2.0000      -0.650639       -17.7048
 125   2.0000      -0.641834       -17.4652
 126   2.0000      -0.638704       -17.3800
 127   2.0000      -0.637583       -17.3495
 128   2.0000      -0.632625       -17.2146
 129   2.0000      -0.623999       -16.9799
 130   2.0000      -0.618628       -16.8337
 131   2.0000      -0.614904       -16.7324
 132   2.0000      -0.605208       -16.4685
 133   2.0000      -0.600632       -16.3440
 134   2.0000      -0.595778       -16.2120
 135   2.0000      -0.583449       -15.8764
 136   2.0000      -0.582809       -15.8590
 137   2.0000      -0.581342       -15.8191
 138   2.0000      -0.575858       -15.6699
 139   2.0000      -0.568984       -15.4828
 140   2.0000      -0.567878       -15.4527
 141   2.0000      -0.562200       -15.2982
 142   2.0000      -0.559625       -15.2282
 143   2.0000      -0.555730       -15.1222
 144   2.0000      -0.551841       -15.0164
 145   2.0000      -0.547036       -14.8856
 146   2.0000      -0.543068       -14.7776
 147   2.0000      -0.540565       -14.7095
 148   2.0000      -0.537523       -14.6268
 149   2.0000      -0.533137       -14.5074
 150   2.0000      -0.531523       -14.4635
 151   2.0000      -0.530920       -14.4471
 152   2.0000      -0.525877       -14.3098
 153   2.0000      -0.523115       -14.2347
 154   2.0000      -0.521121       -14.1804
 155   2.0000      -0.518882       -14.1195
 156   2.0000      -0.513599       -13.9757
 157   2.0000      -0.508555       -13.8385
 158   2.0000      -0.506133       -13.7726
 159   2.0000      -0.505552       -13.7568
 160   2.0000      -0.504353       -13.7241
 161   2.0000      -0.504079       -13.7167
 162   2.0000      -0.502306       -13.6684
 163   2.0000      -0.501107       -13.6358
 164   2.0000      -0.495994       -13.4967
 165   2.0000      -0.491016       -13.3612
 166   2.0000      -0.490061       -13.3352
 167   2.0000      -0.487983       -13.2787
 168   2.0000      -0.484934       -13.1957
 169   2.0000      -0.480202       -13.0670
 170   2.0000      -0.475608       -12.9420
 171   2.0000      -0.473219       -12.8769
 172   2.0000      -0.471859       -12.8399
 173   2.0000      -0.470535       -12.8039
 174   2.0000      -0.465011       -12.6536
 175   2.0000      -0.464225       -12.6322
 176   2.0000      -0.458199       -12.4682
 177   2.0000      -0.450967       -12.2714
 178   2.0000      -0.448998       -12.2179
 179   2.0000      -0.440521       -11.9872
 180   2.0000      -0.440381       -11.9834
 181   2.0000      -0.438944       -11.9443
 182   2.0000      -0.437083       -11.8936
 183   2.0000      -0.436231       -11.8705
 184   2.0000      -0.425284       -11.5726
 185   2.0000      -0.424055       -11.5391
 186   2.0000      -0.422671       -11.5015
 187   2.0000      -0.418902       -11.3989
 188   2.0000      -0.418009       -11.3746
 189   2.0000      -0.415085       -11.2950
 190   2.0000      -0.413284       -11.2460
 191   2.0000      -0.412950       -11.2369
 192   2.0000      -0.407723       -11.0947
 193   2.0000      -0.404010       -10.9937
 194   2.0000      -0.403112       -10.9692
 195   2.0000      -0.402750       -10.9594
 196   2.0000      -0.400056       -10.8861
 197   2.0000      -0.398266       -10.8374
 198   2.0000      -0.396994       -10.8028
 199   2.0000      -0.377938       -10.2842
 200   2.0000      -0.375154       -10.2084
 201   2.0000      -0.371304       -10.1037
 202   2.0000      -0.367295        -9.9946
 203   2.0000      -0.363559        -9.8929
 204   2.0000      -0.357043        -9.7156
 205   2.0000      -0.346566        -9.4305
 206   2.0000      -0.335663        -9.1339
 207   2.0000      -0.323495        -8.8027
 208   2.0000      -0.322831        -8.7847
 209   2.0000      -0.321260        -8.7419
 210   2.0000      -0.317692        -8.6448
 211   2.0000      -0.316966        -8.6251
 212   2.0000      -0.316508        -8.6126
 213   2.0000      -0.310006        -8.4357
 214   2.0000      -0.307783        -8.3752
 215   2.0000      -0.307545        -8.3687
 216   2.0000      -0.303576        -8.2607
 217   2.0000      -0.288835        -7.8596
 218   2.0000      -0.284615        -7.7448
 219   2.0000      -0.271712        -7.3937
 220   2.0000      -0.248112        -6.7515
 221   2.0000      -0.215550        -5.8654
 222   2.0000      -0.189417        -5.1543
 223   0.0000      -0.087752        -2.3878
 224   0.0000      -0.077988        -2.1222
 225   0.0000      -0.050938        -1.3861
 226   0.0000      -0.035943        -0.9781
 227   0.0000       0.001712         0.0466

MULLIKEN ATOMIC CHARGES
-----------------------
   0 C :   -0.092621
   1 C :    0.041495
   2 C :   -0.057596
   3 N :   -0.017597
   4 C :    0.018592
   5 C :    0.022966
   6 N :   -0.022166
   7 C :    0.136810
   8 C :   -0.048692
   9 C :    0.034675
  10 N :   -0.022004
  11 C :    0.020695
  12 C :    0.031336
  13 N :   -0.028046
  14 C :   -0.127590
  15 C :    0.022772
  16 C :   -0.075800
  17 C :    0.114337
  18 C :    0.108251
  19 C :   -0.032907
  20 C :    0.024851
  21 C :    0.027325
  22 C :   -0.035055
  23 C :   -0.071864
  24 S :    0.115565
  25 C :   -0.023252
  26 C :   -0.006231
  27 C :    0.111441
  28 N :   -0.035003
  29 C :    0.122952
  30 C :   -0.172938
  31 C :    0.079275
  32 N :   -0.038625
  33 C :    0.117721
  34 C :   -0.170694
  35 C :    0.016576
  36 C :    0.015870
  37 C :   -0.121015
  38 C :    0.105966
  39 C :    0.106620
  40 C :   -0.032276
  41 C :    0.025232
  42 C :    0.022247
  43 C :   -0.038218
  44 C :   -0.083502
  45 S :    0.142546
  46 C :    0.023328
  47 C :   -0.121676
  48 C :    0.114511
  49 C :   -0.036140
  50 C :   -0.056409
  51 N :   -0.022649
  52 C :    0.030363
  53 C :    0.021474
  54 N :   -0.018932
  55 C :    0.055000
  56 C :   -0.036346
  57 C :   -0.051130
  58 N :   -0.028059
  59 C :    0.031135
  60 C :    0.024790
  61 N :   -0.021630
  62 C :   -0.071864
  63 C :    0.020172
  64 H :   -0.041870
  65 H :    0.005769
  66 H :    0.010128
  67 H :    0.011158
  68 H :    0.005141
  69 H :   -0.008285
  70 H :    0.001668
  71 H :   -0.033653
  72 H :   -0.019455
  73 H :   -0.017162
  74 H :   -0.026064
  75 H :   -0.018983
  76 H :   -0.024756
  77 H :    0.120353
  78 H :   -0.038005
  79 H :    0.123757
  80 H :   -0.038449
  81 H :   -0.012760
  82 H :   -0.041659
  83 H :   -0.026040
  84 H :   -0.017610
  85 H :   -0.018837
  86 H :   -0.028019
  87 H :    0.001537
  88 H :   -0.012511
  89 H :    0.009834
  90 H :    0.007569
  91 H :    0.006657
  92 H :    0.010061
  93 H :   -0.005772
  94 H :    0.021964
  95 H :    0.005937
Sum of atomic charges:   -0.0000000

LOEWDIN ATOMIC CHARGES
----------------------
   0 C :   -0.023698
   1 C :   -0.012094
   2 C :   -0.014191
   3 N :   -0.032213
   4 C :   -0.003256
   5 C :    0.003854
   6 N :   -0.039953
   7 C :   -0.007249
   8 C :   -0.015317
   9 C :   -0.009869
  10 N :   -0.036855
  11 C :    0.003115
  12 C :    0.000433
  13 N :   -0.027630
  14 C :   -0.046907
  15 C :   -0.015205
  16 C :   -0.177107
  17 C :   -0.035564
  18 C :   -0.049309
  19 C :   -0.014960
  20 C :   -0.030502
  21 C :   -0.025583
  22 C :   -0.014282
  23 C :   -0.160000
  24 S :    0.464533
  25 C :   -0.048701
  26 C :   -0.039090
  27 C :    0.000680
  28 N :    0.070344
  29 C :   -0.022773
  30 C :   -0.089395
  31 C :   -0.001137
  32 N :    0.064849
  33 C :   -0.011460
  34 C :   -0.095029
  35 C :   -0.028097
  36 C :   -0.072654
  37 C :   -0.160703
  38 C :   -0.050662
  39 C :   -0.034267
  40 C :   -0.013674
  41 C :   -0.025980
  42 C :   -0.030442
  43 C :   -0.017740
  44 C :   -0.182380
  45 S :    0.468743
  46 C :   -0.017601
  47 C :   -0.044220
  48 C :   -0.013171
  49 C :   -0.008924
  50 C :   -0.005603
  51 N :   -0.025313
  52 C :    0.007252
  53 C :   -0.001570
  54 N :   -0.029216
  55 C :   -0.029103
  56 C :   -0.002537
  57 C :   -0.012989
  58 N :   -0.025765
  59 C :    0.001535
  60 C :    0.004355
  61 N :   -0.029279
  62 C :   -0.033141
  63 C :   -0.029076
  64 H :    0.038628
  65 H :    0.023602
  66 H :    0.025385
  67 H :    0.025725
  68 H :    0.023381
  69 H :    0.017845
  70 H :    0.028088
  71 H :    0.025203
  72 H :    0.027115
  73 H :    0.027765
  74 H :    0.029169
  75 H :    0.030758
  76 H :    0.019331
  77 H :    0.088949
  78 H :    0.024070
  79 H :    0.086908
  80 H :    0.022377
  81 H :    0.035276
  82 H :    0.017256
  83 H :    0.029263
  84 H :    0.027637
  85 H :    0.027088
  86 H :    0.026362
  87 H :    0.027295
  88 H :    0.018940
  89 H :    0.025180
  90 H :    0.024456
  91 H :    0.023598
  92 H :    0.025664
  93 H :    0.027776
  94 H :    0.015887
  95 H :    0.017772

  Mayer bond orders larger than 0.100000
B(  0-C ,  1-C ) :   1.2399 B(  0-C ,  7-C ) :   0.1328 B(  0-C ,  9-C ) :   1.2379
B(  0-C , 64-H ) :   1.0548 B(  1-C ,  2-C ) :   1.1756 B(  1-C ,  6-N ) :   1.3743
B(  2-C ,  3-N ) :   1.4611 B(  2-C ,  7-C ) :   1.2194 B(  3-N ,  4-C ) :   1.6866
B(  4-C ,  5-C ) :   1.1897 B(  4-C , 65-H ) :   0.9742 B(  5-C ,  6-N ) :   1.7143
B(  5-C , 66-H ) :   0.9732 B(  7-C ,  8-C ) :   1.2068 B(  7-C , 14-C ) :   1.2232
B(  8-C ,  9-C ) :   1.1718 B(  8-C , 13-N ) :   1.4488 B(  9-C , 10-N ) :   1.3771
B( 10-N , 11-C ) :   1.7101 B( 11-C , 12-C ) :   1.1958 B( 11-C , 67-H ) :   0.9738
B( 12-C , 13-N ) :   1.6675 B( 12-C , 68-H ) :   0.9722 B( 13-N , 70-H ) :   0.1000
B( 14-C , 15-C ) :   1.5387 B( 14-C , 69-H ) :   0.9521 B( 15-C , 16-C ) :   1.2168
B( 15-C , 70-H ) :   0.9433 B( 16-C , 17-C ) :   1.2909 B( 16-C , 24-S ) :   1.1072
B( 17-C , 18-C ) :   1.2181 B( 17-C , 22-C ) :   1.2278 B( 18-C , 19-C ) :   1.2244
B( 18-C , 23-C ) :   1.2827 B( 19-C , 20-C ) :   1.5386 B( 19-C , 71-H ) :   0.9909
B( 20-C , 21-C ) :   1.2261 B( 20-C , 72-H ) :   0.9840 B( 21-C , 22-C ) :   1.5345
B( 21-C , 73-H ) :   0.9839 B( 22-C , 74-H ) :   0.9931 B( 23-C , 24-S ) :   1.1374
B( 23-C , 25-C ) :   1.2237 B( 25-C , 26-C ) :   1.5932 B( 25-C , 75-H ) :   0.9718
B( 26-C , 27-C ) :   1.1445 B( 26-C , 76-H ) :   0.9600 B( 27-C , 28-N ) :   1.1704
B( 27-C , 34-C ) :   1.3739 B( 28-N , 29-C ) :   1.1663 B( 28-N , 77-H ) :   0.9371
B( 29-C , 30-C ) :   1.2546 B( 29-C , 33-C ) :   1.2962 B( 30-C , 31-C ) :   1.3388
B( 30-C , 78-H ) :   1.0413 B( 31-C , 32-N ) :   1.1885 B( 31-C , 35-C ) :   1.1936
B( 32-N , 33-C ) :   1.1634 B( 32-N , 79-H ) :   0.9327 B( 33-C , 34-C ) :   1.2821
B( 34-C , 80-H ) :   1.0301 B( 35-C , 36-C ) :   1.5758 B( 35-C , 81-H ) :   0.9534
B( 36-C , 37-C ) :   1.1955 B( 36-C , 82-H ) :   0.9459 B( 37-C , 38-C ) :   1.3050
B( 37-C , 45-S ) :   1.1520 B( 38-C , 39-C ) :   1.2240 B( 38-C , 43-C ) :   1.2137
B( 39-C , 40-C ) :   1.2362 B( 39-C , 44-C ) :   1.2802 B( 40-C , 41-C ) :   1.5286
B( 40-C , 83-H ) :   0.9923 B( 41-C , 42-C ) :   1.2272 B( 41-C , 84-H ) :   0.9860
B( 42-C , 43-C ) :   1.5369 B( 42-C , 85-H ) :   0.9849 B( 43-C , 86-H ) :   0.9889
B( 44-C , 45-S ) :   1.1156 B( 44-C , 46-C ) :   1.2168 B( 46-C , 47-C ) :   1.5284
B( 46-C , 87-H ) :   0.9417 B( 47-C , 48-C ) :   1.2386 B( 47-C , 88-H ) :   0.9537
B( 48-C , 49-C ) :   1.2093 B( 48-C , 55-C ) :   0.1335 B( 48-C , 57-C ) :   1.2048
B( 49-C , 50-C ) :   1.1546 B( 49-C , 54-N ) :   1.4733 B( 50-C , 51-N ) :   1.4469
B( 50-C , 55-C ) :   1.2437 B( 51-N , 52-C ) :   1.6810 B( 52-C , 53-C ) :   1.1974
B( 52-C , 89-H ) :   0.9733 B( 53-C , 54-N ) :   1.6800 B( 53-C , 90-H ) :   0.9747
B( 55-C , 56-C ) :   1.2536 B( 55-C , 62-C ) :   1.1635 B( 56-C , 57-C ) :   1.1522
B( 56-C , 61-N ) :   1.4521 B( 57-C , 58-N ) :   1.4558 B( 58-N , 59-C ) :   1.6611
B( 58-N , 87-H ) :   0.1011 B( 59-C , 60-C ) :   1.1990 B( 59-C , 91-H ) :   0.9726
B( 60-C , 61-N ) :   1.6952 B( 60-C , 92-H ) :   0.9746 B( 62-C , 63-C ) :   1.9002
B( 62-C , 93-H ) :   0.9419 B( 63-C , 94-H ) :   0.9292 B( 63-C , 95-H ) :   0.9418

-----------------------------------------------------------------------------
         ABSORPTION SPECTRUM VIA TRANSITION ELECTRIC DIPOLE MOMENTS
-----------------------------------------------------------------------------
State   Energy  Wavelength   fosc         T2         TX        TY        TZ
        (cm-1)    (nm)                  (au**2)     (au)      (au)      (au)
-----------------------------------------------------------------------------
   0    9610.0   1040.6   2.103782243  72.06986   1.95967   7.77068  -2.80108
   1   12163.0    822.2   0.022817712   0.61760  -0.53609   0.52053   0.24343
   2   17116.9    584.2   0.465814114   8.95909   0.84249   2.58290   1.25616
   3   17421.5    574.0   0.088367217   1.66986  -0.65260  -1.06709  -0.32449
   4   20103.2    497.4   0.049405480   0.80907   0.06433   0.46779  -0.76557
   5   20405.2    490.1   0.095485193   1.54053   0.04828   0.66716  -1.04551
   6   23481.2    425.9   0.007553897   0.10591   0.04491   0.00209  -0.32231
   7   24393.5    409.9   0.044730802   0.60368  -0.26266   0.04849  -0.72961
   8   24671.2    405.3   0.004125330   0.05505  -0.19211   0.05852   0.12132
   9   25526.4    391.8   0.007032610   0.09070  -0.15998   0.00958  -0.25498
  10   25954.0    385.3   0.006091743   0.07727   0.24863  -0.08968  -0.08608
  11   27001.8    370.3   0.141199143   1.72153  -0.16842  -0.37714  -1.24536
  12   27051.9    369.7   0.028734429   0.34969   0.07102   0.21220   0.54737
  13   27278.9    366.6   0.046469731   0.56081   0.10741   0.33065   0.66329
  14   27326.6    365.9   0.000479817   0.00578  -0.07208   0.01588   0.01823
  15   27640.4    361.8   0.031924934   0.38024   0.28574   0.43955   0.32464
  16   27668.6    361.4   0.000587037   0.00698  -0.06348  -0.00866  -0.05366
  17   28198.1    354.6   0.012699071   0.14826   0.20865   0.22254   0.23495
  18   28660.3    348.9   0.004594045   0.05277   0.13138   0.01973   0.18740
  19   28981.1    345.1   0.011697906   0.13288   0.05672   0.33549   0.13081
  20   29437.7    339.7   0.134521251   1.50440  -0.30672  -1.17051  -0.20058
  21   30301.3    330.0   0.074319385   0.80745  -0.27926  -0.39585  -0.75682
  22   31656.7    315.9   0.221614028   2.30466  -0.51305  -1.10151   0.91001
  23   31849.0    314.0   0.014387657   0.14872   0.08366  -0.36373  -0.09706
  24   31956.3    312.9   0.020730213   0.21356  -0.22777  -0.11913   0.38404
  25   32193.0    310.6   0.060668200   0.62040  -0.40270  -0.67492   0.05217
  26   32515.6    307.5   0.116819247   1.18277   0.34388  -0.50643   0.89891
  27   33455.2    298.9   0.020155469   0.19834  -0.14416  -0.40690  -0.10949
  28   33739.6    296.4   0.009832395   0.09594   0.13067  -0.03439  -0.27871
  29   33861.8    295.3   0.427328001   4.15457  -0.05544  -0.85272  -1.85051
  30   34042.7    293.7   0.117300150   1.13436  -0.26951   0.43458  -0.93427
  31   34465.5    290.1   0.193895958   1.85208   0.22053  -0.01854   1.34280
  32   34751.6    287.8   0.289557654   2.74307  -1.05663  -0.81355  -0.98221
  33   34831.8    287.1   0.076187277   0.72008  -0.37790  -0.12034  -0.75019
  34   36045.0    277.4   0.043710868   0.39923  -0.21664   0.29566  -0.51467
  35   36617.4    273.1   0.002616078   0.02352   0.10874   0.07046   0.08205
  36   36764.1    272.0   0.003978465   0.03563   0.09762  -0.02461  -0.15966
  37   37122.5    269.4   0.007813817   0.06929  -0.01750  -0.25829   0.04772
  38   37491.7    266.7   0.023938970   0.21021   0.06026  -0.32784   0.31479
  39   37740.4    265.0   0.025132801   0.21924   0.21566   0.27105   0.31505
  40   38204.4    261.8   0.465779286   4.01368  -0.15817  -1.12192  -1.65226
  41   38247.2    261.5   0.005608974   0.04828  -0.14785   0.08322   0.13962
  42   38474.9    259.9   0.005319629   0.04552   0.08578  -0.19064   0.04259
  43   38633.0    258.8   0.002856266   0.02434  -0.14979   0.01893  -0.03929
  44   38994.8    256.4   0.244377411   2.06314  -0.74811  -0.85464  -0.87924
  45   39320.3    254.3   0.157407928   1.31791   0.40183  -0.03560   1.07479
  46   39332.2    254.2   0.025308259   0.21183   0.01592   0.20513   0.41170
  47   39607.9    252.5   0.105561548   0.87740  -0.42725  -0.48978   0.67452
  48   39779.2    251.4   0.035929994   0.29736  -0.41940  -0.27299  -0.21664
  49   40122.4    249.2   0.043073971   0.35343  -0.05850   0.39236  -0.44279

FINAL SINGLE POINT ENERGY     -3341.147941583738

DIPOLE MOMENT
-------------
                                X             Y             Z
Electronic contribution:     -0.77496     -15.04666       6.19769
Nuclear contribution   :      0.45000      15.02663      -6.06254
                        -----------------------------------------
Total Dipole Moment    :     -0.32496      -0.02003       0.13515
                        -----------------------------------------
Magnitude (a.u.)       :      0.35251
Magnitude (Debye)      :      0.89602

Rotational constants in cm-1:     0.002882     0.000205     0.000193
Rotational constants in MHz :    86.412429     6.134020     5.787298

                             ****ORCA TERMINATED NORMALLY****
TOTAL RUN TIME: 0 days 0 hours 8 minutes 6 seconds 326 msec
