                         Program Version 4.2.0 -  RELEASE  -
|  1> # ORCA input file
|  2> # SCF done       -193.695744126449          0.000191760430
|  3> ! CAM-B3LYP def2-SVP def2/J RIJCOSX Grid4 TightSCF
|  4> %maxcore 5000
|  5> %tddft
|  6>     Mode sTDDFT
|  7>     Ethresh 5.0
|  8>     maxcore 5000
|  9> end
| 10>
| 11> %pal
| 12>   nprocs 6
| 13>   end
| 14> * xyz 0 1
| 15>    C        2.00773        11.54500         2.58667
| 16>    C        1.36569        10.49797         3.23967
| 17>    C        0.79857         9.40144         2.50511
| 18>    N        0.17530         8.41135         3.18139
| 19>    C        0.11228         8.48148         4.48005
| 20>    C        0.67779         9.55888         5.19790
| 21>    N        1.28456        10.53679         4.59462
| 22>    C        0.87918         9.36561         1.08897
| 23>    C        1.53011        10.45217         0.44801
| 24>    C        2.09390        11.53329         1.19922
| 25>    N        2.71735        12.56109         0.56666
| 26>    C        2.77872        12.52258        -0.73079
| 27>    C        2.21793        11.45833        -1.47557
| 28>    N        1.61420        10.45790        -0.90151
| 29>    C        0.32287         8.34459         0.25624
| 30>    C       -0.30205         7.22146         0.67775
| 31>    C       -0.89971         6.26508        -0.18622
| 32>    C       -1.74910         5.23287         0.18365
| 33>    C       -2.10512         4.38435        -0.92039
| 34>    C       -1.46645         4.81151        -2.11816
| 35>    S       -0.52834         6.26159        -1.88951
| 36>    C       -1.58778         4.18517        -3.34686
| 37>    C       -1.06517         4.83689        -4.59670
| 38>    C        0.41219         4.55842        -4.88062
| 39>    C       -2.26149         2.95948        -3.34327
| 40>    C       -2.92495         2.54205        -2.16597
| 41>    C       -2.96188         3.27201        -0.98646
| 42>    C       -3.99989         2.91875         0.03543
| 43>    C       -5.36124         3.44842        -0.42682
| 44>    S       -3.71650         1.00497        -2.41054
| 45>    C       -3.13796         0.93395        -4.03542
| 46>    C       -2.41764         2.01378        -4.40035
| 47>    C       -2.18737         5.17304         1.56911
| 48>    S       -2.88342         6.63257         2.22536
| 49>    C       -3.04705         5.90972         3.77372
| 50>    C       -2.61928         4.62435         3.80159
| 51>    C       -2.64305         3.76982         5.02563
| 52>    C       -2.12289         4.17874         2.53011
| 53>    C       -1.79963         2.79409         2.31525
| 54>    C       -1.12725         2.21920         1.29523
| 55>    C       -1.30540         0.83307         1.02716
| 56>    C       -0.84246         0.17066        -0.05619
| 57>    C       -1.38173        -1.07881        -0.47909
| 58>    C       -0.93570        -1.95507        -1.44486
| 59>    C       -1.86697        -3.01293        -1.72631
| 60>    C       -2.97737        -2.97408        -0.84825
| 61>    S       -2.89594        -1.60687         0.22496
| 62>    C       -4.02296        -3.87784        -0.86398
| 63>    C       -5.18471        -3.73671         0.07309
| 64>    C       -6.28593        -2.88749        -0.56484
| 65>    C       -3.96810        -4.86736        -1.84827
| 66>    C       -2.90710        -4.85923        -2.78427
| 67>    C       -1.86179        -3.94916        -2.77206
| 68>    C       -0.89940        -3.91470        -3.92393
| 69>    C       -1.20162        -2.71669        -4.82703
| 70>    S       -3.11079        -6.13783        -3.96187
| 71>    C       -4.56589        -6.66008        -3.18487
| 72>    C       -4.89860        -5.91800        -2.11092
| 73>    C        0.44030        -1.95799        -1.92848
| 74>    C        1.23032        -3.09171        -1.66096
| 75>    C        2.56857        -3.18736        -2.15684
| 76>    N        3.28666        -4.31200        -1.92113
| 77>    C        2.73627        -5.26442        -1.22807
| 78>    C        1.43118        -5.14304        -0.69634
| 79>    N        0.70392        -4.08735        -0.90770
| 80>    C        3.15890        -2.14122        -2.90142
| 81>    C        2.39227        -0.97188        -3.08648
| 82>    C        1.03715        -0.89526        -2.61678
| 83>    N        0.29266         0.21279        -2.85143
| 84>    C        0.85439         1.21374        -3.45960
| 85>    C        2.20549         1.16508        -3.87096
| 86>    N        2.93875         0.10598        -3.69674
| 87>    C        4.49966        -2.34627        -3.40741
| 88>    C        5.14848        -1.59527        -4.29503
| 89>    H        2.43188        12.35752         3.15278
| 90>    H       -0.39869         7.67062         4.98345
| 91>    H        0.62172         9.60801         6.27751
| 92>    H        3.27802        13.34786        -1.22136
| 93>    H        2.26913        11.43968        -2.55622
| 94>    H        0.41116         8.54023        -0.80542
| 95>    H       -0.36614         7.03465         1.73806
| 96>    H       -1.19366         5.91678        -4.48318
| 97>    H       -1.66443         4.51420        -5.44995
| 98>    H        1.01265         4.74649        -3.99345
| 99>    H        0.76293         5.21183        -5.67597
|100>    H        0.56182         3.52970        -5.19906
|101>    H       -3.77194         3.35320         1.00215
|102>    H       -4.04965         1.83236         0.14006
|103>    H       -5.32708         4.53083        -0.53297
|104>    H       -6.12583         3.19562         0.30347
|105>    H       -5.64042         3.01522        -1.38413
|106>    H       -3.38090         0.07372        -4.62858
|107>    H       -1.98282         2.13247        -5.37679
|108>    H       -3.46133         6.48408         4.57902
|109>    H       -2.93499         4.36022         5.89044
|110>    H       -1.66071         3.33705         5.20862
|111>    H       -3.35771         2.95452         4.91058
|112>    H       -2.27379         2.12467         3.02390
|113>    H       -0.54660         2.80566         0.59865
|114>    H       -1.99246         0.31233         1.68513
|115>    H       -0.12035         0.63516        -0.71055
|116>    H       -4.84519        -3.25216         0.99138
|117>    H       -5.58050        -4.71997         0.33130
|118>    H       -5.90241        -1.89904        -0.80731
|119>    H       -7.12375        -2.77714         0.11940
|120>    H       -6.64224        -3.35350        -1.48095
|121>    H       -1.00871        -4.83498        -4.50251
|122>    H        0.13349        -3.86066        -3.58430
|123>    H       -0.50830        -2.69310        -5.66494
|124>    H       -1.11187        -1.78435        -4.27378
|125>    H       -2.21468        -2.78990        -5.21743
|126>    H       -5.08818        -7.50273        -3.59469
|127>    H       -5.77479        -6.10146        -1.51561
|128>    H        3.33238        -6.15186        -1.06150
|129>    H        0.99568        -5.92080        -0.08360
|130>    H        0.24078         2.08973        -3.60513
|131>    H        2.68276         2.01669        -4.33846
|132>    H        4.96688        -3.23904        -3.01288
|133>    H        4.70860        -0.71656        -4.73030
|134>    H        6.14951        -1.85069        -4.60067
|135> *
|136>
|137>                          ****END OF INPUT****

CARTESIAN COORDINATES (ANGSTROEM)
---------------------------------
  C      2.007730   11.545000    2.586670
  C      1.365690   10.497970    3.239670
  C      0.798570    9.401440    2.505110
  N      0.175300    8.411350    3.181390
  C      0.112280    8.481480    4.480050
  C      0.677790    9.558880    5.197900
  N      1.284560   10.536790    4.594620
  C      0.879180    9.365610    1.088970
  C      1.530110   10.452170    0.448010
  C      2.093900   11.533290    1.199220
  N      2.717350   12.561090    0.566660
  C      2.778720   12.522580   -0.730790
  C      2.217930   11.458330   -1.475570
  N      1.614200   10.457900   -0.901510
  C      0.322870    8.344590    0.256240
  C     -0.302050    7.221460    0.677750
  C     -0.899710    6.265080   -0.186220
  C     -1.749100    5.232870    0.183650
  C     -2.105120    4.384350   -0.920390
  C     -1.466450    4.811510   -2.118160
  S     -0.528340    6.261590   -1.889510
  C     -1.587780    4.185170   -3.346860
  C     -1.065170    4.836890   -4.596700
  C      0.412190    4.558420   -4.880620
  C     -2.261490    2.959480   -3.343270
  C     -2.924950    2.542050   -2.165970
  C     -2.961880    3.272010   -0.986460
  C     -3.999890    2.918750    0.035430
  C     -5.361240    3.448420   -0.426820
  S     -3.716500    1.004970   -2.410540
  C     -3.137960    0.933950   -4.035420
  C     -2.417640    2.013780   -4.400350
  C     -2.187370    5.173040    1.569110
  S     -2.883420    6.632570    2.225360
  C     -3.047050    5.909720    3.773720
  C     -2.619280    4.624350    3.801590
  C     -2.643050    3.769820    5.025630
  C     -2.122890    4.178740    2.530110
  C     -1.799630    2.794090    2.315250
  C     -1.127250    2.219200    1.295230
  C     -1.305400    0.833070    1.027160
  C     -0.842460    0.170660   -0.056190
  C     -1.381730   -1.078810   -0.479090
  C     -0.935700   -1.955070   -1.444860
  C     -1.866970   -3.012930   -1.726310
  C     -2.977370   -2.974080   -0.848250
  S     -2.895940   -1.606870    0.224960
  C     -4.022960   -3.877840   -0.863980
  C     -5.184710   -3.736710    0.073090
  C     -6.285930   -2.887490   -0.564840
  C     -3.968100   -4.867360   -1.848270
  C     -2.907100   -4.859230   -2.784270
  C     -1.861790   -3.949160   -2.772060
  C     -0.899400   -3.914700   -3.923930
  C     -1.201620   -2.716690   -4.827030
  S     -3.110790   -6.137830   -3.961870
  C     -4.565890   -6.660080   -3.184870
  C     -4.898600   -5.918000   -2.110920
  C      0.440300   -1.957990   -1.928480
  C      1.230320   -3.091710   -1.660960
  C      2.568570   -3.187360   -2.156840
  N      3.286660   -4.312000   -1.921130
  C      2.736270   -5.264420   -1.228070
  C      1.431180   -5.143040   -0.696340
  N      0.703920   -4.087350   -0.907700
  C      3.158900   -2.141220   -2.901420
  C      2.392270   -0.971880   -3.086480
  C      1.037150   -0.895260   -2.616780
  N      0.292660    0.212790   -2.851430
  C      0.854390    1.213740   -3.459600
  C      2.205490    1.165080   -3.870960
  N      2.938750    0.105980   -3.696740
  C      4.499660   -2.346270   -3.407410
  C      5.148480   -1.595270   -4.295030
  H      2.431880   12.357520    3.152780
  H     -0.398690    7.670620    4.983450
  H      0.621720    9.608010    6.277510
  H      3.278020   13.347860   -1.221360
  H      2.269130   11.439680   -2.556220
  H      0.411160    8.540230   -0.805420
  H     -0.366140    7.034650    1.738060
  H     -1.193660    5.916780   -4.483180
  H     -1.664430    4.514200   -5.449950
  H      1.012650    4.746490   -3.993450
  H      0.762930    5.211830   -5.675970
  H      0.561820    3.529700   -5.199060
  H     -3.771940    3.353200    1.002150
  H     -4.049650    1.832360    0.140060
  H     -5.327080    4.530830   -0.532970
  H     -6.125830    3.195620    0.303470
  H     -5.640420    3.015220   -1.384130
  H     -3.380900    0.073720   -4.628580
  H     -1.982820    2.132470   -5.376790
  H     -3.461330    6.484080    4.579020
  H     -2.934990    4.360220    5.890440
  H     -1.660710    3.337050    5.208620
  H     -3.357710    2.954520    4.910580
  H     -2.273790    2.124670    3.023900
  H     -0.546600    2.805660    0.598650
  H     -1.992460    0.312330    1.685130
  H     -0.120350    0.635160   -0.710550
  H     -4.845190   -3.252160    0.991380
  H     -5.580500   -4.719970    0.331300
  H     -5.902410   -1.899040   -0.807310
  H     -7.123750   -2.777140    0.119400
  H     -6.642240   -3.353500   -1.480950
  H     -1.008710   -4.834980   -4.502510
  H      0.133490   -3.860660   -3.584300
  H     -0.508300   -2.693100   -5.664940
  H     -1.111870   -1.784350   -4.273780
  H     -2.214680   -2.789900   -5.217430
  H     -5.088180   -7.502730   -3.594690
  H     -5.774790   -6.101460   -1.515610
  H      3.332380   -6.151860   -1.061500
  H      0.995680   -5.920800   -0.083600
  H      0.240780    2.089730   -3.605130
  H      2.682760    2.016690   -4.338460
  H      4.966880   -3.239040   -3.012880
  H      4.708600   -0.716560   -4.730300
  H      6.149510   -1.850690   -4.600670

 Total Charge           Charge          ....    0
 Multiplicity           Mult            ....    1
 Number of Electrons    NEL             ....  548
 Basis Dimension        Dim             .... 1286

ORBITAL ENERGIES
----------------

  NO   OCC          E(Eh)            E(eV)
   0   2.0000     -88.943536     -2420.2767
   1   2.0000     -88.936409     -2420.0827
   2   2.0000     -88.934410     -2420.0283
   3   2.0000     -88.931709     -2419.9548
   4   2.0000     -88.928647     -2419.8715
   5   2.0000     -14.422022      -392.4432
   6   2.0000     -14.421962      -392.4415
   7   2.0000     -14.420329      -392.3971
   8   2.0000     -14.420043      -392.3893
   9   2.0000     -14.419995      -392.3880
  10   2.0000     -14.419869      -392.3846
  11   2.0000     -14.419366      -392.3709
  12   2.0000     -14.416959      -392.3054
  13   2.0000     -10.318245      -280.7737
  14   2.0000     -10.317114      -280.7430
  15   2.0000     -10.317030      -280.7407
  16   2.0000     -10.316941      -280.7382
  17   2.0000     -10.316658      -280.7305
  18   2.0000     -10.315995      -280.7125
  19   2.0000     -10.315387      -280.6960
  20   2.0000     -10.314792      -280.6798
  21   2.0000     -10.313920      -280.6560
  22   2.0000     -10.313724      -280.6507
  23   2.0000     -10.313516      -280.6450
  24   2.0000     -10.313307      -280.6393
  25   2.0000     -10.313054      -280.6325
  26   2.0000     -10.312709      -280.6231
  27   2.0000     -10.312650      -280.6215
  28   2.0000     -10.311602      -280.5930
  29   2.0000     -10.294558      -280.1292
  30   2.0000     -10.293761      -280.1075
  31   2.0000     -10.289991      -280.0049
  32   2.0000     -10.289000      -279.9779
  33   2.0000     -10.286160      -279.9006
  34   2.0000     -10.285319      -279.8778
  35   2.0000     -10.284655      -279.8597
  36   2.0000     -10.284469      -279.8546
  37   2.0000     -10.282608      -279.8040
  38   2.0000     -10.281882      -279.7842
  39   2.0000     -10.280450      -279.7453
  40   2.0000     -10.278569      -279.6941
  41   2.0000     -10.277845      -279.6744
  42   2.0000     -10.276469      -279.6369
  43   2.0000     -10.273378      -279.5528
  44   2.0000     -10.272230      -279.5216
  45   2.0000     -10.271973      -279.5146
  46   2.0000     -10.269842      -279.4566
  47   2.0000     -10.269819      -279.4560
  48   2.0000     -10.269559      -279.4489
  49   2.0000     -10.268405      -279.4175
  50   2.0000     -10.267997      -279.4064
  51   2.0000     -10.267188      -279.3844
  52   2.0000     -10.265449      -279.3371
  53   2.0000     -10.264705      -279.3168
  54   2.0000     -10.264283      -279.3053
  55   2.0000     -10.263326      -279.2793
  56   2.0000     -10.263021      -279.2710
  57   2.0000     -10.262821      -279.2656
  58   2.0000     -10.262568      -279.2587
  59   2.0000     -10.262149      -279.2473
  60   2.0000     -10.261516      -279.2301
  61   2.0000     -10.261239      -279.2225
  62   2.0000     -10.260647      -279.2064
  63   2.0000     -10.260495      -279.2023
  64   2.0000     -10.259798      -279.1833
  65   2.0000     -10.259435      -279.1734
  66   2.0000     -10.258277      -279.1419
  67   2.0000     -10.256628      -279.0970
  68   2.0000     -10.254489      -279.0388
  69   2.0000     -10.251668      -278.9621
  70   2.0000     -10.247575      -278.8507
  71   2.0000     -10.246825      -278.8303
  72   2.0000     -10.245047      -278.7819
  73   2.0000     -10.241866      -278.6953
  74   2.0000      -8.038797      -218.7468
  75   2.0000      -8.032000      -218.5618
  76   2.0000      -8.029688      -218.4989
  77   2.0000      -8.027477      -218.4388
  78   2.0000      -8.024081      -218.3463
  79   2.0000      -6.008110      -163.4890
  80   2.0000      -6.003703      -163.3691
  81   2.0000      -6.001448      -163.3077
  82   2.0000      -6.001168      -163.3001
  83   2.0000      -5.999331      -163.2501
  84   2.0000      -5.997578      -163.2024
  85   2.0000      -5.997087      -163.1890
  86   2.0000      -5.994975      -163.1316
  87   2.0000      -5.993584      -163.0937
  88   2.0000      -5.993465      -163.0905
  89   2.0000      -5.992895      -163.0750
  90   2.0000      -5.991327      -163.0323
  91   2.0000      -5.989681      -162.9875
  92   2.0000      -5.989021      -162.9695
  93   2.0000      -5.985533      -162.8746
  94   2.0000      -1.079626       -29.3781
  95   2.0000      -1.079590       -29.3772
  96   2.0000      -1.072779       -29.1918
  97   2.0000      -1.072155       -29.1748
  98   2.0000      -1.004077       -27.3223
  99   2.0000      -1.002691       -27.2846
 100   2.0000      -0.997262       -27.1369
 101   2.0000      -0.996673       -27.1208
 102   2.0000      -0.992211       -26.9994
 103   2.0000      -0.982567       -26.7370
 104   2.0000      -0.974999       -26.5311
 105   2.0000      -0.959165       -26.1002
 106   2.0000      -0.958528       -26.0829
 107   2.0000      -0.942340       -25.6424
 108   2.0000      -0.941510       -25.6198
 109   2.0000      -0.908734       -24.7279
 110   2.0000      -0.906810       -24.6756
 111   2.0000      -0.898504       -24.4495
 112   2.0000      -0.895854       -24.3774
 113   2.0000      -0.888184       -24.1687
 114   2.0000      -0.876387       -23.8477
 115   2.0000      -0.875162       -23.8144
 116   2.0000      -0.862294       -23.4642
 117   2.0000      -0.859000       -23.3746
 118   2.0000      -0.858664       -23.3654
 119   2.0000      -0.852455       -23.1965
 120   2.0000      -0.843281       -22.9468
 121   2.0000      -0.834802       -22.7161
 122   2.0000      -0.830610       -22.6021
 123   2.0000      -0.829861       -22.5817
 124   2.0000      -0.822219       -22.3737
 125   2.0000      -0.810977       -22.0678
 126   2.0000      -0.810108       -22.0442
 127   2.0000      -0.799767       -21.7628
 128   2.0000      -0.795572       -21.6486
 129   2.0000      -0.788031       -21.4434
 130   2.0000      -0.783830       -21.3291
 131   2.0000      -0.780147       -21.2289
 132   2.0000      -0.770566       -20.9682
 133   2.0000      -0.763122       -20.7656
 134   2.0000      -0.759245       -20.6601
 135   2.0000      -0.756319       -20.5805
 136   2.0000      -0.755012       -20.5449
 137   2.0000      -0.741892       -20.1879
 138   2.0000      -0.728634       -19.8271
 139   2.0000      -0.720874       -19.6160
 140   2.0000      -0.719234       -19.5714
 141   2.0000      -0.719106       -19.5679
 142   2.0000      -0.714850       -19.4521
 143   2.0000      -0.708693       -19.2845
 144   2.0000      -0.697131       -18.9699
 145   2.0000      -0.681580       -18.5467
 146   2.0000      -0.680769       -18.5247
 147   2.0000      -0.679914       -18.5014
 148   2.0000      -0.675748       -18.3880
 149   2.0000      -0.671439       -18.2708
 150   2.0000      -0.670236       -18.2380
 151   2.0000      -0.650902       -17.7119
 152   2.0000      -0.649823       -17.6826
 153   2.0000      -0.646682       -17.5971
 154   2.0000      -0.641243       -17.4491
 155   2.0000      -0.640355       -17.4249
 156   2.0000      -0.628925       -17.1139
 157   2.0000      -0.627708       -17.0808
 158   2.0000      -0.625335       -17.0162
 159   2.0000      -0.617438       -16.8013
 160   2.0000      -0.615367       -16.7450
 161   2.0000      -0.613473       -16.6935
 162   2.0000      -0.611697       -16.6451
 163   2.0000      -0.607908       -16.5420
 164   2.0000      -0.596474       -16.2309
 165   2.0000      -0.590647       -16.0723
 166   2.0000      -0.587229       -15.9793
 167   2.0000      -0.585589       -15.9347
 168   2.0000      -0.584036       -15.8924
 169   2.0000      -0.575021       -15.6471
 170   2.0000      -0.572776       -15.5860
 171   2.0000      -0.568243       -15.4627
 172   2.0000      -0.563921       -15.3451
 173   2.0000      -0.561530       -15.2800
 174   2.0000      -0.556218       -15.1355
 175   2.0000      -0.549416       -14.9504
 176   2.0000      -0.547937       -14.9101
 177   2.0000      -0.539579       -14.6827
 178   2.0000      -0.539426       -14.6785
 179   2.0000      -0.535604       -14.5745
 180   2.0000      -0.529398       -14.4057
 181   2.0000      -0.524306       -14.2671
 182   2.0000      -0.522120       -14.2076
 183   2.0000      -0.519754       -14.1432
 184   2.0000      -0.519129       -14.1262
 185   2.0000      -0.515134       -14.0175
 186   2.0000      -0.513323       -13.9682
 187   2.0000      -0.512830       -13.9548
 188   2.0000      -0.510214       -13.8836
 189   2.0000      -0.508536       -13.8380
 190   2.0000      -0.508340       -13.8326
 191   2.0000      -0.507824       -13.8186
 192   2.0000      -0.507026       -13.7969
 193   2.0000      -0.505620       -13.7586
 194   2.0000      -0.505352       -13.7513
 195   2.0000      -0.503309       -13.6957
 196   2.0000      -0.501963       -13.6591
 197   2.0000      -0.500009       -13.6059
 198   2.0000      -0.494447       -13.4546
 199   2.0000      -0.492825       -13.4104
 200   2.0000      -0.490041       -13.3347
 201   2.0000      -0.485726       -13.2173
 202   2.0000      -0.480091       -13.0640
 203   2.0000      -0.479562       -13.0496
 204   2.0000      -0.476555       -12.9677
 205   2.0000      -0.475420       -12.9368
 206   2.0000      -0.473923       -12.8961
 207   2.0000      -0.469630       -12.7793
 208   2.0000      -0.466257       -12.6875
 209   2.0000      -0.462008       -12.5719
 210   2.0000      -0.460977       -12.5438
 211   2.0000      -0.455353       -12.3908
 212   2.0000      -0.454085       -12.3563
 213   2.0000      -0.452294       -12.3075
 214   2.0000      -0.450298       -12.2532
 215   2.0000      -0.448998       -12.2179
 216   2.0000      -0.446884       -12.1603
 217   2.0000      -0.443817       -12.0769
 218   2.0000      -0.441703       -12.0194
 219   2.0000      -0.439347       -11.9553
 220   2.0000      -0.438982       -11.9453
 221   2.0000      -0.437757       -11.9120
 222   2.0000      -0.434969       -11.8361
 223   2.0000      -0.432866       -11.7789
 224   2.0000      -0.430437       -11.7128
 225   2.0000      -0.428876       -11.6703
 226   2.0000      -0.427947       -11.6450
 227   2.0000      -0.426760       -11.6127
 228   2.0000      -0.425671       -11.5831
 229   2.0000      -0.423124       -11.5138
 230   2.0000      -0.420521       -11.4429
 231   2.0000      -0.419720       -11.4212
 232   2.0000      -0.418515       -11.3884
 233   2.0000      -0.415870       -11.3164
 234   2.0000      -0.411818       -11.2061
 235   2.0000      -0.409561       -11.1447
 236   2.0000      -0.407948       -11.1008
 237   2.0000      -0.407352       -11.0846
 238   2.0000      -0.406426       -11.0594
 239   2.0000      -0.404508       -11.0072
 240   2.0000      -0.404100       -10.9961
 241   2.0000      -0.399218       -10.8633
 242   2.0000      -0.395426       -10.7601
 243   2.0000      -0.394600       -10.7376
 244   2.0000      -0.389606       -10.6017
 245   2.0000      -0.384601       -10.4655
 246   2.0000      -0.381869       -10.3912
 247   2.0000      -0.378580       -10.3017
 248   2.0000      -0.375173       -10.2090
 249   2.0000      -0.374484       -10.1902
 250   2.0000      -0.372425       -10.1342
 251   2.0000      -0.369716       -10.0605
 252   2.0000      -0.361622        -9.8402
 253   2.0000      -0.348402        -9.4805
 254   2.0000      -0.344905        -9.3853
 255   2.0000      -0.340555        -9.2670
 256   2.0000      -0.336841        -9.1659
 257   2.0000      -0.325415        -8.8550
 258   2.0000      -0.324814        -8.8386
 259   2.0000      -0.323111        -8.7923
 260   2.0000      -0.320214        -8.7135
 261   2.0000      -0.317847        -8.6491
 262   2.0000      -0.315124        -8.5749
 263   2.0000      -0.311642        -8.4802
 264   2.0000      -0.309348        -8.4178
 265   2.0000      -0.302547        -8.2327
 266   2.0000      -0.294362        -8.0100
 267   2.0000      -0.286032        -7.7833
 268   2.0000      -0.276839        -7.5332
 269   2.0000      -0.265277        -7.2186
 270   2.0000      -0.255089        -6.9413
 271   2.0000      -0.247810        -6.7433
 272   2.0000      -0.232922        -6.3381
 273   2.0000      -0.223672        -6.0864
 274   0.0000      -0.077998        -2.1224
 275   0.0000      -0.073741        -2.0066
 276   0.0000      -0.038814        -1.0562
 277   0.0000      -0.018919        -0.5148
 278   0.0000      -0.002752        -0.0749

MULLIKEN ATOMIC CHARGES
-----------------------
   0 C :   -0.078319
   1 C :    0.030580
   2 C :   -0.044793
   3 N :   -0.021679
   4 C :    0.030391
   5 C :    0.018431
   6 N :   -0.017784
   7 C :    0.124937
   8 C :   -0.058654
   9 C :    0.036605
  10 N :   -0.017714
  11 C :    0.021431
  12 C :    0.019164
  13 N :   -0.014235
  14 C :   -0.108993
  15 C :    0.018039
  16 C :   -0.088975
  17 C :    0.081942
  18 C :    0.128485
  19 C :   -0.119388
  20 S :    0.085349
  21 C :   -0.111913
  22 C :    0.034123
  23 C :    0.019319
  24 C :    0.087171
  25 C :   -0.154413
  26 C :   -0.146203
  27 C :    0.062515
  28 C :    0.046672
  29 S :    0.111991
  30 C :   -0.024733
  31 C :   -0.019381
  32 C :   -0.338521
  33 S :    0.140974
  34 C :   -0.127944
  35 C :   -0.110582
  36 C :    0.124732
  37 C :    0.231012
  38 C :   -0.098218
  39 C :    0.054300
  40 C :   -0.031485
  41 C :    0.028792
  42 C :   -0.054588
  43 C :    0.016011
  44 C :    0.155099
  45 C :   -0.125512
  46 S :    0.063942
  47 C :   -0.101664
  48 C :    0.037873
  49 C :    0.036496
  50 C :    0.081766
  51 C :   -0.156729
  52 C :   -0.135920
  53 C :    0.072771
  54 C :    0.013631
  55 S :    0.069152
  56 C :   -0.046281
  57 C :   -0.003275
  58 C :    0.006910
  59 C :   -0.108242
  60 C :   -0.040184
  61 N :   -0.015467
  62 C :    0.020124
  63 C :    0.030641
  64 N :    0.025366
  65 C :    0.054396
  66 C :   -0.062499
  67 C :   -0.025086
  68 N :   -0.025227
  69 C :    0.036249
  70 C :    0.033570
  71 N :   -0.011024
  72 C :   -0.072589
  73 C :    0.026975
  74 H :   -0.038222
  75 H :    0.009638
  76 H :    0.013982
  77 H :    0.013607
  78 H :    0.013081
  79 H :   -0.002145
  80 H :    0.046871
  81 H :    0.016946
  82 H :    0.008130
  83 H :    0.017735
  84 H :    0.016890
  85 H :    0.012604
  86 H :    0.020423
  87 H :    0.006681
  88 H :    0.010206
  89 H :    0.010192
  90 H :    0.010795
  91 H :    0.025031
  92 H :   -0.026732
  93 H :    0.004775
  94 H :    0.003550
  95 H :    0.027625
  96 H :    0.030894
  97 H :   -0.018009
  98 H :    0.009817
  99 H :   -0.002646
 100 H :   -0.010121
 101 H :    0.007786
 102 H :    0.002766
 103 H :    0.012649
 104 H :    0.012419
 105 H :    0.009401
 106 H :    0.001401
 107 H :    0.008018
 108 H :    0.009542
 109 H :    0.030844
 110 H :    0.007408
 111 H :    0.019279
 112 H :   -0.024668
 113 H :    0.011855
 114 H :    0.014399
 115 H :    0.002547
 116 H :    0.009623
 117 H :   -0.001941
 118 H :    0.023803
 119 H :    0.011554
Sum of atomic charges:   -0.0000000

LOEWDIN ATOMIC CHARGES
----------------------
   0 C :   -0.010721
   1 C :   -0.011364
   2 C :   -0.010073
   3 N :   -0.021927
   4 C :    0.007085
   5 C :    0.003558
   6 N :   -0.034698
   7 C :   -0.006442
   8 C :   -0.011281
   9 C :   -0.013692
  10 N :   -0.036766
  11 C :    0.005279
  12 C :    0.003074
  13 N :   -0.030721
  14 C :   -0.035339
  15 C :   -0.027811
  16 C :   -0.153113
  17 C :   -0.072628
  18 C :   -0.047676
  19 C :   -0.150110
  20 S :    0.402888
  21 C :   -0.055324
  22 C :   -0.032262
  23 C :   -0.056312
  24 C :   -0.048721
  25 C :   -0.151621
  26 C :   -0.024035
  27 C :   -0.035164
  28 C :   -0.047735
  29 S :    0.419850
  30 C :   -0.151325
  31 C :   -0.075060
  32 C :   -0.162130
  33 S :    0.465192
  34 C :   -0.205493
  35 C :   -0.059540
  36 C :   -0.045959
  37 C :   -0.070635
  38 C :   -0.029898
  39 C :   -0.011175
  40 C :   -0.026706
  41 C :   -0.038953
  42 C :   -0.127289
  43 C :   -0.047656
  44 C :   -0.029462
  45 C :   -0.150447
  46 S :    0.394202
  47 C :   -0.041692
  48 C :   -0.032372
  49 C :   -0.049558
  50 C :   -0.051654
  51 C :   -0.154278
  52 C :   -0.036508
  53 C :   -0.032680
  54 C :   -0.050518
  55 S :    0.381352
  56 C :   -0.167349
  57 C :   -0.066842
  58 C :   -0.013653
  59 C :   -0.013552
  60 C :   -0.010317
  61 N :   -0.031104
  62 C :    0.005939
  63 C :    0.008698
  64 N :   -0.022026
  65 C :   -0.012144
  66 C :   -0.008325
  67 C :   -0.012867
  68 N :   -0.024812
  69 C :    0.008549
  70 C :    0.008276
  71 N :   -0.021962
  72 C :   -0.032530
  73 C :   -0.018097
  74 H :    0.040441
  75 H :    0.024586
  76 H :    0.026439
  77 H :    0.026456
  78 H :    0.026242
  79 H :    0.020920
  80 H :    0.023941
  81 H :    0.025510
  82 H :    0.029144
  83 H :    0.020687
  84 H :    0.027168
  85 H :    0.017624
  86 H :    0.032996
  87 H :    0.020101
  88 H :    0.024155
  89 H :    0.022345
  90 H :    0.017330
  91 H :    0.024640
  92 H :    0.024986
  93 H :    0.017679
  94 H :    0.031317
  95 H :    0.035548
  96 H :    0.034972
  97 H :    0.026175
  98 H :    0.032671
  99 H :    0.016783
 100 H :    0.029845
 101 H :    0.020630
 102 H :    0.025937
 103 H :    0.022762
 104 H :    0.022053
 105 H :    0.023024
 106 H :    0.016665
 107 H :    0.027479
 108 H :    0.022627
 109 H :    0.024402
 110 H :    0.022535
 111 H :    0.021811
 112 H :    0.026313
 113 H :    0.026011
 114 H :    0.027708
 115 H :    0.025005
 116 H :    0.024979
 117 H :    0.029486
 118 H :    0.017669
 119 H :    0.020365

  Mayer bond orders larger than 0.100000
B(  0-C ,  1-C ) :   1.2411 B(  0-C ,  7-C ) :   0.1399 B(  0-C ,  9-C ) :   1.2467
B(  0-C , 74-H ) :   1.0540 B(  1-C ,  2-C ) :   1.1733 B(  1-C ,  6-N ) :   1.3734
B(  2-C ,  3-N ) :   1.4353 B(  2-C ,  7-C ) :   1.2317 B(  3-N ,  4-C ) :   1.6820
B(  4-C ,  5-C ) :   1.1820 B(  4-C , 75-H ) :   0.9709 B(  5-C ,  6-N ) :   1.7186
B(  5-C , 76-H ) :   0.9742 B(  7-C ,  8-C ) :   1.2432 B(  7-C , 14-C ) :   1.1715
B(  8-C ,  9-C ) :   1.1729 B(  8-C , 13-N ) :   1.4494 B(  9-C , 10-N ) :   1.3701
B( 10-N , 11-C ) :   1.7238 B( 11-C , 12-C ) :   1.1771 B( 11-C , 77-H ) :   0.9732
B( 12-C , 13-N ) :   1.7045 B( 12-C , 78-H ) :   0.9746 B( 14-C , 15-C ) :   1.6109
B( 14-C , 79-H ) :   0.9610 B( 15-C , 16-C ) :   1.1366 B( 15-C , 80-H ) :   0.9320
B( 16-C , 17-C ) :   1.5372 B( 16-C , 20-S ) :   1.0562 B( 17-C , 18-C ) :   1.1537
B( 17-C , 32-C ) :   0.9894 B( 18-C , 19-C ) :   1.2669 B( 18-C , 26-C ) :   1.3547
B( 19-C , 20-S ) :   1.0435 B( 19-C , 21-C ) :   1.4437 B( 21-C , 22-C ) :   1.0686
B( 21-C , 24-C ) :   1.3293 B( 22-C , 23-C ) :   1.1153 B( 22-C , 81-H ) :   0.9240
B( 22-C , 82-H ) :   0.9188 B( 23-C , 83-H ) :   0.9663 B( 23-C , 84-H ) :   0.9618
B( 23-C , 85-H ) :   0.9576 B( 24-C , 25-C ) :   1.2946 B( 24-C , 31-C ) :   1.1647
B( 25-C , 26-C ) :   1.4177 B( 25-C , 29-S ) :   1.0681 B( 26-C , 27-C ) :   1.0836
B( 27-C , 28-C ) :   1.1063 B( 27-C , 86-H ) :   0.9048 B( 27-C , 87-H ) :   0.9075
B( 28-C , 88-H ) :   0.9634 B( 28-C , 89-H ) :   0.9664 B( 28-C , 90-H ) :   0.9655
B( 29-S , 30-C ) :   1.1257 B( 30-C , 31-C ) :   1.6370 B( 30-C , 91-H ) :   0.9645
B( 31-C , 92-H ) :   0.9923 B( 32-C , 33-S ) :   1.1809 B( 32-C , 37-C ) :   1.4928
B( 33-S , 34-C ) :   1.1326 B( 34-C , 35-C ) :   1.6003 B( 34-C , 93-H ) :   0.9658
B( 35-C , 36-C ) :   1.0984 B( 35-C , 37-C ) :   1.1933 B( 36-C , 94-H ) :   0.9487
B( 36-C , 95-H ) :   0.9468 B( 36-C , 96-H ) :   0.9369 B( 37-C , 38-C ) :   1.0709
B( 38-C , 39-C ) :   1.6935 B( 38-C , 97-H ) :   0.9631 B( 39-C , 40-C ) :   1.1097
B( 39-C , 98-H ) :   0.9827 B( 40-C , 41-C ) :   1.6479 B( 40-C , 99-H ) :   0.9810
B( 41-C , 42-C ) :   1.1353 B( 41-C ,100-H ) :   0.9682 B( 42-C , 43-C ) :   1.5922
B( 42-C , 46-S ) :   1.0513 B( 43-C , 44-C ) :   1.1540 B( 43-C , 58-C ) :   0.9555
B( 44-C , 45-C ) :   1.2859 B( 44-C , 52-C ) :   1.3512 B( 45-C , 46-S ) :   1.0375
B( 45-C , 47-C ) :   1.4466 B( 47-C , 48-C ) :   1.0736 B( 47-C , 50-C ) :   1.3444
B( 48-C , 49-C ) :   1.1075 B( 48-C ,101-H ) :   0.9201 B( 48-C ,102-H ) :   0.9177
B( 49-C ,103-H ) :   0.9649 B( 49-C ,104-H ) :   0.9676 B( 49-C ,105-H ) :   0.9685
B( 50-C , 51-C ) :   1.2923 B( 50-C , 57-C ) :   1.1699 B( 51-C , 52-C ) :   1.4402
B( 51-C , 55-S ) :   1.0488 B( 52-C , 53-C ) :   1.0829 B( 53-C , 54-C ) :   1.1085
B( 53-C ,106-H ) :   0.9138 B( 53-C ,107-H ) :   0.9029 B( 54-C ,108-H ) :   0.9628
B( 54-C ,109-H ) :   0.9680 B( 54-C ,110-H ) :   0.9608 B( 55-S , 56-C ) :   1.1042
B( 56-C , 57-C ) :   1.6480 B( 56-C ,111-H ) :   0.9672 B( 57-C ,112-H ) :   0.9895
B( 58-C , 59-C ) :   1.3248 B( 58-C , 65-C ) :   0.1471 B( 58-C , 67-C ) :   1.3368
B( 59-C , 60-C ) :   1.1444 B( 59-C , 64-N ) :   1.4692 B( 60-C , 61-N ) :   1.4498
B( 60-C , 65-C ) :   1.2535 B( 61-N , 62-C ) :   1.7131 B( 62-C , 63-C ) :   1.1723
B( 62-C ,113-H ) :   0.9741 B( 63-C , 64-N ) :   1.7013 B( 63-C ,114-H ) :   0.9742
B( 65-C , 66-C ) :   1.2505 B( 65-C , 72-C ) :   1.1543 B( 66-C , 67-C ) :   1.1429
B( 66-C , 71-N ) :   1.4389 B( 67-C , 68-N ) :   1.4008 B( 68-N , 69-C ) :   1.6814
B( 69-C , 70-C ) :   1.1654 B( 69-C ,115-H ) :   0.9628 B( 70-C , 71-N ) :   1.6984
B( 70-C ,116-H ) :   0.9741 B( 72-C , 73-C ) :   1.9090 B( 72-C ,117-H ) :   0.9442
B( 73-C ,118-H ) :   0.9321 B( 73-C ,119-H ) :   0.9433

-----------------------------------------------------------------------------
         ABSORPTION SPECTRUM VIA TRANSITION ELECTRIC DIPOLE MOMENTS
-----------------------------------------------------------------------------
State   Energy  Wavelength   fosc         T2         TX        TY        TZ
        (cm-1)    (nm)                  (au**2)     (au)      (au)      (au)
-----------------------------------------------------------------------------
   0   15308.4    653.2   0.075731150   1.62862  -0.93657   0.57133   0.65195
   1   17702.0    564.9   0.594777398  11.06134  -1.39456  -2.85646  -0.97838
   2   20407.0    490.0   0.024227370   0.39084  -0.55013  -0.16402  -0.24759
   3   20812.2    480.5   0.008059021   0.12748  -0.13258  -0.28861   0.16311
   4   22281.2    448.8   0.002146269   0.03171  -0.06657  -0.14589  -0.07744
   5   23621.4    423.3   0.157367896   2.19324  -1.27405   0.56746   0.49801
   6   23689.6    422.1   0.089974951   1.25037  -0.50470   0.47476   0.87764
   7   24461.6    408.8   0.552201939   7.43171   0.41719   2.59737   0.71506
   8   25280.8    395.6   0.026093896   0.33980   0.28312   0.38098   0.33837
   9   25659.3    389.7   0.010721394   0.13756  -0.15370  -0.12418  -0.31387
  10   26094.2    383.2   0.237955136   3.00211  -0.44149   1.24351   1.12289
  11   26241.2    381.1   0.040244138   0.50489  -0.12244   0.41116   0.56643
  12   26728.4    374.1   0.036767740   0.45287  -0.02621   0.66358   0.10884
  13   26852.5    372.4   0.003094804   0.03794  -0.14393   0.13125   0.00011
  14   27253.9    366.9   0.003179919   0.03841   0.08990   0.09108   0.14844
  15   28796.4    347.3   0.032600991   0.37271   0.21893   0.41242  -0.39331
  16   29207.9    342.4   0.016394956   0.18479  -0.25214  -0.31376  -0.15090
  17   29382.4    340.3   0.079537574   0.89117  -0.08974   0.48574   0.80447
  18   29700.0    336.7   0.084893816   0.94101   0.85198   0.41679  -0.20357
  19   29948.8    333.9   0.019447695   0.21378  -0.17886  -0.41298   0.10601
  20   30504.6    327.8   0.431650220   4.65846  -0.45870  -1.86047  -0.99333
  21   30744.8    325.3   0.044988152   0.48173   0.38444   0.49261  -0.30210
  22   30840.7    324.2   0.006540730   0.06982  -0.00601  -0.26416   0.00224
  23   31201.1    320.5   0.231629007   2.44398   0.70977   1.23440   0.64536
  24   31556.2    316.9   0.401768214   4.19147  -0.80195  -1.67058  -0.87036
  25   31845.1    314.0   0.003188065   0.03296   0.08821   0.15611  -0.02838
  26   32288.9    309.7   0.007606089   0.07755   0.18101  -0.17860  -0.11353
  27   32745.2    305.4   0.167032054   1.67930  -0.06195   1.25436  -0.31942
  28   32891.2    304.0   0.046464043   0.46506   0.26861   0.25381   0.57314
  29   32977.8    303.2   0.034779623   0.34720  -0.31594  -0.33827   0.36463
  30   33547.1    298.1   0.023962745   0.23516   0.24044   0.34407   0.24281
  31   33699.5    296.7   0.021405065   0.20911   0.11313   0.40962   0.16889
  32   34062.4    293.6   0.082894133   0.80117   0.20760   0.47551   0.72936
  33   34631.4    288.8   0.021169806   0.20124  -0.39607  -0.18731   0.09638
  34   35597.8    280.9   0.351598304   3.25162  -0.49179  -1.03932  -1.38909
  35   36062.5    277.3   0.033510378   0.30591  -0.00449  -0.46688  -0.29650
  36   36475.1    274.2   0.117076769   1.05669  -0.07212  -1.01756   0.12674
  37   36533.9    273.7   0.023739485   0.21392  -0.10709   0.16145   0.41998
  38   36686.4    272.6   0.353927414   3.17603   0.52069   0.64114  -1.57919
  39   36830.2    271.5   0.052245792   0.46701   0.09359   0.21123  -0.64314
  40   36962.4    270.5   0.015213624   0.13550  -0.03450  -0.01959  -0.36596
  41   37393.3    267.4   0.151309516   1.33214   0.87019   0.72666  -0.21651
  42   37518.5    266.5   0.036354523   0.31900  -0.35197  -0.38721  -0.21256
  43   37845.4    264.2   0.072365286   0.62949  -0.06249   0.78907   0.05443
  44   37924.7    263.7   0.140467107   1.21935  -1.00334   0.44928   0.10400
  45   38228.1    261.6   0.082377786   0.70942  -0.72827  -0.38704   0.17099
  46   38399.4    260.4   0.017750494   0.15218   0.38869  -0.03298  -0.00381
  47   38633.9    258.8   0.063055168   0.53731   0.41174  -0.06502  -0.60296
  48   38754.5    258.0   0.145839901   1.23888   0.17124   0.82883  -0.72291
  49   39020.0    256.3   0.010674794   0.09006   0.19104   0.01641  -0.23086
  50   39081.0    255.9   0.020532157   0.17296   0.34697   0.00427  -0.22924
  51   39280.2    254.6   0.063140831   0.52919  -0.50087   0.19990   0.48822
  52   39502.2    253.2   0.021722000   0.18103  -0.09721   0.41101  -0.05150
  53   39632.7    252.3   0.029608482   0.24595  -0.22109   0.24192   0.37221
  54   40060.8    249.6   0.018347514   0.15078   0.29670  -0.23362  -0.09038
  55   40194.7    248.8   0.015567669   0.12751   0.14637  -0.29521  -0.13761

FINAL SINGLE POINT ENERGY     -4776.952937901926

DIPOLE MOMENT
-------------
                                X             Y             Z
Electronic contribution:     19.96117      21.37662      11.26317
Nuclear contribution   :    -20.32937     -21.46609     -11.06544
                        -----------------------------------------
Total Dipole Moment    :     -0.36820      -0.08947       0.19772
                        -----------------------------------------
Magnitude (a.u.)       :      0.42740
Magnitude (Debye)      :      1.08636

Rotational constants in cm-1:     0.001582     0.000460     0.000421
Rotational constants in MHz :    47.427855    13.787001    12.615127

                             ****ORCA TERMINATED NORMALLY****
TOTAL RUN TIME: 0 days 0 hours 31 minutes 23 seconds 809 msec
