                         Program Version 4.2.0 -  RELEASE  -
|  1> # ORCA input file
|  2> # SCF done       -162.090961643849          0.000483630860
|  3> ! CAM-B3LYP def2-SVP def2/J RIJCOSX Grid4 TightSCF
|  4> %maxcore 5000
|  5> %tddft
|  6>     Mode sTDDFT
|  7>     Ethresh 5.0
|  8>     maxcore 5000
|  9> end
| 10>
| 11> %pal
| 12>   nprocs 6
| 13>   end
| 14> * xyz 0 1
| 15>    C       -3.77115         0.81570         0.70377
| 16>    C       -2.94645         0.48897        -0.34132
| 17>    C       -2.43388        -0.80270        -0.49361
| 18>    C       -2.73557        -1.81369         0.40484
| 19>    C       -3.59146        -1.49006         1.49713
| 20>    N       -3.90369        -2.44507         2.38510
| 21>    C       -4.68976        -2.13544         3.38183
| 22>    C       -5.20143        -0.83138         3.52729
| 23>    N       -4.91947         0.12356         2.68303
| 24>    C       -4.10943        -0.17335         1.64590
| 25>    C       -2.23147        -3.15211         0.28073
| 26>    C       -1.39680        -3.64582        -0.70496
| 27>    C       -1.10711        -4.99688        -0.52314
| 28>    C       -1.73184        -5.53468         0.61752
| 29>    S       -2.66936        -4.37567         1.45909
| 30>    C       -1.38786        -6.90559         0.71409
| 31>    C       -0.54331        -7.23094        -0.36735
| 32>    C       -0.34093        -6.04083        -1.17963
| 33>    C        0.40281        -5.93203        -2.31904
| 34>    C        1.10472        -7.02262        -2.87312
| 35>    N        1.68252        -7.89894        -3.33541
| 36>    C        0.51340        -4.71528        -3.02258
| 37>    N        0.60502        -3.72562        -3.59574
| 38>    C       -0.15596        -8.56359        -0.36763
| 39>    C       -0.70028        -9.26298         0.70319
| 40>    S       -1.70292        -8.24808         1.72785
| 41>    C       -0.53815       -10.63954         0.99877
| 42>    C       -1.18720       -11.22165         2.11335
| 43>    C       -1.08648       -12.61712         2.41494
| 44>    N       -1.73639       -13.11360         3.48098
| 45>    C       -2.44735       -12.31235         4.22627
| 46>    C       -2.54445       -10.93927         3.93077
| 47>    N       -1.92816       -10.42537         2.90164
| 48>    C       -0.32750       -13.51042         1.62323
| 49>    C        0.34890       -12.93112         0.52622
| 50>    C        0.24412       -11.52098         0.21860
| 51>    N        0.95969       -11.20349        -0.86193
| 52>    S        1.68288       -12.51638        -1.42921
| 53>    N        1.13460       -13.56393        -0.34703
| 54>    C       -0.28979       -14.89422         1.92834
| 55>    C        0.39802       -15.88821         1.24297
| 56>    C        0.18424       -17.14377         1.79550
| 57>    C       -0.67378       -17.10882         2.91326
| 58>    S       -1.20788       -15.52459         3.28570
| 59>    C       -0.83965       -18.43480         3.38082
| 60>    C       -0.09331       -19.30568         2.56693
| 61>    C        0.58030       -18.52249         1.54638
| 62>    C        1.40594       -18.98109         0.56168
| 63>    C        1.71921       -20.34878         0.41439
| 64>    N        1.98350       -21.45674         0.28035
| 65>    C        2.00703       -18.12027        -0.38074
| 66>    N        2.50328       -17.43356        -1.15376
| 67>    C       -0.21290       -20.64361         2.94540
| 68>    C       -1.03969       -20.81110         4.03630
| 69>    S       -1.67914       -19.26652         4.60857
| 70>    C       -1.41776       -22.02625         4.70885
| 71>    C       -2.20946       -21.98403         5.84496
| 72>    C       -2.60404       -23.13669         6.52699
| 73>    C       -2.21723       -24.37526         6.09135
| 74>    C       -1.41348       -24.48024         4.94043
| 75>    N       -1.03918       -25.70647         4.51716
| 76>    C       -0.29720       -25.78165         3.44687
| 77>    C        0.10464       -24.62961         2.74400
| 78>    N       -0.24277       -23.43215         3.13225
| 79>    C       -1.00425       -23.31133         4.23509
| 80>    H       -4.17256         1.80792         0.83125
| 81>    H       -2.68012         1.23974        -1.07030
| 82>    H       -1.78963        -1.00731        -1.33394
| 83>    H       -4.92489        -2.92413         4.08269
| 84>    H       -5.85202        -0.57408         4.35221
| 85>    H       -1.01841        -3.05223        -1.51659
| 86>    H        0.48210        -9.03792        -1.09040
| 87>    H       -2.95204       -12.75255         5.07433
| 88>    H       -3.12736       -10.26289         4.53934
| 89>    H        1.00896       -15.66854         0.38687
| 90>    H        0.26392       -21.47665         2.46341
| 91>    H       -2.53357       -21.02354         6.22020
| 92>    H       -3.22088       -23.03745         7.40760
| 93>    H       -2.50573       -25.28202         6.59803
| 94>    H       -0.00654       -26.77198         3.12312
| 95>    H        0.71656       -24.68709         1.85409
| 96> *
| 97>
| 98>                          ****END OF INPUT****

CARTESIAN COORDINATES (ANGSTROEM)
---------------------------------
  C     -3.771150    0.815700    0.703770
  C     -2.946450    0.488970   -0.341320
  C     -2.433880   -0.802700   -0.493610
  C     -2.735570   -1.813690    0.404840
  C     -3.591460   -1.490060    1.497130
  N     -3.903690   -2.445070    2.385100
  C     -4.689760   -2.135440    3.381830
  C     -5.201430   -0.831380    3.527290
  N     -4.919470    0.123560    2.683030
  C     -4.109430   -0.173350    1.645900
  C     -2.231470   -3.152110    0.280730
  C     -1.396800   -3.645820   -0.704960
  C     -1.107110   -4.996880   -0.523140
  C     -1.731840   -5.534680    0.617520
  S     -2.669360   -4.375670    1.459090
  C     -1.387860   -6.905590    0.714090
  C     -0.543310   -7.230940   -0.367350
  C     -0.340930   -6.040830   -1.179630
  C      0.402810   -5.932030   -2.319040
  C      1.104720   -7.022620   -2.873120
  N      1.682520   -7.898940   -3.335410
  C      0.513400   -4.715280   -3.022580
  N      0.605020   -3.725620   -3.595740
  C     -0.155960   -8.563590   -0.367630
  C     -0.700280   -9.262980    0.703190
  S     -1.702920   -8.248080    1.727850
  C     -0.538150  -10.639540    0.998770
  C     -1.187200  -11.221650    2.113350
  C     -1.086480  -12.617120    2.414940
  N     -1.736390  -13.113600    3.480980
  C     -2.447350  -12.312350    4.226270
  C     -2.544450  -10.939270    3.930770
  N     -1.928160  -10.425370    2.901640
  C     -0.327500  -13.510420    1.623230
  C      0.348900  -12.931120    0.526220
  C      0.244120  -11.520980    0.218600
  N      0.959690  -11.203490   -0.861930
  S      1.682880  -12.516380   -1.429210
  N      1.134600  -13.563930   -0.347030
  C     -0.289790  -14.894220    1.928340
  C      0.398020  -15.888210    1.242970
  C      0.184240  -17.143770    1.795500
  C     -0.673780  -17.108820    2.913260
  S     -1.207880  -15.524590    3.285700
  C     -0.839650  -18.434800    3.380820
  C     -0.093310  -19.305680    2.566930
  C      0.580300  -18.522490    1.546380
  C      1.405940  -18.981090    0.561680
  C      1.719210  -20.348780    0.414390
  N      1.983500  -21.456740    0.280350
  C      2.007030  -18.120270   -0.380740
  N      2.503280  -17.433560   -1.153760
  C     -0.212900  -20.643610    2.945400
  C     -1.039690  -20.811100    4.036300
  S     -1.679140  -19.266520    4.608570
  C     -1.417760  -22.026250    4.708850
  C     -2.209460  -21.984030    5.844960
  C     -2.604040  -23.136690    6.526990
  C     -2.217230  -24.375260    6.091350
  C     -1.413480  -24.480240    4.940430
  N     -1.039180  -25.706470    4.517160
  C     -0.297200  -25.781650    3.446870
  C      0.104640  -24.629610    2.744000
  N     -0.242770  -23.432150    3.132250
  C     -1.004250  -23.311330    4.235090
  H     -4.172560    1.807920    0.831250
  H     -2.680120    1.239740   -1.070300
  H     -1.789630   -1.007310   -1.333940
  H     -4.924890   -2.924130    4.082690
  H     -5.852020   -0.574080    4.352210
  H     -1.018410   -3.052230   -1.516590
  H      0.482100   -9.037920   -1.090400
  H     -2.952040  -12.752550    5.074330
  H     -3.127360  -10.262890    4.539340
  H      1.008960  -15.668540    0.386870
  H      0.263920  -21.476650    2.463410
  H     -2.533570  -21.023540    6.220200
  H     -3.220880  -23.037450    7.407600
  H     -2.505730  -25.282020    6.598030
  H     -0.006540  -26.771980    3.123120
  H      0.716560  -24.687090    1.854090

 Total Charge           Charge          ....    0
 Multiplicity           Mult            ....    1
 Number of Electrons    NEL             ....  468
 Basis Dimension        Dim             .... 1010

ORBITAL ENERGIES
----------------

  NO   OCC          E(Eh)            E(eV)
   0   2.0000     -89.035731     -2422.7854
   1   2.0000     -88.974501     -2421.1193
   2   2.0000     -88.970344     -2421.0061
   3   2.0000     -88.969473     -2420.9824
   4   2.0000     -88.969153     -2420.9737
   5   2.0000     -14.446398      -393.1065
   6   2.0000     -14.446253      -393.1025
   7   2.0000     -14.444199      -393.0466
   8   2.0000     -14.443911      -393.0388
   9   2.0000     -14.437662      -392.8687
  10   2.0000     -14.430242      -392.6668
  11   2.0000     -14.422213      -392.4484
  12   2.0000     -14.420780      -392.4094
  13   2.0000     -14.417680      -392.3250
  14   2.0000     -14.416570      -392.2948
  15   2.0000     -14.415953      -392.2780
  16   2.0000     -14.415361      -392.2619
  17   2.0000     -10.348680      -281.6019
  18   2.0000     -10.347402      -281.5671
  19   2.0000     -10.340393      -281.3764
  20   2.0000     -10.339925      -281.3637
  21   2.0000     -10.336540      -281.2716
  22   2.0000     -10.336490      -281.2702
  23   2.0000     -10.334314      -281.2110
  24   2.0000     -10.334059      -281.2040
  25   2.0000     -10.332824      -281.1704
  26   2.0000     -10.332519      -281.1621
  27   2.0000     -10.330180      -281.0985
  28   2.0000     -10.325089      -280.9599
  29   2.0000     -10.323605      -280.9196
  30   2.0000     -10.321473      -280.8615
  31   2.0000     -10.319061      -280.7959
  32   2.0000     -10.318245      -280.7737
  33   2.0000     -10.317494      -280.7533
  34   2.0000     -10.317400      -280.7507
  35   2.0000     -10.316763      -280.7334
  36   2.0000     -10.316325      -280.7215
  37   2.0000     -10.315990      -280.7124
  38   2.0000     -10.314978      -280.6848
  39   2.0000     -10.313804      -280.6529
  40   2.0000     -10.309204      -280.5277
  41   2.0000     -10.309058      -280.5237
  42   2.0000     -10.308610      -280.5115
  43   2.0000     -10.308564      -280.5103
  44   2.0000     -10.308390      -280.5056
  45   2.0000     -10.308325      -280.5038
  46   2.0000     -10.307985      -280.4945
  47   2.0000     -10.307421      -280.4792
  48   2.0000     -10.304981      -280.4128
  49   2.0000     -10.301833      -280.3271
  50   2.0000     -10.298911      -280.2476
  51   2.0000     -10.289119      -279.9812
  52   2.0000     -10.288504      -279.9644
  53   2.0000     -10.287254      -279.9304
  54   2.0000     -10.285716      -279.8886
  55   2.0000     -10.285563      -279.8844
  56   2.0000     -10.284817      -279.8641
  57   2.0000     -10.284226      -279.8480
  58   2.0000     -10.283904      -279.8392
  59   2.0000     -10.283046      -279.8159
  60   2.0000     -10.282048      -279.7888
  61   2.0000     -10.282034      -279.7884
  62   2.0000     -10.281674      -279.7786
  63   2.0000     -10.276739      -279.6443
  64   2.0000     -10.276716      -279.6437
  65   2.0000      -8.126849      -221.1428
  66   2.0000      -8.068960      -219.5676
  67   2.0000      -8.062553      -219.3932
  68   2.0000      -8.061631      -219.3681
  69   2.0000      -8.061491      -219.3643
  70   2.0000      -6.097933      -165.9332
  71   2.0000      -6.090012      -165.7176
  72   2.0000      -6.089747      -165.7104
  73   2.0000      -6.038164      -164.3068
  74   2.0000      -6.034013      -164.1938
  75   2.0000      -6.032166      -164.1436
  76   2.0000      -6.031464      -164.1245
  77   2.0000      -6.031148      -164.1159
  78   2.0000      -6.031079      -164.1140
  79   2.0000      -6.027301      -164.0112
  80   2.0000      -6.026317      -163.9844
  81   2.0000      -6.026209      -163.9815
  82   2.0000      -6.025067      -163.9504
  83   2.0000      -6.024269      -163.9287
  84   2.0000      -6.024050      -163.9227
  85   2.0000      -1.132825       -30.8257
  86   2.0000      -1.103165       -30.0186
  87   2.0000      -1.090633       -29.6776
  88   2.0000      -1.078019       -29.3344
  89   2.0000      -1.032464       -28.0948
  90   2.0000      -1.026809       -27.9409
  91   2.0000      -1.024464       -27.8771
  92   2.0000      -1.014330       -27.6013
  93   2.0000      -1.007429       -27.4135
  94   2.0000      -1.006548       -27.3896
  95   2.0000      -1.000938       -27.2369
  96   2.0000      -0.994235       -27.0545
  97   2.0000      -0.993701       -27.0400
  98   2.0000      -0.989255       -26.9190
  99   2.0000      -0.984742       -26.7962
 100   2.0000      -0.976833       -26.5810
 101   2.0000      -0.966118       -26.2894
 102   2.0000      -0.956152       -26.0182
 103   2.0000      -0.950764       -25.8716
 104   2.0000      -0.939081       -25.5537
 105   2.0000      -0.936622       -25.4868
 106   2.0000      -0.903610       -24.5885
 107   2.0000      -0.895496       -24.3677
 108   2.0000      -0.881210       -23.9789
 109   2.0000      -0.874579       -23.7985
 110   2.0000      -0.865236       -23.5443
 111   2.0000      -0.860933       -23.4272
 112   2.0000      -0.859275       -23.3821
 113   2.0000      -0.855903       -23.2903
 114   2.0000      -0.845788       -23.0150
 115   2.0000      -0.838708       -22.8224
 116   2.0000      -0.835324       -22.7303
 117   2.0000      -0.834798       -22.7160
 118   2.0000      -0.807737       -21.9796
 119   2.0000      -0.789446       -21.4819
 120   2.0000      -0.777064       -21.1450
 121   2.0000      -0.766623       -20.8609
 122   2.0000      -0.764669       -20.8077
 123   2.0000      -0.762979       -20.7617
 124   2.0000      -0.756806       -20.5937
 125   2.0000      -0.753202       -20.4957
 126   2.0000      -0.747932       -20.3523
 127   2.0000      -0.739975       -20.1358
 128   2.0000      -0.736699       -20.0466
 129   2.0000      -0.715037       -19.4571
 130   2.0000      -0.712320       -19.3832
 131   2.0000      -0.698318       -19.0022
 132   2.0000      -0.689274       -18.7561
 133   2.0000      -0.677248       -18.4289
 134   2.0000      -0.673313       -18.3218
 135   2.0000      -0.669669       -18.2226
 136   2.0000      -0.661611       -18.0034
 137   2.0000      -0.655571       -17.8390
 138   2.0000      -0.652058       -17.7434
 139   2.0000      -0.641208       -17.4482
 140   2.0000      -0.635947       -17.3050
 141   2.0000      -0.634816       -17.2742
 142   2.0000      -0.631420       -17.1818
 143   2.0000      -0.629122       -17.1193
 144   2.0000      -0.625292       -17.0151
 145   2.0000      -0.617447       -16.8016
 146   2.0000      -0.610838       -16.6218
 147   2.0000      -0.605159       -16.4672
 148   2.0000      -0.600596       -16.3431
 149   2.0000      -0.597942       -16.2708
 150   2.0000      -0.596122       -16.2213
 151   2.0000      -0.592406       -16.1202
 152   2.0000      -0.584153       -15.8956
 153   2.0000      -0.570223       -15.5166
 154   2.0000      -0.565662       -15.3924
 155   2.0000      -0.563237       -15.3265
 156   2.0000      -0.562207       -15.2984
 157   2.0000      -0.552705       -15.0399
 158   2.0000      -0.548921       -14.9369
 159   2.0000      -0.542347       -14.7580
 160   2.0000      -0.540719       -14.7137
 161   2.0000      -0.537470       -14.6253
 162   2.0000      -0.537082       -14.6147
 163   2.0000      -0.532748       -14.4968
 164   2.0000      -0.530754       -14.4426
 165   2.0000      -0.528155       -14.3718
 166   2.0000      -0.526056       -14.3147
 167   2.0000      -0.525218       -14.2919
 168   2.0000      -0.522469       -14.2171
 169   2.0000      -0.519072       -14.1247
 170   2.0000      -0.511092       -13.9075
 171   2.0000      -0.505089       -13.7442
 172   2.0000      -0.503096       -13.6899
 173   2.0000      -0.498872       -13.5750
 174   2.0000      -0.492150       -13.3921
 175   2.0000      -0.489360       -13.3162
 176   2.0000      -0.482449       -13.1281
 177   2.0000      -0.482056       -13.1174
 178   2.0000      -0.481727       -13.1085
 179   2.0000      -0.477133       -12.9834
 180   2.0000      -0.475952       -12.9513
 181   2.0000      -0.473660       -12.8889
 182   2.0000      -0.472593       -12.8599
 183   2.0000      -0.466231       -12.6868
 184   2.0000      -0.462422       -12.5831
 185   2.0000      -0.461516       -12.5585
 186   2.0000      -0.458707       -12.4821
 187   2.0000      -0.454261       -12.3611
 188   2.0000      -0.452374       -12.3097
 189   2.0000      -0.449399       -12.2288
 190   2.0000      -0.449209       -12.2236
 191   2.0000      -0.448202       -12.1962
 192   2.0000      -0.446271       -12.1436
 193   2.0000      -0.445969       -12.1354
 194   2.0000      -0.445549       -12.1240
 195   2.0000      -0.442746       -12.0477
 196   2.0000      -0.438867       -11.9422
 197   2.0000      -0.437971       -11.9178
 198   2.0000      -0.434358       -11.8195
 199   2.0000      -0.432333       -11.7644
 200   2.0000      -0.428574       -11.6621
 201   2.0000      -0.426720       -11.6116
 202   2.0000      -0.425772       -11.5859
 203   2.0000      -0.424646       -11.5552
 204   2.0000      -0.424536       -11.5522
 205   2.0000      -0.422623       -11.5001
 206   2.0000      -0.421137       -11.4597
 207   2.0000      -0.414438       -11.2774
 208   2.0000      -0.414343       -11.2749
 209   2.0000      -0.412737       -11.2311
 210   2.0000      -0.400040       -10.8856
 211   2.0000      -0.393155       -10.6983
 212   2.0000      -0.391348       -10.6491
 213   2.0000      -0.379700       -10.3322
 214   2.0000      -0.378778       -10.3071
 215   2.0000      -0.370559       -10.0834
 216   2.0000      -0.369091       -10.0435
 217   2.0000      -0.368046       -10.0151
 218   2.0000      -0.363189        -9.8829
 219   2.0000      -0.345166        -9.3924
 220   2.0000      -0.337916        -9.1952
 221   2.0000      -0.335888        -9.1400
 222   2.0000      -0.332183        -9.0392
 223   2.0000      -0.330090        -8.9822
 224   2.0000      -0.328192        -8.9306
 225   2.0000      -0.327045        -8.8993
 226   2.0000      -0.323312        -8.7978
 227   2.0000      -0.318234        -8.6596
 228   2.0000      -0.317312        -8.6345
 229   2.0000      -0.306513        -8.3406
 230   2.0000      -0.305189        -8.3046
 231   2.0000      -0.286908        -7.8072
 232   2.0000      -0.256903        -6.9907
 233   2.0000      -0.222311        -6.0494
 234   0.0000      -0.114423        -3.1136
 235   0.0000      -0.087869        -2.3911
 236   0.0000      -0.082579        -2.2471
 237   0.0000      -0.056901        -1.5483
 238   0.0000      -0.049136        -1.3371

MULLIKEN ATOMIC CHARGES
-----------------------
   0 C :   -0.002054
   1 C :    0.056686
   2 C :   -0.062836
   3 C :    0.144100
   4 C :   -0.024057
   5 N :   -0.084751
   6 C :    0.046543
   7 C :    0.017969
   8 N :   -0.012181
   9 C :   -0.009809
  10 C :   -0.085289
  11 C :   -0.060207
  12 C :    0.017811
  13 C :   -0.081161
  14 S :    0.196169
  15 C :   -0.070687
  16 C :    0.029608
  17 C :    0.312979
  18 C :   -0.312158
  19 C :   -0.188701
  20 N :    0.169734
  21 C :   -0.188976
  22 N :    0.155712
  23 C :   -0.065108
  24 C :   -0.181336
  25 S :    0.186778
  26 C :    0.181881
  27 C :   -0.056487
  28 C :   -0.053924
  29 N :   -0.079468
  30 C :    0.043721
  31 C :    0.041739
  32 N :   -0.073070
  33 C :    0.178424
  34 C :   -0.011362
  35 C :   -0.014800
  36 N :   -0.283963
  37 S :    0.569522
  38 N :   -0.286371
  39 C :   -0.177945
  40 C :   -0.071416
  41 C :    0.035674
  42 C :   -0.064894
  43 S :    0.186858
  44 C :   -0.093480
  45 C :    0.026351
  46 C :    0.314666
  47 C :   -0.315567
  48 C :   -0.186301
  49 N :    0.165706
  50 C :   -0.191506
  51 N :    0.169977
  52 C :   -0.047576
  53 C :   -0.121774
  54 S :    0.143080
  55 C :    0.164095
  56 C :   -0.077032
  57 C :    0.044206
  58 C :    0.004807
  59 C :   -0.026794
  60 N :   -0.017647
  61 C :    0.021320
  62 C :    0.038991
  63 N :   -0.031047
  64 C :   -0.032580
  65 H :   -0.022458
  66 H :   -0.001379
  67 H :   -0.010631
  68 H :    0.011738
  69 H :    0.016072
  70 H :   -0.001536
  71 H :    0.017136
  72 H :    0.017954
  73 H :    0.018062
  74 H :    0.017600
  75 H :    0.018343
  76 H :   -0.008658
  77 H :   -0.006716
  78 H :   -0.023557
  79 H :    0.013758
  80 H :    0.023482
Sum of atomic charges:   -0.0000000

LOEWDIN ATOMIC CHARGES
----------------------
   0 C :   -0.017119
   1 C :   -0.006761
   2 C :   -0.006032
   3 C :   -0.031697
   4 C :   -0.012545
   5 N :   -0.056627
   6 C :    0.012018
   7 C :    0.003312
   8 N :   -0.032168
   9 C :   -0.008436
  10 C :   -0.165645
  11 C :   -0.026557
  12 C :   -0.074299
  13 C :   -0.190366
  14 S :    0.508837
  15 C :   -0.180196
  16 C :   -0.078501
  17 C :    0.085954
  18 C :   -0.114308
  19 C :   -0.017477
  20 N :   -0.039914
  21 C :   -0.014415
  22 N :   -0.047272
  23 C :   -0.012483
  24 C :   -0.168083
  25 S :    0.500149
  26 C :   -0.043174
  27 C :   -0.020026
  28 C :   -0.018749
  29 N :   -0.046785
  30 C :    0.016881
  31 C :    0.015327
  32 N :   -0.045233
  33 C :   -0.046704
  34 C :   -0.039371
  35 C :   -0.040244
  36 N :   -0.275565
  37 S :    0.691110
  38 N :   -0.276982
  39 C :   -0.165945
  40 C :   -0.014221
  41 C :   -0.075976
  42 C :   -0.185693
  43 S :    0.499407
  44 C :   -0.176865
  45 C :   -0.073727
  46 C :    0.084450
  47 C :   -0.108495
  48 C :   -0.014698
  49 N :   -0.041460
  50 C :   -0.016784
  51 N :   -0.038703
  52 C :   -0.020402
  53 C :   -0.158010
  54 S :    0.462900
  55 C :   -0.032391
  56 C :   -0.026161
  57 C :   -0.013696
  58 C :   -0.014787
  59 C :   -0.009358
  60 N :   -0.036668
  61 C :    0.003473
  62 C :    0.012529
  63 N :   -0.028653
  64 C :   -0.003998
  65 H :    0.036236
  66 H :    0.035914
  67 H :    0.034722
  68 H :    0.027235
  69 H :    0.027530
  70 H :    0.035843
  71 H :    0.037038
  72 H :    0.029677
  73 H :    0.029569
  74 H :    0.037184
  75 H :    0.036353
  76 H :    0.019925
  77 H :    0.033462
  78 H :    0.035405
  79 H :    0.026780
  80 H :    0.031204

  Mayer bond orders larger than 0.100000
B(  0-C ,  1-C ) :   1.4275 B(  0-C ,  9-C ) :   1.2585 B(  0-C , 65-H ) :   1.0117
B(  1-C ,  2-C ) :   1.2555 B(  1-C , 66-H ) :   0.9846 B(  2-C ,  3-C ) :   1.4491
B(  2-C , 67-H ) :   0.9993 B(  3-C ,  4-C ) :   1.1942 B(  3-C , 10-C ) :   1.0843
B(  4-C ,  5-N ) :   1.4087 B(  4-C ,  9-C ) :   1.2357 B(  5-N ,  6-C ) :   1.6216
B(  6-C ,  7-C ) :   1.2391 B(  6-C , 68-H ) :   0.9729 B(  7-C ,  8-N ) :   1.6695
B(  7-C , 69-H ) :   0.9755 B(  8-N ,  9-C ) :   1.4276 B( 10-C , 11-C ) :   1.4635
B( 10-C , 14-S ) :   1.1092 B( 11-C , 12-C ) :   1.2945 B( 11-C , 70-H ) :   0.9883
B( 12-C , 13-C ) :   1.4205 B( 12-C , 17-C ) :   0.9961 B( 13-C , 14-S ) :   1.0713
B( 13-C , 15-C ) :   1.1945 B( 15-C , 16-C ) :   1.4085 B( 15-C , 25-S ) :   1.0763
B( 16-C , 17-C ) :   0.9883 B( 16-C , 23-C ) :   1.2724 B( 17-C , 18-C ) :   1.6966
B( 18-C , 19-C ) :   1.1368 B( 18-C , 21-C ) :   1.1372 B( 19-C , 20-N ) :   2.9901
B( 21-C , 22-N ) :   2.9855 B( 23-C , 24-C ) :   1.4155 B( 23-C , 71-H ) :   0.9838
B( 24-C , 25-S ) :   1.0852 B( 24-C , 26-C ) :   1.2020 B( 26-C , 27-C ) :   1.2697
B( 26-C , 33-C ) :   0.1330 B( 26-C , 35-C ) :   1.2007 B( 27-C , 28-C ) :   1.1276
B( 27-C , 32-N ) :   1.4039 B( 28-C , 29-N ) :   1.4000 B( 28-C , 33-C ) :   1.2723
B( 29-N , 30-C ) :   1.6528 B( 30-C , 31-C ) :   1.2040 B( 30-C , 72-H ) :   0.9744
B( 31-C , 32-N ) :   1.6537 B( 31-C , 73-H ) :   0.9745 B( 33-C , 34-C ) :   1.2019
B( 33-C , 39-C ) :   1.1990 B( 34-C , 35-C ) :   1.0961 B( 34-C , 38-N ) :   1.5113
B( 35-C , 36-N ) :   1.5120 B( 36-N , 37-S ) :   1.2841 B( 36-N , 38-N ) :   0.1514
B( 37-S , 38-N ) :   1.2819 B( 39-C , 40-C ) :   1.4181 B( 39-C , 43-S ) :   1.0869
B( 40-C , 41-C ) :   1.2725 B( 40-C , 74-H ) :   0.9846 B( 41-C , 42-C ) :   1.4117
B( 41-C , 46-C ) :   0.9853 B( 42-C , 43-S ) :   1.0714 B( 42-C , 44-C ) :   1.1897
B( 44-C , 45-C ) :   1.4321 B( 44-C , 54-S ) :   1.1238 B( 45-C , 46-C ) :   1.0000
B( 45-C , 52-C ) :   1.2178 B( 46-C , 47-C ) :   1.7028 B( 47-C , 48-C ) :   1.1365
B( 47-C , 50-C ) :   1.1399 B( 48-C , 49-N ) :   2.9912 B( 50-C , 51-N ) :   2.9890
B( 52-C , 53-C ) :   1.4953 B( 52-C , 75-H ) :   0.9794 B( 53-C , 54-S ) :   1.0862
B( 53-C , 55-C ) :   1.0962 B( 55-C , 56-C ) :   1.4404 B( 55-C , 58-C ) :   0.1064
B( 55-C , 64-C ) :   1.2044 B( 56-C , 57-C ) :   1.2639 B( 56-C , 76-H ) :   0.9875
B( 57-C , 58-C ) :   1.4323 B( 57-C , 77-H ) :   0.9863 B( 58-C , 59-C ) :   1.2573
B( 58-C , 78-H ) :   1.0103 B( 59-C , 60-N ) :   1.4234 B( 59-C , 64-C ) :   1.2362
B( 60-N , 61-C ) :   1.6721 B( 61-C , 62-C ) :   1.2264 B( 61-C , 79-H ) :   0.9757
B( 62-C , 63-N ) :   1.6383 B( 62-C , 80-H ) :   0.9747 B( 63-N , 64-C ) :   1.4665

-----------------------------------------------------------------------------
         ABSORPTION SPECTRUM VIA TRANSITION ELECTRIC DIPOLE MOMENTS
-----------------------------------------------------------------------------
State   Energy  Wavelength   fosc         T2         TX        TY        TZ
        (cm-1)    (nm)                  (au**2)     (au)      (au)      (au)
-----------------------------------------------------------------------------
   0    8481.1   1179.1   0.745759322  28.94836  -0.43064   5.26268  -1.03301
   1   12355.3    809.4   0.005855226   0.15601  -0.31927   0.09562   0.21199
   2   13173.8    759.1   0.004234456   0.10582  -0.02760  -0.29694   0.12993
   3   17226.7    580.5   0.008522980   0.16288   0.35935  -0.04575  -0.17792
   4   21945.1    455.7   0.163812759   2.45746   0.35072  -1.52676   0.05892
   5   22457.6    445.3   0.310152265   4.54661  -0.78740   1.96354   0.26668
   6   23539.8    424.8   0.335921242   4.69797   0.04467  -2.12991   0.39933
   7   24100.8    414.9   0.001211305   0.01655   0.11034   0.04784   0.04564
   8   24438.2    409.2   0.363983057   4.90328  -0.37240  -1.98649   0.90469
   9   24839.1    402.6   0.053120393   0.70405   0.38007   0.56085  -0.49502
  10   25795.8    387.7   0.002994531   0.03822   0.03250   0.18673  -0.04790
  11   26208.1    381.6   0.026606279   0.33421  -0.32691   0.18988   0.43737
  12   26439.5    378.2   0.006373938   0.07937   0.14795  -0.14614  -0.19005
  13   29059.7    344.1   0.002277415   0.02580  -0.12801  -0.04478  -0.08607
  14   29424.2    339.9   0.057285791   0.64094  -0.58866  -0.02289   0.54213
  15   29468.9    339.3   0.009544024   0.10662  -0.00909   0.02003  -0.32579
  16   29879.1    334.7   0.133869158   1.47499   0.23149   0.99593  -0.65539
  17   30127.6    331.9   0.005251106   0.05738   0.11605  -0.15143  -0.14486
  18   30323.4    329.8   0.843851849   9.16144  -0.58073   2.96448  -0.18993
  19   30924.3    323.4   0.071042000   0.75629  -0.55201   0.01311   0.67187
  20   31408.4    318.4   0.252646491   2.64815  -1.01511   0.59853   1.12226
  21   31650.8    315.9   0.128546234   1.33706  -0.03905   1.12717  -0.25500
  22   31734.2    315.1   0.302311227   3.13619  -0.30649  -1.49462   0.89910
  23   31840.4    314.1   0.001064777   0.01101   0.05988  -0.07339  -0.04514
  24   32455.6    308.1   0.235589825   2.38969   0.89501  -0.60373  -1.10642
  25   32526.6    307.4   0.340193083   3.44320  -1.04380   0.18993   1.52236
  26   33009.4    302.9   0.003764833   0.03755  -0.09445  -0.15434   0.06933
  27   33285.7    300.4   0.120133746   1.18818  -0.26980  -0.84605   0.63213
  28   33399.9    299.4   0.002892323   0.02851  -0.14549  -0.00064  -0.08568
  29   33718.6    296.6   0.005006402   0.04888  -0.03176  -0.17923   0.12549
  30   33866.6    295.3   0.024831332   0.24138   0.17462   0.26817  -0.37280
  31   34121.7    293.1   0.014507320   0.13997  -0.00426  -0.17211   0.33216
  32   34383.6    290.8   0.002271948   0.02175  -0.09950   0.10593   0.02516
  33   34580.8    289.2   0.003220603   0.03066  -0.04618  -0.15354  -0.07037
  34   34672.2    288.4   0.219672449   2.08579  -0.63521   1.07182   0.73040
  35   35128.3    284.7   0.102363928   0.95932   0.20964   0.77958  -0.55464
  36   35817.8    279.2   0.576352368   5.29743  -1.45460   0.21699   1.77045
  37   36363.4    275.0   0.001204600   0.01091   0.10045   0.00134  -0.02854
  38   36518.0    273.8   0.014936956   0.13466  -0.11439  -0.34089  -0.07324
  39   36536.3    273.7   0.012040770   0.10849  -0.18305   0.27373  -0.00757
  40   36673.2    272.7   0.065903267   0.59161   0.44814   0.17489  -0.60016
  41   36818.4    271.6   0.225815645   2.01913  -0.82155  -0.13212   1.15184
  42   37055.6    269.9   0.192036450   1.70610  -0.73073   0.64123   0.87233
  43   37293.2    268.1   0.054775101   0.48354   0.46643  -0.37138  -0.35785
  44   37311.2    268.0   0.022054665   0.19460   0.31235  -0.16268  -0.26565
  45   37524.4    266.5   0.036065189   0.31641  -0.37430   0.14867   0.39269
  46   37862.8    264.1   0.164912289   1.43389  -0.20713  -1.06242   0.51211
  47   38221.9    261.6   0.002328822   0.02006   0.13041   0.01565   0.05298
  48   38358.0    260.7   0.015199698   0.13045   0.09453   0.30586  -0.16723
  49   38849.1    257.4   0.001237185   0.01048  -0.02485   0.09924  -0.00427
  50   39402.5    253.8   0.012648887   0.10568   0.18934  -0.21134  -0.15865
  51   39633.3    252.3   0.042009364   0.34895  -0.34890   0.20833   0.42874
  52   39959.4    250.3   0.014755963   0.12157  -0.03728  -0.33362   0.09422
  53   40234.8    248.5   0.000467050   0.00382   0.01136  -0.06073  -0.00201

FINAL SINGLE POINT ENERGY     -4482.838981627959

DIPOLE MOMENT
-------------
                                X             Y             Z
Electronic contribution:     12.52067       0.29110     -12.13085
Nuclear contribution   :    -15.41660       0.70757      15.76447
                        -----------------------------------------
Total Dipole Moment    :     -2.89593       0.99867       3.63362
                        -----------------------------------------
Magnitude (a.u.)       :      4.75257
Magnitude (Debye)      :     12.08009

Rotational constants in cm-1:     0.002903     0.000300     0.000272
Rotational constants in MHz :    87.043730     8.986694     8.163945

                             ****ORCA TERMINATED NORMALLY****
TOTAL RUN TIME: 0 days 0 hours 7 minutes 49 seconds 188 msec
